Membrane in water
40155
    1TCq1    O1    1   2.807   0.468  11.385 -0.1533 -0.0726  0.8834
    1TCq1    C1    2   2.821   0.521  11.511 -0.5065  0.0054  0.2320
    1TCq1    O2    3   2.899   0.613  11.545 -0.1721 -0.2340 -0.1999
    1TCq1    C2    4   2.708   0.482  11.591 -0.4630  0.0339 -0.0093
    1TCq1    C3    5   2.661   0.582  11.675 -0.2663  0.3939  0.2467
    1TCq1    C4    6   2.543   0.562  11.745 -0.5692  0.7058  0.3710
    1TCq1    C5    7   2.472   0.444  11.730 -0.0775  0.2954 -0.8103
    1TCq1    C6    8   2.527   0.353  11.643  0.1138 -0.7716 -0.2201
    1TCq1    C7    9   2.652   0.364  11.576 -0.3392  0.6195  0.4636
    1TCq1    C8   10   2.444   0.228  11.622 -0.8394  0.0791  0.8798
    1TCq1    O4   11   2.368   0.209  11.717 -0.7600 -0.1926  0.4348
    1TCq1    C9   12   2.501   0.677  11.825  0.0402 -0.6363 -0.1390
    1TCq1    O5   13   2.393   0.668  11.884  0.2162  0.4778  0.2957
    1TCq1    O6   14   2.590   0.759  11.863  0.5327  0.1301 -0.4305
    1TCq1    H1   15   2.734   0.403  11.381  0.5110 -0.8070  0.5361
    1TCq1    H2   16   2.706   0.681  11.676  1.4381 -0.3838  0.7691
    1TCq1    H3   17   2.373   0.427  11.772  0.0696  1.7767  0.1331
    1TCq1    H4   18   2.692   0.283  11.517 -2.7506  1.9822 -3.0656
    2MPD2     C   19   2.269   4.547  11.378  0.4748  0.5710  0.8836
    2MPD2    C1   20   2.229   4.599  11.501 -0.4213 -0.6935  0.2994
    2MPD2    C2   21   2.293   4.710  11.549  0.5291  0.5361 -0.2910
    2MPD2    C3   22   2.401   0.039  11.477  0.3279  0.5252 -0.9139
    2MPD2    C4   23   2.436   4.713  11.359  0.4852  0.2923  0.0652
    2MPD2    C5   24   2.369   4.602  11.307  0.1542  0.5823  0.1700
    2MPD2     H   25   2.264   0.022  11.646  2.7264 -0.8653  0.9019
    2MPD2    H1   26   2.512   0.037  11.300  0.7296 -0.7068 -0.4440
    2MPD2    H2   27   2.227   4.456  11.336 -0.0829  1.2098  0.0393
    2MPD2    H3   28   2.399   4.560  11.211 -2.4643  1.3649 -0.9952
    2MPD2     N   29   2.468   0.159  11.508 -0.8006  0.0461  0.2591
    2MPD2    H5   30   2.528   0.200  11.437 -0.7287  0.1759  0.3946
    2MPD2    N1   31   2.126   4.539  11.585  0.6981  0.7577  0.0801
    2MPD2    H7   32   2.103   4.583  11.673  0.2656 -0.8618  0.7840
    3TCq1    O1   33   1.196   4.456  11.421  0.3463 -0.6216 -0.1619
    3TCq1    C1   34   1.219   4.520  11.537  0.2748 -0.1712  0.5682
    3TCq1    O2   35   1.164   4.489  11.643 -0.2229 -0.1053  0.0249
    3TCq1    C2   36   1.253   4.658  11.508 -0.1830 -0.2352 -0.3126
    3TCq1    C3   37   1.359   4.697  11.430 -0.3672 -0.4577  0.2612
    3TCq1    C4   38   1.396   0.109  11.437 -0.3897  0.2862  0.1345
    3TCq1    C5   39   1.327   0.200  11.510  0.2763 -1.0398  0.2104
    3TCq1    C6   40   1.226   0.155  11.588  0.2011  0.8152 -0.1808
    3TCq1    C7   41   1.198   0.022  11.592 -0.7539  0.1972 -0.0186
    3TCq1    C8   42   1.174   0.237  11.693 -0.2060 -0.0039  0.3183
    3TCq1    O4   43   1.130   0.188  11.796  0.5878 -0.2333 -0.0106
    3TCq1    C9   44   1.511   0.157  11.361  0.1051 -0.3393 -0.0376
    3TCq1    O5   45   1.576   0.077  11.286  0.1684  0.4609  0.5564
    3TCq1    O6   46   1.552   0.271  11.395  0.3626  0.2214  0.6762
    3TCq1    H1   47   1.203   4.511  11.340 -3.5813  1.0889  0.6721
    3TCq1    H2   48   1.418   4.627  11.372  0.6121  1.5609 -1.1766
    3TCq1    H3   49   1.357   0.304  11.504  0.8526 -1.2896 -1.3414
    3TCq1    H4   50   1.122   4.719  11.664  0.5390 -2.3016  0.3722
    4MPD2     C   51   0.971   0.675  11.848  0.3376 -0.4147  0.4640
    4MPD2    C1   52   1.030   0.697  11.731  0.8527 -0.3270  0.5074
    4MPD2    C2   53   1.096   0.591  11.674  0.6058 -0.6925 -0.4432
    4MPD2    C3   54   1.107   0.468  11.731  0.2511  0.2134  0.3130
    4MPD2    C4   55   1.064   0.451  11.859  0.2886  0.4861 -0.5970
    4MPD2    C5   56   0.988   0.553  11.915 -0.0940  0.0135  0.2983
    4MPD2     H   57   1.138   0.603  11.574  1.6704  3.4950  0.4932
    4MPD2    H1   58   1.078   0.363  11.921  1.0055  1.6304  0.8576
    4MPD2    H2   59   0.898   0.743  11.891 -0.7444 -0.7220 -0.8852
    4MPD2    H3   60   0.943   0.540  12.013 -0.9557  2.1474  0.1808
    4MPD2     N   61   1.175   0.374  11.659 -0.4043  0.2648 -1.2381
    4MPD2    H5   62   1.202   0.392  11.563  1.2347 -0.7655 -0.9748
    4MPD2    N1   63   1.017   0.814  11.647 -0.4831 -0.2445  0.6232
    4MPD2    H7   64   1.043   0.802  11.550 -0.1107  0.0067  0.6885
    5TCq1    O1   65   0.943   1.945  11.301 -0.6723  0.0409  0.0225
    5TCq1    C1   66   1.065   1.925  11.267 -0.4063 -0.3925  0.7746
    5TCq1    O2   67   1.125   1.822  11.294 -0.5127 -0.0625 -0.4840
    5TCq1    C2   68   1.114   2.026  11.171  0.7960 -0.3854  0.6098
    5TCq1    C3   69   1.046   2.151  11.165  0.0001  0.2238 -0.2874
    5TCq1    C4   70   1.105   2.240  11.082 -0.0440 -0.3021  0.7745
    5TCq1    C5   71   1.221   2.218  11.016  0.5807  0.1487  0.1818
    5TCq1    C6   72   1.282   2.097  11.022  0.2039 -0.1577 -0.0649
    5TCq1    C7   73   1.232   2.001  11.110 -0.4513 -0.8257 -0.7671
    5TCq1    C8   74   1.415   2.076  10.967  0.0503  0.1530 -0.5890
    5TCq1    O4   75   1.488   1.992  11.022 -0.2102  0.0153 -0.3518
    5TCq1    C9   76   1.051   2.370  11.081 -0.6162 -0.4942  0.5611
    5TCq1    O5   77   0.929   2.373  11.095  0.0610  1.0217 -0.3769
    5TCq1    O6   78   1.127   2.459  11.043  0.3251  0.0385  0.6166
    5TCq1    H1   79   0.890   2.001  11.240 -0.5379 -1.5680 -1.5483
    5TCq1    H2   80   0.956   2.178  11.219  0.1483  1.6977 -0.7692
    5TCq1    H3   81   1.239   2.300  10.947 -0.6114  0.1040 -0.1774
    5TCq1    H4   82   1.287   1.911  11.133  3.3076  1.3865 -1.2144
    6MPD2     C   83   1.573   2.275  10.700 -0.3393 -0.5275  0.3749
    6MPD2    C1   84   1.561   2.171  10.789 -0.3389 -0.2948 -0.6748
    6MPD2    C2   85   1.663   2.076  10.801 -0.5766  0.5936 -0.7379
    6MPD2    C3   86   1.767   2.089  10.708  0.5219 -0.0992  0.1749
    6MPD2    C4   87   1.778   2.189  10.611 -0.4892  0.0290 -0.4866
    6MPD2    C5   88   1.676   2.287  10.609  0.1454  0.1959  0.1888
    6MPD2     H   89   1.661   1.993  10.871 -1.5176  1.9350  0.8272
    6MPD2    H1   90   1.866   2.210  10.551  0.0926 -1.2789 -0.1147
    6MPD2    H2   91   1.506   2.360  10.695  1.0927  0.6515  0.8376
    6MPD2    H3   92   1.683   2.377  10.549  0.3886 -0.3034 -0.5400
    6MPD2     N   93   1.867   1.986  10.724 -0.5255 -0.4722  0.8696
    6MPD2    H5   94   1.865   1.932  10.810  0.8519  0.4443  1.4807
    6MPD2    N1   95   1.446   2.165  10.867 -0.0711  0.1783  0.4231
    6MPD2    H7   96   1.372   2.226  10.832  1.1869  1.0588 -0.7214
    7TCq1    O1   97   3.398   1.760  13.027 -0.3480  0.2220 -0.5997
    7TCq1    C1   98   3.495   1.672  13.062  0.5887  0.1072  0.2687
    7TCq1    O2   99   3.476   1.562  13.115  0.5754  0.0133 -0.2633
    7TCq1    C2  100   3.612   1.730  13.014 -0.4772 -0.0256  0.0622
    7TCq1    C3  101   3.629   1.797  12.898  0.0084 -0.1654 -0.9424
    7TCq1    C4  102   3.747   1.839  12.845  0.1611  0.2193  0.3294
    7TCq1    C5  103   3.856   1.809  12.917 -0.2827  0.3580 -0.3654
    7TCq1    C6  104   3.848   1.730  13.028  0.1335 -0.6708  0.2940
    7TCq1    C7  105   3.727   1.695  13.079 -0.6733  0.7052  0.4526
    7TCq1    C8  106   3.962   1.653  13.063 -0.2213  0.2277  0.5636
    7TCq1    O4  107   3.945   1.542  13.115 -0.0510 -0.1988 -0.4653
    7TCq1    C9  108   3.755   1.916  12.725  0.7498  0.1215  0.2881
    7TCq1    O5  109   3.660   1.992  12.696  0.1811 -0.0591  0.0229
    7TCq1    O6  110   3.866   1.905  12.666 -0.4683  0.6704 -0.5488
    7TCq1    H1  111   3.438   1.841  12.990 -0.0875 -0.4303 -1.7528
    7TCq1    H2  112   3.542   1.821  12.837 -1.6328  0.3845  1.6002
    7TCq1    H3  113   3.953   1.850  12.888  1.2073 -2.3003  0.8896
    7TCq1    H4  114   3.723   1.621  13.159  1.5116  0.4520  0.3134
    8MPD2     C  115   4.458   1.615  13.177 -0.4956 -0.0563  0.2890
    8MPD2    C1  116   4.379   1.520  13.121  0.4755  0.5464  0.3395
    8MPD2    C2  117   4.248   1.553  13.091  0.0550  0.4237 -0.3949
    8MPD2    C3  118   4.201   1.685  13.111 -0.1137 -0.4749 -0.8682
    8MPD2    C4  119   4.288   1.771  13.167 -0.1661  0.6014  0.6126
    8MPD2    C5  120   4.410   1.736  13.199  0.0796 -0.1988 -0.5576
    8MPD2     H  121   4.184   1.481  13.043  0.7965  0.0953 -0.8832
    8MPD2    H1  122   4.252   1.868  13.201 -0.8075  0.7365 -0.4275
    8MPD2    H2  123   4.564   1.600  13.192 -0.6055 -1.9001 -0.8243
    8MPD2    H3  124   4.475   1.816  13.234 -1.1253  1.4787 -2.1393
    8MPD2     N  125   4.075   1.734  13.068  0.8622 -0.0533 -0.4555
    8MPD2    H5  126   4.065   1.833  13.048 -2.0417 -0.5391 -1.4445
    8MPD2    N1  127   4.431   1.390  13.093  0.1796 -0.0015  0.6058
    8MPD2    H7  128   4.529   1.373  13.112  0.2780  0.0119  0.1072
    9TCq1    O1  129   2.426   4.690  10.803  0.3290 -0.4727 -0.1790
    9TCq1    C1  130   2.289   4.685  10.802  0.2256 -0.2876  0.2965
    9TCq1    O2  131   2.210   4.650  10.712  0.2098  0.0133 -0.0879
    9TCq1    C2  132   2.240   0.004  10.934 -0.5866  0.0618 -0.3995
    9TCq1    C3  133   2.106   4.703  10.956  0.5215  0.0627  0.0859
    9TCq1    C4  134   2.052   0.021  11.075 -0.1126 -0.5632 -0.3919
    9TCq1    C5  135   2.120   0.102  11.162  0.0075  0.5811  0.9047
    9TCq1    C6  136   2.251   0.130  11.130 -0.7858  0.1605  0.2647
    9TCq1    C7  137   2.311   0.085  11.021  0.2965 -0.1763 -0.3375
    9TCq1    C8  138   2.307   0.253  11.184  0.4306  0.8805  0.7837
    9TCq1    O4  139   2.425   0.275  11.156 -0.7971 -0.1385 -0.5081
    9TCq1    C9  140   1.920   4.718  11.108 -0.3169 -0.6311  0.2003
    9TCq1    O5  141   1.856   4.631  11.043 -0.2838  0.0260  0.4301
    9TCq1    O6  142   1.861   0.072  11.189 -0.4849 -0.0895 -0.3890
    9TCq1    H1  143   2.475   4.695  10.887  0.5440  0.6798 -0.3645
    9TCq1    H2  144   2.045   4.649  10.884 -0.5451  0.0254  1.0174
    9TCq1    H3  145   2.066   0.132  11.251 -0.1890  1.5455  0.4537
    9TCq1    H4  146   2.411   0.118  10.994  0.3285 -0.0451 -0.0624
   10MPD2     C  147   2.379   0.508  11.314 -0.0898 -0.2578 -0.3943
   10MPD2    C1  148   2.263   0.440  11.343  0.3849 -0.0977  0.2057
   10MPD2    C2  149   2.191   0.473  11.454 -0.3468 -0.0833 -0.3176
   10MPD2    C3  150   2.237   0.563  11.545 -0.1465  0.2532  0.4320
   10MPD2    C4  151   2.346   0.641  11.513  0.4709  0.0225 -0.3933
   10MPD2    C5  152   2.419   0.612  11.396  0.2821  0.5127  0.0357
   10MPD2     H  153   2.098   0.419  11.471  0.0135 -0.9426 -1.0684
   10MPD2    H1  154   2.370   0.718  11.585 -0.7816  1.5669 -1.6545
   10MPD2    H2  155   2.429   0.502  11.218 -1.9443 -0.0568 -1.3960
   10MPD2    H3  156   2.495   0.680  11.360  1.1752 -1.4404 -1.7719
   10MPD2     N  157   2.175   0.595  11.667 -0.0745  0.8740 -1.0729
   10MPD2    H5  158   2.222   0.659  11.731 -0.4315  0.3673 -0.3078
   10MPD2    N1  159   2.226   0.315  11.277 -0.7647 -0.4783 -0.2677
   10MPD2    H7  160   2.136   0.273  11.299  0.5073 -3.2884 -0.4568
   11TCq1    O1  161   3.552   0.589  13.920  0.0347 -0.1411  0.1275
   11TCq1    C1  162   3.432   0.651  13.940 -0.3679 -0.5207  0.8734
   11TCq1    O2  163   3.403   0.722  14.033  0.0673 -0.1366 -0.2503
   11TCq1    C2  164   3.334   0.562  13.888  0.1456  0.2145  0.1414
   11TCq1    C3  165   3.340   0.529  13.751  0.1708 -0.2163 -0.3443
   11TCq1    C4  166   3.246   0.439  13.709 -0.2732  0.1115  0.4077
   11TCq1    C5  167   3.148   0.395  13.795  0.5957 -0.2391 -0.1151
   11TCq1    C6  168   3.126   0.463  13.915  0.0027  0.2298 -0.1829
   11TCq1    C7  169   3.229   0.536  13.970  0.0633 -0.3473 -0.2713
   11TCq1    C8  170   3.013   0.442  13.993  0.1567  0.6198  0.3046
   11TCq1    O4  171   3.004   0.497  14.101  0.0471 -0.5114 -0.3580
   11TCq1    C9  172   3.249   0.391  13.571  0.0440 -0.2826  0.0821
   11TCq1    O5  173   3.201   0.277  13.545 -0.1368 -0.3696 -0.2345
   11TCq1    O6  174   3.324   0.458  13.499 -0.5158  0.1081  0.3149
   11TCq1    H1  175   3.556   0.522  13.849 -1.6132  0.6071 -0.6676
   11TCq1    H2  176   3.418   0.555  13.680 -0.2139 -0.6324 -0.9255
   11TCq1    H3  177   3.091   0.312  13.756 -0.6338  0.7586 -0.4528
   11TCq1    H4  178   3.222   0.582  14.068 -0.7135  0.6979 -0.8250
   12MPD2     C  179   2.745   0.380  14.095 -0.2036  0.1354  0.2232
   12MPD2    C1  180   2.802   0.309  13.993 -0.7614  0.2914 -0.2277
   12MPD2    C2  181   2.729   0.205  13.940 -0.2925 -0.4245 -0.3403
   12MPD2    C3  182   2.605   0.164  13.989  0.6262 -0.2487 -0.1299
   12MPD2    C4  183   2.548   0.240  14.078 -0.0580  0.1721  0.3157
   12MPD2    C5  184   2.619   0.342  14.132 -0.9305 -0.2169  0.3423
   12MPD2     H  185   2.756   0.152  13.850 -0.9511  1.2583 -1.5357
   12MPD2    H1  186   2.444   0.226  14.107 -0.4668 -0.1507 -1.3005
   12MPD2    H2  187   2.786   0.470  14.139 -2.2016 -0.4011  3.1152
   12MPD2    H3  188   2.572   0.413  14.197 -0.6590  0.6439 -0.3971
   12MPD2     N  189   2.537   0.050  13.937 -0.2074 -0.7423 -0.5856
   12MPD2    H5  190   2.443   0.025  13.965  0.1353  1.7487  2.8783
   12MPD2    N1  191   2.931   0.340  13.946 -0.1648 -0.5767 -0.2775
   12MPD2    H7  192   2.967   0.297  13.862 -1.0465 -0.9823 -0.4449
   13TCq1    O1  193   2.233   4.348  11.032  0.3080 -0.1284  0.3428
   13TCq1    C1  194   2.145   4.365  10.930  0.4093 -0.6629  0.6843
   13TCq1    O2  195   2.177   4.388  10.813  0.7484  0.0571 -0.5905
   13TCq1    C2  196   2.017   4.314  10.963 -0.1916  0.1083  0.1935
   13TCq1    C3  197   1.936   4.268  10.870 -0.3736  0.3402  0.2508
   13TCq1    C4  198   1.806   4.242  10.902  0.1942 -0.3254 -0.0962
   13TCq1    C5  199   1.766   4.268  11.031  0.0906  0.0349 -0.3708
   13TCq1    C6  200   1.855   4.314  11.124 -0.3067 -0.2756  0.3102
   13TCq1    C7  201   1.980   4.335  11.092 -0.5158 -0.6839  0.0561
   13TCq1    C8  202   1.810   4.362  11.253  0.8269  0.5769 -0.4815
   13TCq1    O4  203   1.832   4.480  11.279 -0.3337 -0.4788  0.2252
   13TCq1    C9  204   1.713   4.177  10.811  0.1753 -0.2642  0.0141
   13TCq1    O5  205   1.600   4.136  10.852 -0.1814  0.2270 -0.0962
   13TCq1    O6  206   1.723   4.201  10.689 -0.3944 -0.1548  0.1924
   13TCq1    H1  207   2.197   4.303  11.111  0.3966  1.8445  1.5251
   13TCq1    H2  208   1.973   4.240  10.772  1.3585 -1.9317  1.5529
   13TCq1    H3  209   1.664   4.250  11.063  0.7221 -1.5835  0.6790
   13TCq1    H4  210   2.041   4.388  11.164  0.8934 -1.3153 -0.6773
   14MPD2     C  211   1.562   4.183  11.452 -0.0971 -0.4693 -0.4882
   14MPD2    C1  212   1.645   4.292  11.426  0.7805 -0.5006  0.1572
   14MPD2    C2  213   1.638   4.409  11.502  1.4466 -0.2171  0.3146
   14MPD2    C3  214   1.546   4.410  11.606  0.4352  0.6210  0.4248
   14MPD2    C4  215   1.474   4.294  11.632 -0.3447 -1.1070 -0.1496
   14MPD2    C5  216   1.485   4.179  11.559  0.0672 -0.0761 -0.2767
   14MPD2     H  217   1.697   4.496  11.475  1.1373  0.2583  1.1595
   14MPD2    H1  218   1.405   4.304  11.714  0.4404  0.2936  0.3392
   14MPD2    H2  219   1.564   4.096  11.387 -3.7947 -0.9004 -0.0518
   14MPD2    H3  220   1.424   4.090  11.571 -0.0026  0.1210  0.8501
   14MPD2     N  221   1.514   4.523  11.688 -0.2697 -0.2487  0.5232
   14MPD2    H5  222   1.435   4.506  11.749  0.4902 -1.4159  1.1787
   14MPD2    N1  223   1.725   4.273  11.312 -0.1266  0.5218 -0.0504
   14MPD2    H7  224   1.725   4.183  11.264 -0.4488  0.6190 -0.2376
   15TCq1    O1  225   3.803   4.358   2.023  0.0079 -0.5551  0.1132
   15TCq1    C1  226   3.798   4.245   1.946  0.1531 -0.3708  0.0989
   15TCq1    O2  227   3.885   4.164   1.921 -0.0645 -0.0723  0.0796
   15TCq1    C2  228   3.671   4.231   1.887 -0.8319 -0.0464  0.0524
   15TCq1    C3  229   3.576   4.324   1.915  0.3745  0.1508 -0.8546
   15TCq1    C4  230   3.489   4.353   1.816  0.3164  0.0809 -0.3360
   15TCq1    C5  231   3.480   4.270   1.704 -0.0184 -0.5611 -0.4258
   15TCq1    C6  232   3.582   4.178   1.682  0.1863 -0.0876  0.4387
   15TCq1    C7  233   3.683   4.159   1.772 -0.2536  0.2507 -0.3295
   15TCq1    C8  234   3.591   4.093   1.563  0.6014 -0.9206  0.0758
   15TCq1    O4  235   3.677   4.002   1.568 -0.1643  0.5112 -0.1738
   15TCq1    C9  236   3.384   4.443   1.840 -0.5287  0.0595  1.3511
   15TCq1    O5  237   3.410   4.536   1.922 -0.1994  0.3587 -0.1067
   15TCq1    O6  238   3.266   4.393   1.819 -0.0193  0.0122  0.4609
   15TCq1    H1  239   3.729   4.421   2.037  0.9681  0.2545  1.5313
   15TCq1    H2  240   3.577   4.386   2.004  0.7457  1.1692 -1.5684
   15TCq1    H3  241   3.397   4.294   1.639  1.5368  2.2117 -1.3687
   15TCq1    H4  242   3.774   4.110   1.738 -1.1659 -2.0898  0.6040
   16MPD2     C  243   3.354   4.079   1.287 -0.2522 -0.7751 -0.1451
   16MPD2    C1  244   3.460   4.036   1.364 -0.0591 -0.5099 -0.5574
   16MPD2    C2  245   3.537   3.933   1.321 -0.2568  0.2554 -1.2828
   16MPD2    C3  246   3.494   3.850   1.216 -0.4574 -0.3275 -0.2563
   16MPD2    C4  247   3.384   3.893   1.149  0.5177  0.1311 -0.0250
   16MPD2    C5  248   3.317   4.004   1.180  0.5467 -0.6535 -0.3095
   16MPD2     H  249   3.633   3.908   1.363 -2.0782 -2.6407  1.1488
   16MPD2    H1  250   3.350   3.831   1.067  0.2668 -0.0128  0.1868
   16MPD2    H2  251   3.290   4.162   1.312 -0.5085 -1.3573  1.1213
   16MPD2    H3  252   3.232   4.033   1.119  2.6128 -2.0131 -3.8257
   16MPD2     N  253   3.558   3.729   1.189 -0.5692 -0.8042 -0.4395
   16MPD2    H5  254   3.630   3.705   1.256 -1.6145  0.9977  1.3606
   16MPD2    N1  255   3.485   4.107   1.480  0.3962 -0.0488 -0.5084
   16MPD2    H7  256   3.429   4.189   1.501  0.1084  0.0080 -1.4714
   17TCq1    O1  257   1.025   3.820  11.066 -0.2172  0.1709  0.5067
   17TCq1    C1  258   1.086   3.706  11.026  0.2383  0.1306 -0.4095
   17TCq1    O2  259   1.115   3.610  11.097  1.3057  0.1537 -0.1671
   17TCq1    C2  260   1.194   3.751  10.945 -0.9084 -0.2321 -0.3620
   17TCq1    C3  261   1.168   3.828  10.835  0.0450  1.1622 -0.0789
   17TCq1    C4  262   1.281   3.892  10.778  0.4073 -0.4548  0.2769
   17TCq1    C5  263   1.410   3.864  10.813 -0.0973 -0.3630 -0.4098
   17TCq1    C6  264   1.426   3.787  10.921  0.2013  0.1581  0.1843
   17TCq1    C7  265   1.319   3.744  10.998 -0.0474  0.0794  0.6930
   17TCq1    C8  266   1.556   3.725  10.963 -0.0924  0.0866  0.4401
   17TCq1    O4  267   1.560   3.672  11.073  0.5719  0.7221 -0.1005
   17TCq1    C9  268   1.255   3.971  10.662 -0.7977  0.6332  0.3034
   17TCq1    O5  269   1.137   3.985  10.614  0.3079 -0.5686 -0.5324
   17TCq1    O6  270   1.351   4.038  10.628  0.3708 -0.3806 -0.4341
   17TCq1    H1  271   1.044   3.882  10.993  1.1371 -0.3376  0.4292
   17TCq1    H2  272   1.071   3.851  10.791 -1.0709  0.5259  2.0651
   17TCq1    H3  273   1.497   3.889  10.753 -0.6949  0.7297 -0.8041
   17TCq1    H4  274   1.327   3.680  11.085 -1.7503 -1.4566 -0.2965
   18MPD2     C  275   1.829   3.633  11.010 -0.9133  0.0852 -0.2114
   18MPD2    C1  276   1.798   3.718  10.906 -0.2347 -0.3326  0.0488
   18MPD2    C2  277   1.897   3.773  10.828 -0.0495 -0.2017 -0.2537
   18MPD2    C3  278   2.027   3.737  10.847 -0.2037 -0.5373  0.0893
   18MPD2    C4  279   2.064   3.654  10.953 -0.6011 -0.1833 -0.8079
   18MPD2    C5  280   1.962   3.611  11.031 -0.1018  0.4624  0.8789
   18MPD2     H  281   1.864   3.843  10.751 -1.5832 -0.3921  0.2320
   18MPD2    H1  282   2.170   3.637  10.969 -0.8303 -1.1387 -0.3202
   18MPD2    H2  283   1.752   3.597  11.077 -0.7471 -0.3286 -0.2402
   18MPD2    H3  284   1.986   3.540  11.110  1.6465 -0.1889 -0.2136
   18MPD2     N  285   2.130   3.785  10.767  0.2121 -0.3990  0.4868
   18MPD2    H5  286   2.218   3.734  10.777  0.4103 -0.6607 -2.7595
   18MPD2    N1  287   1.660   3.764  10.880 -0.0227  0.1551  0.4463
   18MPD2    H7  288   1.641   3.833  10.808 -0.5390 -1.3282 -0.8279
   19TMC2    C1  289   3.894   0.145  13.272 -0.2375 -0.3987 -0.5085
   19TMC2    C2  290   3.842   0.271  13.239  0.5645  0.3445 -0.0889
   19TMC2    C3  291   3.709   0.277  13.207 -0.4337  0.5934 -0.2484
   19TMC2    C4  292   3.814   0.032  13.279 -0.0502 -0.5727 -0.1104
   19TMC2    C5  293   3.682   0.052  13.244 -0.3004  0.1544  0.0760
   19TMC2    C6  294   3.625   0.170  13.209 -0.3908 -0.2638 -0.7091
   19TMC2     C  295   4.007   0.153  13.359  0.6261 -0.2900 -0.6119
   19TMC2     O  296   4.104   0.225  13.337  0.0899 -0.1843 -0.5912
   19TMC2     H  297   3.892   0.365  13.255  0.5331  0.4831 -0.7992
   19TMC2    H1  298   3.857   4.659  13.298  1.0418  0.2471  1.6445
   19TMC2    H2  299   3.530   0.171  13.157 -0.4971 -0.0568 -0.5092
   19TMC2    C7  300   3.600   4.658  13.267  0.0764  0.2045  0.4068
   19TMC2    C8  301   3.664   0.403  13.153 -0.1988 -0.5243 -0.0081
   19TMC2    O1  302   3.651   4.545  13.251 -0.0369 -0.2772 -0.1690
   19TMC2    O2  303   3.738   0.494  13.121  0.2907 -0.0330 -0.4486
   19TMC2    O5  304   3.534   0.414  13.172 -0.0007  0.1103  0.0601
   19TMC2    H5  305   3.486   0.344  13.221 -0.3445  0.9140  0.8778
   20MPD2     C  306   4.192   0.093  13.582 -0.1912  0.7498  0.5758
   20MPD2    C1  307   4.066   0.040  13.575  0.1502 -0.4844 -0.7027
   20MPD2    C2  308   4.017   4.700  13.682  0.0142  0.2044  0.0420
   20MPD2    C3  309   4.094   4.683  13.799  0.2098  0.2618 -0.2445
   20MPD2    C4  310   4.217   0.010  13.806 -0.8585 -0.6416 -0.1658
   20MPD2    C5  311   4.264   0.085  13.702  0.4195  0.8076  1.3343
   20MPD2     H  312   3.916   4.662  13.682 -0.0336  0.3056  2.4038
   20MPD2    H1  313   4.278   0.009  13.895 -0.8998 -1.9112 -0.1461
   20MPD2    H2  314   4.236   0.144  13.497  3.1579  0.0051  1.8637
   20MPD2    H3  315   4.365   0.124  13.701  1.4760 -1.9976 -0.6028
   20MPD2     N  316   4.054   4.621  13.922  0.7009 -0.2092  0.0148
   20MPD2    H5  317   4.116   4.645  13.998  2.2529 -0.8631 -1.0325
   20MPD2    N1  318   3.984   0.068  13.465  0.0334  0.3284 -0.5383
   20MPD2    H7  319   3.887   0.036  13.469 -0.9902  3.5671  0.0378
   21MPD2     C  320   1.518   0.516  13.958 -0.0655 -0.8639 -0.0207
   21MPD2    C1  321   1.538   0.386  13.902  0.2929 -1.4959 -0.0740
   21MPD2    C2  322   1.435   0.297  13.920 -0.5417 -0.3258  0.7904
   21MPD2    C3  323   1.324   0.319  14.005 -0.3751 -0.3396  0.1116
   21MPD2    C4  324   1.313   0.437  14.066  0.2340 -0.8022  0.0635
   21MPD2    C5  325   1.409   0.538  14.038 -0.0880 -0.7533 -0.1273
   21MPD2     H  326   1.445   0.199  13.876 -1.7505  1.5839 -3.7683
   21MPD2    H1  327   1.230   0.465  14.130 -0.3340 -1.1060 -0.5399
   21MPD2    H2  328   1.586   0.598  13.937 -2.5822  1.1119 -0.5354
   21MPD2    H3  329   1.394   0.630  14.093  0.9074 -1.1070  0.7339
   21MPD2     N  330   1.230   0.228  14.040  0.5765 -0.0928 -0.5235
   21MPD2    H5  331   1.144   0.258  14.085  0.0315  0.3817 -1.9058
   21MPD2    N1  332   1.657   0.347  13.830 -0.5127 -0.6175  0.0304
   21MPD2    H7  333   1.654   0.255  13.787 -2.2135 -1.7083  2.4951
   22TCq2    C1  334   1.237   0.097  14.010  0.3268  0.1197 -0.3893
   22TCq2    O2  335   1.329   0.037  13.958  0.0177 -0.2299  0.1563
   22TCq2    C2  336   1.125   0.015  14.050 -0.2654 -0.0147 -0.8922
   22TCq2    C3  337   1.165   4.610  14.086  0.0093 -0.4636 -0.0879
   22TCq2    C4  338   1.092   4.544  14.180  0.7812 -0.1514  0.2250
   22TCq2    C5  339   0.982   4.605  14.230  0.2276 -0.2704  0.0046
   22TCq2    C6  340   0.952   0.006  14.197 -0.7239  0.2352 -0.5778
   22TCq2    C7  341   1.023   0.077  14.111  0.2417 -0.6606 -0.3554
   22TCq2    C8  342   0.845   0.069  14.285 -0.3021 -0.4202 -0.1298
   22TCq2    O4  343   0.836   0.025  14.395  0.5135  0.6119  0.1123
   22TCq2    C9  344   1.139   4.417  14.224 -0.1198 -0.5779 -0.8098
   22TCq2    O5  345   1.226   4.357  14.154  0.6150  0.4426  0.5771
   22TCq2    O6  346   1.100   4.382  14.340 -0.2329  0.0913  0.7842
   22TCq2    H2  347   1.254   4.565  14.044 -0.7224 -0.2678 -1.8316
   22TCq2    H3  348   0.932   4.543  14.303 -2.1171 -1.3324 -2.5078
   22TCq2    H4  349   1.001   0.183  14.097 -0.4311 -0.8659 -0.8303
   23MPD2     C  350   2.816   1.494  14.615 -1.0641  0.2265 -0.3444
   23MPD2    C1  351   2.707   1.433  14.673 -0.0849 -0.3462  0.1221
   23MPD2    C2  352   2.588   1.483  14.648 -1.1546  0.0185 -0.2020
   23MPD2    C3  353   2.569   1.586  14.555 -0.9510 -0.4807 -0.0176
   23MPD2    C4  354   2.675   1.645  14.493 -0.1276  0.3768  0.2962
   23MPD2    C5  355   2.797   1.594  14.521  0.5327  0.3652  1.1615
   23MPD2     H  356   2.510   1.438  14.708 -0.0744 -2.9736 -1.0348
   23MPD2    H1  357   2.658   1.723  14.419 -1.9024  0.0281  0.3463
   23MPD2    H2  358   2.918   1.465  14.636 -0.8367  0.7338 -0.7451
   23MPD2    H3  359   2.886   1.638  14.476 -0.4589  1.3238  0.1326
   23MPD2     N  360   2.435   1.635  14.526  0.6328  0.0984  0.3134
   23MPD2    H5  361   2.429   1.716  14.465  0.3462  0.1393  0.3949
   23MPD2    N1  362   2.715   1.340  14.776 -0.1539  0.2122  0.0045
   23MPD2    H7  363   2.628   1.329  14.828  0.1510 -2.2842  0.0151
   24TCq2    C1  364   2.323   1.575  14.571  0.0336  0.2933  0.0068
   24TCq2    O2  365   2.309   1.482  14.651 -0.4764 -0.2976  0.2858
   24TCq2    C2  366   2.200   1.638  14.528 -0.7887 -0.2404 -0.1878
   24TCq2    C3  367   2.112   1.669  14.620  0.0089  0.3458 -0.1715
   24TCq2    C4  368   1.975   1.660  14.598  1.4113  0.2609 -0.3960
   24TCq2    C5  369   1.932   1.616  14.479  0.1716 -0.8054  0.6580
   24TCq2    C6  370   2.027   1.585  14.389  0.4217  0.2258  0.6916
   24TCq2    C7  371   2.160   1.597  14.403 -0.0677 -0.6614  0.3383
   24TCq2    C8  372   1.996   1.501  14.277  0.2979 -0.0898  0.0137
   24TCq2    O4  373   2.092   1.442  14.224  0.1305 -0.0682 -0.0024
   24TCq2    C9  374   1.889   1.693  14.704  0.7280 -0.2374 -0.2153
   24TCq2    O5  375   1.937   1.757  14.799 -0.9311 -0.0642 -0.2452
   24TCq2    O6  376   1.765   1.677  14.673 -0.2593  0.2938  0.0315
   24TCq2    H2  377   2.146   1.685  14.722  0.8677 -0.7746 -0.2798
   24TCq2    H3  378   1.825   1.610  14.462  0.2450 -1.6959  0.5056
   24TCq2    H4  379   2.232   1.560  14.332 -1.8433  0.9978 -2.3349
   25TMC2    C1  380   1.694   3.391  11.336  0.0666  1.0243 -0.3384
   25TMC2    C2  381   1.827   3.434  11.331  0.2306  0.2281 -0.0530
   25TMC2    C3  382   1.876   3.504  11.431 -0.4043  0.3202  0.9524
   25TMC2    C4  383   1.615   3.428  11.445 -0.4382  0.3940  0.0161
   25TMC2    C5  384   1.670   3.503  11.543  0.1989 -0.4168 -0.7220
   25TMC2    C6  385   1.800   3.543  11.542  0.2525  0.1435  0.2333
   25TMC2     C  386   1.660   3.273  11.257 -0.4894  0.5500 -0.2501
   25TMC2     O  387   1.758   3.218  11.209  0.1012 -0.2960  0.4376
   25TMC2     H  388   1.885   3.417  11.241  0.8274 -0.4891  0.4728
   25TMC2    H1  389   1.517   3.384  11.456  0.5072 -1.6323  0.2688
   25TMC2    H2  390   1.837   3.610  11.619  2.0868 -0.3359 -0.2309
   25TMC2    C7  391   1.597   3.563  11.655 -0.2272  0.4836 -0.5099
   25TMC2    C8  392   2.004   3.556  11.420  0.1085  0.0072 -0.4618
   25TMC2    O1  393   1.659   3.564  11.763 -0.2319 -0.4723 -0.3838
   25TMC2    O2  394   2.100   3.508  11.356 -0.0076 -0.2903 -0.5475
   25TMC2    O5  395   1.974   3.684  11.420  0.1987  0.4742  0.2495
   25TMC2    H5  396   1.876   3.684  11.422  0.1632  0.9865 -1.6302
   26MPD2     C  397   1.352   2.868  11.167  0.4215  0.0833 -0.5032
   26MPD2    C1  398   1.276   2.978  11.178  0.4149 -0.4538  0.4550
   26MPD2    C2  399   1.339   3.094  11.216 -0.0187 -0.4592  0.4521
   26MPD2    C3  400   1.473   3.108  11.210 -0.7307  0.1272 -0.5681
   26MPD2    C4  401   1.553   3.006  11.165 -0.4614 -0.0199 -0.2256
   26MPD2    C5  402   1.489   2.887  11.146 -0.0714  0.2590  0.0157
   26MPD2     H  403   1.282   3.183  11.241 -1.8559 -1.6687  0.5669
   26MPD2    H1  404   1.660   3.014  11.153 -0.4752  1.8704  0.9243
   26MPD2    H2  405   1.308   2.771  11.149  0.9376 -0.2774  0.2351
   26MPD2    H3  406   1.536   2.791  11.123  1.1891  1.2933 -1.8061
   26MPD2     N  407   1.530   3.239  11.252 -0.1568  0.2165 -0.1807
   26MPD2    H5  408   1.462   3.296  11.301 -0.2266 -1.9040  2.1847
   26MPD2    N1  409   1.133   2.968  11.167 -0.0763 -0.2683 -0.6491
   26MPD2    H7  410   1.091   2.876  11.154  1.2797 -1.1037  0.9280
   27TMC2    C1  411   0.257   0.912  11.662 -0.2489  0.2700 -0.3718
   27TMC2    C2  412   0.205   0.973  11.551  0.2919  0.1657 -0.2618
   27TMC2    C3  413   0.219   1.111  11.543 -0.0703  1.2599  0.0366
   27TMC2    C4  414   0.335   0.975  11.751 -0.0065  0.1875  0.2800
   27TMC2    C5  415   0.333   1.119  11.747  0.0267 -0.0556  0.3416
   27TMC2    C6  416   0.277   1.188  11.641 -0.1242 -0.5364 -0.4009
   27TMC2     C  417   0.211   0.780  11.697  0.1462 -0.0008  0.1456
   27TMC2     O  418   0.171   0.710  11.601  0.4105  0.3753  0.8225
   27TMC2     H  419   0.147   0.923  11.475  0.3038 -1.5332  0.8522
   27TMC2    H1  420   0.386   0.909  11.820  1.3411  0.8106 -0.1124
   27TMC2    H2  421   0.283   1.296  11.638 -2.9568 -0.3579  0.0725
   27TMC2    C7  422   0.353   1.170  11.885 -0.0629  0.0045 -0.0072
   27TMC2    C8  423   0.187   1.162  11.414  0.1412  0.6688  0.7355
   27TMC2    O1  424   0.394   1.085  11.963  0.1466 -0.0473  0.1692
   27TMC2    O2  425   0.072   1.162  11.374 -0.4700 -0.6105  0.0355
   27TMC2    O5  426   0.285   1.113  11.336 -0.3826 -0.2213  0.0891
   27TMC2    H5  427   0.361   1.083  11.390 -1.0512  1.4894  2.0172
   28MPD2     C  428   4.679   0.473  12.031  0.2994 -0.5076 -0.2275
   28MPD2    C1  429   4.703   0.600  12.080  0.4762  0.5384  0.2960
   28MPD2    C2  430   0.064   0.691  12.019 -1.0842  0.1852 -0.2918
   28MPD2    C3  431   0.109   0.667  11.894  0.3481  0.2519  0.4024
   28MPD2    C4  432   0.080   0.549  11.832 -0.1329  0.6714 -0.4856
   28MPD2    C5  433   0.006   0.454  11.907  0.3025 -0.3894  0.2587
   28MPD2     H  434   0.087   0.790  12.058 -0.1480 -0.0796 -0.1877
   28MPD2    H1  435   0.089   0.540  11.724 -0.0727  1.4853 -0.5467
   28MPD2    H2  436   4.613   0.396  12.071  1.4363 -1.2572  0.1908
   28MPD2    H3  437   4.698   0.360  11.863 -2.5036 -0.2818  2.0786
   28MPD2     N  438   0.181   0.770  11.832 -0.1814  0.7350 -0.2055
   28MPD2    H5  439   0.205   0.848  11.892 -0.8256  1.4621 -0.9061
   28MPD2    N1  440   4.639   0.627  12.202  0.2200 -0.6291 -0.4032
   28MPD2    H7  441   4.602   0.542  12.245  0.1798  0.6438  2.0868
   29MPD2     C  442   4.321   3.087  14.513  0.0416 -0.0238  0.0988
   29MPD2    C1  443   4.438   3.095  14.445  0.3985 -0.2673 -0.0176
   29MPD2    C2  444   4.538   3.164  14.509 -0.3788 -0.1696  0.0002
   29MPD2    C3  445   4.527   3.217  14.635  1.0613  0.4052  0.0576
   29MPD2    C4  446   4.403   3.202  14.704  0.2177  0.6837  0.2941
   29MPD2    C5  447   4.304   3.125  14.640 -0.1896 -0.3922  0.2353
   29MPD2     H  448   4.632   3.178  14.458  0.1211  0.3413  1.0707
   29MPD2    H1  449   4.401   3.220  14.811 -0.9336 -0.5706  0.4973
   29MPD2    H2  450   4.234   3.035  14.475  0.5318 -0.9848  0.2910
   29MPD2    H3  451   4.222   3.081  14.697  0.8035  0.6036  2.4189
   29MPD2     N  452   4.631   3.292  14.694 -0.1308 -0.1917  0.3204
   29MPD2    H5  453   4.618   3.336  14.784 -0.8303 -1.0303  0.6312
   29MPD2    N1  454   4.472   3.042  14.315  0.0942 -0.0889  0.0151
   29MPD2    H7  455   4.571   3.051  14.293  0.3907 -3.5028 -0.1019
   30TCq2    C1  456   0.039   3.313  14.640  0.0434  0.0285 -0.5823
   30TCq2    O2  457   0.094   3.277  14.538 -0.4501 -0.6673  0.4745
   30TCq2    C2  458   0.104   3.393  14.737  0.5416 -0.6464 -0.2179
   30TCq2    C3  459   0.071   3.387  14.869  1.0720 -0.0013  0.5342
   30TCq2    C4  460   0.131   3.474  14.956  0.5945  0.1884  0.0399
   30TCq2    C5  461   0.211   3.574  14.913 -0.2237  1.5998 -0.2663
   30TCq2    C6  462   0.248   3.570  14.784 -0.3634  0.1625  0.4471
   30TCq2    C7  463   0.199   3.480  14.694  0.2914  0.8570  0.5968
   30TCq2    C8  464   0.314   3.694  14.743  0.5573 -0.3175 -0.1617
   30TCq2    O4  465   0.354   3.767  14.832  0.3252 -0.6850  0.2034
   30TCq2    C9  466   0.114   3.456  15.096  0.0220 -0.1412  0.2022
   30TCq2    O5  467   0.011   3.389  15.128  0.5076  0.3480 -0.2276
   30TCq2    O6  468   0.163   3.535  15.181  0.4644  0.0567 -0.1172
   30TCq2    H2  469   0.009   3.306  14.904  1.2948 -0.2436  0.3613
   30TCq2    H3  470   0.257   3.636  14.989  2.2438 -1.3400  0.6401
   30TCq2    H4  471   0.211   3.487  14.586  3.1550  2.2604  1.0075
   31MPD2     C  472   2.694   1.762  14.863  0.4233  0.2472 -0.0067
   31MPD2    C1  473   2.566   1.795  14.827 -0.1546  0.2995 -0.7305
   31MPD2    C2  474   2.461   1.727  14.887  0.0380 -0.0978 -0.0876
   31MPD2    C3  475   2.488   1.624  14.971 -0.0148 -0.6615  0.2001
   31MPD2    C4  476   2.623   1.588  14.993  0.0986 -0.2552 -0.4354
   31MPD2    C5  477   2.723   1.661  14.945  0.1716 -0.9645 -0.7907
   31MPD2     H  478   2.357   1.749  14.869 -0.0425 -0.8217 -0.5022
   31MPD2    H1  479   2.654   1.508  15.060 -2.4760 -0.1352  0.9015
   31MPD2    H2  480   2.776   1.820  14.820 -0.8719  0.9303 -1.5552
   31MPD2    H3  481   2.826   1.627  14.958 -0.6477 -2.3930  2.0317
   31MPD2     N  482   2.376   1.570  15.030  0.1550  0.1957 -0.0208
   31MPD2    H5  483   2.285   1.613  15.015  0.2248  0.6136  0.7685
   31MPD2    N1  484   2.547   1.897  14.733  0.1339 -0.4577  0.8419
   31MPD2    H7  485   2.634   1.933  14.696  0.9711 -1.7836  1.5117
   32TCq2    C1  486   2.375   1.452  15.107  0.9243 -0.0046  0.0201
   32TCq2    O2  487   2.456   1.363  15.114 -0.2428 -0.2227 -0.6234
   32TCq2    C2  488   2.253   1.434  15.192 -0.2112  0.4982  0.5630
   32TCq2    C3  489   2.143   1.513  15.174 -0.1696  0.1567  0.2379
   32TCq2    C4  490   2.039   1.494  15.264 -0.6099 -0.1839 -0.4392
   32TCq2    C5  491   2.062   1.408  15.375 -0.3170 -0.3953  0.2234
   32TCq2    C6  492   2.180   1.336  15.383 -0.3031  0.6149  0.5874
   32TCq2    C7  493   2.273   1.344  15.289  0.3412 -0.0254 -0.3323
   32TCq2    C8  494   2.232   1.290  15.508 -0.1338  0.2209 -0.9786
   32TCq2    O4  495   2.331   1.213  15.507  0.6085 -0.3794 -0.1340
   32TCq2    C9  496   1.914   1.569  15.268  0.1267 -0.3133 -0.1420
   32TCq2    O5  497   1.895   1.641  15.169  0.5044  0.6162 -0.7859
   32TCq2    O6  498   1.837   1.560  15.366  0.2692 -0.0208 -0.2641
   32TCq2    H2  499   2.134   1.578  15.088  0.7028 -0.7553 -0.5468
   32TCq2    H3  500   1.990   1.391  15.454 -0.3459  1.2531  0.5502
   32TCq2    H4  501   2.374   1.315  15.315  0.7104  0.6357 -1.0319
   33MPD2     C  502   2.744   4.293  10.278 -0.3117  0.5220  0.4386
   33MPD2    C1  503   2.623   4.301  10.343  0.2605  0.0028 -0.3455
   33MPD2    C2  504   2.589   4.431  10.375 -0.0088 -0.6383 -0.1448
   33MPD2    C3  505   2.660   4.544  10.334  0.0070  0.4464  0.0647
   33MPD2    C4  506   2.780   4.531  10.264  0.0482  0.2124  0.0868
   33MPD2    C5  507   2.819   4.408  10.237 -0.1020 -0.2877  0.1653
   33MPD2     H  508   2.493   4.452  10.421 -0.9167 -2.0947 -1.4005
   33MPD2    H1  509   2.844   4.610  10.225 -3.8982  2.9330 -0.8933
   33MPD2    H2  510   2.783   4.195  10.251  2.1615  1.2474  1.3934
   33MPD2    H3  511   2.911   4.404  10.180  1.0432  1.7948  1.8641
   33MPD2     N  512   2.620   4.673  10.362  0.2795 -0.6021 -0.1119
   33MPD2    H5  513   2.667   0.020  10.308 -0.3874  1.4296  2.0066
   33MPD2    N1  514   2.558   4.182  10.384 -0.3489  0.3142  0.2202
   33MPD2    H7  515   2.606   4.095  10.362  1.2946  1.1861  0.3649
   34TCq2    C1  516   2.509   4.712  10.435 -0.1039 -0.6243 -0.3857
   34TCq2    O2  517   2.426   4.647  10.494 -0.4792 -0.1255  0.1422
   34TCq2    C2  518   2.479   0.125  10.411 -1.1344  0.2948  0.6072
   34TCq2    C3  519   2.357   0.163  10.436 -0.6762  0.3317  0.6537
   34TCq2    C4  520   2.322   0.295  10.422 -0.0609  0.0524 -0.9849
   34TCq2    C5  521   2.403   0.385  10.359 -0.5823  0.0403  0.8410
   34TCq2    C6  522   2.526   0.338  10.327 -0.1857 -0.9165  0.4261
   34TCq2    C7  523   2.573   0.216  10.353 -0.3971 -0.6344 -0.0080
   34TCq2    C8  524   2.619   0.441  10.285  0.1596 -0.3596 -0.6054
   34TCq2    O4  525   2.712   0.404  10.215  0.3659 -0.2810  0.1046
   34TCq2    C9  526   2.191   0.345  10.452  0.3958 -0.1489 -0.0040
   34TCq2    O5  527   2.103   0.256  10.483  0.2990  0.0829  0.0880
   34TCq2    O6  528   2.164   0.467  10.434  0.6260 -0.7975 -0.3335
   34TCq2    H2  529   2.279   0.097  10.472  0.1793 -1.3649 -0.5869
   34TCq2    H3  530   2.369   0.484  10.330  2.3717  1.1513  1.1474
   34TCq2    H4  531   2.679   0.197  10.353 -0.2584  0.1419 -1.6140
   35MPD2     C  532   4.257   1.519  11.774 -0.2233  0.0751 -0.6068
   35MPD2    C1  533   4.231   1.387  11.787 -0.0226  0.1040 -0.2254
   35MPD2    C2  534   4.129   1.339  11.708  0.0915 -0.3051  0.3405
   35MPD2    C3  535   4.076   1.409  11.605  0.3004  0.7220 -0.8871
   35MPD2    C4  536   4.101   1.544  11.591 -0.4531  0.4513 -0.3791
   35MPD2    C5  537   4.198   1.598  11.674 -0.5592  0.2440  0.2651
   35MPD2     H  538   4.096   1.235  11.708  0.4754 -0.4269 -0.6536
   35MPD2    H1  539   4.051   1.597  11.511  0.6019  0.7364 -0.8465
   35MPD2    H2  540   4.331   1.567  11.836 -3.1899  2.3693  1.1765
   35MPD2    H3  541   4.226   1.702  11.663  0.0815  0.1227  0.7079
   35MPD2     N  542   3.990   1.335  11.518  0.1013  0.9631 -0.3436
   35MPD2    H5  543   3.957   1.241  11.537  0.9676  1.0390  1.4696
   35MPD2    N1  544   4.303   1.308  11.888 -0.4342  0.8302 -0.6631
   35MPD2    H7  545   4.357   1.358  11.958 -0.3157 -1.5835  0.9708
   36TCq2    C1  546   3.950   1.379  11.390  0.0570  0.1573  0.1722
   36TCq2    O2  547   3.985   1.474  11.327 -0.1999  0.2380 -0.7080
   36TCq2    C2  548   3.854   1.285  11.322  0.2626  0.7311 -0.2787
   36TCq2    C3  549   3.850   1.279  11.178  0.0341  0.4515  0.5739
   36TCq2    C4  550   3.784   1.179  11.116 -0.1526 -0.2167 -0.5000
   36TCq2    C5  551   3.711   1.088  11.188  0.3840  0.2330  1.0080
   36TCq2    C6  552   3.725   1.090  11.323  0.4850  0.1811 -0.6131
   36TCq2    C7  553   3.793   1.182  11.391 -0.4995  0.5043  0.7195
   36TCq2    C8  554   3.678   0.973  11.392 -0.0690  0.1912  0.3294
   36TCq2    O4  555   3.605   0.907  11.324 -0.2347 -0.3049  0.5227
   36TCq2    C9  556   3.784   1.172  10.974 -0.0193 -0.0476 -0.6749
   36TCq2    O5  557   3.874   1.238  10.920 -0.0710  0.4018 -0.4399
   36TCq2    O6  558   3.697   1.096  10.914  0.2816  0.3182  0.1406
   36TCq2    H2  559   3.902   1.358  11.124  0.6444 -0.6083 -0.3631
   36TCq2    H3  560   3.663   1.006  11.136 -1.3021  1.0832  1.2022
   36TCq2    H4  561   3.770   1.195  11.496  1.3238  0.2623  1.1596
   37TMC2    C1  562   1.745   1.394  11.393  0.6578  0.0058 -0.2946
   37TMC2    C2  563   1.791   1.342  11.279 -0.6181  0.2181  0.3484
   37TMC2    C3  564   1.925   1.325  11.272  0.8281 -0.2261 -0.2504
   37TMC2    C4  565   1.828   1.436  11.493 -0.1148  0.6845  0.0803
   37TMC2    C5  566   1.963   1.425  11.481  0.8440 -0.1144 -0.5242
   37TMC2    C6  567   2.012   1.351  11.372 -0.4768  0.6129  0.5033
   37TMC2     C  568   1.600   1.382  11.411 -0.0694 -0.9478  0.3195
   37TMC2     O  569   1.537   1.333  11.318  0.0255 -0.1009  0.7383
   37TMC2     H  570   1.727   1.334  11.191  1.3034  1.4390 -1.1497
   37TMC2    H1  571   1.782   1.487  11.576  0.2295 -0.4672  0.9809
   37TMC2    H2  572   2.115   1.327  11.351 -1.0583 -2.0708  0.6695
   37TMC2    C7  573   2.046   1.471  11.588  0.0229  0.0245 -0.9441
   37TMC2    C8  574   1.989   1.299  11.145  0.4888 -0.2478  0.1078
   37TMC2    O1  575   1.994   1.521  11.686  0.0407  0.2238 -0.0556
   37TMC2    O2  576   2.082   1.218  11.134 -0.2868 -0.1198  0.0746
   37TMC2    O5  577   1.906   1.345  11.047  0.2507  0.7025  0.9509
   37TMC2    H5  578   1.839   1.416  11.062  0.6567  0.9966  1.3959
   38MPD2     C  579   1.154   1.457  11.675  0.7700 -0.2531 -0.1572
   38MPD2    C1  580   1.263   1.468  11.755  0.1691  0.2530  0.9909
   38MPD2    C2  581   1.387   1.454  11.706 -0.0385 -0.1964 -0.2396
   38MPD2    C3  582   1.416   1.427  11.575 -0.0711 -0.0558  0.3415
   38MPD2    C4  583   1.311   1.406  11.491  0.3278  0.3459  0.7347
   38MPD2    C5  584   1.182   1.426  11.542 -0.4260 -0.3831  0.6435
   38MPD2     H  585   1.473   1.480  11.767 -1.1832  0.7652  0.9894
   38MPD2    H1  586   1.325   1.375  11.389 -0.2574  0.5120  0.6045
   38MPD2    H2  587   1.050   1.468  11.705  0.9208 -0.4416  0.4452
   38MPD2    H3  588   1.099   1.405  11.476 -0.3719  1.0160  0.1359
   38MPD2     N  589   1.554   1.429  11.531  0.5983  0.2268  0.3038
   38MPD2    H5  590   1.626   1.455  11.598 -0.6999 -0.8737  2.1309
   38MPD2    N1  591   1.257   1.494  11.896 -0.8781 -0.0457 -0.7550
   38MPD2    H7  592   1.340   1.500  11.955 -1.0633  0.1466 -0.5128
   39MPD2     C  593   4.291   2.557   0.924  0.5453 -0.5003  0.0597
   39MPD2    C1  594   4.239   2.685   0.953  0.1750  0.3609  0.6781
   39MPD2    C2  595   4.101   2.707   0.959 -0.0603 -0.9646  0.0526
   39MPD2    C3  596   4.008   2.602   0.945  0.2020 -0.0286  0.4071
   39MPD2    C4  597   4.059   2.476   0.917 -0.7664 -0.7620 -0.3465
   39MPD2    C5  598   4.196   2.462   0.917 -0.1283  0.4011  0.2221
   39MPD2     H  599   4.060   2.807   0.970  2.3790 -0.1664  1.9159
   39MPD2    H1  600   3.993   2.390   0.924 -2.1535 -0.0684 -4.8492
   39MPD2    H2  601   4.397   2.539   0.915  0.5865  0.3074 -1.1847
   39MPD2    H3  602   4.224   2.357   0.922 -0.4943  0.4669  3.5696
   39MPD2     N  603   3.866   2.609   0.956 -0.1725  0.1088  0.5240
   39MPD2    H5  604   3.809   2.527   0.939 -1.8134  1.0947  1.2525
   39MPD2    N1  605   4.344   2.782   0.967 -0.1602  0.0966 -0.0269
   39MPD2    H7  606   4.432   2.735   0.988  0.9068  2.1604  0.0786
   40TCq2    C1  607   4.331   2.919   0.990  0.2986 -0.6920 -0.1672
   40TCq2    O2  608   4.232   2.991   0.980 -0.6268  0.2639  0.0226
   40TCq2    C2  609   4.460   2.982   1.012  0.3179  0.0262  0.2803
   40TCq2    C3  610   4.472   3.091   1.096 -0.3125 -0.0222  0.1599
   40TCq2    C4  611   4.591   3.143   1.111  0.5554  0.1371  0.3544
   40TCq2    C5  612   4.702   3.102   1.041 -0.2119  0.5444 -0.3131
   40TCq2    C6  613   4.684   2.999   0.952 -0.1038  0.0926  0.6452
   40TCq2    C7  614   4.562   2.940   0.929  0.2804  0.5508 -0.7728
   40TCq2    C8  615   0.064   2.977   0.847 -0.1637  0.4785 -0.0527
   40TCq2    O4  616   0.069   2.873   0.782 -0.6231  0.0100 -0.1386
   40TCq2    C9  617   4.622   3.244   1.215  0.0949 -1.0621 -0.1610
   40TCq2    O5  618   4.723   3.313   1.211 -0.3152  0.1353  0.0533
   40TCq2    O6  619   4.538   3.252   1.308 -0.1641 -0.8898 -0.6189
   40TCq2    H2  620   4.393   3.124   1.163 -0.2617 -0.2052  0.3097
   40TCq2    H3  621   0.072   3.148   1.066  0.2314 -0.4770 -0.0991
   40TCq2    H4  622   4.551   2.863   0.853 -2.1225  0.4290 -0.2901
   41TMC2    C1  623   3.991   0.955  13.531 -0.2492 -0.0740 -0.6001
   41TMC2    C2  624   4.077   0.866  13.459 -0.0873  0.2736 -0.6691
   41TMC2    C3  625   4.074   0.868  13.327  0.2295  0.2373 -0.3216
   41TMC2    C4  626   3.898   1.033  13.461  0.2608 -0.0307  0.5797
   41TMC2    C5  627   3.897   1.028  13.324  0.1991 -0.0920 -0.1974
   41TMC2    C6  628   3.992   0.953  13.257  0.3958 -0.2763  0.5079
   41TMC2     C  629   3.981   0.926  13.675  0.1332  0.6859  0.7581
   41TMC2     O  630   4.008   0.810  13.709 -0.0083 -0.6726  0.2368
   41TMC2     H  631   4.156   0.805  13.502 -0.7728  0.3590  0.7072
   41TMC2    H1  632   3.822   1.091  13.512 -1.4088 -1.3283 -0.4146
   41TMC2    H2  633   3.995   0.955  13.149 -0.5488 -2.1457  0.4329
   41TMC2    C7  634   3.773   1.089  13.262  0.1138  0.1003 -0.8836
   41TMC2    C8  635   4.183   0.832  13.246 -0.4654  0.0701  0.1649
   41TMC2    O1  636   3.693   1.152  13.333 -0.0667  0.6277 -0.2163
   41TMC2    O2  637   4.227   0.891  13.149 -0.0431  0.4027  0.8281
   41TMC2    O5  638   4.217   0.714  13.286 -0.6586 -0.1448  0.3904
   41TMC2    H5  639   4.141   0.679  13.337 -0.8650  1.2167  1.0099
   42MPD2     C  640   3.930   0.937  13.961 -0.6078 -0.3879  0.6935
   42MPD2    C1  641   3.870   1.021  13.872 -0.0030  0.1717 -0.0448
   42MPD2    C2  642   3.775   1.115  13.914 -0.3169 -0.2868 -0.0244
   42MPD2    C3  643   3.739   1.108  14.049 -0.6485  0.0387 -0.4315
   42MPD2    C4  644   3.794   1.024  14.138  0.6563 -0.2486  0.0948
   42MPD2    C5  645   3.889   0.940  14.094 -0.2781 -0.2361  0.0077
   42MPD2     H  646   3.724   1.174  13.839 -1.0884 -2.2664 -1.0418
   42MPD2    H1  647   3.751   1.014  14.238  0.1401 -0.6252 -0.1619
   42MPD2    H2  648   4.003   0.864  13.929 -2.0213 -0.9203 -1.3747
   42MPD2    H3  649   3.927   0.862  14.160  1.0079  0.6202  0.2573
   42MPD2     N  650   3.634   1.183  14.109 -0.3609 -0.5678 -0.0324
   42MPD2    H5  651   3.613   1.161  14.205 -3.5170 -0.0194 -0.6030
   42MPD2    N1  652   3.903   1.023  13.735 -0.1149  0.0930  0.6999
   42MPD2    H7  653   3.870   1.103  13.683 -0.9030 -0.8629 -0.2724
   43MPD2     C  654   0.733   4.207   0.600 -0.0256 -0.2005  0.2108
   43MPD2    C1  655   0.670   4.086   0.588 -0.5621 -0.2097 -0.0792
   43MPD2    C2  656   0.581   4.049   0.676  0.1828 -0.5158  0.0903
   43MPD2    C3  657   0.543   4.131   0.779 -0.2088  0.2379 -0.3651
   43MPD2    C4  658   0.601   4.257   0.791 -0.4272 -0.3800 -0.0856
   43MPD2    C5  659   0.692   4.296   0.696  0.0470 -0.3363  0.5656
   43MPD2     H  660   0.532   3.953   0.665  1.6705 -1.3450  0.6138
   43MPD2    H1  661   0.568   4.334   0.861  0.6896 -1.3949  1.5502
   43MPD2    H2  662   0.812   4.237   0.533  0.5399  0.3438  1.1213
   43MPD2    H3  663   0.746   4.390   0.695 -0.1655 -0.2415 -2.9240
   43MPD2     N  664   0.439   4.093   0.878 -0.8722 -0.3243 -0.5134
   43MPD2    H5  665   0.426   4.150   0.961 -0.6324 -2.3256  0.8962
   43MPD2    N1  666   0.695   3.997   0.472  0.0545 -0.2472  0.5152
   43MPD2    H7  667   0.635   3.916   0.480  0.8459 -0.7504  1.4123
   44TCq2    C1  668   0.278   4.030   1.339 -0.2493  0.4184  0.2796
   44TCq2    O2  669   0.393   4.054   1.367 -0.5130  0.4191  0.3481
   44TCq2    C2  670   0.250   3.967   1.210  0.7619  0.4571  0.1336
   44TCq2    C3  671   0.140   3.888   1.198  0.0123 -0.3281 -0.0707
   44TCq2    C4  672   0.111   3.839   1.069  0.0021 -0.3031  0.0466
   44TCq2    C5  673   0.179   3.867   0.956  0.1897  0.2668  0.0435
   44TCq2    C6  674   0.281   3.960   0.976 -0.9296 -0.7523 -0.9477
   44TCq2    C7  675   0.317   4.009   1.100 -0.0960 -0.1993  0.3910
   44TCq2    C8  676   0.361   3.979   0.864  0.6123 -0.4982 -0.0224
   44TCq2    O4  677   0.344   3.905   0.768  0.5833  0.0551  0.1872
   44TCq2    C9  678   0.009   3.728   1.057  0.7730 -0.4073  1.3418
   44TCq2    O5  679   4.687   3.705   0.946  0.0002  0.4909  0.1616
   44TCq2    O6  680   4.682   3.684   1.163 -0.4441 -0.6061  0.1782
   44TCq2    H2  681   0.087   3.859   1.288 -1.7814  0.0735 -1.0023
   44TCq2    H3  682   0.151   3.833   0.857  1.1687  0.5984 -0.3500
   44TCq2    H4  683   0.403   4.070   1.125 -1.9234  1.4499  2.6522
   45TMC2    C1  684   0.776   0.945  10.105  0.7757 -0.1444  1.0328
   45TMC2    C2  685   0.717   0.925  10.228  0.3526 -0.3354 -0.7001
   45TMC2    C3  686   0.714   1.041  10.307 -0.6289 -0.1695  0.5297
   45TMC2    C4  687   0.804   1.069  10.055 -0.0332 -0.0661 -0.3468
   45TMC2    C5  688   0.786   1.177  10.138  0.2601  0.4928  0.4448
   45TMC2    C6  689   0.747   1.172  10.266  0.6866 -0.5580  0.6555
   45TMC2     C  690   0.742   0.843  10.004 -0.0444 -0.5413  0.3051
   45TMC2     O  691   0.657   0.763  10.026 -0.2337  0.4665  0.0097
   45TMC2     H  692   0.689   0.825  10.260 -1.1966 -0.5041 -2.5878
   45TMC2    H1  693   0.839   1.091   9.954  0.9738 -1.8444 -0.3867
   45TMC2    H2  694   0.733   1.258  10.330  0.8240  1.1655 -1.6537
   45TMC2    C7  695   0.810   1.310  10.074  0.5045  0.9347  0.2122
   45TMC2    C8  696   0.716   1.021  10.456  0.3699  0.5515  0.5752
   45TMC2    O1  697   0.809   1.321   9.952 -0.3302  0.2255  0.0699
   45TMC2    O2  698   0.688   1.115  10.525 -0.0331 -0.2456  0.5200
   45TMC2    O5  699   0.736   0.891  10.490  0.7996  0.3711  0.6016
   45TMC2    H5  700   0.740   0.820  10.423  2.0819 -1.9371  3.1332
   46MPD2     C  701   0.707   0.669   9.764  0.3289  0.4519  1.1080
   46MPD2    C1  702   0.757   0.800   9.767 -0.6220 -0.2519 -0.3477
   46MPD2    C2  703   0.761   0.864   9.642 -0.3009 -0.3188  0.6345
   46MPD2    C3  704   0.712   0.807   9.520  0.0828  0.1447 -0.2554
   46MPD2    C4  705   0.682   0.674   9.520  0.5444  0.1723  1.0068
   46MPD2    C5  706   0.692   0.608   9.639 -0.0504 -0.0567 -0.0323
   46MPD2     H  707   0.776   0.971   9.636 -1.4688 -0.1537  0.5521
   46MPD2    H1  708   0.653   0.611   9.436  0.0731  2.2427 -0.3798
   46MPD2    H2  709   0.699   0.608   9.853  1.1639 -0.4439  0.5669
   46MPD2    H3  710   0.672   0.502   9.628 -0.1025  0.1441 -1.8200
   46MPD2     N  711   0.702   0.884   9.406 -0.2388 -0.0182 -0.4379
   46MPD2    H5  712   0.742   0.978   9.411  1.3430 -0.7911  1.6010
   46MPD2    N1  713   0.798   0.865   9.881  0.2540 -0.0321 -0.4507
   46MPD2    H7  714   0.848   0.953   9.874 -1.6632  1.1400  0.7440
   47TMC2    C1  715   3.687   2.614   9.044  0.0267 -0.0233 -0.4442
   47TMC2    C2  716   3.719   2.662   8.924 -0.1995 -0.4097  0.7075
   47TMC2    C3  717   3.627   2.741   8.862  0.2952 -0.6270 -0.1290
   47TMC2    C4  718   3.568   2.641   9.108 -0.8272 -0.0333 -0.9379
   47TMC2    C5  719   3.477   2.728   9.045 -0.2211 -0.0527 -0.8899
   47TMC2    C6  720   3.505   2.770   8.917  0.3778  0.0487 -0.4864
   47TMC2     C  721   3.796   2.551   9.111  0.4366  0.4497 -0.2933
   47TMC2     O  722   3.897   2.559   9.045 -0.1185 -0.6836  0.0141
   47TMC2     H  723   3.805   2.639   8.862  1.4011  0.0081  2.7675
   47TMC2    H1  724   3.536   2.602   9.204  2.2809  0.2442  0.2292
   47TMC2    H2  725   3.439   2.841   8.870  0.0418  0.8160  1.1215
   47TMC2    C7  726   3.345   2.746   9.092  0.6230  0.2861  0.4664
   47TMC2    C8  727   3.668   2.809   8.739 -0.2968  0.8567 -0.6808
   47TMC2    O1  728   3.276   2.649   9.117  0.6508  0.1406 -0.7092
   47TMC2    O2  729   3.784   2.814   8.708 -0.0300  0.2057  0.0800
   47TMC2    O5  730   3.568   2.784   8.649 -0.5707 -0.4040  0.4074
   47TMC2    H5  731   3.480   2.773   8.693  0.3230 -2.5826  1.6920
   48MPD2     C  732   4.001   2.437   9.301  0.8701  0.1580  0.4293
   48MPD2    C1  733   3.866   2.413   9.308 -0.8529 -0.5484 -0.2957
   48MPD2    C2  734   3.812   2.325   9.400 -0.4471  0.1106 -0.0354
   48MPD2    C3  735   3.897   2.252   9.485  0.3895 -0.3776  0.1772
   48MPD2    C4  736   4.035   2.281   9.480  1.0714  0.0827  0.2879
   48MPD2    C5  737   4.082   2.368   9.386 -0.7312 -0.4966  0.3010
   48MPD2     H  738   3.704   2.322   9.411 -0.4919 -0.4813 -0.6369
   48MPD2    H1  739   4.116   2.231   9.532  3.0736  1.0021 -1.9557
   48MPD2    H2  740   4.041   2.520   9.243  2.5031 -0.2386  0.9873
   48MPD2    H3  741   4.189   2.384   9.376 -0.9815  0.9862 -0.0016
   48MPD2     N  742   3.841   2.157   9.578 -0.0513 -0.1932 -0.3395
   48MPD2    H5  743   3.741   2.139   9.573 -0.8339  4.0778 -0.1879
   48MPD2    N1  744   3.770   2.480   9.223 -0.6570 -0.0068  0.5253
   48MPD2    H7  745   3.675   2.453   9.246 -0.7592 -0.1213 -0.0440
   49MPD2     C  746   0.405   3.557   9.655  0.6659 -0.2447  0.2800
   49MPD2    C1  747   0.358   3.484   9.761  0.2372  0.2548 -0.0193
   49MPD2    C2  748   0.389   3.531   9.887  0.2944  0.6301  0.3422
   49MPD2    C3  749   0.458   3.649   9.909 -0.8733 -0.7127 -0.2489
   49MPD2    C4  750   0.502   3.724   9.802 -0.4988  0.3483  0.2477
   49MPD2    C5  751   0.482   3.674   9.675 -0.7329 -0.0040 -0.2435
   49MPD2     H  752   0.337   3.474   9.964 -1.9958  0.5466 -1.2500
   49MPD2    H1  753   0.553   3.819   9.812  4.7658 -2.1093 -3.7632
   49MPD2    H2  754   0.385   3.535   9.550  2.0050  0.7868 -0.2007
   49MPD2    H3  755   0.530   3.720   9.589 -0.3691  0.9812  0.4843
   49MPD2     N  756   0.479   3.704  10.036 -0.6119 -0.0203 -0.3657
   49MPD2    H5  757   0.517   3.798  10.036  2.1374 -1.1289  0.4928
   49MPD2    N1  758   0.268   3.374   9.758 -0.3817 -0.8658  0.0928
   49MPD2    H7  759   0.239   3.331   9.846  0.3144  1.3302  1.4140
   50TCq2    C1  760   0.224   3.311   9.645  0.2095 -0.5601  0.0247
   50TCq2    O2  761   0.258   3.345   9.531 -0.1242 -0.7637 -0.1197
   50TCq2    C2  762   0.124   3.211   9.658 -0.5058  0.2650 -0.1480
   50TCq2    C3  763   0.042   3.191   9.552 -0.4694  0.7580 -0.5723
   50TCq2    C4  764   4.672   3.097   9.552  0.0925 -0.0076  0.6258
   50TCq2    C5  765   4.651   3.025   9.671  0.3692  0.5266 -0.7458
   50TCq2    C6  766   0.011   3.047   9.777  0.0675  0.1531 -0.7871
   50TCq2    C7  767   0.108   3.138   9.770 -0.8167  0.3253  0.1425
   50TCq2    C8  768   4.709   2.980   9.906  0.6599  0.8894  0.4440
   50TCq2    O4  769   4.627   2.887   9.915  0.0054  0.4480 -0.9918
   50TCq2    C9  770   4.577   3.080   9.446  0.3052  0.2228  0.3857
   50TCq2    O5  771   4.499   2.984   9.447 -0.0674  0.0168 -0.2298
   50TCq2    O6  772   4.565   3.184   9.376 -0.1256  0.1910 -0.0595
   50TCq2    H2  773   0.047   3.248   9.460 -2.4667  0.5251 -0.8252
   50TCq2    H3  774   4.567   2.960   9.691  2.3295 -2.2843 -1.5502
   50TCq2    H4  775   0.189   3.160   9.839 -0.9439 -0.6721  0.6047
   51MPD2     C  776   1.726   2.161   0.762 -0.0826  0.1459 -1.2496
   51MPD2    C1  777   1.608   2.226   0.771 -0.1093 -0.2313  0.6294
   51MPD2    C2  778   1.592   2.323   0.870 -0.4632 -0.4334  0.1267
   51MPD2    C3  779   1.697   2.359   0.958 -0.6940  0.2736  0.2926
   51MPD2    C4  780   1.812   2.292   0.947  0.1558 -0.8384 -0.0151
   51MPD2    C5  781   1.830   2.198   0.845 -0.3845  0.6533 -0.3581
   51MPD2     H  782   1.499   2.379   0.872  0.2364  0.7177  0.8670
   51MPD2    H1  783   1.901   2.312   1.006 -1.2971 -2.0539  2.5574
   51MPD2    H2  784   1.739   2.086   0.686  2.0603 -1.9902  1.2509
   51MPD2    H3  785   1.917   2.134   0.837  0.1974  1.2979  0.8925
   51MPD2     N  786   1.681   2.451   1.062 -0.5464 -0.7138  0.3980
   51MPD2    H5  787   1.748   2.436   1.137  2.9886  4.0508 -1.8565
   51MPD2    N1  788   1.502   2.173   0.688  0.2393  0.0090  0.0134
   51MPD2    H7  789   1.533   2.112   0.613 -0.4950 -2.1548  1.4536
   52TCq2    C1  790   1.576   2.532   1.083 -0.0193  0.0026 -0.1262
   52TCq2    O2  791   1.475   2.531   1.019  0.1599  0.0522  0.3516
   52TCq2    C2  792   1.581   2.611   1.205  0.0826 -0.7214 -0.1740
   52TCq2    C3  793   1.462   2.668   1.245  0.5050 -0.5542 -0.0230
   52TCq2    C4  794   1.464   2.753   1.353  0.2427 -1.0670  0.2779
   52TCq2    C5  795   1.587   2.782   1.409 -0.1137 -0.6004  0.5383
   52TCq2    C6  796   1.705   2.728   1.360 -0.0717  0.0257  0.5515
   52TCq2    C7  797   1.701   2.638   1.261 -0.4755  0.3994 -0.6046
   52TCq2    C8  798   1.832   2.760   1.423  0.0125  0.3391  0.0824
   52TCq2    O4  799   1.849   2.865   1.482  0.6337  0.4036 -0.5663
   52TCq2    C9  800   1.339   2.811   1.398  0.3660  0.0888 -0.4925
   52TCq2    O5  801   1.340   2.882   1.506  0.0363 -0.0678 -0.2407
   52TCq2    O6  802   1.234   2.748   1.366 -0.4701 -0.1827  0.8897
   52TCq2    H2  803   1.372   2.633   1.197  0.5494 -2.1401  1.0214
   52TCq2    H3  804   1.585   2.844   1.498 -0.8007  0.5498 -0.2717
   52TCq2    H4  805   1.796   2.612   1.214  0.0740  0.7246  0.3355
   53TMC2    C1  806   2.552   1.473  12.168 -0.1639  0.2750 -0.2820
   53TMC2    C2  807   2.679   1.481  12.217 -0.5119 -0.3154  0.5137
   53TMC2    C3  808   2.703   1.521  12.343 -0.2404 -0.6540  0.6309
   53TMC2    C4  809   2.445   1.496  12.251 -0.7430 -0.0447  0.4348
   53TMC2    C5  810   2.474   1.512  12.382 -0.2897  0.3314  0.6586
   53TMC2    C6  811   2.597   1.525  12.430  0.4592  0.1668  0.0408
   53TMC2     C  812   2.542   1.427  12.032  0.0799 -0.0817 -0.0652
   53TMC2     O  813   2.641   1.371  11.985  0.4311 -0.2386 -0.5031
   53TMC2     H  814   2.764   1.495  12.151 -0.7310 -2.1870 -0.1602
   53TMC2    H1  815   2.344   1.483  12.215 -0.1084 -1.4387 -0.8563
   53TMC2    H2  816   2.616   1.521  12.537  0.2922  0.2163  0.0731
   53TMC2    C7  817   2.364   1.555  12.459  0.6807  0.6275 -0.6560
   53TMC2    C8  818   2.836   1.514  12.399  0.6483  0.0560  0.4778
   53TMC2    O1  819   2.278   1.628  12.410 -0.3022 -0.2773  0.0023
   53TMC2    O2  820   2.938   1.476  12.335  0.1408 -0.1669 -0.2493
   53TMC2    O5  821   2.838   1.614  12.483  0.6598  0.1990 -0.3131
   53TMC2    H5  822   2.749   1.651  12.496 -0.2385 -1.7146 -0.9682
   54MPD2     C  823   2.542   1.495  11.755  0.3566  0.0495 -0.1455
   54MPD2    C1  824   2.424   1.482  11.826  0.0836  0.2256  0.7879
   54MPD2    C2  825   2.301   1.489  11.759 -0.0685  0.0306  0.6647
   54MPD2    C3  826   2.300   1.492  11.619 -0.8216 -0.1671 -0.0105
   54MPD2    C4  827   2.417   1.504  11.550  0.4551  0.3229 -0.8311
   54MPD2    C5  828   2.535   1.508  11.620  0.0261 -0.7131  0.9241
   54MPD2     H  829   2.205   1.482  11.810 -1.1819 -1.0928 -1.5659
   54MPD2    H1  830   2.425   1.506  11.442 -0.8704 -1.8913 -0.9650
   54MPD2    H2  831   2.639   1.515  11.798  0.5882  1.2231 -1.2251
   54MPD2    H3  832   2.628   1.503  11.564  1.8719  0.0016  3.9383
   54MPD2     N  833   2.175   1.479  11.541 -0.3965 -0.1538  0.0321
   54MPD2    H5  834   2.184   1.462  11.441  0.1983 -0.9864  0.2272
   54MPD2    N1  835   2.427   1.472  11.967 -0.3409 -0.1694  0.2747
   54MPD2    H7  836   2.339   1.471  12.018  0.9773 -0.9042  2.5326
   55MPD2     C  837   2.593   3.670  17.153 -0.0678 -0.6394  0.0811
   55MPD2    C1  838   2.581   3.588  17.261 -0.0137 -0.4525  0.1537
   55MPD2    C2  839   2.572   3.640  17.391  0.0151 -0.2224 -0.2676
   55MPD2    C3  840   2.596   3.775  17.417 -0.3972  0.4777  0.4505
   55MPD2    C4  841   2.623   3.861  17.310  0.4796  0.0034 -0.0259
   55MPD2    C5  842   2.618   3.804  17.179 -0.0885  1.0321  0.1671
   55MPD2     H  843   2.562   3.577  17.478  3.6452  0.3000  0.5401
   55MPD2    H1  844   2.641   3.967  17.312 -0.1589  0.1213 -0.5904
   55MPD2    H2  845   2.581   3.634  17.051 -2.8193  0.5018  0.0171
   55MPD2    H3  846   2.616   3.869  17.093 -1.2686  0.8732  0.0702
   55MPD2     N  847   2.597   3.809  17.554  0.4365  0.0479 -0.5705
   55MPD2    H5  848   2.577   3.741  17.627 -0.0770  1.8815  0.9982
   55MPD2    N1  849   2.565   3.450  17.236 -0.5327 -0.0524  0.2367
   55MPD2    H7  850   2.579   3.423  17.139  1.1613 -0.0066  0.4622
   56TCq2    C1  851   2.564   3.346  17.328 -0.0337 -0.4765  0.5230
   56TCq2    O2  852   2.587   3.349  17.448 -0.0051  0.3784  0.2838
   56TCq2    C2  853   2.551   3.217  17.270 -0.3077  0.4972 -0.7192
   56TCq2    C3  854   2.548   3.195  17.135  0.1220 -0.4810  0.4440
   56TCq2    C4  855   2.537   3.066  17.095 -0.2706  0.4774 -0.3879
   56TCq2    C5  856   2.514   2.962  17.181  0.0213 -0.2165  0.6703
   56TCq2    C6  857   2.518   2.982  17.311  0.3071  0.8800  0.1313
   56TCq2    C7  858   2.535   3.110  17.357 -0.4612 -0.0862  0.2425
   56TCq2    C8  859   2.497   2.876  17.401 -0.4498 -0.2070 -0.3637
   56TCq2    O4  860   2.435   2.780  17.361 -0.6294  0.1264  0.6168
   56TCq2    C9  861   2.549   3.037  16.956 -0.0231 -0.4896  0.0524
   56TCq2    O5  862   2.552   2.917  16.919  0.0875 -0.3005  0.5517
   56TCq2    O6  863   2.569   3.135  16.884  0.3172  0.2496  0.0807
   56TCq2    H2  864   2.552   3.270  17.057 -2.0606 -1.7731 -0.9301
   56TCq2    H3  865   2.498   2.862  17.141 -0.7459 -0.5756  1.8953
   56TCq2    H4  866   2.533   3.127  17.465 -0.9565 -0.9485  0.3683
   57TMC2    C1  867   2.141   0.447  13.470  0.2332 -0.4312 -0.0133
   57TMC2    C2  868   2.140   0.310  13.497  0.3285 -0.0591 -0.0702
   57TMC2    C3  869   2.261   0.242  13.505 -0.2614 -0.3963 -0.1922
   57TMC2    C4  870   2.261   0.512  13.457  0.1359 -0.6871 -0.2347
   57TMC2    C5  871   2.376   0.441  13.469  0.0035 -0.3790  0.0133
   57TMC2    C6  872   2.378   0.307  13.482  0.1338  0.1054  0.6307
   57TMC2     C  873   2.012   0.507  13.450 -0.3267 -0.5314 -0.5350
   57TMC2     O  874   1.985   0.609  13.508 -0.3795 -0.7879 -0.2294
   57TMC2     H  875   2.051   0.249  13.507  0.5980 -0.5472 -0.6967
   57TMC2    H1  876   2.262   0.616  13.425  2.1855 -0.4083  0.6957
   57TMC2    H2  877   2.468   0.246  13.486 -0.6116 -1.0037  0.2806
   57TMC2    C7  878   2.476   0.482  13.374 -0.1290 -0.0738  0.3674
   57TMC2    C8  879   2.262   0.124  13.584  0.1042 -0.3145 -0.5664
   57TMC2    O1  880   2.501   0.602  13.360  0.0976  0.2530  0.0373
   57TMC2    O2  881   2.258   0.013  13.533  0.0682 -0.2875  0.0194
   57TMC2    O5  882   2.330   0.163  13.702  0.5902 -0.3501  0.1181
   57TMC2    H5  883   2.351   0.258  13.712 -0.0823 -0.0955 -0.9569
   58MPD2     C  884   1.524   0.369  13.373 -0.2629 -0.4018 -0.2134
   58MPD2    C1  885   1.587   0.454  13.467 -0.4347 -1.0035 -0.5442
   58MPD2    C2  886   1.719   0.483  13.465  0.1684  0.0712 -0.6231
   58MPD2    C3  887   1.796   0.419  13.369 -0.2300 -0.2746  0.4413
   58MPD2    C4  888   1.735   0.334  13.276  0.1075 -0.2945  0.7824
   58MPD2    C5  889   1.600   0.310  13.278  0.9191  0.0968 -1.1384
   58MPD2     H  890   1.759   0.559  13.532  1.0151  0.0807 -1.1395
   58MPD2    H1  891   1.788   0.272  13.205 -2.2099 -1.4506  0.0305
   58MPD2    H2  892   1.421   0.336  13.378 -0.4277  0.2974  0.9780
   58MPD2    H3  893   1.550   0.242  13.210 -1.3417  0.2230  0.3983
   58MPD2     N  894   1.938   0.421  13.372 -0.1908  0.0622 -0.4399
   58MPD2    H5  895   1.978   0.343  13.322  2.6234  0.0748  1.7940
   58MPD2    N1  896   1.502   0.519  13.560  0.3161  0.2153  0.2868
   58MPD2    H7  897   1.533   0.601  13.612  0.5532 -0.3435  1.0255
   59MPD2     C  898   4.378   0.046  12.933  0.3056  0.0335 -0.3810
   59MPD2    C1  899   4.440   0.085  12.815 -0.5568 -0.4316 -0.1565
   59MPD2    C2  900   4.566   0.137  12.810  0.3422 -0.7243 -0.3931
   59MPD2    C3  901   4.636   0.147  12.929 -0.2167 -0.0641 -0.1861
   59MPD2    C4  902   4.583   0.086  13.039  0.1084  0.4916 -0.4295
   59MPD2    C5  903   4.454   0.043  13.042 -0.2961  0.0127 -0.7255
   59MPD2     H  904   4.599   0.188  12.720 -0.0082 -0.8226 -0.5794
   59MPD2    H1  905   4.633   0.097  13.134 -1.7416  1.2395  0.4378
   59MPD2    H2  906   4.274   0.023  12.949 -0.5057  3.0245 -1.4872
   59MPD2    H3  907   4.403   0.029  13.136 -2.7732 -0.2407 -2.1075
   59MPD2     N  908   0.031   0.218  12.946  0.2864 -0.7816  0.4421
   59MPD2    H5  909   0.056   0.243  13.041 -0.2123  4.4236 -0.8340
   59MPD2    N1  910   4.360   0.090  12.695  0.0538 -0.3287 -0.0607
   59MPD2    H7  911   4.410   0.113  12.610 -2.1032  0.6470 -1.0851
   60TCq2    C1  912   4.224   0.080  12.688  0.1435 -0.1209 -0.2340
   60TCq2    O2  913   4.147   0.064  12.784  0.5804 -0.3602  0.4603
   60TCq2    C2  914   4.159   0.071  12.555  0.5446 -0.3232 -0.1757
   60TCq2    C3  915   4.062   4.699  12.553 -0.3240 -0.0689 -0.0708
   60TCq2    C4  916   4.030   4.643  12.433  0.2456 -0.3264 -0.5294
   60TCq2    C5  917   4.085   4.700  12.317 -0.6661  0.2892  0.0613
   60TCq2    C6  918   4.180   0.073  12.327  0.4888 -0.3663 -0.3951
   60TCq2    C7  919   4.220   0.123  12.448  0.2132  0.2305  0.4068
   60TCq2    C8  920   4.226   0.131  12.204 -0.1410 -0.3950 -0.2199
   60TCq2    O4  921   4.199   0.073  12.103  0.2057 -0.3722  0.0945
   60TCq2    C9  922   3.921   4.556  12.412 -0.1433  0.5308  0.1006
   60TCq2    O5  923   3.877   4.549  12.297  0.0067  0.1004 -0.3003
   60TCq2    O6  924   3.862   4.512  12.516  0.0488 -0.9520 -0.1488
   60TCq2    H2  925   4.020   4.657  12.644 -0.9690 -1.7051 -1.1269
   60TCq2    H3  926   4.052   4.669  12.219  1.1061 -1.4746  0.0094
   60TCq2    H4  927   4.291   0.203  12.463 -1.6087  2.2331 -1.6418
   61MPD2     C  928   3.889   1.629  14.970  0.4074  0.2471  0.2400
   61MPD2    C1  929   3.828   1.748  14.926 -1.0964 -0.1849 -0.6694
   61MPD2    C2  930   3.890   1.823  14.828  0.8484  0.4676 -0.2041
   61MPD2    C3  931   4.017   1.787  14.786  0.5654 -0.2551 -0.3371
   61MPD2    C4  932   4.074   1.673  14.834 -0.4224  0.0522  0.8627
   61MPD2    C5  933   4.009   1.587  14.923 -0.5801  0.0290  0.3648
   61MPD2     H  934   3.846   1.913  14.787  0.8545  0.0201 -1.1981
   61MPD2    H1  935   4.175   1.649  14.803 -0.4236  0.2065  0.7351
   61MPD2    H2  936   3.833   1.564  15.036 -0.8083 -0.2877 -1.3294
   61MPD2    H3  937   4.059   1.498  14.959  1.1838  0.5136 -0.9209
   61MPD2     N  938   4.077   1.861  14.682 -0.2527  0.0502 -0.2061
   61MPD2    H5  939   4.033   1.945  14.645  0.4982  0.5253  0.0017
   61MPD2    N1  940   3.696   1.782  14.966  0.2620 -0.7478 -0.1350
   61MPD2    H7  941   3.657   1.870  14.932 -1.5995 -2.4337 -2.3543
   62TCq2    C1  942   3.600   1.700  15.020  0.6531  0.2447  0.6548
   62TCq2    O2  943   3.590   1.579  15.014 -0.5164 -0.1765  0.6050
   62TCq2    C2  944   3.479   1.774  15.064  0.1878 -0.2765 -0.8465
   62TCq2    C3  945   3.356   1.712  15.041  0.9123 -0.4741 -0.6183
   62TCq2    C4  946   3.235   1.783  15.028  0.3132 -0.2350  0.5020
   62TCq2    C5  947   3.248   1.917  15.023 -0.1348 -0.1946 -0.0506
   62TCq2    C6  948   3.371   1.980  15.055  0.0010 -0.6495  0.2338
   62TCq2    C7  949   3.488   1.914  15.083  0.9314  0.0642  0.1135
   62TCq2    C8  950   3.383   2.119  15.049  0.0297  0.3607 -0.1097
   62TCq2    O4  951   3.440   2.172  15.140 -0.5518 -0.3358  0.3103
   62TCq2    C9  952   3.102   1.716  15.012  0.1274  0.0598 -0.1153
   62TCq2    O5  953   2.996   1.784  15.028  0.2726 -0.6272  0.7056
   62TCq2    O6  954   3.105   1.595  15.041  0.0705  0.3818 -0.1703
   62TCq2    H2  955   3.349   1.604  15.045  1.8997 -0.5281 -0.4678
   62TCq2    H3  956   3.156   1.971  15.006 -0.3896 -0.0112  1.9469
   62TCq2    H4  957   3.583   1.965  15.083  1.1102 -0.2658  2.0495
   63TMC2    C1  958   3.415   1.712  10.859 -0.8607 -0.8035 -0.6467
   63TMC2    C2  959   3.495   1.796  10.928  0.0802  0.5261 -0.1278
   63TMC2    C3  960   3.564   1.884  10.849 -0.7942  0.1218  0.6318
   63TMC2    C4  961   3.400   1.712  10.722 -0.2744  0.4040 -0.2361
   63TMC2    C5  962   3.472   1.808  10.651 -0.5280 -0.4067 -0.3823
   63TMC2    C6  963   3.555   1.898  10.713 -0.2770  0.1761  0.3408
   63TMC2     C  964   3.326   1.625  10.938 -0.1684  0.1494 -0.4385
   63TMC2     O  965   3.300   1.654  11.055 -0.1224 -0.5492 -0.2172
   63TMC2     H  966   3.511   1.788  11.034  1.6675  1.8471 -0.2732
   63TMC2    H1  967   3.326   1.647  10.678 -1.3005  0.0994  1.9339
   63TMC2    H2  968   3.597   1.979  10.655 -0.5335  0.1040  0.0552
   63TMC2    C7  969   3.433   1.825  10.508  0.2184 -0.8109  0.1367
   63TMC2    C8  970   3.680   1.937  10.920  0.0267 -0.1164  0.7623
   63TMC2    O1  971   3.357   1.743  10.468  0.0981 -0.4539  0.2406
   63TMC2    O2  972   3.744   1.869  11.005 -0.2472  0.0627 -0.4945
   63TMC2    O5  973   3.738   2.045  10.850 -0.7896 -0.4796  0.5276
   63TMC2    H5  974   3.680   2.095  10.788  0.1120 -2.1330 -1.6673
   64MPD2     C  975   3.044   1.209  11.030  0.0985 -0.3332  0.4442
   64MPD2    C1  976   3.073   1.208  10.894 -0.3551  0.1121  0.4728
   64MPD2    C2  977   3.147   1.315  10.840 -0.6225  1.1718  0.1104
   64MPD2    C3  978   3.180   1.424  10.922  0.3106 -0.1072  0.1078
   64MPD2    C4  979   3.134   1.425  11.052  0.6193 -0.6727  0.0860
   64MPD2    C5  980   3.069   1.319  11.105 -0.5270 -0.4198  0.1723
   64MPD2     H  981   3.192   1.301  10.743  2.6167  1.1066  1.6291
   64MPD2    H1  982   3.142   1.514  11.113  3.8309 -1.5021  0.8380
   64MPD2    H2  983   2.980   1.139  11.082 -1.1876 -0.6558 -1.5883
   64MPD2    H3  984   3.026   1.331  11.204 -0.0065  0.5162  0.2802
   64MPD2     N  985   3.269   1.519  10.867 -0.3004  0.2018  0.3107
   64MPD2    H5  986   3.309   1.489  10.779  0.2362 -0.3450  0.7487
   64MPD2    N1  987   3.046   1.097  10.812  0.3289  0.7464 -0.1680
   64MPD2    H7  988   3.070   1.104  10.714  0.8446 -2.0253 -0.2589
   65MPD2     C  989   4.154   1.220  15.708  0.3725  0.0421  0.2474
   65MPD2    C1  990   4.173   1.240  15.574 -0.1108  0.1138  0.6398
   65MPD2    C2  991   4.194   1.128  15.487 -0.0995  0.1783  0.0833
   65MPD2    C3  992   4.185   0.996  15.531 -0.0307 -0.1551  0.3260
   65MPD2    C4  993   4.162   0.978  15.670  0.1442 -0.3996  0.2922
   65MPD2    C5  994   4.154   1.086  15.755 -0.2178  0.5456 -0.0129
   65MPD2     H  995   4.202   1.153  15.382 -1.1834  1.3330  0.2610
   65MPD2    H1  996   4.139   0.881  15.713  1.0247  0.1157  1.9323
   65MPD2    H2  997   4.127   1.298  15.778  0.5283  0.0186  0.3340
   65MPD2    H3  998   4.147   1.075  15.863 -1.3389  0.3923 -0.1062
   65MPD2     N  999   4.205   0.883  15.447 -0.3386  0.0599  0.6078
   65MPD2    H5 1000   4.173   0.795  15.486 -1.6599  1.2086  2.0872
   65MPD2    N1 1001   4.194   1.362  15.508  0.3121 -1.1421  0.7056
   65MPD2    H7 1002   4.218   1.353  15.410  1.7608 -0.5650  1.0231
   66TCq2    C1 1003   4.185   1.484  15.561  0.5336  0.2741 -0.1719
   66TCq2    O2 1004   4.134   1.509  15.674 -0.4365 -0.0344 -0.3933
   66TCq2    C2 1005   4.227   1.597  15.473 -0.5052 -0.6495 -0.1958
   66TCq2    C3 1006   4.258   1.557  15.350  0.3248  0.2795  0.6491
   66TCq2    C4 1007   4.267   1.654  15.253 -1.0912  0.0677  0.6177
   66TCq2    C5 1008   4.253   1.784  15.285  0.1146 -0.1682  0.3013
   66TCq2    C6 1009   4.221   1.823  15.413 -0.3145 -0.0016 -0.0971
   66TCq2    C7 1010   4.196   1.724  15.504  0.3045 -0.0117  0.4236
   66TCq2    C8 1011   4.167   1.957  15.437 -0.3095 -0.9213 -0.7390
   66TCq2    O4 1012   4.155   2.019  15.331  0.2451  0.1380 -0.0163
   66TCq2    C9 1013   4.300   1.617  15.114 -0.8114 -0.7331  0.2674
   66TCq2    O5 1014   4.338   1.713  15.048 -0.1777  0.6981  0.4445
   66TCq2    O6 1015   4.297   1.493  15.084 -0.2125  0.2492  0.1675
   66TCq2    H2 1016   4.299   1.461  15.322 -1.2091 -0.5257  1.1697
   66TCq2    H3 1017   4.264   1.856  15.205  0.4250 -0.1396  0.3702
   66TCq2    H4 1018   4.160   1.757  15.601  0.2528  1.0900  0.0284
   67MPD2     C 1019   0.078   0.633  13.911  0.4244  0.5747 -0.3665
   67MPD2    C1 1020   4.699   0.641  14.002  0.1538  0.4645  0.0279
   67MPD2    C2 1021   4.573   0.606  13.968  0.4006 -0.5456  0.3432
   67MPD2    C3 1022   4.542   0.565  13.839 -0.0754 -0.0299 -0.3210
   67MPD2    C4 1023   4.645   0.554  13.750  0.4442  0.3858 -0.1174
   67MPD2    C5 1024   0.049   0.599  13.781  0.5826 -0.7408 -0.6462
   67MPD2     H 1025   4.497   0.620  14.044  0.0774  0.7972 -0.2236
   67MPD2    H1 1026   4.639   0.515  13.649  0.7120 -0.0742  0.0461
   67MPD2    H2 1027   0.179   0.665  13.930  1.0141 -1.5687  0.1020
   67MPD2    H3 1028   0.124   0.590  13.703  1.2579 -0.4406 -0.0258
   67MPD2     N 1029   4.419   0.514  13.791 -0.0567 -1.0915 -0.2599
   67MPD2    H5 1030   4.415   0.503  13.690 -0.7661 -2.4191 -0.0822
   67MPD2    N1 1031   4.723   0.700  14.128  0.1572 -0.5587 -0.2725
   67MPD2    H7 1032   4.645   0.749  14.171 -0.3246 -1.0677 -0.5684
   68TCq2    C1 1033   0.119   0.713  14.182  0.0430 -0.2104  0.0461
   68TCq2    O2 1034   0.221   0.644  14.173  0.2018 -0.0992  0.0742
   68TCq2    C2 1035   0.127   0.806  14.298 -0.2145 -0.5040 -0.7544
   68TCq2    C3 1036   0.034   0.903  14.308 -0.8901  0.0584 -0.1257
   68TCq2    C4 1037   0.031   0.981  14.420 -0.2373  0.1035 -0.6624
   68TCq2    C5 1038   0.132   0.973  14.514 -0.6905 -0.4390  0.5641
   68TCq2    C6 1039   0.217   0.874  14.499  0.7056  0.2285  0.4535
   68TCq2    C7 1040   0.220   0.784  14.395  0.1459  0.2928  0.4868
   68TCq2    C8 1041   0.286   0.833  14.617  0.0293 -0.8398 -0.2235
   68TCq2    O4 1042   0.387   0.767  14.593 -0.2214  0.0232  0.9490
   68TCq2    C9 1043   4.644   1.078  14.438  0.0304  0.5390  0.1028
   68TCq2    O5 1044   4.557   1.082  14.352 -0.6305 -0.7010 -0.0870
   68TCq2    O6 1045   4.657   1.161  14.532 -0.0599  0.1500  0.0229
   68TCq2    H2 1046   4.669   0.907  14.246 -1.9880  0.6579  1.4923
   68TCq2    H3 1047   0.149   1.043  14.595 -1.6875  0.2206  0.2008
   68TCq2    H4 1048   0.304   0.719  14.369 -0.3610 -0.6256  1.1596
   69TMC2    C1 1049   0.876   2.194  12.058 -0.6991  0.6955  0.6373
   69TMC2    C2 1050   0.794   2.115  11.989 -0.7591  0.0266 -0.0420
   69TMC2    C3 1051   0.826   2.082  11.862  0.1119 -0.3338 -0.0380
   69TMC2    C4 1052   0.997   2.231  12.009  0.2544 -0.6821  0.0783
   69TMC2    C5 1053   1.036   2.171  11.892 -0.2488  0.6692  0.7772
   69TMC2    C6 1054   0.955   2.097  11.815  0.6488  0.6728  0.4971
   69TMC2     C 1055   0.856   2.182  12.201  0.4152 -0.2223  0.0656
   69TMC2     O 1056   0.798   2.081  12.246 -0.0917 -0.5109  0.2000
   69TMC2     H 1057   0.696   2.079  12.017 -0.5239  0.2153  1.0013
   69TMC2    H1 1058   1.075   2.272  12.072 -0.2331  1.7446 -0.9166
   69TMC2    H2 1059   0.985   2.051  11.721  2.2608  0.7101  0.9922
   69TMC2    C7 1060   1.174   2.178  11.839  0.2612  0.0795 -0.2305
   69TMC2    C8 1061   0.736   2.003  11.777 -0.0265 -0.0376 -0.7552
   69TMC2    O1 1062   1.269   2.192  11.916 -0.0644  0.2324  0.1399
   69TMC2    O2 1063   0.641   1.940  11.819 -0.2074  0.3739 -0.4097
   69TMC2    O5 1064   0.750   2.047  11.647  0.2706 -0.4487 -0.1954
   69TMC2    H5 1065   0.816   2.118  11.631 -2.0087  1.3507 -1.6694
   70MPD2     C 1066   0.991   2.410  12.451 -0.5716  0.1641  0.6611
   70MPD2    C1 1067   0.957   2.286  12.395  0.5681 -0.5779  0.2972
   70MPD2    C2 1068   0.972   2.170  12.476 -0.4305 -0.5873  0.1393
   70MPD2    C3 1069   1.025   2.178  12.604 -0.1254  0.8861  0.0779
   70MPD2    C4 1070   1.087   2.294  12.642  0.2989 -0.0287 -0.0362
   70MPD2    C5 1071   1.059   2.408  12.576  0.1830 -0.0010 -0.6604
   70MPD2     H 1072   0.954   2.073  12.432 -0.7223 -1.0772  1.3295
   70MPD2    H1 1073   1.146   2.299  12.733 -0.3314 -0.9732  0.4331
   70MPD2    H2 1074   0.977   2.509  12.410  0.4663  0.3346  0.7330
   70MPD2    H3 1075   1.106   2.502  12.603 -0.6090  0.6945 -1.7083
   70MPD2     N 1076   1.063   2.062  12.677 -0.5663 -0.4108  0.1245
   70MPD2    H5 1077   1.138   2.079  12.742 -0.6786  0.2123  0.0936
   70MPD2    N1 1078   0.903   2.290  12.264  0.4342  0.0559  0.0444
   70MPD2    H7 1079   0.919   2.375  12.211  2.5024 -1.0042 -1.0252
   71TMC2    C1 1080   3.629   2.243   1.234  0.3259 -0.1427  0.2883
   71TMC2    C2 1081   3.720   2.174   1.307 -0.1935  0.5821  0.2193
   71TMC2    C3 1082   3.711   2.174   1.441  0.8517 -0.9522 -0.1906
   71TMC2    C4 1083   3.537   2.324   1.302  0.2675 -0.3334 -0.9096
   71TMC2    C5 1084   3.539   2.324   1.438 -0.3906  0.1928 -0.6631
   71TMC2    C6 1085   3.622   2.250   1.511 -0.5335  0.0842 -0.3816
   71TMC2     C 1086   3.660   2.283   1.096  0.2183  0.0795 -0.4565
   71TMC2     O 1087   3.606   2.384   1.054 -0.3759  0.0320  0.2739
   71TMC2     H 1088   3.802   2.121   1.260  1.7210  2.0255  1.9280
   71TMC2    H1 1089   3.487   2.402   1.246  2.7219  3.1050  1.6617
   71TMC2    H2 1090   3.619   2.234   1.618 -0.0766  1.4322 -0.1643
   71TMC2    C7 1091   3.425   2.376   1.511 -0.0010 -0.1609 -0.2638
   71TMC2    C8 1092   3.824   2.141   1.526  0.2909 -0.2321  0.0122
   71TMC2    O1 1093   3.418   2.366   1.633  0.6762 -0.5356  0.1332
   71TMC2    O2 1094   3.813   2.103   1.644 -0.5910 -0.1666 -0.2832
   71TMC2    O5 1095   3.928   2.219   1.475  0.0942  0.7893  0.4768
   71TMC2    H5 1096   3.896   2.288   1.413  2.4664  0.6971 -0.8545
   72MPD2     C 1097   3.867   2.206   0.645 -0.9658 -0.0702 -0.4995
   72MPD2    C1 1098   3.773   2.297   0.684 -0.2270  0.2626 -0.2163
   72MPD2    C2 1099   3.715   2.293   0.808  0.3391 -1.3305  0.0852
   72MPD2    C3 1100   3.767   2.199   0.900 -0.2104  0.2939  0.7156
   72MPD2    C4 1101   3.866   2.105   0.857 -0.6346  0.1278  0.1488
   72MPD2    C5 1102   3.906   2.100   0.727  0.2246  0.0218  0.3333
   72MPD2     H 1103   3.636   2.361   0.837  1.8424  1.2306 -1.7966
   72MPD2    H1 1104   3.910   2.042   0.934 -3.8895  0.2714  2.1419
   72MPD2    H2 1105   3.921   2.202   0.551 -1.8785 -1.9871 -0.9489
   72MPD2    H3 1106   3.982   2.030   0.695 -0.7017 -1.5148  1.5064
   72MPD2     N 1107   3.741   2.195   1.037  0.8357 -0.6145 -0.4487
   72MPD2    H5 1108   3.772   2.115   1.092 -0.6364 -0.8405  0.0559
   72MPD2    N1 1109   3.717   2.393   0.596 -0.0860 -0.7604  0.5602
   72MPD2    H7 1110   3.646   2.459   0.627 -1.0044 -1.2276 -0.5537
   73TMC2    C1 1111   3.718   3.683  14.072  0.3461  0.1473  0.2954
   73TMC2    C2 1112   3.679   3.702  14.209  0.1963  0.2201  0.2935
   73TMC2    C3 1113   3.769   3.676  14.314  0.0469 -0.3103 -0.2824
   73TMC2    C4 1114   3.844   3.637  14.049  0.1413 -0.0101  0.0309
   73TMC2    C5 1115   3.938   3.628  14.150  0.1137  0.4725 -0.3897
   73TMC2    C6 1116   3.900   3.649  14.283 -0.3789 -0.5769  0.3715
   73TMC2     C 1117   3.695   3.802  13.990 -0.1478 -0.7343 -0.0260
   73TMC2     O 1118   3.784   3.884  14.000  0.1866  0.3045  0.5634
   73TMC2     H 1119   3.572   3.704  14.227  0.2116  0.8049  0.3232
   73TMC2    H1 1120   3.879   3.636  13.946 -0.6005  2.5828 -0.2266
   73TMC2    H2 1121   3.979   3.650  14.357  0.3277  1.1967 -0.3898
   73TMC2    C7 1122   4.071   3.681  14.118  0.6128  0.0872 -0.0716
   73TMC2    C8 1123   3.735   3.679  14.452  0.9464 -0.1845 -0.5547
   73TMC2    O1 1124   4.164   3.640  14.182 -0.3147 -0.5565  0.0317
   73TMC2    O2 1125   3.763   3.596  14.535  0.4157  0.1428 -0.4868
   73TMC2    O5 1126   3.615   3.738  14.456  0.7607  0.2839  0.2492
   73TMC2    H5 1127   3.617   3.796  14.378 -2.6940  2.9493  2.1492
   74MPD2     C 1128   3.560   4.016  13.547 -0.0781  0.1043  0.3398
   74MPD2    C1 1129   3.675   4.037  13.618 -0.1659 -0.0628  0.0744
   74MPD2    C2 1130   3.695   3.956  13.726 -0.0007 -0.1276 -0.6492
   74MPD2    C3 1131   3.592   3.869  13.769 -0.1614 -0.5157  0.0575
   74MPD2    C4 1132   3.484   3.849  13.686 -0.0279  0.3945 -0.8267
   74MPD2    C5 1133   3.476   3.915  13.573  0.2986 -0.1630  0.6747
   74MPD2     H 1134   3.791   3.940  13.773  0.2434  1.7696 -0.4920
   74MPD2    H1 1135   3.414   3.770  13.709  1.8510 -1.4726 -1.5365
   74MPD2    H2 1136   3.547   4.071  13.454 -4.3774  1.5694  1.8446
   74MPD2    H3 1137   3.395   3.897  13.503 -0.6419  1.1295  1.4058
   74MPD2     N 1138   3.592   3.792  13.893  0.5711  0.6060 -0.4710
   74MPD2    H5 1139   3.525   3.716  13.901  0.4794  0.3889 -3.1247
   74MPD2    N1 1140   3.768   4.136  13.570  0.2948 -0.2317  0.1420
   74MPD2    H7 1141   3.747   4.183  13.483 -0.9180  0.8926  1.0302
   75TCq2    C1 1142   4.311   0.481  13.865 -0.6838 -0.0417 -0.1367
   75TCq2    O2 1143   4.296   0.473  13.988 -0.1360 -0.1077  0.0257
   75TCq2    C2 1144   4.188   0.446  13.780  0.4447 -0.8566 -0.2142
   75TCq2    C3 1145   4.094   0.370  13.850 -0.0031  0.2920  0.2182
   75TCq2    C4 1146   3.983   0.323  13.782  1.2644 -0.5255  0.4064
   75TCq2    C5 1147   3.969   0.353  13.649 -1.1363  0.2272 -0.2375
   75TCq2    C6 1148   4.062   0.430  13.583  1.1072 -0.4731  0.2023
   75TCq2    C7 1149   4.166   0.478  13.648 -0.5512  0.3405  0.8118
   75TCq2    C8 1150   3.990   0.526  13.506  0.0452  0.4664 -0.0372
   75TCq2    O4 1151   4.035   0.566  13.400  0.2191 -0.1707 -0.8312
   75TCq2    C9 1152   3.881   0.251  13.845 -0.0838 -0.3053 -0.8240
   75TCq2    O5 1153   3.781   0.227  13.770 -0.4775  0.3778 -0.3876
   75TCq2    O6 1154   3.884   0.230  13.971  0.7124 -0.2698  0.3297
   75TCq2    H2 1155   4.109   0.334  13.951  3.1169  1.0726  0.0162
   75TCq2    H3 1156   3.881   0.324  13.594  0.3953 -0.5845 -2.2652
   75TCq2    H4 1157   4.226   0.552  13.596  0.4391 -0.1486  1.2613
   76MPD2     C 1158   2.289   2.165  12.204 -0.0535 -0.4917 -0.1392
   76MPD2    C1 1159   2.314   2.116  12.076  0.5399 -0.4908  0.2380
   76MPD2    C2 1160   2.421   2.028  12.067  0.5260  0.5258  0.4511
   76MPD2    C3 1161   2.510   2.017  12.163  0.1158  0.5487 -0.2772
   76MPD2    C4 1162   2.483   2.069  12.288  0.2966  0.2030 -0.5348
   76MPD2    C5 1163   2.378   2.146  12.308  0.5327  0.3338 -0.3008
   76MPD2     H 1164   2.439   1.979  11.972 -1.2041  1.3519 -0.2978
   76MPD2    H1 1165   2.552   2.069  12.371 -0.6636 -0.9486  0.2700
   76MPD2    H2 1166   2.212   2.235  12.236  0.2699 -0.2499  0.1120
   76MPD2    H3 1167   2.368   2.183  12.409  1.2861 -1.3606  0.3813
   76MPD2     N 1168   2.636   1.951  12.149 -0.3797  0.3197 -0.2084
   76MPD2    H5 1169   2.694   1.952  12.232 -1.0033 -0.0975  0.2356
   76MPD2    N1 1170   2.238   2.150  11.961 -0.1854 -0.4064 -0.5453
   76MPD2    H7 1171   2.266   2.099  11.877  0.1497 -1.8375  0.4249
   77TCq2    C1 1172   2.681   1.892  12.032  0.6057 -0.5293 -0.2875
   77TCq2    O2 1173   2.622   1.861  11.931  0.5427  0.0086 -0.3078
   77TCq2    C2 1174   2.820   1.848  12.045 -0.3649  0.3423 -0.1002
   77TCq2    C3 1175   2.903   1.898  12.143  0.2637  0.3772 -0.4177
   77TCq2    C4 1176   3.011   1.823  12.187  0.2792  0.6600  0.5665
   77TCq2    C5 1177   3.037   1.702  12.135 -0.7698 -0.3070 -0.7709
   77TCq2    C6 1178   2.960   1.654  12.030 -0.5880 -0.2376 -0.3176
   77TCq2    C7 1179   2.856   1.731  11.984 -1.1107 -0.6042  0.5763
   77TCq2    C8 1180   2.976   1.528  11.968  0.5160  0.0872 -0.4361
   77TCq2    O4 1181   2.926   1.510  11.855 -0.2739 -0.0075 -0.2524
   77TCq2    C9 1182   3.088   1.854  12.304  1.1775 -0.1988 -0.3971
   77TCq2    O5 1183   3.037   1.928  12.389 -0.4106 -0.5484  0.0939
   77TCq2    O6 1184   3.204   1.810  12.308  0.0718 -0.1106 -0.0547
   77TCq2    H2 1185   2.878   1.991  12.192  0.5309  0.3592 -0.2444
   77TCq2    H3 1186   3.102   1.640  12.194  0.2780  1.5775  0.0682
   77TCq2    H4 1187   2.773   1.687  11.929 -3.4966  0.3832  3.3802
   78MPD1     C 1188   3.355   2.184   0.936  0.6447  0.0488  0.3260
   78MPD1    C1 1189   3.424   2.079   0.893  0.1578 -0.4302 -0.2670
   78MPD1    C2 1190   3.427   1.979   0.989  0.2129  0.6049 -0.8090
   78MPD1    C3 1191   3.373   1.981   1.115  0.1040 -0.0859 -0.5220
   78MPD1    C4 1192   3.306   2.090   1.148  0.2330  0.3455  0.4627
   78MPD1    C5 1193   3.286   2.188   1.055  0.1300  0.2460  0.0211
   78MPD1     H 1194   3.476   1.888   0.959 -1.0470 -0.3179 -0.1076
   78MPD1    H1 1195   3.254   2.102   1.243 -2.0870  3.7404 -1.2278
   78MPD1    H2 1196   3.343   2.273   0.875  0.9070  2.0925  3.2670
   78MPD1    H3 1197   3.237   2.279   1.088  0.3362 -0.1979  1.5259
   78MPD1     N 1198   3.390   1.871   1.208  0.1013 -0.5743 -0.1534
   78MPD1    H5 1199   3.356   1.890   1.303 -0.6955 -3.0212  0.0483
   78MPD1    N1 1200   3.481   2.073   0.768 -0.5122 -0.3728  0.2340
   78MPD1    H6 1201   3.560   2.010   0.758  0.2450  0.4018  1.4107
   78MPD1    H7 1202   3.494   2.162   0.721 -0.9609 -0.3888  0.0734
   79TCq2    C1 1203   3.457   1.755   1.193  0.2422 -0.0416 -0.0480
   79TCq2    O2 1204   3.532   1.715   1.103 -0.7727 -0.2345  0.1534
   79TCq2    C2 1205   3.469   1.678   1.316 -0.3162  0.4232 -0.7125
   79TCq2    C3 1206   3.360   1.650   1.394 -0.2864  0.0028  0.2110
   79TCq2    C4 1207   3.371   1.554   1.490  0.4466 -0.3981 -0.3730
   79TCq2    C5 1208   3.477   1.479   1.509 -0.3956  0.1605  1.0679
   79TCq2    C6 1209   3.584   1.512   1.434 -0.1169 -0.7313 -0.3154
   79TCq2    C7 1210   3.585   1.613   1.344 -0.6877  0.4346  0.0557
   79TCq2    C8 1211   3.719   1.466   1.463 -0.0495  0.1087  0.0591
   79TCq2    O4 1212   3.818   1.519   1.414  0.0665 -0.9214  0.4010
   79TCq2    C9 1213   3.255   1.539   1.584 -0.1933  0.2787 -0.3122
   79TCq2    O5 1214   3.149   1.592   1.543  0.4556 -0.2462  0.0354
   79TCq2    O6 1215   3.272   1.467   1.684  0.7027  0.3115  0.4075
   79TCq2    H2 1216   3.270   1.710   1.389  0.1792  0.5629 -1.2928
   79TCq2    H3 1217   3.471   1.402   1.585 -1.5558  0.7562  1.5728
   79TCq2    H4 1218   3.679   1.642   1.300 -0.6601 -0.4064 -0.4486
   80MPD2     C 1219   2.002   1.363  12.328 -0.5453 -0.2922 -0.2716
   80MPD2    C1 1220   1.930   1.391  12.215 -0.2511 -0.2360  0.5551
   80MPD2    C2 1221   1.800   1.428  12.212 -0.3105 -0.6084  0.1929
   80MPD2    C3 1222   1.727   1.427  12.326  0.5723  1.0559 -0.8929
   80MPD2    C4 1223   1.789   1.388  12.439  0.1455  0.6065  0.3381
   80MPD2    C5 1224   1.922   1.365  12.438 -0.5740 -0.5915 -0.0610
   80MPD2     H 1225   1.749   1.433  12.116 -0.7763 -1.0005  0.4208
   80MPD2    H1 1226   1.737   1.388  12.533 -0.2794 -0.2367  0.0981
   80MPD2    H2 1227   2.106   1.333  12.338 -0.0746  0.8097 -1.8201
   80MPD2    H3 1228   1.965   1.335  12.532 -2.0811  1.2651  1.2334
   80MPD2     N 1229   1.586   1.458  12.326 -0.0627 -0.2732 -0.1265
   80MPD2    H5 1230   1.540   1.440  12.414  1.8769  3.9566  1.7500
   80MPD2    N1 1231   1.977   1.366  12.084  0.3294 -0.0425 -0.1018
   80MPD2    H7 1232   1.911   1.375  12.008  2.1620 -1.3779 -1.8326
   81TCq2    C1 1233   2.098   1.320  12.056 -0.8261  0.1118  1.0017
   81TCq2    O2 1234   2.209   1.334  12.113  0.2274 -0.2665  0.4239
   81TCq2    C2 1235   2.095   1.248  11.922 -0.0852  0.6799 -0.5723
   81TCq2    C3 1236   2.214   1.185  11.883 -0.0911  0.7801 -0.2169
   81TCq2    C4 1237   2.220   1.134  11.756  0.6338  0.2005  0.5208
   81TCq2    C5 1238   2.111   1.131  11.677 -1.1032 -0.1540  0.2663
   81TCq2    C6 1239   2.000   1.185  11.724 -0.1761 -0.1121 -0.3756
   81TCq2    C7 1240   1.984   1.246  11.844 -0.1616 -0.8743  0.2158
   81TCq2    C8 1241   1.879   1.130  11.676 -0.2113 -0.6844 -0.9289
   81TCq2    O4 1242   1.871   1.119  11.554 -0.5525  0.2485 -0.2537
   81TCq2    C9 1243   2.332   1.060  11.721  0.4356  0.2491  0.3695
   81TCq2    O5 1244   2.408   1.021  11.811 -0.4938 -0.2889 -0.0128
   81TCq2    O6 1245   2.347   1.036  11.602  0.1998 -0.1043 -0.2549
   81TCq2    H2 1246   2.297   1.170  11.951 -0.8105 -0.5265  0.3923
   81TCq2    H3 1247   2.114   1.090  11.577 -0.3352  2.8689 -0.9602
   81TCq2    H4 1248   1.892   1.291  11.880 -0.7223  0.0070 -2.3623
   82MPD2     C 1249   4.502   0.838  10.304  0.1484  0.1211  0.9530
   82MPD2    C1 1250   4.437   0.731  10.255 -1.4824 -0.4478  0.4724
   82MPD2    C2 1251   4.463   0.601  10.301 -0.3157  0.2907  1.1895
   82MPD2    C3 1252   4.541   0.574  10.408 -0.2009  0.0723 -0.3794
   82MPD2    C4 1253   4.598   0.687  10.463  0.1268  0.0614  0.5535
   82MPD2    C5 1254   4.578   0.812  10.412 -0.1293  0.2890 -0.4647
   82MPD2     H 1255   4.415   0.524  10.241 -0.4118  1.5364 -0.3445
   82MPD2    H1 1256   4.657   0.677  10.553  0.0645  1.6452  0.7688
   82MPD2    H2 1257   4.497   0.938  10.262  0.2476 -0.1064  0.4051
   82MPD2    H3 1258   4.622   0.899  10.460 -1.4423  0.7782 -0.1442
   82MPD2     N 1259   4.575   0.444  10.450 -0.3974 -0.3890  0.5496
   82MPD2    H5 1260   4.645   0.431  10.523 -0.3205 -1.7021  0.2536
   82MPD2    N1 1261   4.345   0.765  10.154  0.3025  0.1439 -0.6382
   82MPD2    H7 1262   4.339   0.864  10.135  1.4461  0.7394  2.0448
   83TCq2    C1 1263   4.514   0.327  10.412  0.1396  0.1290 -0.3040
   83TCq2    O2 1264   4.403   0.318  10.360  0.3048  0.1947 -0.4529
   83TCq2    C2 1265   4.581   0.216  10.480 -0.0100 -0.0128 -0.2738
   83TCq2    C3 1266   4.710   0.232  10.530 -0.3738 -0.6660  0.4287
   83TCq2    C4 1267   0.021   0.135  10.619 -0.3387  0.5442 -0.4221
   83TCq2    C5 1268   4.667   0.032  10.652  0.5936 -0.1068 -0.4369
   83TCq2    C6 1269   4.545   0.021  10.599  0.4036 -0.4720  0.0233
   83TCq2    C7 1270   4.499   0.113  10.511  0.0656 -0.3558 -0.0071
   83TCq2    C8 1271   4.464   4.632  10.645  0.3710 -0.2871 -0.5510
   83TCq2    O4 1272   4.516   4.566  10.736  0.2761  0.4375 -0.4490
   83TCq2    C9 1273   0.164   0.129  10.657  0.6393  0.4023  0.3356
   83TCq2    O5 1274   0.212   0.029  10.716 -0.3314 -0.2648 -0.3848
   83TCq2    O6 1275   0.234   0.236  10.640  0.5684  0.1495 -0.3447
   83TCq2    H2 1276   0.062   0.299  10.495 -1.2831 -0.8511 -1.9650
   83TCq2    H3 1277   4.709   4.683  10.719 -0.2146 -1.8760 -1.8818
   83TCq2    H4 1278   4.407   0.108  10.454 -0.9320  0.0679  1.5747
   84TCq2    C1 1279   0.466   3.625  10.147 -0.1086 -0.0834 -0.4914
   84TCq2    O2 1280   0.383   3.535  10.169  0.4996  0.2084 -0.1123
   84TCq2    C2 1281   0.526   3.701  10.262 -0.1930  0.0509 -0.4180
   84TCq2    C3 1282   0.624   3.790  10.237 -0.2892  0.0673 -0.6083
   84TCq2    C4 1283   0.671   3.867  10.342  0.3718 -0.0470 -0.9646
   84TCq2    C5 1284   0.642   3.833  10.474  0.6456  0.0936 -0.0657
   84TCq2    C6 1285   0.550   3.729  10.492 -0.1386 -0.1753  0.0129
   84TCq2    C7 1286   0.488   3.661  10.388  0.8860  0.1143  0.2091
   84TCq2    C8 1287   0.533   3.685  10.633  0.1024 -0.2667 -0.1518
   84TCq2    O4 1288   0.538   3.776  10.716 -0.0364 -0.2457  0.5509
   84TCq2    C9 1289   0.767   3.977  10.320  0.5286  0.2916 -0.0871
   84TCq2    O5 1290   0.821   4.027  10.422 -0.1549 -0.6854 -0.1388
   84TCq2    O6 1291   0.788   4.014  10.201  0.3796  0.2654 -0.8450
   84TCq2    H2 1292   0.643   3.835  10.140 -0.7080  0.2025 -0.6314
   84TCq2    H3 1293   0.667   3.896  10.558 -1.9779 -0.0371  0.8132
   84TCq2    H4 1294   0.410   3.588  10.407  0.1785  0.4269 -1.4792
   85MPD2     C 1295   1.796   1.755  15.996 -0.7396  0.3062 -0.8166
   85MPD2    C1 1296   1.733   1.860  15.936  0.3005 -0.0452 -0.6009
   85MPD2    C2 1297   1.806   1.962  15.883  0.2454  0.4037 -0.1947
   85MPD2    C3 1298   1.948   1.961  15.874 -0.5131 -0.7295 -0.9283
   85MPD2    C4 1299   2.005   1.853  15.939 -0.0814  0.1956  0.1044
   85MPD2    C5 1300   1.932   1.746  15.990 -0.2861  0.0760 -0.3050
   85MPD2     H 1301   1.745   2.033  15.830 -1.2041 -0.4347  0.3551
   85MPD2    H1 1302   2.112   1.851  15.952  0.2932  2.8734 -2.4336
   85MPD2    H2 1303   1.741   1.674  16.043 -0.4957 -0.0919 -1.2172
   85MPD2    H3 1304   1.981   1.659  16.031  0.6721 -0.0515 -1.7307
   85MPD2     N 1305   2.013   2.068  15.824 -0.0797 -0.2134 -0.4050
   85MPD2    H5 1306   1.973   2.134  15.758 -2.4793 -1.9696 -0.7217
   85MPD2    N1 1307   1.594   1.854  15.924 -0.2571 -0.0566  0.0099
   85MPD2    H7 1308   1.555   1.930  15.870  3.0079  0.2878 -1.7998
   86TCq2    C1 1309   2.148   2.086  15.834 -0.2732  0.0489 -0.1160
   86TCq2    O2 1310   2.237   2.015  15.876 -0.0750  0.7240 -0.3428
   86TCq2    C2 1311   2.186   2.207  15.761  0.7744 -0.2118  0.4112
   86TCq2    C3 1312   2.098   2.313  15.748  0.4091 -0.5960 -0.1579
   86TCq2    C4 1313   2.135   2.423  15.671  0.4048  0.1794 -0.2144
   86TCq2    C5 1314   2.241   2.415  15.592 -1.2348 -0.4854  0.1205
   86TCq2    C6 1315   2.324   2.311  15.600 -0.1963 -0.0250  0.1748
   86TCq2    C7 1316   2.307   2.208  15.691 -0.2942 -0.5981 -0.1827
   86TCq2    C8 1317   2.346   2.250  15.466 -0.5124  0.6954  0.2131
   86TCq2    O4 1318   2.313   2.133  15.471 -0.3353  0.5876  0.1363
   86TCq2    C9 1319   2.059   2.548  15.689  0.8883 -0.0682 -0.2081
   86TCq2    O5 1320   1.991   2.555  15.801 -0.1631 -0.5677  0.2175
   86TCq2    O6 1321   2.093   2.653  15.630  0.0511  0.0392 -0.4303
   86TCq2    H2 1322   2.009   2.328  15.809  0.8138 -0.3477  0.3723
   86TCq2    H3 1323   2.260   2.506  15.535 -0.7836 -0.6836 -0.0425
   86TCq2    H4 1324   2.383   2.132  15.705 -0.5914 -0.8642  0.0024
   87MPD2     C 1325   3.458   0.951   1.684 -0.7584  0.5330 -0.1358
   87MPD2    C1 1326   3.560   0.958   1.592  0.6802 -0.0792 -0.5490
   87MPD2    C2 1327   3.545   1.047   1.490  1.0945 -0.4096  0.3562
   87MPD2    C3 1328   3.435   1.130   1.473 -0.7799  0.3376 -1.0208
   87MPD2    C4 1329   3.338   1.126   1.574  0.5891  0.3430 -0.4311
   87MPD2    C5 1330   3.355   1.034   1.680 -0.5770  0.1463 -1.0292
   87MPD2     H 1331   3.624   1.049   1.416  0.3351  0.8678 -0.4109
   87MPD2    H1 1332   3.258   1.199   1.573  0.6991  0.4739  0.6623
   87MPD2    H2 1333   3.457   0.883   1.768 -1.5669  0.5701 -0.1223
   87MPD2    H3 1334   3.291   1.028   1.768  0.1054 -0.4596 -0.5805
   87MPD2     N 1335   3.413   1.217   1.364 -0.4699 -1.0645 -0.0755
   87MPD2    H5 1336   3.321   1.259   1.355  1.2618  2.4628 -1.1842
   87MPD2    N1 1337   3.676   0.874   1.606 -0.0921 -0.2879 -0.9655
   87MPD2    H7 1338   3.675   0.804   1.680 -0.5004 -0.1145 -0.8062
   88TCq2    C1 1339   3.778   0.843   1.514  0.2259  0.1769 -0.0762
   88TCq2    O2 1340   3.789   0.885   1.400  0.2296 -0.1561 -0.2323
   88TCq2    C2 1341   3.873   0.750   1.570 -0.1241 -1.0549  0.4940
   88TCq2    C3 1342   3.867   0.725   1.706 -0.6702 -0.2309 -0.5885
   88TCq2    C4 1343   3.953   0.633   1.757  0.3531  0.4851 -0.5195
   88TCq2    C5 1344   4.018   0.547   1.671  0.3804  0.5987  0.1632
   88TCq2    C6 1345   4.014   0.574   1.537  0.3474  0.0876  0.0062
   88TCq2    C7 1346   3.945   0.677   1.486 -0.6518 -0.5432 -0.1519
   88TCq2    C8 1347   4.098   0.502   1.446 -0.6348 -0.6317  0.5528
   88TCq2    O4 1348   4.093   0.522   1.324 -0.2401  0.0352  0.0264
   88TCq2    C9 1349   3.961   0.610   1.895 -0.2784  0.3706  0.5044
   88TCq2    O5 1350   4.026   0.510   1.934 -0.2536  0.0923 -0.7074
   88TCq2    O6 1351   3.876   0.670   1.969 -0.2547  0.1279  0.0523
   88TCq2    H2 1352   3.810   0.784   1.777  1.7380  0.4971  0.7260
   88TCq2    H3 1353   4.060   0.458   1.717 -0.0647 -0.1369 -0.8615
   88TCq2    H4 1354   3.944   0.688   1.378  0.6527  0.7936 -0.0096
   89MPD2     C 1355   0.248   3.018   0.630 -0.3327  0.7418 -0.0010
   89MPD2    C1 1356   0.227   3.112   0.726  0.2656 -0.1560  0.0194
   89MPD2    C2 1357   0.299   3.233   0.728 -0.4628 -0.0590 -0.2947
   89MPD2    C3 1358   0.395   3.250   0.632  0.4690  0.4909 -0.8048
   89MPD2    C4 1359   0.411   3.157   0.533  0.8589  0.2691  0.0096
   89MPD2    C5 1360   0.338   3.041   0.525  0.2485 -0.2037 -0.1564
   89MPD2     H 1361   0.274   3.303   0.808  0.9252 -0.8291  0.8239
   89MPD2    H1 1362   0.478   3.167   0.448 -0.5769 -0.2492 -1.1927
   89MPD2    H2 1363   0.201   2.921   0.614  1.3876  0.2455 -2.1611
   89MPD2    H3 1364   0.356   2.974   0.442 -1.8371 -1.9445  0.8007
   89MPD2     N 1365   0.476   3.371   0.644  0.0298  0.0977 -0.1492
   89MPD2    H5 1366   0.455   3.440   0.716 -0.8705  0.6971 -0.9868
   89MPD2    N1 1367   0.138   3.092   0.831  0.0234  1.0261 -0.3808
   89MPD2    H7 1368   0.119   3.169   0.894  2.5435  1.1918  0.1499
   90TCq2    C1 1369   0.587   3.409   0.567  0.0361 -0.3917  0.4815
   90TCq2    O2 1370   0.640   3.335   0.481  0.4601 -0.1603 -0.6928
   90TCq2    C2 1371   0.653   3.534   0.592 -0.1993 -0.1998  0.3099
   90TCq2    C3 1372   0.777   3.547   0.544  0.2364  0.5257 -0.1185
   90TCq2    C4 1373   0.857   3.643   0.586  0.3460  0.1590  0.3043
   90TCq2    C5 1374   0.829   3.719   0.695 -0.0383 -0.6106 -0.1528
   90TCq2    C6 1375   0.708   3.699   0.741 -0.0231 -0.3466  0.0407
   90TCq2    C7 1376   0.609   3.626   0.688  0.3218  0.1216  0.8424
   90TCq2    C8 1377   0.662   3.765   0.867  0.2807  0.4329  0.2414
   90TCq2    O4 1378   0.569   3.725   0.934 -0.8470 -0.3198  0.1553
   90TCq2    C9 1379   0.989   3.656   0.538 -0.1090  0.4669  0.3999
   90TCq2    O5 1380   1.054   3.756   0.569  0.0433  0.7362 -0.3910
   90TCq2    O6 1381   1.033   3.563   0.471 -0.3833 -0.6350  0.0376
   90TCq2    H2 1382   0.810   3.475   0.470 -0.1728 -1.7304  1.8919
   90TCq2    H3 1383   0.896   3.799   0.723 -0.9308  0.5644 -1.3802
   90TCq2    H4 1384   0.513   3.617   0.738  0.6581  2.7954  1.9460
   91TMC2    C1 1385   1.653   3.165  16.555 -0.3233 -0.7434  0.1466
   91TMC2    C2 1386   1.672   3.267  16.463 -0.1991 -0.3923 -0.4785
   91TMC2    C3 1387   1.567   3.283  16.370  0.7937 -0.1675 -0.2322
   91TMC2    C4 1388   1.537   3.094  16.572 -0.5184 -0.0621  0.0171
   91TMC2    C5 1389   1.433   3.125  16.483  0.1040  0.5211 -0.5933
   91TMC2    C6 1390   1.447   3.214  16.382 -0.0723  0.1018  0.6087
   91TMC2     C 1391   1.763   3.115  16.624  0.3238 -0.7011 -0.4694
   91TMC2     O 1392   1.750   3.049  16.728 -0.3285  0.0271 -0.8412
   91TMC2     H 1393   1.754   3.337  16.455  2.6201 -3.5637  0.8616
   91TMC2    H1 1394   1.528   3.008  16.638  1.9030 -0.5912 -0.3405
   91TMC2    H2 1395   1.363   3.236  16.318  0.0858  2.1120  1.1140
   91TMC2    C7 1396   1.342   3.014  16.473  0.4757  0.7617  0.2128
   91TMC2    C8 1397   1.591   3.364  16.250  0.6193  0.4953 -0.2806
   91TMC2    O1 1398   1.296   2.966  16.573 -0.2112  0.2930 -0.2844
   91TMC2    O2 1399   1.508   3.443  16.206 -0.3165  0.2931  0.2346
   91TMC2    O5 1400   1.723   3.346  16.212  0.1807  0.3403  0.0135
   91TMC2    H5 1401   1.764   3.266  16.252  3.8622  1.3680 -1.7019
   92MPD2     C 1402   2.050   3.067  16.702 -0.3261 -0.4822  0.4773
   92MPD2    C1 1403   2.012   3.140  16.592 -0.5447  0.3672 -0.2712
   92MPD2    C2 1404   2.105   3.204  16.516 -0.6375  0.6219 -0.0127
   92MPD2    C3 1405   2.241   3.197  16.544  0.3143 -0.6222 -0.0591
   92MPD2    C4 1406   2.274   3.112  16.651  0.1163  0.0888 -0.0700
   92MPD2    C5 1407   2.181   3.055  16.729 -0.1215 -0.3437  0.7017
   92MPD2     H 1408   2.058   3.267  16.441  1.7175  1.4725 -0.7616
   92MPD2    H1 1409   2.379   3.103  16.679 -0.1414  0.7388  1.1063
   92MPD2    H2 1410   1.982   3.016  16.770 -2.1618  1.5312  0.1602
   92MPD2    H3 1411   2.224   2.986  16.801 -0.2175  1.9839  2.9896
   92MPD2     N 1412   2.336   3.273  16.472  0.3189  0.5055  0.0421
   92MPD2    H5 1413   2.309   3.344  16.405 -1.8134 -0.9370 -0.6229
   92MPD2    N1 1414   1.879   3.146  16.552  0.1816  0.0973 -0.1229
   92MPD2    H7 1415   1.859   3.198  16.467 -2.5019 -2.3452 -0.9800
   93MPD2     C 1416   3.688   3.483  13.744 -0.1898 -0.4170 -0.1252
   93MPD2    C1 1417   3.674   3.539  13.620 -0.1977 -0.3290 -0.0854
   93MPD2    C2 1418   3.551   3.515  13.557 -0.0581  0.2429 -0.0889
   93MPD2    C3 1419   3.448   3.446  13.619  0.1696 -0.6387  0.2321
   93MPD2    C4 1420   3.461   3.389  13.746  0.1021  0.2272 -0.9611
   93MPD2    C5 1421   3.589   3.410  13.798  0.0043  0.2604  0.2243
   93MPD2     H 1422   3.528   3.555  13.459 -0.5165 -0.4893 -0.2811
   93MPD2    H1 1423   3.394   3.316  13.788  2.6613 -1.8503 -0.5321
   93MPD2    H2 1424   3.787   3.479  13.789 -0.9964 -1.1321  1.5833
   93MPD2    H3 1425   3.607   3.347  13.884  0.0626  0.4675  0.3638
   93MPD2     N 1426   3.330   3.434  13.537  0.3391 -0.1556  0.2433
   93MPD2    H5 1427   3.323   3.478  13.446  2.2376  1.8874  1.1109
   93MPD2    N1 1428   3.765   3.626  13.562  0.2206 -0.2713 -0.1034
   93MPD2    H7 1429   3.740   3.656  13.468 -3.3124 -1.0608  0.5684
   94TCq2    C1 1430   3.873   3.687  13.619 -0.3538  0.0017  0.1714
   94TCq2    O2 1431   3.933   3.640  13.715 -0.4950 -0.4338  0.0182
   94TCq2    C2 1432   3.937   3.778  13.524  0.0426  0.5199 -0.3324
   94TCq2    C3 1433   3.860   3.827  13.422 -0.0455 -0.0482 -0.7126
   94TCq2    C4 1434   3.918   3.913  13.338  0.1675 -0.1470  0.0833
   94TCq2    C5 1435   4.049   3.939  13.338  0.5137  0.3646  0.1681
   94TCq2    C6 1436   4.130   3.890  13.442  0.4426  0.0341  0.2290
   94TCq2    C7 1437   4.070   3.814  13.539 -0.7661 -0.2626  0.4979
   94TCq2    C8 1438   4.274   3.882  13.433 -0.0187 -0.1983 -0.9576
   94TCq2    O4 1439   4.330   3.815  13.518 -0.7034  0.0934  0.0697
   94TCq2    C9 1440   3.837   3.972  13.237 -0.7620  0.2090  0.6138
   94TCq2    O5 1441   3.897   3.973  13.124 -0.3409  0.2761 -0.6069
   94TCq2    O6 1442   3.712   3.976  13.241  0.1139 -0.3344  0.1760
   94TCq2    H2 1443   3.757   3.803  13.401  0.0590 -1.5478  0.4318
   94TCq2    H3 1444   4.092   4.013  13.271  0.1520 -0.0788 -0.5628
   94TCq2    H4 1445   4.127   3.755  13.610 -3.5303 -2.8466  0.5805
   95TMC2    C1 1446   3.583   0.104  15.733 -1.1956  0.4896  0.2929
   95TMC2    C2 1447   3.593   4.706  15.788 -0.5960 -0.7697  0.0732
   95TMC2    C3 1448   3.569   4.677  15.917  0.1498 -0.3652  0.6274
   95TMC2    C4 1449   3.528   0.205  15.821  0.0638 -0.0465 -0.9004
   95TMC2    C5 1450   3.502   0.169  15.954  0.5075  0.1100 -0.5185
   95TMC2    C6 1451   3.529   0.044  16.009 -0.4940 -0.1622  0.2174
   95TMC2     C 1452   3.686   0.156  15.634 -0.1544 -0.1989  0.1938
   95TMC2     O 1453   3.709   0.275  15.650  0.3837  0.3442 -0.2367
   95TMC2     H 1454   3.636   4.621  15.736  2.1309  1.8348 -1.9000
   95TMC2    H1 1455   3.535   0.309  15.791 -1.0290  1.1396  2.9866
   95TMC2    H2 1456   3.537   0.032  16.116 -0.0659  0.7244  0.2913
   95TMC2    C7 1457   3.476   0.281  16.046  0.6936 -0.2090  0.3401
   95TMC2    C8 1458   3.644   4.562  15.967 -0.3102  0.0995  0.4444
   95TMC2    O1 1459   3.501   0.266  16.162 -0.4698  0.4909  0.7483
   95TMC2    O2 1460   3.732   4.510  15.900  0.1125 -0.3049 -0.0912
   95TMC2    O5 1461   3.550   4.512  16.050 -0.5449  0.5790  0.5099
   95TMC2    H5 1462   3.476   4.571  16.074 -1.4439 -0.2679 -0.1646
   96MPD2     C 1463   3.949   0.122  15.188  0.3052  0.0718  0.0532
   96MPD2    C1 1464   3.934   0.227  15.273  0.9446 -0.2174  0.0605
   96MPD2    C2 1465   3.869   0.221  15.394 -0.0778  0.0176  0.2285
   96MPD2    C3 1466   3.818   0.094  15.426  0.1869 -0.3141 -0.0190
   96MPD2    C4 1467   3.829   4.714  15.337  0.3051  0.1909  0.0369
   96MPD2    C5 1468   3.890   0.000  15.209  0.1598 -0.0269 -0.5546
   96MPD2     H 1469   3.866   0.305  15.463 -0.8418 -1.8558  2.4883
   96MPD2    H1 1470   3.796   4.613  15.355 -0.8267  0.3453 -1.0971
   96MPD2    H2 1471   3.992   0.148  15.092 -0.3232 -0.4301 -0.3632
   96MPD2    H3 1472   3.892   4.644  15.137  0.3568 -1.8912  1.5201
   96MPD2     N 1473   3.735   0.067  15.543  0.2037  0.1808 -0.1563
   96MPD2    H5 1474   3.703   4.696  15.556 -1.8143  0.8388 -0.3308
   96MPD2    N1 1475   3.986   0.350  15.222  0.5351 -0.5782 -0.1788
   96MPD2    H7 1476   4.033   0.345  15.131 -0.2404 -2.0059 -0.4960
   97MPD2     C 1477   0.844   2.259   0.369 -0.6958 -0.1103  0.4003
   97MPD2    C1 1478   0.721   2.319   0.365  0.1595  0.2316  0.1359
   97MPD2    C2 1479   0.713   2.412   0.268  0.0448  0.1135 -0.1492
   97MPD2    C3 1480   0.816   2.466   0.192  0.4698  0.0085 -0.1496
   97MPD2    C4 1481   0.943   2.417   0.218 -0.3259 -0.5117  0.0661
   97MPD2    C5 1482   0.952   2.307   0.298  0.1166 -0.0973 -0.2089
   97MPD2     H 1483   0.615   2.449   0.239 -0.8454 -0.2816  2.3800
   97MPD2    H1 1484   1.033   2.439   0.163 -0.3353 -0.1579  0.1926
   97MPD2    H2 1485   0.872   2.190   0.448  2.0559  1.2149  0.6087
   97MPD2    H3 1486   1.051   2.263   0.308 -0.3163 -1.6103 -2.5548
   97MPD2     N 1487   0.809   2.558   0.084 -0.0858 -0.2846 -0.0576
   97MPD2    H5 1488   0.893   2.563   0.029  0.2654  0.3316  0.5287
   97MPD2    N1 1489   0.614   2.282   0.451  0.4099 -0.5176 -0.6606
   97MPD2    H7 1490   0.641   2.212   0.518  0.5422  1.7920  1.7193
   98TCq2    C1 1491   0.689   2.608   0.038 -0.2644 -0.0556  0.2332
   98TCq2    O2 1492   0.578   2.585   0.078  0.0091 -0.3616  0.2420
   98TCq2    C2 1493   0.707   2.705  17.618 -0.4876  0.3794 -0.1233
   98TCq2    C3 1494   0.595   2.737  17.550  0.8140 -0.4132 -0.1362
   98TCq2    C4 1495   0.588   2.851  17.480 -0.4523 -0.5039  0.3367
   98TCq2    C5 1496   0.705   2.925  17.472  0.1497 -0.6367 -0.5698
   98TCq2    C6 1497   0.822   2.884  17.525 -0.2056 -0.4705 -0.4200
   98TCq2    C7 1498   0.823   2.772  17.605  0.1574 -0.8296 -0.5402
   98TCq2    C8 1499   0.928   2.976  17.552 -0.5570  0.4314 -0.6463
   98TCq2    O4 1500   1.028   2.928  17.607  0.1893 -0.4115  0.4035
   98TCq2    C9 1501   0.460   2.899  17.439  0.9083 -0.3352 -0.3829
   98TCq2    O5 1502   0.453   2.997  17.358 -0.5203 -0.0215  0.0767
   98TCq2    O6 1503   0.370   2.871  17.519  0.0895  0.2114  0.7515
   98TCq2    H2 1504   0.508   2.675  17.568  0.3726  0.7581  1.8118
   98TCq2    H3 1505   0.687   3.026  17.439  0.9576  0.0887  1.1972
   98TCq2    H4 1506   0.913   2.752  17.662 -3.3638 -1.2713  4.8960
   99MPD2     C 1507   0.142   4.181   1.808 -0.5266 -0.2003 -0.1901
   99MPD2    C1 1508   0.033   4.186   1.729 -0.5034 -0.2476 -0.8765
   99MPD2    C2 1509   0.037   4.146   1.595  0.1037 -0.2317 -0.4063
   99MPD2    C3 1510   0.159   4.113   1.542  0.1648 -0.0720  0.2937
   99MPD2    C4 1511   0.268   4.096   1.627 -0.6365 -0.0884 -0.1205
   99MPD2    C5 1512   0.253   4.131   1.754  0.7896 -0.2691  0.2012
   99MPD2     H 1513   4.678   4.141   1.527 -0.5270  0.7816  0.3014
   99MPD2    H1 1514   0.365   4.059   1.597 -0.4159  0.3083  0.1038
   99MPD2    H2 1515   0.147   4.217   1.910 -1.1021  0.6013 -0.4491
   99MPD2    H3 1516   0.345   4.132   1.810  0.3114 -0.2375  0.9748
   99MPD2     N 1517   0.167   4.058   1.411  0.1159  0.8292  0.5547
   99MPD2    H5 1518   0.079   4.050   1.362  0.5572  1.7965 -0.3960
   99MPD2    N1 1519   4.623   4.212   1.778  0.4180  0.6330 -0.0597
   99MPD2    H7 1520   4.549   4.196   1.711  0.5690 -0.9221  0.1497
  100TCq2    C1 1521   4.597   4.231   1.915  0.3152  0.0258 -0.1155
  100TCq2    O2 1522   4.677   4.229   2.009 -0.0761  0.4372 -0.2913
  100TCq2    C2 1523   4.452   4.258   1.931 -0.0481 -0.3823 -0.0440
  100TCq2    C3 1524   4.415   4.248   2.061 -0.4507 -0.6686 -0.1521
  100TCq2    C4 1525   4.282   4.278   2.081 -0.2347  0.4002  0.0237
  100TCq2    C5 1526   4.199   4.317   1.981 -0.0286  0.1761  0.4426
  100TCq2    C6 1527   4.242   4.323   1.848 -0.6484  1.7553 -0.1084
  100TCq2    C7 1528   4.369   4.289   1.822 -0.5376  0.5144  0.0269
  100TCq2    C8 1529   4.149   4.360   1.741 -1.0923 -0.5967  0.8407
  100TCq2    O4 1530   4.178   4.321   1.627 -0.1453  0.3434  0.0863
  100TCq2    C9 1531   4.240   4.270   2.218  0.9163 -0.0468 -0.4106
  100TCq2    O5 1532   4.116   4.291   2.230  0.2466 -0.0026  0.0117
  100TCq2    O6 1533   4.325   4.254   2.312  0.5102 -0.3194  0.0554
  100TCq2    H2 1534   4.487   4.235   2.141  0.1826  0.0752 -0.6060
  100TCq2    H3 1535   4.094   4.330   2.002  0.5070 -2.8417  4.9935
  100TCq2    H4 1536   4.405   4.315   1.723  2.1155 -1.5853  0.4404
  101MPD2     C 1537   0.856   0.832  12.593 -0.8556 -0.3323  0.0237
  101MPD2    C1 1538   0.750   0.907  12.633  0.0745  0.1334  0.5544
  101MPD2    C2 1539   0.639   0.838  12.689 -0.7066 -0.2036  0.3060
  101MPD2    C3 1540   0.641   0.699  12.687 -0.3900 -0.0597  0.1263
  101MPD2    C4 1541   0.747   0.626  12.633 -0.5083 -0.2086 -0.0664
  101MPD2    C5 1542   0.858   0.694  12.597  0.3205  0.0748 -0.3134
  101MPD2     H 1543   0.554   0.891  12.731 -1.3199 -0.2993 -0.8248
  101MPD2    H1 1544   0.755   0.519  12.645  0.7635 -0.1435 -0.3199
  101MPD2    H2 1545   0.951   0.873  12.561 -1.1279 -1.5087 -2.2747
  101MPD2    H3 1546   0.935   0.634  12.550  0.1572 -0.9434  0.7270
  101MPD2     N 1547   0.538   0.634  12.754  0.2479  0.2002 -0.0644
  101MPD2    H5 1548   0.468   0.697  12.793 -0.4783 -0.7620  0.1931
  101MPD2    N1 1549   0.758   1.050  12.630  0.2945 -0.1522  0.1590
  101MPD2    H7 1550   0.844   1.098  12.608 -0.8030  0.8026 -2.0154
  102TCq2    C1 1551   0.905   1.517  12.498 -0.3331  0.4701 -0.1353
  102TCq2    O2 1552   1.001   1.479  12.558 -0.6158 -0.0596 -0.1507
  102TCq2    C2 1553   0.781   1.445  12.529 -0.6615  0.5623  0.5366
  102TCq2    C3 1554   0.669   1.526  12.546 -0.4182 -0.0411  0.0673
  102TCq2    C4 1555   0.562   1.475  12.613 -0.2567 -0.8049 -0.0271
  102TCq2    C5 1556   0.567   1.352  12.669  0.0267  0.3017 -0.1123
  102TCq2    C6 1557   0.673   1.268  12.644  0.3850 -0.7741  0.8209
  102TCq2    C7 1558   0.783   1.315  12.574  0.4959  0.0738 -0.0075
  102TCq2    C8 1559   0.652   1.123  12.672  0.4210 -0.2233 -0.4017
  102TCq2    O4 1560   0.540   1.101  12.714  0.2401  0.0566  0.5816
  102TCq2    C9 1561   0.436   1.536  12.634  0.4332  0.2997 -0.4954
  102TCq2    O5 1562   0.439   1.662  12.637 -0.1657 -0.3079 -0.1782
  102TCq2    O6 1563   0.334   1.467  12.636  0.2650 -0.1968 -0.3718
  102TCq2    H2 1564   0.665   1.627  12.506  0.4651 -1.9199 -4.6826
  102TCq2    H3 1565   0.488   1.304  12.725  0.9726 -0.1031  0.8638
  102TCq2    H4 1566   0.876   1.260  12.563  0.3392  0.1522 -1.7834
  103TMC2    C1 1567   3.472   1.017  12.309  0.9286  0.0738 -0.0203
  103TMC2    C2 1568   3.500   0.888  12.263 -0.3024 -0.2536  0.2877
  103TMC2    C3 1569   3.609   0.826  12.311 -0.1229 -0.3754 -0.0111
  103TMC2    C4 1570   3.556   1.074  12.407  0.6354  0.0341  0.1329
  103TMC2    C5 1571   3.646   0.988  12.464  0.5349 -0.1952 -0.4512
  103TMC2    C6 1572   3.675   0.861  12.424  0.1709  0.9136  0.1518
  103TMC2     C 1573   3.371   1.095  12.247  0.3148 -0.6282  0.2892
  103TMC2     O 1574   3.361   1.209  12.287 -0.3726 -0.0903  0.5517
  103TMC2     H 1575   3.455   0.838  12.178 -0.3858 -0.2947  0.3558
  103TMC2    H1 1576   3.552   1.179  12.434 -2.3655  0.1697 -0.8806
  103TMC2    H2 1577   3.758   0.807  12.470 -1.5663 -1.1419  0.8914
  103TMC2    C7 1578   3.704   1.024  12.595 -0.2183  0.0188 -0.4519
  103TMC2    C8 1579   3.626   0.693  12.258 -0.1163  1.1285 -0.5739
  103TMC2    O1 1580   3.808   0.983  12.638 -0.4520  0.2623 -0.0634
  103TMC2    O2 1581   3.541   0.608  12.235  0.1305  0.0904 -0.2170
  103TMC2    O5 1582   3.751   0.688  12.219 -0.4871 -0.3273 -0.1276
  103TMC2    H5 1583   3.807   0.764  12.244 -0.8701  0.9931 -3.3008
  104MPD2     C 1584   3.197   1.059  11.930  0.3995 -0.2607 -0.2919
  104MPD2    C1 1585   3.220   1.104  12.056 -0.1923 -0.3191 -0.5304
  104MPD2    C2 1586   3.161   1.224  12.088  0.2714  0.2432  0.2800
  104MPD2    C3 1587   3.086   1.305  12.002  0.4832 -0.8926 -0.2953
  104MPD2    C4 1588   3.055   1.247  11.880 -0.1359 -0.2270 -0.4623
  104MPD2    C5 1589   3.116   1.133  11.841  0.9442 -0.0281  0.3230
  104MPD2     H 1590   3.166   1.256  12.192 -3.3376 -1.3501  0.9507
  104MPD2    H1 1591   2.994   1.298  11.806 -0.9791  0.8528  0.9909
  104MPD2    H2 1592   3.250   0.967  11.905  0.2328 -0.0289 -1.5312
  104MPD2    H3 1593   3.111   1.114  11.734 -1.7516  0.4318  0.3866
  104MPD2     N 1594   3.042   1.437  12.045  0.0732 -0.4756  0.3495
  104MPD2    H5 1595   3.062   1.463  12.141 -3.4118  2.7539  0.1963
  104MPD2    N1 1596   3.318   1.041  12.132  0.5186 -0.4390  0.4333
  104MPD2    H7 1597   3.358   0.953  12.100  0.6932 -0.5239  0.8795
  105MPD2     C 1598   0.054   4.535   0.231 -0.5480 -0.8876  0.0506
  105MPD2    C1 1599   4.688   4.632   0.192  0.9184 -0.3721 -0.3200
  105MPD2    C2 1600   4.606   4.694   0.290 -0.0977 -0.0356 -0.4638
  105MPD2    C3 1601   4.627   4.671   0.428  0.2715  0.7696  0.1366
  105MPD2    C4 1602   4.717   4.569   0.454  0.3197 -0.6394 -0.0052
  105MPD2    C5 1603   0.075   4.508   0.363 -0.7379  0.5166  0.4613
  105MPD2     H 1604   4.540   0.046   0.252 -1.9599 -0.5691  1.6955
  105MPD2    H1 1605   0.003   4.521   0.550 -2.5181 -1.2542  0.0105
  105MPD2    H2 1606   0.120   4.490   0.157 -0.1128  2.3588 -1.5337
  105MPD2    H3 1607   0.136   4.423   0.392 -0.5404  0.5395  0.1181
  105MPD2     N 1608   4.541   0.004   0.526 -0.3717 -0.3287  0.5196
  105MPD2    H5 1609   4.455   0.049   0.496 -1.4311  0.4194  4.7090
  105MPD2    N1 1610   4.679   4.691   0.064 -0.3450  0.8254 -0.1535
  105MPD2    H7 1611   4.616   0.045   0.057 -1.2863 -0.1318 -2.3038
  106TCq2    C1 1612   4.565   4.709   0.664 -0.0828 -0.1148 -0.1870
  106TCq2    O2 1613   4.646   4.638   0.719 -0.0149 -0.5356 -0.1600
  106TCq2    C2 1614   4.472   0.054   0.750  0.6916 -0.4013 -1.0058
  106TCq2    C3 1615   4.397   0.162   0.702 -0.4635 -0.3489 -0.1524
  106TCq2    C4 1616   4.290   0.205   0.779 -0.0868  0.5777 -0.0246
  106TCq2    C5 1617   4.279   0.170   0.910 -0.4247  0.2835 -0.4642
  106TCq2    C6 1618   4.356   0.065   0.950 -0.7977  0.9348 -0.0977
  106TCq2    C7 1619   4.455   0.005   0.871  0.5335  1.0098  0.4901
  106TCq2    C8 1620   4.374   0.042   1.093  0.0558 -0.3407 -0.1218
  106TCq2    O4 1621   4.448   4.683   1.143 -0.2060 -0.2715 -0.3350
  106TCq2    C9 1622   4.210   0.315   0.728 -0.1519  0.1885 -0.0893
  106TCq2    O5 1623   4.144   0.371   0.819  0.3428 -0.0630 -0.3747
  106TCq2    O6 1624   4.231   0.351   0.611  0.1082 -0.1702 -0.2919
  106TCq2    H2 1625   4.410   0.198   0.601  1.1601 -2.2958 -0.6430
  106TCq2    H3 1626   4.192   0.200   0.966 -0.4090 -0.4066 -0.0597
  106TCq2    H4 1627   4.508   4.639   0.902  0.7141  1.2574  0.9070
  107TMC2    C1 1628   0.520   3.763  11.470 -0.4276  0.1384 -0.3880
  107TMC2    C2 1629   0.538   3.715  11.596  0.5322 -0.0840 -1.1417
  107TMC2    C3 1630   0.549   3.582  11.604  0.1253 -0.0829 -0.1344
  107TMC2    C4 1631   0.516   3.689  11.356  0.1619 -0.2964  0.5132
  107TMC2    C5 1632   0.531   3.554  11.374 -0.2995  0.3013 -0.1992
  107TMC2    C6 1633   0.549   3.497  11.496 -0.0968  0.4713 -0.4180
  107TMC2     C 1634   0.511   3.904  11.464 -0.8289 -0.0111  0.6807
  107TMC2     O 1635   0.545   3.963  11.565  0.0539 -0.3153 -0.1151
  107TMC2     H 1636   0.551   3.776  11.684  2.2537 -1.2732 -0.5746
  107TMC2    H1 1637   0.482   3.724  11.259  0.1464 -0.7149  0.3703
  107TMC2    H2 1638   0.554   3.389  11.499  1.1634  0.5985  2.4616
  107TMC2    C7 1639   0.508   3.462  11.259  0.5615  0.3973 -0.7778
  107TMC2    C8 1640   0.529   3.512  11.727  0.7678  0.3296 -0.2286
  107TMC2    O1 1641   0.491   3.344  11.280  0.1031 -0.2869 -0.8940
  107TMC2    O2 1642   0.524   3.392  11.721 -0.1322  0.0336  0.6119
  107TMC2    O5 1643   0.500   3.585  11.833  0.2318  0.1536 -0.5044
  107TMC2    H5 1644   0.489   3.681  11.817 -2.0926  0.2724  1.7741
  108MPD2     C 1645   0.433   4.144  11.197 -0.6235 -0.1467 -0.6077
  108MPD2    C1 1646   0.454   4.101  11.329 -0.1314  0.1833  0.1512
  108MPD2    C2 1647   0.429   4.192  11.435 -0.3064 -0.5241  0.5364
  108MPD2    C3 1648   0.398   4.322  11.393 -0.5680  0.2720 -0.5967
  108MPD2    C4 1649   0.385   4.361  11.263 -0.1395 -0.0527 -0.4936
  108MPD2    C5 1650   0.408   4.273  11.158  0.4511 -0.1351  0.1996
  108MPD2     H 1651   0.428   4.156  11.537  0.4921 -0.9392  0.3964
  108MPD2    H1 1652   0.368   4.465  11.236 -0.5359  0.6792  2.5786
  108MPD2    H2 1653   0.466   4.084  11.113  0.5146  0.0716 -0.3197
  108MPD2    H3 1654   0.398   4.309  11.057 -0.3542  0.6679  0.5653
  108MPD2     N 1655   0.360   4.419  11.491 -0.4581 -0.4038  0.1937
  108MPD2    H5 1656   0.299   4.495  11.463 -0.8148 -1.0473 -0.7716
  108MPD2    N1 1657   0.481   3.963  11.345 -0.3613 -0.0086  0.6694
  108MPD2    H7 1658   0.474   3.905  11.262 -0.8662  0.7094  0.2102
  109MPD2     C 1659   0.180   1.385   1.817  0.7181 -0.4181  0.0059
  109MPD2    C1 1660   0.171   1.451   1.696 -0.7615  0.2718 -0.0729
  109MPD2    C2 1661   0.246   1.566   1.667 -0.7172 -0.7900  0.3030
  109MPD2    C3 1662   0.339   1.612   1.760 -0.1404  0.7191 -0.3454
  109MPD2    C4 1663   0.346   1.545   1.884 -0.6207  0.5577 -0.8478
  109MPD2    C5 1664   0.264   1.437   1.914  0.1651  0.0910  0.0865
  109MPD2     H 1665   0.266   1.601   1.566  2.6435 -0.3819  1.1293
  109MPD2    H1 1666   0.413   1.581   1.961 -1.5449 -0.2928  0.3498
  109MPD2    H2 1667   0.115   1.304   1.848  0.2798 -0.6418 -1.5170
  109MPD2    H3 1668   0.260   1.403   2.017 -2.4185  1.0515  0.2911
  109MPD2     N 1669   0.416   1.725   1.731  0.4314  0.5305  0.2139
  109MPD2    H5 1670   0.408   1.763   1.637 -2.3577  0.0095  0.2242
  109MPD2    N1 1671   0.079   1.406   1.600 -0.4658  0.0482 -0.0715
  109MPD2    H7 1672   0.086   1.429   1.501 -0.1077  1.0650  0.1955
  110TCq2    C1 1673   0.499   1.800   1.815  0.1032 -0.8703 -0.0457
  110TCq2    O2 1674   0.521   1.784   1.932 -0.4601 -0.1547 -0.1575
  110TCq2    C2 1675   0.577   1.906   1.753 -0.0163  0.6821 -0.6523
  110TCq2    C3 1676   0.702   1.927   1.810  0.2439  0.0993  0.1132
  110TCq2    C4 1677   0.804   1.993   1.745 -0.8730 -0.0884  0.0331
  110TCq2    C5 1678   0.791   2.032   1.615  0.2704  0.2319  0.4424
  110TCq2    C6 1679   0.671   1.997   1.553 -0.0701 -0.0748 -0.5064
  110TCq2    C7 1680   0.568   1.939   1.618 -0.5000  0.2226  0.4046
  110TCq2    C8 1681   0.655   2.027   1.413  0.0874  0.1224  0.4823
  110TCq2    O4 1682   0.554   1.980   1.361  0.0498 -0.1048  0.2235
  110TCq2    C9 1683   0.926   2.034   1.811 -0.1374  0.6020 -0.4978
  110TCq2    O5 1684   1.002   2.115   1.750 -0.8159  0.0971 -0.5040
  110TCq2    O6 1685   0.972   1.961   1.906 -0.4647 -0.3253 -0.3578
  110TCq2    H2 1686   0.708   1.905   1.916  0.9778  1.0220  0.2542
  110TCq2    H3 1687   0.872   2.090   1.573  2.0305 -1.7766  1.0695
  110TCq2    H4 1688   0.467   1.932   1.579 -0.3395  1.5707 -0.2303
  111TMC2    C1 1689   1.657   1.847  11.470 -0.1533 -0.0051 -0.5786
  111TMC2    C2 1690   1.720   1.781  11.373 -0.2202 -0.5630  0.3418
  111TMC2    C3 1691   1.855   1.761  11.393 -0.8996 -0.3325  0.0484
  111TMC2    C4 1692   1.718   1.889  11.583 -0.7956 -0.3666 -0.9166
  111TMC2    C5 1693   1.854   1.857  11.603  0.3163 -0.4734  0.4738
  111TMC2    C6 1694   1.922   1.793  11.509 -0.5318 -0.7131  0.2235
  111TMC2     C 1695   1.514   1.818  11.491  0.3709 -0.8702  0.1168
  111TMC2     O 1696   1.462   1.750  11.404  0.3089 -0.2183 -0.4683
  111TMC2     H 1697   1.675   1.752  11.278 -0.5782  1.8422 -0.2390
  111TMC2    H1 1698   1.668   1.960  11.648 -0.0973 -1.3159  0.6405
  111TMC2    H2 1699   2.029   1.775  11.504 -0.4176 -0.3969  1.7726
  111TMC2    C7 1700   1.902   1.883  11.734 -0.4123 -0.0230  0.2068
  111TMC2    C8 1701   1.942   1.716  11.280 -0.0064  0.2807 -0.6175
  111TMC2    O1 1702   1.821   1.943  11.804  0.0042 -0.8224  0.5342
  111TMC2    O2 1703   2.057   1.685  11.307  0.0099  0.3882  0.1251
  111TMC2    O5 1704   1.870   1.665  11.175  0.1350  0.3428  0.0597
  111TMC2    H5 1705   1.780   1.703  11.167  0.0073 -0.0910 -0.5798
  112MPD2     C 1706   1.092   1.822  11.775  0.2056  0.5897 -1.0233
  112MPD2    C1 1707   1.111   1.778  11.643 -0.1755  0.3959  1.0822
  112MPD2    C2 1708   1.239   1.780  11.594 -0.0941 -0.2722 -0.2562
  112MPD2    C3 1709   1.346   1.825  11.672  0.5055 -0.7190 -0.0017
  112MPD2    C4 1710   1.325   1.853  11.806 -0.6290 -0.4545 -0.0721
  112MPD2    C5 1711   1.197   1.857  11.855 -0.2654 -0.1008  0.5350
  112MPD2     H 1712   1.248   1.740  11.493 -0.5849 -0.1828 -0.3358
  112MPD2    H1 1713   1.415   1.861  11.866 -0.0019  0.2473 -1.1095
  112MPD2    H2 1714   0.996   1.815  11.824  1.2029 -0.0149  0.8230
  112MPD2    H3 1715   1.187   1.881  11.961 -1.9088 -0.7871  0.5213
  112MPD2     N 1716   1.480   1.832  11.620  0.2256  0.3098 -0.6339
  112MPD2    H5 1717   1.544   1.845  11.697  1.1019  0.8197 -1.4621
  112MPD2    N1 1718   1.009   1.729  11.559 -0.1811 -0.0375  0.5357
  112MPD2    H7 1719   1.022   1.729  11.458  1.3540  0.9028  0.7425
  113MPD2     C 1720   4.059   4.420   0.991  0.5243 -0.7771  0.3912
  113MPD2    C1 1721   3.982   4.517   1.055 -0.1253 -0.1274 -0.2048
  113MPD2    C2 1722   3.865   4.562   1.003 -0.0976  0.0069  0.1247
  113MPD2    C3 1723   3.804   4.497   0.899  0.1442 -0.1752 -0.0614
  113MPD2    C4 1724   3.875   4.399   0.835  0.5449 -0.1482  0.6180
  113MPD2    C5 1725   4.001   4.367   0.875 -0.0377  0.1907 -0.7405
  113MPD2     H 1726   3.828   4.652   1.049  1.2605  0.3921  0.4783
  113MPD2    H1 1727   3.837   4.347   0.748 -0.3158 -0.7492  1.3611
  113MPD2    H2 1728   4.157   4.390   1.025  1.2542  3.0881  1.6209
  113MPD2    H3 1729   4.049   4.290   0.815 -0.9035  1.2598 -2.8134
  113MPD2     N 1730   3.678   4.542   0.849  0.3521  0.2068  0.2615
  113MPD2    H5 1731   3.635   4.503   0.766  3.4097  1.9704 -2.1628
  113MPD2    N1 1732   4.017   4.585   1.176  0.2392 -0.0137  0.2330
  113MPD2    H7 1733   3.938   4.645   1.200 -0.3260 -1.0858  1.0523
  114TCq2    C1 1734   3.608   4.648   0.900  0.0313 -1.1346  0.4919
  114TCq2    O2 1735   3.629   4.722   0.999 -0.1783  0.0989  0.5361
  114TCq2    C2 1736   3.473   4.661   0.844 -0.1937 -0.5796 -0.0979
  114TCq2    C3 1737   3.392   0.036   0.897  0.2521 -1.1079 -0.3580
  114TCq2    C4 1738   3.259   0.053   0.855  0.2049 -0.0636 -0.4468
  114TCq2    C5 1739   3.220   4.702   0.753  0.2656  0.9831  0.3601
  114TCq2    C6 1740   3.306   4.617   0.694 -1.0288  0.2801 -0.0911
  114TCq2    C7 1741   3.431   4.590   0.729  0.0192  0.6744 -0.0263
  114TCq2    C8 1742   3.243   4.534   0.596  0.3375 -0.5021 -0.1490
  114TCq2    O4 1743   3.163   4.583   0.517 -0.4043  0.5472  1.1133
  114TCq2    C9 1744   3.180   0.163   0.908  0.3835 -0.3725  0.3207
  114TCq2    O5 1745   3.223   0.239   1.002 -0.6563 -0.2659  0.2032
  114TCq2    O6 1746   3.069   0.176   0.854  0.5555  0.3639  0.3182
  114TCq2    H2 1747   3.428   0.088   0.984  0.6358  0.8070 -1.6675
  114TCq2    H3 1748   3.117   4.707   0.720  0.5558 -0.4181 -0.7841
  114TCq2    H4 1749   3.487   4.511   0.680  0.3333  1.9469 -1.7003
  115TMC2    C1 1750   4.511   2.531  17.503 -0.0276 -0.1354 -0.5239
  115TMC2    C2 1751   4.646   2.548  17.516 -0.4385 -0.0087  0.2297
  115TMC2    C3 1752   4.698   2.671  17.488 -0.3031  0.4727  0.1999
  115TMC2    C4 1753   4.431   2.627  17.455 -0.5166  0.1871  0.0499
  115TMC2    C5 1754   4.481   2.754  17.433 -0.1384 -1.0301 -0.0635
  115TMC2    C6 1755   4.615   2.782  17.456 -0.7126 -0.0877  0.3092
  115TMC2     C 1756   4.468   2.397  17.517  0.7541  0.1445 -0.4465
  115TMC2     O 1757   4.357   2.375  17.470 -0.1270  0.0205  0.5076
  115TMC2     H 1758   4.713   2.462  17.523 -1.3563 -0.7705 -0.3939
  115TMC2    H1 1759   4.327   2.601  17.442 -0.4697  0.4749 -0.9173
  115TMC2    H2 1760   4.661   2.880  17.447 -0.0553 -0.4066  0.2406
  115TMC2    C7 1761   4.380   2.861  17.409  0.0937 -0.2145  0.4888
  115TMC2    C8 1762   0.113   2.693  17.508  0.0031  0.2300  0.0232
  115TMC2    O1 1763   4.267   2.814  17.387 -0.3672  0.2238 -0.2931
  115TMC2    O2 1764   0.187   2.596  17.534 -0.2311 -0.4062  0.2891
  115TMC2    O5 1765   0.127   2.814  17.562  0.0840 -0.6302  0.2642
  115TMC2    H5 1766   0.220   2.839  17.540  0.7162 -2.9867  0.2543
  116MPD2     C 1767   4.461   1.900  17.678  0.1417 -0.3807 -0.6316
  116MPD2    C1 1768   4.367   1.984  17.604  0.4775  1.2334  0.4851
  116MPD2    C2 1769   4.402   2.109  17.569 -0.1808 -0.8001 -0.1165
  116MPD2    C3 1770   4.506   2.174  17.626 -0.0930  0.2439 -0.3485
  116MPD2    C4 1771   4.588   2.099   0.011  0.2723 -0.3347  0.4806
  116MPD2    C5 1772   4.569   1.967   0.032 -0.1404  0.3037 -0.1819
  116MPD2     H 1773   4.334   2.162  17.502  1.6410 -1.1896 -2.2896
  116MPD2    H1 1774   4.678   2.139   0.056  1.9697 -1.8671 -1.5887
  116MPD2    H2 1775   4.450   1.795   0.005 -0.8116  0.2475  1.5005
  116MPD2    H3 1776   4.642   1.911   0.089  1.4904  0.5138 -2.0579
  116MPD2     N 1777   4.540   2.306  17.595 -0.0572  0.0929 -0.4414
  116MPD2    H5 1778   4.627   2.343  17.631  0.6412 -1.6753 -0.2899
  116MPD2    N1 1779   4.244   1.918  17.559  0.8210 -0.2805  0.3485
  116MPD2    H7 1780   4.241   1.818  17.576 -1.3382 -0.6966 -2.4244
  117TMC2    C1 1781   3.149   3.882  13.347  0.8219  0.1687 -0.1281
  117TMC2    C2 1782   3.230   3.786  13.309  0.7464 -0.4509  0.0475
  117TMC2    C3 1783   3.350   3.822  13.250  0.1768  0.8768 -0.5457
  117TMC2    C4 1784   3.167   4.021  13.318  0.6438  0.6253  0.9364
  117TMC2    C5 1785   3.279   4.051  13.251  0.4538 -0.5445  0.5589
  117TMC2    C6 1786   3.380   3.953  13.223 -0.3584 -0.0032 -0.0037
  117TMC2     C 1787   3.070   3.839  13.460  0.5197 -0.3498 -0.3122
  117TMC2     O 1788   3.112   3.744  13.530 -0.4633 -0.1828  0.4531
  117TMC2     H 1789   3.209   3.680  13.321  1.7674 -0.7394 -0.6974
  117TMC2    H1 1790   3.094   4.097  13.344  0.7841  0.5837  1.4444
  117TMC2    H2 1791   3.475   3.976  13.175 -0.2599  0.3840  0.3754
  117TMC2    C7 1792   3.321   4.192  13.241  0.1658 -0.4094 -0.1953
  117TMC2    C8 1793   3.451   3.716  13.239  0.2543  0.9700 -0.2933
  117TMC2    O1 1794   3.427   4.219  13.187  0.0849  0.4712 -0.1370
  117TMC2    O2 1795   3.417   3.604  13.266 -0.2673 -0.0387  0.2907
  117TMC2    O5 1796   3.576   3.764  13.268  0.1298 -0.1646 -0.4195
  117TMC2    H5 1797   3.604   3.854  13.238 -1.5190  0.4425 -0.1345
  118MPD2     C 1798   3.175   4.453  13.458  0.3666  0.9728 -0.4647
  118MPD2    C1 1799   3.265   4.403  13.364  0.1566  0.1761 -0.6886
  118MPD2    C2 1800   3.356   4.479  13.302  0.0231  0.8502  0.1377
  118MPD2    C3 1801   3.368   4.613  13.338  0.5387 -0.8339 -0.0367
  118MPD2    C4 1802   3.269   4.668  13.413 -0.3550  0.4086 -0.0871
  118MPD2    C5 1803   3.174   4.589  13.473 -0.5068 -0.7088  0.7182
  118MPD2     H 1804   3.431   4.440  13.234 -1.7777  1.7938 -2.3934
  118MPD2    H1 1805   3.271   0.051  13.429 -1.3694  0.3574  0.3510
  118MPD2    H2 1806   3.101   4.388  13.504  0.7295  1.0621  0.2443
  118MPD2    H3 1807   3.093   4.632  13.530  1.8097 -0.1988  3.6149
  118MPD2     N 1808   3.472   4.692  13.304 -0.7608 -0.3214  0.8253
  118MPD2    H5 1809   3.460   0.068  13.318 -0.1333 -0.2049  0.5310
  118MPD2    N1 1810   3.253   4.272  13.329  0.2217 -0.6274 -0.5834
  118MPD2    H7 1811   3.182   4.225  13.386  0.0981 -0.9291 -0.9877
  119MPD2     C 1812   1.444   0.982  13.450 -0.0132 -0.7337  0.3583
  119MPD2    C1 1813   1.348   0.919  13.523 -0.1743 -0.6973  0.8685
  119MPD2    C2 1814   1.279   0.819  13.461  0.2301  1.6259  0.3507
  119MPD2    C3 1815   1.304   0.773  13.333  0.4190  0.4075  0.1324
  119MPD2    C4 1816   1.412   0.825  13.266  0.6701  0.0049  0.0387
  119MPD2    C5 1817   1.474   0.939  13.322  0.5539 -0.0725  0.0756
  119MPD2     H 1818   1.197   0.774  13.518  1.7894  1.3965  2.4120
  119MPD2    H1 1819   1.436   0.793  13.165 -0.3704  0.1645 -0.2582
  119MPD2    H2 1820   1.503   1.062  13.493 -0.1445  0.3706 -1.5144
  119MPD2    H3 1821   1.562   0.977  13.272  2.3416 -0.8116  2.7042
  119MPD2     N 1822   1.242   0.660  13.269  0.6076 -0.2200  0.2002
  119MPD2    H5 1823   1.269   0.639  13.174  0.9789 -0.5898  0.3855
  119MPD2    N1 1824   1.334   0.961  13.656 -0.1001  0.9727  0.3678
  119MPD2    H7 1825   1.380   1.050  13.670  0.0216  0.7653  1.2876
  120TCq2    C1 1826   1.165   0.572  13.335  0.1251 -0.1179  0.9969
  120TCq2    O2 1827   1.130   0.575  13.452  0.2488  0.6141  0.5748
  120TCq2    C2 1828   1.159   0.447  13.259  0.2128  0.1012 -0.0635
  120TCq2    C3 1829   1.234   0.436  13.147  0.4814  0.2218 -0.3199
  120TCq2    C4 1830   1.214   0.327  13.065 -0.8613 -0.1591 -0.3916
  120TCq2    C5 1831   1.120   0.237  13.099 -0.1120 -0.0616 -0.1517
  120TCq2    C6 1832   1.055   0.245  13.221  0.5793  0.3316 -0.5036
  120TCq2    C7 1833   1.071   0.353  13.308  0.4883  0.5103 -0.0166
  120TCq2    C8 1834   0.946   0.150  13.236  0.0377 -0.7906  0.4658
  120TCq2    O4 1835   0.886   0.108  13.138 -0.6336  0.1525 -0.1457
  120TCq2    C9 1836   1.298   0.314  12.946 -0.9411 -0.0140  0.7273
  120TCq2    O5 1837   1.369   0.410  12.900 -0.0447 -0.2690 -0.1765
  120TCq2    O6 1838   1.261   0.225  12.867 -0.5684 -0.0579 -0.0175
  120TCq2    H2 1839   1.314   0.501  13.110 -1.4490  3.1772  0.6776
  120TCq2    H3 1840   1.106   0.146  13.043  0.0001  1.6787 -3.0036
  120TCq2    H4 1841   1.022   0.368  13.404  0.8112  0.4019  0.1662
  121TMC2    C1 1842   2.699   2.199  14.140 -0.3898 -0.1470 -0.1581
  121TMC2    C2 1843   2.822   2.140  14.176 -0.6674  0.9499 -0.4094
  121TMC2    C3 1844   2.815   2.010  14.216 -0.1969  0.0666  0.6704
  121TMC2    C4 1845   2.582   2.133  14.156  0.3004 -0.2237 -0.5112
  121TMC2    C5 1846   2.579   2.004  14.214  0.2340  0.2204  0.1546
  121TMC2    C6 1847   2.699   1.947  14.250  0.2111 -0.8741 -0.6213
  121TMC2     C 1848   2.690   2.340  14.106  0.6822 -0.0588 -0.2179
  121TMC2     O 1849   2.582   2.390  14.106 -0.0468 -0.2454  0.4233
  121TMC2     H 1850   2.918   2.191  14.180 -0.4104  0.4378 -0.0744
  121TMC2    H1 1851   2.487   2.184  14.156  0.9963  1.0687  0.1254
  121TMC2    H2 1852   2.707   1.845  14.285 -2.0775 -0.3460  1.4339
  121TMC2    C7 1853   2.458   1.946  14.276  0.3933  0.3623  0.1591
  121TMC2    C8 1854   2.933   1.951  14.267  0.1260  0.4495  0.0126
  121TMC2    O1 1855   2.467   1.877  14.371  0.2645  0.2569 -0.3294
  121TMC2    O2 1856   2.934   1.880  14.367  0.1218 -0.0985  0.4301
  121TMC2    O5 1857   3.041   1.998  14.195 -0.1327 -0.2519  0.2074
  121TMC2    H5 1858   3.011   2.032  14.108  1.9674 -1.3421 -0.9340
  122MPD2     C 1859   2.758   2.634  14.104 -0.0416 -0.1778 -0.3389
  122MPD2    C1 1860   2.835   2.536  14.047  0.1805  0.3930  0.0457
  122MPD2    C2 1861   2.942   2.575  13.973 -0.2625 -0.0358  0.1428
  122MPD2    C3 1862   2.947   2.705  13.925  0.3715  0.0580 -0.2320
  122MPD2    C4 1863   2.868   2.803  13.983  0.1002  0.7735 -0.2164
  122MPD2    C5 1864   2.776   2.768  14.076 -0.8873 -0.0445  0.5459
  122MPD2     H 1865   3.014   2.499  13.943 -0.8990 -0.4261 -0.3998
  122MPD2    H1 1866   2.861   2.904  13.945  1.1712 -0.6760 -4.3223
  122MPD2    H2 1867   2.684   2.593  14.172 -0.0933  0.8708  0.2313
  122MPD2    H3 1868   2.718   2.851  14.114 -0.8912  0.1420  0.1224
  122MPD2     N 1869   3.020   2.730  13.807  0.0565 -0.6314  0.2061
  122MPD2    H5 1870   3.069   2.650  13.768  0.2811 -1.1557  1.5363
  122MPD2    N1 1871   2.803   2.393  14.058 -0.4186 -0.0398  0.2158
  122MPD2    H7 1872   2.878   2.329  14.032 -0.0201 -0.0159  1.3211
  123MPD2     C 1873   0.371   4.135  10.694  0.2078 -0.4993 -0.6226
  123MPD2    C1 1874   0.421   4.236  10.614 -0.3619 -0.5242 -0.0804
  123MPD2    C2 1875   0.527   4.313  10.662 -0.5846 -0.0495  0.3451
  123MPD2    C3 1876   0.598   4.279  10.776 -1.0208 -0.2235  0.3343
  123MPD2    C4 1877   0.560   4.166  10.848 -1.1036  0.5744  0.4294
  123MPD2    C5 1878   0.437   4.107  10.813 -0.2266 -0.3723  0.0343
  123MPD2     H 1879   0.557   4.409  10.623 -2.9491 -0.3371 -2.2115
  123MPD2    H1 1880   0.623   4.120  10.923 -0.6111 -0.9074 -0.8993
  123MPD2    H2 1881   0.281   4.083  10.667  0.5059 -2.0968  1.4139
  123MPD2    H3 1882   0.411   4.018  10.869 -0.9182  0.4922  1.0683
  123MPD2     N 1883   0.714   4.360  10.800  0.3552  0.1674 -0.1322
  123MPD2    H5 1884   0.745   4.431  10.734 -2.2033  1.7669  0.4099
  123MPD2    N1 1885   0.352   4.260  10.490  0.3556 -0.7134  0.1868
  123MPD2    H7 1886   0.261   4.216  10.479  0.0197  0.6959 -2.6676
  124TCq2    C1 1887   0.797   4.341  10.909 -0.4736  0.5199 -0.1640
  124TCq2    O2 1888   0.784   4.277  11.014  0.0274  0.0058  0.8664
  124TCq2    C2 1889   0.928   4.398  10.882  0.5146 -1.1445 -0.0404
  124TCq2    C3 1890   0.991   4.460  10.989 -0.2339 -0.2999  0.1325
  124TCq2    C4 1891   1.104   4.534  10.956  0.0300  0.4185 -0.0498
  124TCq2    C5 1892   1.136   4.562  10.833 -0.4927 -0.0352  0.3915
  124TCq2    C6 1893   1.061   4.510  10.725 -0.7153  0.0816 -0.3357
  124TCq2    C7 1894   0.967   4.417  10.752  0.0497 -0.3547 -0.5653
  124TCq2    C8 1895   1.101   4.524  10.583 -0.7589  0.2677  0.1880
  124TCq2    O4 1896   1.060   4.440  10.502  0.1221  0.0888  0.3168
  124TCq2    C9 1897   1.201   4.567  11.062  0.0015  0.1777  0.3086
  124TCq2    O5 1898   1.304   4.634  11.026  0.1533  0.1033 -0.1696
  124TCq2    O6 1899   1.171   4.526  11.178  0.8238 -0.1244 -0.2717
  124TCq2    H2 1900   0.961   4.457  11.093 -0.5823 -0.2755  0.0315
  124TCq2    H3 1901   1.228   4.617  10.817 -0.9377  0.4054 -0.6296
  124TCq2    H4 1902   0.923   4.370  10.665 -1.2410  0.2024 -0.2174
  125TMC2    C1 1903   2.573   2.604   9.386  0.0939 -0.6271 -0.2132
  125TMC2    C2 1904   2.438   2.614   9.381 -0.2668  0.5439  0.2783
  125TMC2    C3 1905   2.390   2.729   9.319 -0.3589 -0.6322  0.6505
  125TMC2    C4 1906   2.660   2.691   9.326  0.8277 -0.0642 -0.3009
  125TMC2    C5 1907   2.610   2.795   9.266 -0.0986  0.7434 -0.2424
  125TMC2    C6 1908   2.476   2.817   9.265 -0.2462  0.2250 -0.5891
  125TMC2     C 1909   2.613   2.473   9.434  0.1848 -0.2140 -0.2696
  125TMC2     O 1910   2.731   2.462   9.453  0.0882 -0.3557 -0.1964
  125TMC2     H 1911   2.371   2.568   9.453 -0.4476  0.4900  0.0742
  125TMC2    H1 1912   2.766   2.672   9.339  0.7024 -0.2805  0.3875
  125TMC2    H2 1913   2.432   2.890   9.198  0.3269  1.1421  0.0258
  125TMC2    C7 1914   2.693   2.903   9.203 -0.2896  0.4656  0.3016
  125TMC2    C8 1915   2.269   2.782   9.376 -0.0495 -0.4043 -0.6046
  125TMC2    O1 1916   2.655   3.013   9.172 -0.2687  0.0871 -0.0051
  125TMC2    O2 1917   2.264   2.901   9.384 -0.6099  0.1331  0.0963
  125TMC2    O5 1918   2.176   2.691   9.361  0.0637 -0.4276 -0.2897
  125TMC2    H5 1919   2.210   2.599   9.354 -2.2063 -1.0753 -3.0559
  126MPD1     C 1920   2.541   1.985   9.578 -0.4345  0.2774 -0.0312
  126MPD1    C1 1921   2.420   2.034   9.528 -0.9846 -0.0946 -0.1029
  126MPD1    C2 1922   2.416   2.161   9.472  0.2236  0.0270 -0.2649
  126MPD1    C3 1923   2.531   2.242   9.477 -0.0277  0.7745 -0.0670
  126MPD1    C4 1924   2.648   2.195   9.531  0.5354  0.3368  0.3304
  126MPD1    C5 1925   2.644   2.074   9.587  0.7786 -0.2985 -0.2275
  126MPD1     H 1926   2.320   2.193   9.432  1.2222  0.2017 -2.5395
  126MPD1    H1 1927   2.733   2.259   9.552 -0.0902  2.0403 -2.3914
  126MPD1    H2 1928   2.553   1.891   9.631 -0.6537 -0.7731 -1.8631
  126MPD1    H3 1929   2.728   2.041   9.647  0.5618  0.1750  0.3230
  126MPD1     N 1930   2.515   2.376   9.434 -0.7309 -0.7048  0.8420
  126MPD1    H5 1931   2.420   2.398   9.405 -0.7662 -0.9491  0.7743
  126MPD1    N1 1932   2.314   1.947   9.513  0.4359  0.0576  0.2247
  126MPD1    H6 1933   2.222   1.990   9.502  0.2951  0.0275  1.3384
  126MPD1    H7 1934   2.303   1.876   9.584  0.0323 -0.0945  0.0158
  127MPD2     C 1935   3.240   1.370   9.576 -0.0357 -0.1340  0.0417
  127MPD2    C1 1936   3.284   1.344   9.707 -0.5978  0.1399 -0.4094
  127MPD2    C2 1937   3.374   1.437   9.759  0.1473 -0.1729  0.1199
  127MPD2    C3 1938   3.424   1.543   9.684 -0.0472 -0.2334 -0.0150
  127MPD2    C4 1939   3.378   1.560   9.556 -0.1884  0.2522  0.5086
  127MPD2    C5 1940   3.288   1.473   9.500  0.4728 -0.8075  0.5616
  127MPD2     H 1941   3.425   1.412   9.851  0.2261  0.2189  0.1831
  127MPD2    H1 1942   3.403   1.646   9.495  0.6320 -0.5967 -0.3481
  127MPD2    H2 1943   3.183   1.289   9.531 -2.1341  2.2295 -1.4912
  127MPD2    H3 1944   3.257   1.493   9.398  0.0195 -0.6647  0.7285
  127MPD2     N 1945   3.510   1.632   9.745 -0.1244 -0.2890  0.1559
  127MPD2    H5 1946   3.540   1.594   9.834  1.2783  2.6860  0.9312
  127MPD2    N1 1947   3.248   1.230   9.784  0.5547 -0.1840 -0.3230
  127MPD2    H7 1948   3.191   1.164   9.731 -0.4063  0.6070 -0.2799
  128TCq2    C1 1949   3.268   1.204   9.917  0.1774 -0.1579  0.4465
  128TCq2    O2 1950   3.314   1.271  10.006  0.3425  0.3264 -0.8781
  128TCq2    C2 1951   3.224   1.070   9.948 -0.1039  0.1181  0.1889
  128TCq2    C3 1952   3.232   0.963   9.859 -0.2522  0.0299  0.2841
  128TCq2    C4 1953   3.191   0.839   9.898 -1.0068  0.6153  0.2675
  128TCq2    C5 1954   3.159   0.819  10.031 -0.6890 -0.2623  0.2380
  128TCq2    C6 1955   3.160   0.923  10.118 -0.1520  0.3842  0.0968
  128TCq2    C7 1956   3.190   1.051  10.075 -0.2354 -0.5845 -0.3328
  128TCq2    C8 1957   3.059   0.930  10.220 -0.1552  0.2074  0.1712
  128TCq2    O4 1958   3.080   0.999  10.315 -0.5473 -0.3466  0.3555
  128TCq2    C9 1959   3.188   0.727   9.812  0.0718  0.5119 -0.2508
  128TCq2    O5 1960   3.185   0.742   9.684 -0.0369 -0.1490  0.6573
  128TCq2    O6 1961   3.171   0.610   9.870  0.5842  0.2664  0.0594
  128TCq2    H2 1962   3.274   0.965   9.759 -2.1590  0.9225 -0.4877
  128TCq2    H3 1963   3.148   0.719  10.072 -0.7555  0.4840  2.0171
  128TCq2    H4 1964   3.172   1.138  10.137  0.7469 -0.6464  0.0498
  129MPD2     C 1965   0.681   1.770   1.019 -0.2495  0.0421 -0.4718
  129MPD2    C1 1966   0.806   1.795   1.068 -0.0220  0.4684  0.7164
  129MPD2    C2 1967   0.899   1.847   0.984 -0.1206  0.0689  0.1193
  129MPD2    C3 1968   0.872   1.857   0.847 -0.5230 -0.5451 -0.5425
  129MPD2    C4 1969   0.755   1.811   0.794  0.5339  0.5839  0.5877
  129MPD2    C5 1970   0.655   1.781   0.884 -0.9903  0.7116  0.0047
  129MPD2     H 1971   0.999   1.872   1.017  0.4491 -1.3744 -0.5038
  129MPD2    H1 1972   0.724   1.818   0.691  0.6151 -2.2204  0.3658
  129MPD2    H2 1973   0.603   1.731   1.084 -0.3407 -2.6107 -2.1936
  129MPD2    H3 1974   0.562   1.744   0.841  0.8327 -0.3098 -3.0669
  129MPD2     N 1975   0.973   1.913   0.768  0.0154  0.3670  0.5901
  129MPD2    H5 1976   1.061   1.918   0.817  2.3088  1.1144 -3.6240
  129MPD2    N1 1977   0.839   1.787   1.207 -0.1472 -0.4361  0.0608
  129MPD2    H7 1978   0.919   1.841   1.239  0.8675 -1.3888 -0.8324
  130TCq2    C1 1979   0.771   1.729   1.313  0.6588  0.5708 -0.7457
  130TCq2    O2 1980   0.677   1.650   1.312 -0.2553 -0.0853 -0.1707
  130TCq2    C2 1981   0.848   1.735   1.434  0.3607 -0.8785 -0.3388
  130TCq2    C3 1982   0.949   1.823   1.444  0.3763  0.0917 -0.2042
  130TCq2    C4 1983   1.033   1.812   1.552  0.5352 -0.2620 -0.1864
  130TCq2    C5 1984   1.024   1.701   1.633  0.3497 -0.1378 -0.1445
  130TCq2    C6 1985   0.922   1.611   1.614  0.2420 -0.2056  0.0091
  130TCq2    C7 1986   0.826   1.627   1.515  0.6362 -0.1929 -0.2917
  130TCq2    C8 1987   0.916   1.489   1.687  0.2753 -0.4906 -0.8079
  130TCq2    O4 1988   0.833   1.409   1.651 -0.4589 -0.7237  0.2947
  130TCq2    C9 1989   1.134   1.905   1.580 -0.5755 -0.2445  0.6781
  130TCq2    O5 1990   1.198   1.898   1.693  0.4518  0.4677 -0.2543
  130TCq2    O6 1991   1.140   2.011   1.507  0.4634  0.1442  0.0720
  130TCq2    H2 1992   0.966   1.910   1.381 -0.8581  0.2709 -0.2800
  130TCq2    H3 1993   1.093   1.697   1.717  1.6698 -1.3669 -1.2977
  130TCq2    H4 1994   0.750   1.552   1.497 -1.1797  1.4881  0.3743
  131MPD2     C 1995   0.574   0.162   9.728 -0.8320 -0.2158 -0.3613
  131MPD2    C1 1996   0.637   0.141   9.848  0.8692 -0.3717  0.2982
  131MPD2    C2 1997   0.576   0.056   9.935 -0.7088  0.0182 -0.2830
  131MPD2    C3 1998   0.466   4.704   9.903  0.7254 -0.3239 -0.5277
  131MPD2    C4 1999   0.410   0.006   9.782  0.1986  0.4711  0.5447
  131MPD2    C5 2000   0.471   0.090   9.693 -0.4792 -0.0108  0.4091
  131MPD2     H 2001   0.623   0.036  10.030  0.5147  0.3319 -0.8205
  131MPD2    H1 2002   0.323   4.678   9.744 -0.4337  1.2621  0.9061
  131MPD2    H2 2003   0.603   0.244   9.663 -0.3616  0.5171  0.7633
  131MPD2    H3 2004   0.409   0.119   9.608 -0.1713 -0.7144 -0.0608
  131MPD2     N 2005   0.425   4.594   9.988 -0.0427 -0.1327 -0.2824
  131MPD2    H5 2006   0.488   4.565  10.062 -0.2390 -1.8349 -0.7799
  131MPD2    N1 2007   0.743   0.228   9.880  0.1837  0.2742  0.6622
  131MPD2    H7 2008   0.782   0.281   9.803  1.8112  1.1004  2.0497
  132TCq2    C1 2009   1.003   0.615  10.218 -0.8411 -0.0796  0.3179
  132TCq2    O2 2010   0.956   0.598  10.328  0.2198  0.0927  0.0211
  132TCq2    C2 2011   1.004   0.507  10.123 -0.1257 -0.5108  0.2389
  132TCq2    C3 2012   1.111   0.488  10.039  0.7021 -0.4657  0.0346
  132TCq2    C4 2013   1.104   0.397   9.935  0.3955 -0.0058 -0.4131
  132TCq2    C5 2014   0.988   0.331   9.909  0.0812 -0.0793  0.1473
  132TCq2    C6 2015   0.884   0.354   9.997  0.1029 -0.1771 -0.7969
  132TCq2    C7 2016   0.891   0.439  10.104  0.7829 -0.1316  0.2505
  132TCq2    C8 2017   0.783   0.254  10.008  0.1880 -0.1730 -0.1180
  132TCq2    O4 2018   0.732   0.234  10.114 -0.2173  0.4044 -0.1938
  132TCq2    C9 2019   1.209   0.383   9.837  0.6865 -0.1963 -0.0366
  132TCq2    O5 2020   1.310   0.447   9.856  0.1224  0.4182 -0.1030
  132TCq2    O6 2021   1.186   0.305   9.741 -0.0942  0.0343  0.5848
  132TCq2    H2 2022   1.204   0.542  10.048  0.2324  0.3427  0.0349
  132TCq2    H3 2023   0.975   0.259   9.830  2.1871 -0.4913  0.1955
  132TCq2    H4 2024   0.808   0.439  10.173 -0.3435 -2.2634 -1.1202
  133MPD2     C 2025   1.378   1.165   8.947  0.0790 -0.0871  0.7584
  133MPD2    C1 2026   1.313   1.253   9.033 -0.3088 -0.0344 -0.1337
  133MPD2    C2 2027   1.177   1.238   9.060 -0.0009  0.1339  0.1571
  133MPD2    C3 2028   1.109   1.129   9.002  0.0242 -0.3896 -0.6017
  133MPD2    C4 2029   1.174   1.046   8.913  0.7437  0.0414  0.6478
  133MPD2    C5 2030   1.305   1.065   8.882 -0.0754 -0.1767  0.2414
  133MPD2     H 2031   1.130   1.312   9.124  0.6935  2.1402 -1.6614
  133MPD2    H1 2032   1.127   0.957   8.873 -1.2590  1.4502 -0.1289
  133MPD2    H2 2033   1.483   1.176   8.922 -0.4694  0.5326 -1.2950
  133MPD2    H3 2034   1.357   1.007   8.807  1.7391  1.0922  0.5275
  133MPD2     N 2035   0.971   1.108   9.025  0.5618  0.2457 -0.1663
  133MPD2    H5 2036   0.942   1.015   8.996  1.0974  0.1799 -0.4933
  133MPD2    N1 2037   1.397   1.352   9.102 -0.1506  0.4108  0.3359
  133MPD2    H7 2038   1.492   1.352   9.066  0.3420  1.6347  1.5961
  134TCq2    C1 2039   1.363   1.436   9.205 -0.1031 -0.5871 -0.2947
  134TCq2    O2 2040   1.254   1.460   9.251 -0.0228 -0.2552 -0.0703
  134TCq2    C2 2041   1.472   1.514   9.265 -0.5400  0.0758 -0.2984
  134TCq2    C3 2042   1.597   1.515   9.215  0.1101  0.2950 -0.0579
  134TCq2    C4 2043   1.686   1.602   9.275  0.2343  0.4485 -0.2516
  134TCq2    C5 2044   1.655   1.679   9.389 -0.6947  0.4642 -0.5086
  134TCq2    C6 2045   1.527   1.663   9.445 -0.4151  0.2261 -0.1046
  134TCq2    C7 2046   1.432   1.585   9.378  0.5234 -0.1060 -0.0203
  134TCq2    C8 2047   1.484   1.745   9.560 -0.1838  0.8647  0.0308
  134TCq2    O4 2048   1.367   1.745   9.590 -0.3625  0.4434 -0.1246
  134TCq2    C9 2049   1.819   1.621   9.218  0.1031  0.7658  0.5706
  134TCq2    O5 2050   1.909   1.666   9.301  0.4783 -0.1001  0.1217
  134TCq2    O6 2051   1.824   1.602   9.095 -0.0031 -0.9501 -0.5871
  134TCq2    H2 2052   1.629   1.467   9.123  1.2997 -1.1805  1.1355
  134TCq2    H3 2053   1.725   1.756   9.420  2.0679 -1.7576 -1.1935
  134TCq2    H4 2054   1.334   1.588   9.425  0.1588  1.0352 -0.8430
  135MPD2     C 2055   2.548   2.975   9.604 -0.2115 -0.3506  0.3907
  135MPD2    C1 2056   2.623   2.860   9.623 -0.0189  0.8468  0.5091
  135MPD2    C2 2057   2.757   2.863   9.588  0.5027  0.0805 -0.0933
  135MPD2    C3 2058   2.821   2.972   9.539 -0.2978 -0.2916  0.4605
  135MPD2    C4 2059   2.747   3.085   9.526 -0.1466  0.5339 -0.4945
  135MPD2    C5 2060   2.612   3.088   9.556 -0.2780 -0.0887 -0.1493
  135MPD2     H 2061   2.824   2.779   9.601  0.2237 -0.1189  0.0604
  135MPD2    H1 2062   2.807   3.172   9.503 -1.3807  1.5195  0.0068
  135MPD2    H2 2063   2.452   2.985   9.652  0.6199 -1.6517  2.3083
  135MPD2    H3 2064   2.575   3.190   9.569 -2.8593 -0.8739 -1.2782
  135MPD2     N 2065   2.956   2.974   9.491 -0.8059  0.3104  0.1204
  135MPD2    H5 2066   2.992   3.068   9.479  1.9560 -0.5074  1.8196
  135MPD2    N1 2067   2.582   2.745   9.684 -0.0128  0.0596  0.0027
  135MPD2    H7 2068   2.650   2.672   9.706 -0.6776 -0.4147  0.4554
  136TCq2    C1 2069   2.454   2.718   9.720  0.4327  0.2667 -0.6791
  136TCq2    O2 2070   2.351   2.774   9.679 -0.3062  0.3052  0.2601
  136TCq2    C2 2071   2.427   2.578   9.776  0.3727 -1.2040 -0.2086
  136TCq2    C3 2072   2.301   2.531   9.740 -0.7066  0.0996  0.2114
  136TCq2    C4 2073   2.277   2.394   9.742 -0.1595 -0.1262 -0.4829
  136TCq2    C5 2074   2.377   2.310   9.782 -0.6973  0.1511 -0.1862
  136TCq2    C6 2075   2.496   2.372   9.826  0.2092 -0.0245  0.4095
  136TCq2    C7 2076   2.530   2.501   9.812  0.4754 -0.6492 -0.1646
  136TCq2    C8 2077   2.612   2.286   9.854  0.4410 -0.3580  0.7073
  136TCq2    O4 2078   2.727   2.337   9.853 -0.3663  0.3847  0.1477
  136TCq2    C9 2079   2.147   2.338   9.693  0.4383 -0.1288  0.0050
  136TCq2    O5 2080   2.097   2.396   9.592 -0.1038 -1.1582  0.2836
  136TCq2    O6 2081   2.111   2.228   9.743 -0.4950  0.1099  0.1053
  136TCq2    H2 2082   2.221   2.595   9.706 -1.4978  0.5985  3.0463
  136TCq2    H3 2083   2.341   2.208   9.795 -2.5210  1.1441  2.5308
  136TCq2    H4 2084   2.622   2.545   9.848  1.8786 -0.4974 -3.9488
  137MPD2     C 2085   2.741   1.317   9.315  0.1964  0.7602 -0.3555
  137MPD2    C1 2086   2.628   1.264   9.369  0.1074 -0.1551 -0.6525
  137MPD2    C2 2087   2.630   1.216   9.501 -0.0836  0.2885 -0.0728
  137MPD2    C3 2088   2.748   1.209   9.572 -0.1702  0.4216 -0.0687
  137MPD2    C4 2089   2.859   1.278   9.520  0.1776 -0.2256  0.2005
  137MPD2    C5 2090   2.850   1.332   9.392 -0.1166  0.1532 -0.7599
  137MPD2     H 2091   2.538   1.186   9.548  1.1113 -0.3591  1.8379
  137MPD2    H1 2092   2.950   1.292   9.577  1.1248 -0.5238 -1.2154
  137MPD2    H2 2093   2.744   1.362   9.216 -3.2796  2.4751  0.3245
  137MPD2    H3 2094   2.936   1.383   9.349  0.0278 -0.4060 -1.1374
  137MPD2     N 2095   2.748   1.144   9.693 -0.0686  0.6790 -0.8978
  137MPD2    H5 2096   2.656   1.107   9.716  0.2345  0.5295  0.0926
  137MPD2    N1 2097   2.506   1.276   9.294 -0.3325  0.0371  1.0036
  137MPD2    H7 2098   2.517   1.308   9.198  0.3956 -2.2911  0.3338
  138TCq2    C1 2099   2.372   1.265   9.343  0.3091  0.2574 -0.2033
  138TCq2    O2 2100   2.325   1.230   9.448  0.1005 -0.6221  0.2127
  138TCq2    C2 2101   2.271   1.326   9.259 -0.2154 -1.2959  0.1975
  138TCq2    C3 2102   2.302   1.387   9.144  0.0951  0.4667  0.4678
  138TCq2    C4 2103   2.214   1.394   9.040  0.1910 -0.1628  0.1668
  138TCq2    C5 2104   2.085   1.357   9.055  0.3469  0.3049 -0.1934
  138TCq2    C6 2105   2.044   1.298   9.173  0.0358 -0.3189 -0.0975
  138TCq2    C7 2106   2.137   1.281   9.280 -0.7014  0.3386  0.0974
  138TCq2    C8 2107   1.919   1.229   9.178  0.2828  0.3676  0.1673
  138TCq2    O4 2108   1.886   1.180   9.071  0.6616 -0.2268 -0.0689
  138TCq2    C9 2109   2.265   1.456   8.918  1.1863 -0.2723 -0.0879
  138TCq2    O5 2110   2.190   1.445   8.816 -0.2903  0.0663  0.6080
  138TCq2    O6 2111   2.389   1.476   8.914  0.5197 -0.0031 -0.1115
  138TCq2    H2 2112   2.403   1.425   9.130 -0.5392  2.3057  0.9099
  138TCq2    H3 2113   2.016   1.379   8.975  0.1981  0.7363  0.0552
  138TCq2    H4 2114   2.108   1.228   9.369 -0.7286  0.0701 -0.0723
  139TMC2    C1 2115   2.999   0.397  13.315 -0.0207  0.4730  0.3078
  139TMC2    C2 2116   3.091   0.494  13.299  0.0876 -0.0676 -0.4732
  139TMC2    C3 2117   3.069   0.619  13.356 -0.6124 -0.0545 -0.3591
  139TMC2    C4 2118   2.895   0.421  13.409  0.6976  0.0378  0.7808
  139TMC2    C5 2119   2.892   0.541  13.480  0.1725 -0.0715 -0.3373
  139TMC2    C6 2120   2.975   0.648  13.450 -0.2091 -0.1499  0.9174
  139TMC2     C 2121   3.011   0.268  13.233  0.2598 -0.5033  0.3433
  139TMC2     O 2122   3.106   0.256  13.159  0.3118  0.5107  0.2835
  139TMC2     H 2123   3.170   0.481  13.226  3.3882 -0.1661  3.1202
  139TMC2    H1 2124   2.828   0.339  13.434  1.3028 -0.6397  0.2098
  139TMC2    H2 2125   2.972   0.748  13.490 -2.6074  0.1249  0.0911
  139TMC2    C7 2126   2.792   0.561  13.586  0.3726  0.1932 -0.2424
  139TMC2    C8 2127   3.170   0.718  13.336 -0.6751 -0.2515  0.5122
  139TMC2    O1 2128   2.702   0.478  13.599  0.2098  0.3358 -0.6575
  139TMC2    O2 2129   3.136   0.815  13.269  0.3412  0.2202  0.1276
  139TMC2    O5 2130   3.288   0.650  13.333 -0.2359  0.0091  0.3152
  139TMC2    H5 2131   3.285   0.576  13.397 -2.0384  0.0701  0.2810
  140MPD2     C 2132   2.755   0.016  13.226  0.1094 -0.3315  0.0585
  140MPD2    C1 2133   2.884   0.066  13.208 -0.3662  0.1585  0.3167
  140MPD2    C2 2134   2.988   4.705  13.165  0.1502  0.2083  0.0734
  140MPD2    C3 2135   2.959   4.574  13.123  0.0758 -0.0676 -0.3543
  140MPD2    C4 2136   2.825   4.529  13.131 -0.9104  0.2888  0.1809
  140MPD2    C5 2137   2.725   4.615  13.187  0.0693 -0.3122  0.2416
  140MPD2     H 2138   3.085   0.027  13.157 -0.4405  1.1995 -1.2938
  140MPD2    H1 2139   2.798   4.430  13.096  0.0095  0.1215 -0.0569
  140MPD2    H2 2140   2.673   0.078  13.259 -0.8380  0.4191 -3.7520
  140MPD2    H3 2141   2.626   4.581  13.216 -0.4652  0.5474 -0.5789
  140MPD2     N 2142   3.065   4.494  13.076 -0.4088  0.3716 -0.3045
  140MPD2    H5 2143   3.157   4.537  13.072 -1.4444  2.5378 -1.3599
  140MPD2    N1 2144   2.898   0.202  13.252  1.2613  0.0101 -0.4199
  140MPD2    H7 2145   2.825   0.249  13.304 -0.6227 -1.0335 -2.1511
  141TCq2    C1 2146   3.581   1.291  14.053  0.3722  0.6567  0.1224
  141TCq2    O2 2147   3.613   1.348  13.948 -0.4777  0.0220  0.0109
  141TCq2    C2 2148   3.462   1.348  14.123 -0.8714 -0.0919 -0.0672
  141TCq2    C3 2149   3.394   1.266  14.210 -0.6226  0.3107  0.1601
  141TCq2    C4 2150   3.300   1.317  14.291 -0.1810  0.3311  0.1205
  141TCq2    C5 2151   3.259   1.447  14.269  0.7644  0.0257 -0.8826
  141TCq2    C6 2152   3.322   1.525  14.177  0.5869 -0.3835 -0.2978
  141TCq2    C7 2153   3.426   1.473  14.105  0.0897 -0.8139  0.4628
  141TCq2    C8 2154   3.334   1.666  14.204  0.2322 -0.3276 -0.7444
  141TCq2    O4 2155   3.229   1.735  14.227 -0.6111  0.1869 -0.0873
  141TCq2    C9 2156   3.238   1.239  14.393 -0.3874  0.1372 -0.3093
  141TCq2    O5 2157   3.160   1.300  14.466  0.0922 -0.3808  0.2549
  141TCq2    O6 2158   3.263   1.113  14.387 -0.4011 -0.4379 -0.2873
  141TCq2    H2 2159   3.435   1.169  14.238 -2.1390  0.3915  2.6554
  141TCq2    H3 2160   3.176   1.490  14.324  1.5524  0.6504 -0.1827
  141TCq2    H4 2161   3.465   1.535  14.026 -0.4762 -2.5688 -1.1943
  142MPD2     C 2162   0.338   3.991  10.069  0.1414 -0.0377 -0.2420
  142MPD2    C1 2163   0.339   4.028   9.936 -0.7344 -0.6508 -0.2637
  142MPD2    C2 2164   0.442   4.114   9.892  0.3330 -0.2417  0.4070
  142MPD2    C3 2165   0.526   4.172   9.982 -0.4850 -0.7417 -0.1560
  142MPD2    C4 2166   0.524   4.134  10.111 -0.3574 -0.8463 -0.1978
  142MPD2    C5 2167   0.425   4.048  10.149  0.3660 -0.1879 -0.2486
  142MPD2     H 2168   0.442   4.140   9.787 -0.8857 -1.9673 -0.0223
  142MPD2    H1 2169   0.593   4.166  10.188 -0.6171  2.1540 -1.2411
  142MPD2    H2 2170   0.266   3.923  10.113 -0.7299  0.9608 -0.0986
  142MPD2    H3 2171   0.422   4.027  10.255  0.0541 -0.0394 -0.2301
  142MPD2     N 2172   0.626   4.265   9.944  0.1246 -0.0548 -0.1479
  142MPD2    H5 2173   0.685   4.299  10.019 -1.3651 -1.5394  1.6815
  142MPD2    N1 2174   0.239   3.969   9.853  0.0290  0.4263 -0.3540
  142MPD2    H7 2175   0.167   3.916   9.902 -1.1639  1.8240 -0.6245
  143TCq2    C1 2176   0.652   4.306   9.814 -0.2517  0.5123 -0.7621
  143TCq2    O2 2177   0.602   4.278   9.705 -0.1449 -0.1177  0.1426
  143TCq2    C2 2178   0.754   4.405   9.812  0.2800  0.2296 -0.0976
  143TCq2    C3 2179   0.743   4.506   9.719  0.3399 -0.5271 -0.5244
  143TCq2    C4 2180   0.822   4.617   9.725  0.0468 -0.5678 -0.7619
  143TCq2    C5 2181   0.904   4.643   9.830  0.1406 -0.1520 -0.6812
  143TCq2    C6 2182   0.915   4.543   9.926 -0.4176 -0.4245 -0.3224
  143TCq2    C7 2183   0.842   4.429   9.916 -0.8948 -0.5995  0.8074
  143TCq2    C8 2184   0.967   4.568  10.066 -0.8462 -0.3643 -0.4287
  143TCq2    O4 2185   0.917   4.501  10.157  0.2394  0.0371 -0.4730
  143TCq2    C9 2186   0.814   4.713   9.616 -0.2002 -0.2812 -0.1186
  143TCq2    O5 2187   0.899   0.083   9.628  0.1905  0.1536 -0.7105
  143TCq2    O6 2188   0.769   4.665   9.506  0.0469  0.0314  0.3658
  143TCq2    H2 2189   0.672   4.491   9.639 -1.5354 -1.5543  1.3375
  143TCq2    H3 2190   0.970   0.004   9.841  1.3977 -1.5123  2.1678
  143TCq2    H4 2191   0.861   4.350   9.988  0.9229  0.0513  1.0502
  144MPD2     C 2192   3.219   3.871   0.247 -0.0054  0.6336  0.1893
  144MPD2    C1 2193   3.224   3.752   0.171  0.0734  0.4984 -0.5943
  144MPD2    C2 2194   3.316   3.659   0.206 -0.0155  0.3983 -0.7365
  144MPD2    C3 2195   3.393   3.666   0.320 -0.3787  0.0851 -0.0721
  144MPD2    C4 2196   3.372   3.778   0.400 -0.3799 -0.1238 -0.0815
  144MPD2    C5 2197   3.289   3.876   0.362 -0.1757  0.4574  0.0256
  144MPD2     H 2198   3.323   3.568   0.147  0.2223 -2.2007  3.2970
  144MPD2    H1 2199   3.428   3.788   0.492 -1.7869  0.3686  0.7245
  144MPD2    H2 2200   3.165   3.960   0.215  0.3494  0.2337 -1.5179
  144MPD2    H3 2201   3.276   3.960   0.430  1.2431 -2.0567  3.4146
  144MPD2     N 2202   3.469   3.560   0.367 -0.7225  0.6810 -0.9876
  144MPD2    H5 2203   3.507   3.575   0.460  0.8398 -0.3386 -1.4586
  144MPD2    N1 2204   3.136   3.719   0.063 -0.8145  0.1877  0.2067
  144MPD2    H7 2205   3.132   3.625   0.025 -2.8954 -0.0001  0.8393
  145TCq2    C1 2206   3.511   3.454   0.293  0.6169 -0.2603  0.2024
  145TCq2    O2 2207   3.479   3.415   0.181 -0.0209 -0.7520 -0.1679
  145TCq2    C2 2208   3.609   3.370   0.366  0.4943 -1.2197 -0.6410
  145TCq2    C3 2209   3.650   3.252   0.306 -0.1046  0.1895 -0.1128
  145TCq2    C4 2210   3.752   3.194   0.369 -0.1630  0.2247 -0.0063
  145TCq2    C5 2211   3.821   3.247   0.477  0.3085 -0.3586 -0.0523
  145TCq2    C6 2212   3.782   3.370   0.528 -0.1855 -0.1050 -0.2333
  145TCq2    C7 2213   3.665   3.422   0.481 -0.2780  0.1713  0.0399
  145TCq2    C8 2214   3.879   3.446   0.608 -0.0819  0.3129  0.2548
  145TCq2    O4 2215   3.994   3.409   0.605 -0.5114 -0.6701  0.1009
  145TCq2    C9 2216   3.805   3.080   0.300 -0.3861  0.3390 -0.3607
  145TCq2    O5 2217   3.914   3.042   0.342  0.4233 -0.1621  0.1672
  145TCq2    O6 2218   3.756   3.043   0.188 -0.9393 -0.1124  0.0099
  145TCq2    H2 2219   3.610   3.207   0.216 -0.5622 -0.6198  0.4911
  145TCq2    H3 2220   3.895   3.184   0.523 -0.6920 -0.3500  1.5764
  145TCq2    H4 2221   3.627   3.506   0.538 -0.0880  0.2377  0.0683
  146TMC2    C1 2222   0.046   2.721  12.643 -0.5513  0.0667  0.1084
  146TMC2    C2 2223   4.723   2.790  12.533  1.0579 -0.1609 -0.0319
  146TMC2    C3 2224   4.702   2.725  12.418 -0.4054  0.4323  0.4889
  146TMC2    C4 2225   0.066   2.587  12.635  0.7879 -0.1641 -0.0841
  146TMC2    C5 2226   0.033   2.524  12.517 -0.7439  0.2122 -0.0104
  146TMC2    C6 2227   4.710   2.591  12.409 -0.0051  0.0669  0.3746
  146TMC2     C 2228   0.063   2.804  12.763  0.4851  0.4511  0.8865
  146TMC2     O 2229   0.060   2.927  12.750 -0.7684  0.3056 -0.3967
  146TMC2     H 2230   4.701   2.895  12.540  1.9642  0.1841 -2.4691
  146TMC2    H1 2231   0.092   2.539  12.728 -1.7630 -0.3602  0.5371
  146TMC2    H2 2232   4.691   2.538  12.317 -0.0020  2.2503 -0.8799
  146TMC2    C7 2233   0.036   2.382  12.499  0.0318 -0.4513 -0.7106
  146TMC2    C8 2234   0.027   2.798  12.301  0.9416  0.2539  0.5168
  146TMC2    O1 2235   4.706   2.330  12.400 -0.1627 -0.9458 -0.6335
  146TMC2    O2 2236   0.131   2.768  12.244  0.5351 -0.0681  0.3635
  146TMC2    O5 2237   4.643   2.868  12.251 -0.3206 -0.5642 -0.0310
  146TMC2    H5 2238   4.563   2.861  12.308  0.1209 -0.3888  0.6192
  147MPD2     C 2239   0.162   1.911  12.678  0.2485 -0.5585 -0.2644
  147MPD2    C1 2240   0.227   2.009  12.745 -0.3352  0.8334 -0.1857
  147MPD2    C2 2241   0.216   2.145  12.712  0.7136 -0.8558  0.4164
  147MPD2    C3 2242   0.135   2.189  12.616 -0.5580 -0.3800 -0.0424
  147MPD2    C4 2243   0.074   2.091  12.540  0.8484  0.0408  0.0157
  147MPD2    C5 2244   0.087   1.961  12.574  0.3575  0.6034 -0.6104
  147MPD2     H 2245   0.267   2.220  12.771  1.4943 -0.2099 -1.0809
  147MPD2    H1 2246   0.008   2.114  12.456  0.3244 -0.9389  0.1599
  147MPD2    H2 2247   0.173   1.806  12.705  1.3194 -0.1942  0.7153
  147MPD2    H3 2248   0.027   1.894  12.514  0.8967 -1.1856  0.8447
  147MPD2     N 2249   0.118   2.324  12.593 -0.0129 -0.1520 -0.7066
  147MPD2    H5 2250   0.159   2.390  12.659  0.2467 -1.7520  0.7164
  147MPD2    N1 2251   0.312   1.958  12.848 -0.3223  0.7458  0.6158
  147MPD2    H7 2252   0.315   1.860  12.872 -2.4929  0.2014 -1.3726
  148MPD2     C 2253   0.345   0.907  10.664 -0.6304 -0.0839  0.3877
  148MPD2    C1 2254   0.353   0.771  10.659  0.2827 -0.6125 -0.4852
  148MPD2    C2 2255   0.298   0.702  10.551 -0.5523 -0.1809 -0.2646
  148MPD2    C3 2256   0.245   0.772  10.448 -0.2010  0.3230  0.4824
  148MPD2    C4 2257   0.232   0.911  10.452 -0.1512 -0.0626 -0.3172
  148MPD2    C5 2258   0.280   0.970  10.567  0.3693 -0.2565  0.1779
  148MPD2     H 2259   0.307   0.595  10.555 -0.3968 -0.0227  3.3457
  148MPD2    H1 2260   0.203   0.980  10.374 -0.7991 -2.0680 -1.8377
  148MPD2    H2 2261   0.369   0.963  10.754  1.1309 -1.7647  0.9566
  148MPD2    H3 2262   0.271   1.077  10.580 -2.2331 -0.4584 -0.0255
  148MPD2     N 2263   0.189   0.716  10.329  0.3033 -0.3650  0.2506
  148MPD2    H5 2264   0.141   0.780  10.266 -0.2046 -1.0103 -0.0173
  148MPD2    N1 2265   0.421   0.693  10.757 -0.7444  0.4095  0.0547
  148MPD2    H7 2266   0.416   0.594  10.737  1.2622  0.6041 -1.4070
  149TCq2    C1 2267   0.502   0.744  10.863 -0.4114 -0.1665  0.6901
  149TCq2    O2 2268   0.521   0.859  10.890 -0.9304  0.3974 -0.1068
  149TCq2    C2 2269   0.571   0.646  10.940  0.0092  0.7572 -0.5629
  149TCq2    C3 2270   0.668   0.691  11.019 -0.1405  0.1592  0.9766
  149TCq2    C4 2271   0.764   0.611  11.074  0.1678 -0.0637 -0.6162
  149TCq2    C5 2272   0.785   0.498  11.011 -0.0403 -0.6364  0.2688
  149TCq2    C6 2273   0.680   0.445  10.941  0.5998  0.1389  0.4512
  149TCq2    C7 2274   0.568   0.516  10.908  0.7042 -0.6025  0.9110
  149TCq2    C8 2275   0.700   0.328  10.852 -0.1460  0.6823 -0.2007
  149TCq2    O4 2276   0.599   0.265  10.832  0.1618 -0.0800  0.0114
  149TCq2    C9 2277   0.883   0.677  11.129 -0.5414  0.2599  0.3817
  149TCq2    O5 2278   0.883   0.805  11.145 -0.2448  0.4526  0.0604
  149TCq2    O6 2279   0.965   0.600  11.184  0.5545  0.2662  0.3386
  149TCq2    H2 2280   0.660   0.794  11.051  0.4813  1.0457 -1.7834
  149TCq2    H3 2281   0.879   0.448  11.032  0.6776  0.8840  0.6205
  149TCq2    H4 2282   0.476   0.474  10.869 -0.3012  1.6640  0.8720
  150MPD2     C 2283   2.039   0.982  12.429 -0.3255  0.5035 -0.1332
  150MPD2    C1 2284   2.110   0.966  12.312  0.4591  0.3588  0.2523
  150MPD2    C2 2285   2.243   1.004  12.295 -0.2981 -0.2073 -0.0649
  150MPD2    C3 2286   2.305   1.063  12.401 -0.4600  0.0594  0.0959
  150MPD2    C4 2287   2.239   1.085  12.519  0.3172 -0.1281  0.3048
  150MPD2    C5 2288   2.108   1.046  12.529 -0.0605  0.0292 -0.7472
  150MPD2     H 2289   2.309   0.961  12.221  0.8946  0.8635  0.3776
  150MPD2    H1 2290   2.282   1.134  12.606 -1.1923 -1.8139  1.9728
  150MPD2    H2 2291   1.934   0.959  12.433  0.4341 -2.9469 -0.0478
  150MPD2    H3 2292   2.056   1.061  12.623  0.5171 -1.2254 -0.2329
  150MPD2     N 2293   2.443   1.092  12.380  0.4599 -0.1006 -0.4747
  150MPD2    H5 2294   2.488   1.064  12.294  0.4166  0.8480 -0.7952
  150MPD2    N1 2295   2.047   0.889  12.215  1.1925 -0.2016  0.1560
  150MPD2    H7 2296   1.953   0.863  12.244  1.1123  1.0555  1.0501
  151TCq2    C1 2297   2.528   1.165  12.461 -0.5170  0.9075  0.0036
  151TCq2    O2 2298   2.511   1.222  12.566 -0.3267  0.7672 -0.2958
  151TCq2    C2 2299   2.652   1.184  12.382  0.1921  0.3201 -1.0823
  151TCq2    C3 2300   2.644   1.137  12.248  0.0755 -0.5649  0.9297
  151TCq2    C4 2301   2.762   1.091  12.192 -0.1798 -0.7834  0.1123
  151TCq2    C5 2302   2.880   1.095  12.263  0.4382  0.1588  0.2407
  151TCq2    C6 2303   2.882   1.149  12.394  0.0083 -0.6379 -0.8974
  151TCq2    C7 2304   2.768   1.193  12.452 -0.2904  0.5260  0.3163
  151TCq2    C8 2305   2.993   1.127  12.488 -0.0773  0.0644  0.0264
  151TCq2    O4 2306   2.996   1.180  12.596  0.6908 -0.0258 -0.0046
  151TCq2    C9 2307   2.750   1.010  12.068 -0.0011 -0.0808 -0.0419
  151TCq2    O5 2308   2.829   0.914  12.051 -0.4376  0.0335 -0.0365
  151TCq2    O6 2309   2.634   1.002  12.019 -0.2192 -0.2494 -0.8662
  151TCq2    H2 2310   2.556   1.136  12.186  1.3029 -1.2840 -0.7955
  151TCq2    H3 2311   2.970   1.057  12.215  0.0933 -0.1484 -0.1708
  151TCq2    H4 2312   2.754   1.218  12.557 -2.2276 -1.7867  0.5921
  152MPD2     C 2313   1.886   0.672  12.762 -0.3662  0.4789 -0.5975
  152MPD2    C1 2314   1.949   0.640  12.640  0.9391 -0.2398 -0.0921
  152MPD2    C2 2315   1.864   0.594  12.536 -0.1950  1.1458  0.0148
  152MPD2    C3 2316   1.727   0.581  12.554 -0.5245  0.0093 -0.0654
  152MPD2    C4 2317   1.676   0.607  12.683  0.3681 -1.5206 -0.6681
  152MPD2    C5 2318   1.752   0.654  12.783 -0.9085 -0.5044  0.2071
  152MPD2     H 2319   1.902   0.577  12.435  0.1560  0.4010  0.2645
  152MPD2    H1 2320   1.570   0.600  12.706  0.7905 -0.4410  1.6023
  152MPD2    H2 2321   1.943   0.719  12.841 -0.3774  2.7935 -1.9974
  152MPD2    H3 2322   1.714   0.686  12.880 -2.0606  1.9608 -1.0800
  152MPD2     N 2323   1.647   0.540  12.444 -0.3351  0.4025  0.0058
  152MPD2    H5 2324   1.704   0.513  12.364  0.2633  3.0620 -0.4816
  152MPD2    N1 2325   2.083   0.676  12.622 -0.4110 -0.1820 -0.0268
  152MPD2    H7 2326   2.121   0.735  12.696  0.9232  0.7711 -1.4684
  153TCq2    C1 2327   2.153   0.656  12.508 -0.5911  0.7191  0.1478
  153TCq2    O2 2328   2.133   0.578  12.419  0.4388  0.1697  0.2288
  153TCq2    C2 2329   2.284   0.722  12.501 -0.8437  0.7206  0.1640
  153TCq2    C3 2330   2.357   0.702  12.391 -0.2674 -0.1718 -0.0019
  153TCq2    C4 2331   2.491   0.749  12.386 -0.4401  0.7214  0.3293
  153TCq2    C5 2332   2.549   0.814  12.490 -0.2565  0.3159  0.2554
  153TCq2    C6 2333   2.473   0.819  12.604 -0.1915  0.2386 -0.4269
  153TCq2    C7 2334   2.343   0.776  12.607  0.4176 -0.0513  0.0111
  153TCq2    C8 2335   2.519   0.836  12.739 -0.0651 -0.2689 -0.4098
  153TCq2    O4 2336   2.435   0.869  12.823  0.8510 -0.4232  0.4086
  153TCq2    C9 2337   2.563   0.730  12.264  0.1428  0.7304  0.7028
  153TCq2    O5 2338   2.495   0.753  12.158  0.3266  0.1848  0.1252
  153TCq2    O6 2339   2.688   0.716  12.265  0.0912  0.0099  0.2653
  153TCq2    H2 2340   2.304   0.663  12.305  0.5739  0.1519 -0.6709
  153TCq2    H3 2341   2.652   0.841  12.470 -0.2760  0.9303  0.9768
  153TCq2    H4 2342   2.285   0.778  12.698 -1.0254 -2.0704 -0.8779
  154MPD2     C 2343   3.784   4.504   0.437  0.9328  0.7691  0.7781
  154MPD2    C1 2344   3.862   4.578   0.521  1.0180  0.7549  0.4272
  154MPD2    C2 2345   3.811   4.692   0.581 -0.4798 -0.7829 -0.2336
  154MPD2    C3 2346   3.686   0.013   0.546 -0.0633  0.3210  0.6145
  154MPD2    C4 2347   3.604   4.660   0.472  0.4094  0.1607 -0.1630
  154MPD2    C5 2348   3.652   4.537   0.423  0.9564  0.1470  0.0794
  154MPD2     H 2349   3.873   0.026   0.648 -1.4535 -0.8473  0.7136
  154MPD2    H1 2350   3.503   4.690   0.445  1.5803  2.9101 -1.4473
  154MPD2    H2 2351   3.809   4.411   0.387  0.4590  0.7142  0.6449
  154MPD2    H3 2352   3.592   4.472   0.360  0.8180  1.2844 -0.9603
  154MPD2     N 2353   3.640   0.137   0.603 -0.6178 -0.2990  0.2260
  154MPD2    H5 2354   3.705   0.196   0.653  0.6316  0.4985 -2.3672
  154MPD2    N1 2355   3.996   4.545   0.534  0.1182 -0.0869  0.2032
  154MPD2    H7 2356   4.041   4.474   0.477  0.2979  1.4987 -1.6423
  155TCq2    C1 2357   4.081   4.602   0.632 -0.1620 -0.4824  0.6982
  155TCq2    O2 2358   4.065   4.663   0.734 -0.6586  0.0586  1.2128
  155TCq2    C2 2359   4.216   4.543   0.611  0.8223 -0.2502  0.3158
  155TCq2    C3 2360   4.284   4.513   0.726 -0.7685  0.6117  0.3949
  155TCq2    C4 2361   4.404   4.439   0.717 -0.0341  0.4617 -0.3690
  155TCq2    C5 2362   4.442   4.390   0.600  0.3207  0.5029 -0.5969
  155TCq2    C6 2363   4.374   4.424   0.490  0.8671  0.0529 -0.4521
  155TCq2    C7 2364   4.258   4.490   0.494 -0.3651  0.0527 -0.0614
  155TCq2    C8 2365   4.418   4.360   0.367 -0.3808  0.3397  0.2898
  155TCq2    O4 2366   4.466   4.248   0.385 -0.0632 -0.3097 -0.3114
  155TCq2    C9 2367   4.470   4.384   0.836  0.2118 -0.3208 -0.2983
  155TCq2    O5 2368   4.546   4.287   0.819  0.1095 -0.1874 -0.1681
  155TCq2    O6 2369   4.401   4.400   0.943  0.7682 -0.0252 -0.5503
  155TCq2    H2 2370   4.245   4.542   0.823 -1.8788 -1.2389  0.5104
  155TCq2    H3 2371   4.529   4.327   0.587 -1.1091 -2.0043  1.9318
  155TCq2    H4 2372   4.196   4.501   0.405 -0.7956 -0.5287  0.1715
  156MPD2     C 2373   2.123   2.261  12.677  0.2868 -0.3266  0.4053
  156MPD2    C1 2374   2.124   2.336  12.560  0.6880  0.3883 -0.5372
  156MPD2    C2 2375   2.226   2.424  12.541  0.8843  0.4176 -0.6858
  156MPD2    C3 2376   2.321   2.449  12.642 -0.2322 -0.0886 -0.6003
  156MPD2    C4 2377   2.317   2.365  12.756  0.5885  0.1379 -1.0445
  156MPD2    C5 2378   2.220   2.279  12.768 -0.1335  0.3085 -0.1945
  156MPD2     H 2379   2.225   2.474  12.445  1.7926 -1.3249 -1.6105
  156MPD2    H1 2380   2.396   2.363  12.830 -2.7973 -0.0254  2.5577
  156MPD2    H2 2381   2.054   2.180  12.696 -2.1776  2.0035  1.3264
  156MPD2    H3 2382   2.214   2.222  12.861  1.9941 -1.6024 -1.2335
  156MPD2     N 2383   2.425   2.539  12.626  0.0096 -0.3182 -0.8832
  156MPD2    H5 2384   2.432   2.586  12.536  1.1860  0.9045 -0.1582
  156MPD2    N1 2385   2.016   2.317  12.464  0.3673  0.6079  0.3349
  156MPD2    H7 2386   1.946   2.248  12.489  1.8525 -1.1846 -0.5182
  157TCq2    C1 2387   1.982   2.411  12.374 -0.4042 -0.2136  0.2837
  157TCq2    O2 2388   2.035   2.518  12.328  0.3541  0.2585 -0.0782
  157TCq2    C2 2389   1.855   2.398  12.315  0.4169 -0.1860 -0.0338
  157TCq2    C3 2390   1.761   2.307  12.356 -0.1386  0.9393 -0.1691
  157TCq2    C4 2391   1.654   2.261  12.279  0.2683 -0.0586  0.8789
  157TCq2    C5 2392   1.641   2.328  12.162  0.2604 -0.9867 -1.1008
  157TCq2    C6 2393   1.719   2.443  12.127  0.0790  0.8212  0.3156
  157TCq2    C7 2394   1.830   2.468  12.197 -0.0914 -0.0484  0.0619
  157TCq2    C8 2395   1.720   2.484  11.995  0.1623  0.0299  0.4604
  157TCq2    O4 2396   1.815   2.545  11.958  0.2056  0.1469 -0.3833
  157TCq2    C9 2397   1.570   2.157  12.335 -0.2273  0.0407 -0.2614
  157TCq2    O5 2398   1.463   2.121  12.274  0.0430 -0.3533  0.1105
  157TCq2    O6 2399   1.602   2.117  12.451 -0.0229 -0.1732 -0.2779
  157TCq2    H2 2400   1.776   2.259  12.452 -0.4017 -2.5931 -1.8879
  157TCq2    H3 2401   1.560   2.282  12.107 -0.6022  0.8559 -1.3342
  157TCq2    H4 2402   1.897   2.547  12.166  0.9277 -0.3691  1.4416
  158TMC2    C1 2403   2.440   1.791  13.586 -0.0646  0.7081 -0.1405
  158TMC2    C2 2404   2.485   1.863  13.479 -0.0459  1.2796  0.4561
  158TMC2    C3 2405   2.399   1.870  13.366 -0.4543 -0.2905 -0.1748
  158TMC2    C4 2406   2.326   1.718  13.590 -0.3964  0.1436  0.4309
  158TMC2    C5 2407   2.241   1.727  13.480 -0.2719  0.6339  0.3413
  158TMC2    C6 2408   2.275   1.800  13.368  0.2514  0.2506 -0.6158
  158TMC2     C 2409   2.526   1.797  13.700  0.5263  0.0868 -0.2854
  158TMC2     O 2410   2.595   1.896  13.705  0.7685  0.2681 -0.1218
  158TMC2     H 2411   2.589   1.892  13.483  0.4668 -0.3592 -1.0024
  158TMC2    H1 2412   2.289   1.672  13.682 -1.5684  0.3475  0.0546
  158TMC2    H2 2413   2.207   1.798  13.283  0.4736  2.0397 -0.8376
  158TMC2    C7 2414   2.115   1.651  13.478 -0.3377 -0.4316  0.3531
  158TMC2    C8 2415   2.468   1.882  13.236 -0.2042  0.7091 -0.2700
  158TMC2    O1 2416   2.037   1.680  13.390 -0.2212 -0.7394  0.7878
  158TMC2    O2 2417   2.446   1.812  13.139  0.3317 -0.3076  0.2490
  158TMC2    O5 2418   2.551   1.986  13.246 -0.6288  0.4521 -0.5310
  158TMC2    H5 2419   2.543   2.038  13.328 -0.5444  0.1604 -0.3383
  159MPD2     C 2420   2.799   1.618  14.093 -0.6257  0.4058  0.6205
  159MPD2    C1 2421   2.684   1.549  14.083  0.2478  0.0912  0.3380
  159MPD2    C2 2422   2.585   1.594  13.994 -0.9573  0.0776  0.5474
  159MPD2    C3 2423   2.616   1.689  13.898  0.7074  0.1311 -0.0499
  159MPD2    C4 2424   2.743   1.750  13.901 -0.3832 -0.2367 -0.5757
  159MPD2    C5 2425   2.830   1.705  13.997 -0.3529 -0.0075  0.3996
  159MPD2     H 2426   2.493   1.538  13.991 -0.6676 -0.3031 -1.6158
  159MPD2    H1 2427   2.773   1.825  13.829  3.1330  2.0089  3.2167
  159MPD2    H2 2428   2.872   1.586  14.166 -1.8883  0.4243  1.8832
  159MPD2    H3 2429   2.930   1.747  14.004 -0.3741  0.2708 -0.9802
  159MPD2     N 2430   2.517   1.704  13.802  0.6139  0.5594 -0.5085
  159MPD2    H5 2431   2.445   1.634  13.785 -0.6838  1.1390  2.7126
  159MPD2    N1 2432   2.664   1.450  14.183  0.4099 -0.0964  0.5759
  159MPD2    H7 2433   2.744   1.422  14.239  0.2009 -0.3394  0.7495
  160TMC2    C1 2434   1.544   4.510   0.443 -0.0414  1.0609 -0.0511
  160TMC2    C2 2435   1.413   4.469   0.444 -0.3014  0.0454 -0.5430
  160TMC2    C3 2436   1.390   4.345   0.495 -0.3570  0.4636  0.3398
  160TMC2    C4 2437   1.653   4.436   0.459  0.6265  0.6115 -0.3063
  160TMC2    C5 2438   1.620   4.306   0.483  0.2490 -0.6332 -0.9273
  160TMC2    C6 2439   1.494   4.258   0.504 -0.0585  0.4935 -0.0863
  160TMC2     C 2440   1.564   4.655   0.426  0.3323 -0.0488  0.4602
  160TMC2     O 2441   1.468   4.719   0.383  0.5862 -0.1519  0.5768
  160TMC2     H 2442   1.328   4.536   0.440  0.5943  1.2370  0.4237
  160TMC2    H1 2443   1.747   4.464   0.413 -0.4247  1.3936 -1.9846
  160TMC2    H2 2444   1.486   4.157   0.544 -1.0433  0.3969 -0.5296
  160TMC2    C7 2445   1.727   4.206   0.480 -0.0520  0.0927 -0.0986
  160TMC2    C8 2446   1.267   4.286   0.523 -0.1682  0.0221 -0.1962
  160TMC2    O1 2447   1.698   4.094   0.441 -0.2362  0.2534  0.4508
  160TMC2    O2 2448   1.252   4.169   0.555  0.3938  0.2419 -0.2140
  160TMC2    O5 2449   1.211   4.380   0.604  0.3792 -0.1693  0.5521
  160TMC2    H5 2450   1.227   4.473   0.578 -0.9522  1.1228  4.3729
  161MPD2     C 2451   1.646   0.217   0.406 -0.1771  0.5261 -0.1091
  161MPD2    C1 2452   1.683   0.134   0.506  0.0143 -0.0812  0.1009
  161MPD2    C2 2453   1.767   0.179   0.604 -0.5790  0.4146  0.3859
  161MPD2    C3 2454   1.800   0.312   0.605  0.2802  0.3695  0.1110
  161MPD2    C4 2455   1.756   0.393   0.507 -0.1975 -0.7244  0.3025
  161MPD2    C5 2456   1.677   0.347   0.406 -0.2586 -0.0906 -0.0424
  161MPD2     H 2457   1.811   0.109   0.674  0.3168 -0.0123 -0.5978
  161MPD2    H1 2458   1.794   0.494   0.498  0.1355 -0.6880  2.2948
  161MPD2    H2 2459   1.588   0.177   0.324 -0.3934 -2.3040  1.3965
  161MPD2    H3 2460   1.646   0.415   0.328  0.1493 -1.6715 -1.5824
  161MPD2     N 2461   1.886   0.371   0.700  0.0769 -0.4337  0.5350
  161MPD2    H5 2462   1.909   0.469   0.684 -0.5973 -0.2476  0.7362
  161MPD2    N1 2463   1.665   4.718   0.499 -0.0755  0.7351  1.0948
  161MPD2    H7 2464   1.714   4.661   0.566  0.1793  0.2904  0.5268
  162TMC2    C1 2465   4.636   0.858   1.164 -0.1215 -0.2830  0.4899
  162TMC2    C2 2466   4.499   0.824   1.174 -0.5312  0.2349  0.6331
  162TMC2    C3 2467   4.435   0.860   1.291 -0.1194 -0.6482 -0.4105
  162TMC2    C4 2468   4.705   0.900   1.278 -0.2359 -0.2434 -0.3428
  162TMC2    C5 2469   4.632   0.922   1.392  0.5044 -0.3959 -0.4861
  162TMC2    C6 2470   4.495   0.912   1.397 -0.1666  0.8957 -0.2013
  162TMC2     C 2471   4.703   0.862   1.034  0.5152 -0.4474 -0.8051
  162TMC2     O 2472   0.089   0.913   1.032 -0.4637 -0.1394  0.2312
  162TMC2     H 2473   4.444   0.809   1.082 -0.3286  0.1491  0.5281
  162TMC2    H1 2474   0.086   0.927   1.274  0.0822 -1.6135 -1.1388
  162TMC2    H2 2475   4.428   0.940   1.477  3.0973  0.4234  2.6876
  162TMC2    C7 2476   4.699   0.933   1.514 -0.4765  0.2092 -0.3347
  162TMC2    C8 2477   4.296   0.865   1.291 -0.1446 -0.4095 -0.6401
  162TMC2    O1 2478   4.625   0.949   1.610  0.3982  0.2655  0.3516
  162TMC2    O2 2479   4.236   0.870   1.396 -0.0033  0.1879 -0.0786
  162TMC2    O5 2480   4.262   0.929   1.171 -0.2162  0.7633  0.5514
  162TMC2    H5 2481   4.326   0.955   1.102 -1.2173  0.3086 -0.5412
  163MPD2     C 2482   4.673   0.875   0.522  0.2710 -0.5003 -0.3301
  163MPD2    C1 2483   0.048   0.921   0.603  0.0222  0.0664  0.0159
  163MPD2    C2 2484   0.038   0.908   0.744 -0.1266 -0.6558  0.7017
  163MPD2    C3 2485   4.642   0.861   0.793  0.1599  0.2084  0.0695
  163MPD2    C4 2486   4.542   0.822   0.707 -0.0778  0.3918  0.2502
  163MPD2    C5 2487   4.553   0.841   0.571  0.6400 -0.3394 -0.1326
  163MPD2     H 2488   0.117   0.945   0.808  0.4017 -1.0762  0.2864
  163MPD2    H1 2489   4.447   0.788   0.746 -0.4315 -0.9886 -1.8065
  163MPD2    H2 2490   4.693   0.885   0.416  1.9701  0.7693  0.1055
  163MPD2    H3 2491   4.466   0.825   0.509 -0.0497 -1.6039  1.1769
  163MPD2     N 2492   4.623   0.828   0.927 -0.4269  0.3924 -0.0815
  163MPD2    H5 2493   4.541   0.773   0.951 -0.1409  0.4291  0.9557
  163MPD2    N1 2494   0.158   0.982   0.533 -0.5562 -0.2937  0.1042
  163MPD2    H7 2495   0.159   0.988   0.432 -0.9288 -1.1504  0.0556
  164TCq2    C1 2496   0.977   0.933  11.691  0.3909  0.0991 -0.1491
  164TCq2    O2 2497   0.942   0.977  11.799  0.4807  0.1084 -0.0125
  164TCq2    C2 2498   0.971   1.029  11.587 -0.7332  0.1304 -0.6529
  164TCq2    C3 2499   1.066   1.026  11.485  0.2200  0.1252 -0.1595
  164TCq2    C4 2500   1.052   1.111  11.383  0.1047  0.4170 -0.1752
  164TCq2    C5 2501   0.941   1.193  11.376 -0.1339 -1.1625 -0.3840
  164TCq2    C6 2502   0.848   1.196  11.480  0.1317  0.0036 -0.4823
  164TCq2    C7 2503   0.857   1.104  11.584  0.0361 -0.3336  0.0179
  164TCq2    C8 2504   0.738   1.291  11.463  0.1953  0.5936 -0.1349
  164TCq2    O4 2505   0.709   1.300  11.342 -0.2047 -0.3819  0.1133
  164TCq2    C9 2506   1.149   1.103  11.275  0.4269  0.2819 -0.3323
  164TCq2    O5 2507   1.237   1.017  11.297  0.2095 -0.6118 -0.7704
  164TCq2    O6 2508   1.103   1.136  11.162 -0.2451  0.3876 -0.0345
  164TCq2    H2 2509   1.145   0.951  11.489  0.4161  0.2577 -1.5892
  164TCq2    H3 2510   0.939   1.270  11.300 -0.2217 -1.0689 -0.2869
  164TCq2    H4 2511   0.791   1.112  11.669  0.5212 -0.4571  0.4083
  165MPD2     C 2512   2.103   2.518   1.481  0.4313 -0.2487  0.5086
  165MPD2    C1 2513   2.051   2.648   1.476  0.2937  0.3042  0.2237
  165MPD2    C2 2514   2.127   2.761   1.506  0.6237 -0.2299  0.0513
  165MPD2    C3 2515   2.256   2.739   1.546  0.1076 -0.4344 -0.1889
  165MPD2    C4 2516   2.307   2.610   1.564 -0.4161  0.5850 -0.2906
  165MPD2    C5 2517   2.232   2.497   1.523 -0.1069 -0.9158 -0.1665
  165MPD2     H 2518   2.075   2.856   1.500 -0.0691 -0.6746 -1.1709
  165MPD2    H1 2519   2.407   2.588   1.599 -0.9025  0.2976  0.9340
  165MPD2    H2 2520   2.049   2.432   1.443  0.2763 -0.6192  1.5490
  165MPD2    H3 2521   2.273   2.397   1.517  1.9633 -0.0697 -0.1791
  165MPD2     N 2522   2.349   2.840   1.578  0.0236  0.2312  0.4176
  165MPD2    H5 2523   2.437   2.811   1.620  0.4375  3.1781  1.5865
  165MPD2    N1 2524   1.913   2.652   1.431  0.1661  0.1146 -0.4021
  165MPD2    H7 2525   1.881   2.559   1.407  0.3132 -0.3813  1.2692
  166TCq2    C1 2526   2.320   2.976   1.561 -0.1320 -0.0985  0.6562
  166TCq2    O2 2527   2.226   3.037   1.514  0.2790  0.2256 -0.1884
  166TCq2    C2 2528   2.420   3.052   1.627 -0.2258 -0.8095 -0.1366
  166TCq2    C3 2529   2.482   3.014   1.741 -0.1581 -0.8296  0.4974
  166TCq2    C4 2530   2.580   3.097   1.790  0.4195 -0.3146 -0.1561
  166TCq2    C5 2531   2.607   3.217   1.724  0.6686  0.0619 -0.0112
  166TCq2    C6 2532   2.528   3.259   1.622  0.2481  1.2894 -0.6307
  166TCq2    C7 2533   2.425   3.183   1.575 -0.8295 -0.2844 -0.5706
  166TCq2    C8 2534   2.568   3.377   1.547  0.4261 -0.2545 -0.3547
  166TCq2    O4 2535   2.687   3.401   1.547 -0.0987 -0.2870  0.0701
  166TCq2    C9 2536   2.662   3.050   1.900 -0.6288 -0.0793 -0.2260
  166TCq2    O5 2537   2.616   2.944   1.960  0.4760 -0.7116 -0.1238
  166TCq2    O6 2538   2.762   3.118   1.934 -0.4694 -0.2708  0.6737
  166TCq2    H2 2539   2.466   2.916   1.787  0.3556 -2.1537 -2.1543
  166TCq2    H3 2540   2.684   3.282   1.765  0.5626  1.1376 -1.5088
  166TCq2    H4 2541   2.371   3.202   1.483 -0.6393 -0.5161 -0.7288
  167TMC2    C1 2542   0.246   1.136  12.578  0.0465  0.9862 -0.8677
  167TMC2    C2 2543   0.170   1.235  12.639 -0.1296 -0.4291  0.2993
  167TMC2    C3 2544   0.093   1.203  12.748  0.0404  1.0803 -0.2465
  167TMC2    C4 2545   0.241   1.010  12.631 -0.9411  0.8707  0.0193
  167TMC2    C5 2546   0.146   0.980  12.724  0.1207 -0.3899  0.2825
  167TMC2    C6 2547   0.079   1.077  12.794 -0.3135 -0.3892  0.3439
  167TMC2     C 2548   0.295   1.158  12.441 -0.1079 -0.1852 -0.2946
  167TMC2     O 2549   0.283   1.063  12.362  0.3122 -0.7407 -0.2939
  167TMC2     H 2550   0.154   1.325  12.581 -1.5163 -0.6351  0.3601
  167TMC2    H1 2551   0.302   0.934  12.583  0.5295  1.3884  1.0910
  167TMC2    H2 2552   0.002   1.044  12.864 -0.0517 -0.4091  0.6212
  167TMC2    C7 2553   0.112   0.844  12.749 -0.3080 -0.0781  0.0379
  167TMC2    C8 2554   0.051   1.315  12.831 -0.0784  0.4231 -0.5554
  167TMC2    O1 2555   0.057   0.821  12.855 -0.3946 -0.0136 -0.1220
  167TMC2    O2 2556   0.010   1.301  12.944 -0.1790  0.1300 -0.3879
  167TMC2    O5 2557   0.143   1.410  12.802  0.7156 -0.0263  0.4964
  167TMC2    H5 2558   0.190   1.415  12.716 -1.1899 -0.2836 -0.5633
  168MPD2     C 2559   0.319   1.488  12.285 -0.2932 -0.4022  0.1245
  168MPD2    C1 2560   0.317   1.356  12.282 -0.7164 -0.4573  0.3263
  168MPD2    C2 2561   0.313   1.288  12.155 -0.4894  0.4491 -0.6737
  168MPD2    C3 2562   0.306   1.360  12.035 -0.2642  0.0958  0.7505
  168MPD2    C4 2563   0.303   1.494  12.045 -0.6159  0.0168 -0.2366
  168MPD2    C5 2564   0.311   1.553  12.166 -0.2935 -0.0822 -0.2821
  168MPD2     H 2565   0.312   1.179  12.161  1.1218  0.3757 -1.7527
  168MPD2    H1 2566   0.300   1.561  11.960  0.8505 -0.3912 -0.6162
  168MPD2    H2 2567   0.323   1.540  12.380 -0.7152  1.5179 -0.9154
  168MPD2    H3 2568   0.321   1.661  12.164  0.8822 -0.1911 -0.0197
  168MPD2     N 2569   0.314   1.300  11.904  0.2605  0.0139  0.5199
  168MPD2    H5 2570   0.308   1.368  11.828 -1.2886  0.5377  1.1055
  168MPD2    N1 2571   0.319   1.294  12.413 -0.1487  0.3498  0.1169
  168MPD2    H7 2572   0.321   1.351  12.497 -1.3411 -0.9071  0.9858
  169MPD1     C 2573   3.005   3.384   9.799 -0.5097 -0.0954  0.2145
  169MPD1    C1 2574   2.919   3.452   9.714  0.6712  0.0553 -0.4861
  169MPD1    C2 2575   2.970   3.559   9.640 -0.1304  0.8060 -0.0351
  169MPD1    C3 2576   3.108   3.585   9.636  0.3439  0.3912 -0.1322
  169MPD1    C4 2577   3.185   3.514   9.725  0.2814 -0.2408  0.1107
  169MPD1    C5 2578   3.135   3.412   9.805 -0.0718  0.1999  0.8455
  169MPD1     H 2579   2.902   3.612   9.573 -1.4626 -1.8309 -0.7553
  169MPD1    H1 2580   3.289   3.538   9.744  0.3748 -1.5262  1.2129
  169MPD1    H2 2581   2.967   3.305   9.863  1.5450 -1.9504 -0.8479
  169MPD1    H3 2582   3.197   3.367   9.882 -0.7498 -2.5434 -0.2366
  169MPD1     N 2583   3.150   3.703   9.567 -0.3269  0.3381 -0.2753
  169MPD1    H5 2584   3.083   3.746   9.504 -1.4156 -2.2979 -0.8734
  169MPD1    N1 2585   2.802   3.378   9.672  0.0235  0.1869 -0.2479
  169MPD1    H6 2586   2.771   3.308   9.739 -1.3566  2.0578  1.0989
  169MPD1    H7 2587   2.723   3.434   9.641 -0.8065 -0.7991  0.0921
  170MPD1     C 2588   1.963   3.224  12.905 -0.3255  0.0296 -0.5314
  170MPD1    C1 2589   1.900   3.343  12.942 -0.3205 -0.1116  0.2057
  170MPD1    C2 2590   1.801   3.334  13.040 -0.5652  0.0479 -1.0769
  170MPD1    C3 2591   1.762   3.218  13.101 -0.3745 -0.1364  0.2363
  170MPD1    C4 2592   1.830   3.103  13.062 -0.3665  0.3562 -0.3950
  170MPD1    C5 2593   1.922   3.110  12.960  0.5578 -0.6485  0.7243
  170MPD1     H 2594   1.757   3.428  13.073  1.1300  0.2060  0.7268
  170MPD1    H1 2595   1.802   3.011  13.112  0.3623 -0.2047 -1.0138
  170MPD1    H2 2596   2.039   3.221  12.828  0.9159 -0.2029  0.7058
  170MPD1    H3 2597   1.975   3.021  12.928  0.4385 -0.2366 -0.6182
  170MPD1     N 2598   1.685   3.237  13.219 -0.2475  0.3193 -0.5510
  170MPD1    H5 2599   1.645   3.329  13.235  0.5140  0.2796  1.4702
  170MPD1    N1 2600   1.936   3.459  12.878 -0.4301  0.1292  0.0152
  170MPD1    H6 2601   2.032   3.482  12.906 -0.7454  0.5890  0.7216
  170MPD1    H7 2602   1.880   3.540  12.905 -0.1694  0.4965 -0.5587
  171MPD1     C 2603   0.071   4.210  15.387 -0.0604  0.1207 -0.4983
  171MPD1    C1 2604   0.046   4.084  15.332 -0.0996  0.6455 -0.2424
  171MPD1    C2 2605   0.099   3.982  15.410  0.0610 -0.4329  0.2027
  171MPD1    C3 2606   0.189   3.993  15.515 -0.3744  0.0481 -0.4501
  171MPD1    C4 2607   0.214   4.123  15.558 -0.7506  0.0267 -0.5380
  171MPD1    C5 2608   0.146   4.231  15.503 -0.2816  0.2544  0.3244
  171MPD1     H 2609   0.068   3.885  15.370  0.4688 -0.6876  0.5046
  171MPD1    H1 2610   0.286   4.145  15.636 -1.6856  0.3569  0.2312
  171MPD1    H2 2611   0.024   4.301  15.353 -1.2688  0.0740  1.0550
  171MPD1    H3 2612   0.158   4.332  15.542  0.2713  0.1008  0.5524
  171MPD1     N 2613   0.236   3.883  15.601  0.0608 -0.1126 -0.5547
  171MPD1    H5 2614   0.275   3.909  15.691 -0.4756  0.4764 -0.4967
  171MPD1    N1 2615   4.693   4.066  15.222 -0.3384 -0.0827 -0.1126
  171MPD1    H6 2616   4.693   4.138  15.150  0.0907 -0.8956 -0.9220
  171MPD1    H7 2617   0.005   3.983  15.176 -1.6374 -1.3224  1.0809
  172MPD1     C 2618   3.685   3.371  17.373 -0.4874  0.7214 -0.0414
  172MPD1    C1 2619   3.562   3.430  17.399 -0.0159  0.5167  0.7829
  172MPD1    C2 2620   3.557   3.531  17.495  0.2372 -0.0288 -0.0613
  172MPD1    C3 2621   3.669   3.565  17.561 -0.1910 -0.3128 -0.4198
  172MPD1    C4 2622   3.787   3.506  17.540 -0.9179 -0.4302 -0.6921
  172MPD1    C5 2623   3.791   3.410  17.447  0.4174 -0.1210 -0.3531
  172MPD1     H 2624   3.462   3.579  17.517  0.3270  0.3194 -0.4404
  172MPD1    H1 2625   3.870   3.531  17.604 -0.2803  0.1516 -1.7580
  172MPD1    H2 2626   3.698   3.287  17.305  0.7853 -1.8147  3.3103
  172MPD1    H3 2627   3.887   3.374  17.412 -0.7037 -0.1199 -3.3448
  172MPD1     N 2628   3.674   3.658  17.662 -0.6309  0.9777  0.9253
  172MPD1    H5 2629   3.762   3.665   0.012  0.1509 -1.7586 -0.0877
  172MPD1    N1 2630   3.442   3.362  17.351 -0.2214  0.4748  0.6629
  172MPD1    H6 2631   3.367   3.427  17.329  0.1140  0.5377 -0.3199
  172MPD1    H7 2632   3.461   3.303  17.270 -1.1253  0.4301  0.4796
  173MPD1     C 2633   0.318   3.810  13.813  0.4586  0.2167 -0.2400
  173MPD1    C1 2634   0.402   3.903  13.871  0.4045 -0.2074  0.6836
  173MPD1    C2 2635   0.493   3.845  13.961  0.2093 -0.0890 -0.7373
  173MPD1    C3 2636   0.484   3.716  14.010  0.1172 -0.3263 -0.5970
  173MPD1    C4 2637   0.395   3.624  13.954  0.0460 -0.9109 -0.5289
  173MPD1    C5 2638   0.313   3.675  13.850  0.1459 -0.2998 -0.8400
  173MPD1     H 2639   0.560   3.915  14.008 -1.1765  0.5633  0.2604
  173MPD1    H1 2640   0.389   3.520  13.984  3.2960 -0.1351  2.8115
  173MPD1    H2 2641   0.251   3.831  13.730 -0.3363  0.7085  0.5300
  173MPD1    H3 2642   0.246   3.599  13.813 -0.6440  0.6919 -1.4518
  173MPD1     N 2643   0.578   3.673  14.108 -0.7746 -0.0949  0.2173
  173MPD1    H5 2644   0.633   3.745  14.152 -1.0973  1.7762 -2.5078
  173MPD1    N1 2645   0.422   4.038  13.828  0.3239 -0.5860  0.5905
  173MPD1    H6 2646   0.459   4.094  13.904  0.1401 -1.1715  1.1091
  173MPD1    H7 2647   0.330   4.073  13.803  0.5916 -1.5688 -1.8532
  174MPD1     C 2648   1.458   3.708  14.575 -0.2403  0.3752 -0.1128
  174MPD1    C1 2649   1.408   3.742  14.455  0.4790  0.1635  0.3633
  174MPD1    C2 2650   1.283   3.707  14.412  0.0172  0.4200  0.4975
  174MPD1    C3 2651   1.205   3.633  14.498 -0.3742 -0.6359  0.3265
  174MPD1    C4 2652   1.259   3.592  14.620 -0.4825 -0.6746 -0.7948
  174MPD1    C5 2653   1.383   3.637  14.662  0.0508  0.5575  0.8063
  174MPD1     H 2654   1.256   3.743  14.313 -1.5463  1.6906  1.3986
  174MPD1    H1 2655   1.209   3.519  14.682 -4.0931  3.3935  1.0624
  174MPD1    H2 2656   1.555   3.737  14.613  1.1738 -2.5796 -1.4092
  174MPD1    H3 2657   1.421   3.592  14.753 -0.1805  2.8600  2.0542
  174MPD1     N 2658   1.066   3.604  14.475  0.3646  0.0262 -0.7909
  174MPD1    H5 2659   1.010   3.547  14.537  1.5004 -1.1740 -0.8904
  174MPD1    N1 2660   1.498   3.804  14.363  0.7021  0.5427  0.5209
  174MPD1    H6 2661   1.449   3.856  14.291 -3.8927 -2.4270  1.5300
  174MPD1    H7 2662   1.568   3.861  14.410  1.5087 -0.6788  0.7971
  175MPD1     C 2663   4.081   4.505  15.407 -0.6146  0.4685  0.2265
  175MPD1    C1 2664   4.000   4.408  15.350  0.3167  1.0817  0.0987
  175MPD1    C2 2665   3.901   4.360  15.434 -0.1062 -0.1151  0.1891
  175MPD1    C3 2666   3.896   4.382  15.568 -0.1206 -0.1217  0.5082
  175MPD1    C4 2667   3.994   4.453  15.629 -0.3029  0.5420  0.5991
  175MPD1    C5 2668   4.084   4.517  15.542  0.3106 -0.6102  0.1360
  175MPD1     H 2669   3.829   4.290  15.393 -0.3645 -0.2816  0.9339
  175MPD1    H1 2670   3.997   4.462  15.737  1.2859 -0.7488  0.6523
  175MPD1    H2 2671   4.145   4.566  15.345  0.4022 -1.8478 -1.0012
  175MPD1    H3 2672   4.149   4.594  15.583  0.8434 -0.5781 -0.7624
  175MPD1     N 2673   3.797   4.334  15.653  0.3347  0.1803  0.4253
  175MPD1    H5 2674   3.825   4.339  15.750  0.7316  1.1143  0.2650
  175MPD1    N1 2675   4.002   4.390  15.213 -0.4093  0.9243 -0.1780
  175MPD1    H6 2676   3.966   4.301  15.180 -1.0099  0.2741  2.2458
  175MPD1    H7 2677   4.097   4.407  15.180  0.6191  0.4290  2.5522
  176MPD1     C 2678   0.203   1.756  17.146  0.2138 -0.2366  0.1103
  176MPD1    C1 2679   0.228   1.883  17.117  0.2180  0.9698 -0.1188
  176MPD1    C2 2680   0.335   1.940  17.182  0.1171  0.2637 -0.1574
  176MPD1    C3 2681   0.402   1.882  17.288 -0.3804  0.2135 -0.8991
  176MPD1    C4 2682   0.362   1.758  17.322  0.7311  0.2454 -0.0391
  176MPD1    C5 2683   0.266   1.693  17.251  0.3916 -0.3414  0.0275
  176MPD1     H 2684   0.366   2.038  17.145  1.2882  0.0646  0.3379
  176MPD1    H1 2685   0.399   1.708  17.411  0.5756 -0.2625 -0.2655
  176MPD1    H2 2686   0.121   1.701  17.099 -0.2719 -0.5665  1.3546
  176MPD1    H3 2687   0.226   1.596  17.279  1.7609 -0.4841  1.4588
  176MPD1     N 2688   0.497   1.959  17.359  0.3203  0.4761  0.4821
  176MPD1    H5 2689   0.503   2.051  17.317 -0.2581 -0.6980 -2.1793
  176MPD1    N1 2690   0.165   1.941  17.005 -0.8725  0.1630  0.1123
  176MPD1    H6 2691   0.174   2.042  16.994 -2.0374  0.4077  1.3772
  176MPD1    H7 2692   0.065   1.924  16.996 -0.8753  0.2766 -0.0725
  177MPD1     C 2693   4.066   1.366  10.313 -0.1498  0.0064  0.0661
  177MPD1    C1 2694   3.975   1.314  10.227  0.3688 -0.6211  0.3385
  177MPD1    C2 2695   3.914   1.399  10.137 -0.1216  0.1423  0.4116
  177MPD1    C3 2696   3.959   1.530  10.121  0.2446 -0.6646 -0.6445
  177MPD1    C4 2697   4.050   1.582  10.217  0.4931 -0.1425  0.0029
  177MPD1    C5 2698   4.106   1.497  10.311  0.1092  0.2815  0.6437
  177MPD1     H 2699   3.835   1.360  10.073 -0.7195 -0.8530  1.7363
  177MPD1    H1 2700   4.078   1.687  10.215 -0.0780  0.0609  2.8544
  177MPD1    H2 2701   4.120   1.297  10.378 -0.9825  0.5700  1.3543
  177MPD1    H3 2702   4.179   1.532  10.383  0.8733 -0.9038  0.4393
  177MPD1     N 2703   3.889   1.611  10.025  0.2968  0.2687  0.5441
  177MPD1    H5 2704   3.812   1.573   9.972 -0.0943  1.3270  0.3508
  177MPD1    N1 2705   3.931   1.185  10.248  0.3651 -0.2566  0.2760
  177MPD1    H6 2706   3.996   1.118  10.288  0.5271 -0.3364 -0.1215
  177MPD1    H7 2707   3.882   1.137  10.172  0.8643  2.1494 -1.5635
  178MPD1     C 2708   1.610   2.556   0.488 -0.0735 -0.0905  0.3523
  178MPD1    C1 2709   1.494   2.591   0.418  0.6884 -0.3352 -0.0267
  178MPD1    C2 2710   1.443   2.501   0.324  0.2710  0.2085  0.4419
  178MPD1    C3 2711   1.503   2.379   0.305 -0.6637  0.1461 -0.2228
  178MPD1    C4 2712   1.619   2.350   0.382 -0.9558 -0.1261  0.0478
  178MPD1    C5 2713   1.659   2.432   0.483 -0.3112 -0.9746 -0.7009
  178MPD1     H 2714   1.363   2.534   0.259  0.3587 -0.0358  0.2083
  178MPD1    H1 2715   1.682   2.263   0.365 -1.2397 -0.0045 -1.6783
  178MPD1    H2 2716   1.647   2.620   0.567 -0.8709  0.4419  0.2952
  178MPD1    H3 2717   1.739   2.405   0.551 -2.3114  0.9836  2.4415
  178MPD1     N 2718   1.465   2.285   0.201 -0.6541 -0.2417 -0.3432
  178MPD1    H5 2719   1.525   2.204   0.191  1.1064  1.2922 -2.2268
  178MPD1    N1 2720   1.453   2.728   0.430 -0.7240 -0.5038 -0.0257
  178MPD1    H6 2721   1.490   2.768   0.516 -1.3535  0.1742 -0.0604
  178MPD1    H7 2722   1.351   2.732   0.426 -0.6535  0.2123 -1.2159
  179MPD1     C 2723   1.246   0.015  15.435  0.1652  0.4770  0.0181
  179MPD1    C1 2724   1.124   0.022  15.374 -0.0218 -0.0545  0.2607
  179MPD1    C2 2725   1.014   0.046  15.456 -0.1567  0.2501  0.4198
  179MPD1    C3 2726   1.026   0.032  15.595  0.7972 -0.2745 -0.8841
  179MPD1    C4 2727   1.152   0.025  15.650 -0.4764  0.3535 -0.0160
  179MPD1    C5 2728   1.266   0.022  15.569 -0.9195 -0.1975  0.0476
  179MPD1     H 2729   0.918   0.078  15.418  0.4497  1.1140 -0.3924
  179MPD1    H1 2730   1.175   0.045  15.754  0.8231  0.5001 -0.3337
  179MPD1    H2 2731   1.331   0.012  15.368 -1.1695 -0.5913 -1.6145
  179MPD1    H3 2732   1.367   0.032  15.607 -0.4176 -0.5067 -1.2431
  179MPD1     N 2733   0.922   0.050  15.694  0.5523  0.0898  0.6634
  179MPD1    H5 2734   0.939   0.049  15.794 -2.6791  0.7559  1.2331
  179MPD1    N1 2735   1.121   0.024  15.235  0.0069 -0.6165 -0.0573
  179MPD1    H6 2736   1.038   4.716  15.186 -0.0033 -1.9836  0.8561
  179MPD1    H7 2737   1.202   4.720  15.182 -1.4067  0.6378 -2.8588
  180MPD1     C 2738   0.841   1.195  15.082 -0.3641  0.3395  0.7909
  180MPD1    C1 2739   0.952   1.263  15.047  0.5798 -0.7030 -0.6193
  180MPD1    C2 2740   0.937   1.393  15.003  0.8441  0.1746  0.4680
  180MPD1    C3 2741   0.818   1.458  15.008  1.1785 -0.1019 -0.4698
  180MPD1    C4 2742   0.712   1.394  15.064 -0.7028 -0.8940  0.7765
  180MPD1    C5 2743   0.722   1.259  15.097 -0.5107 -0.8172  0.2598
  180MPD1     H 2744   1.018   1.446  14.954  0.3516  1.2266  0.7815
  180MPD1    H1 2745   0.620   1.444  15.091 -1.8058 -1.7346 -1.3765
  180MPD1    H2 2746   0.845   1.094  15.121  2.1692 -0.2733 -1.0419
  180MPD1    H3 2747   0.634   1.210  15.135 -0.9253 -0.6461 -0.4775
  180MPD1     N 2748   0.820   1.593  14.966 -0.1093 -0.3817 -0.2152
  180MPD1    H5 2749   0.910   1.636  14.945 -0.2864  0.3328  0.5156
  180MPD1    N1 2750   1.072   1.188  15.030  0.0251  0.5762  0.2301
  180MPD1    H6 2751   1.153   1.249  15.041  1.1245 -0.8780  0.2281
  180MPD1    H7 2752   1.087   1.115  15.099 -1.5190  0.0414 -0.0004
  181MPD1     C 2753   1.500   3.194  10.361  0.4443  0.7335 -0.1076
  181MPD1    C1 2754   1.504   3.330  10.357  0.3356 -0.1724 -0.3622
  181MPD1    C2 2755   1.615   3.383  10.300 -0.2815 -0.1813 -0.5251
  181MPD1    C3 2756   1.728   3.308  10.274  0.4197 -0.2542  0.0469
  181MPD1    C4 2757   1.722   3.174  10.288 -0.6103  0.3334  0.0691
  181MPD1    C5 2758   1.608   3.116  10.329 -0.4707  0.5835 -0.7653
  181MPD1     H 2759   1.609   3.491  10.289 -0.7507 -0.1875 -0.3618
  181MPD1    H1 2760   1.805   3.115  10.251 -0.1012  1.5737 -0.7516
  181MPD1    H2 2761   1.402   3.151  10.380  1.8917 -1.8598  1.4493
  181MPD1    H3 2762   1.598   3.008  10.340 -1.7175  0.9449  1.4953
  181MPD1     N 2763   1.858   3.360  10.242  0.2121  0.4923  0.1588
  181MPD1    H5 2764   1.936   3.300  10.267 -0.4004 -1.2379 -2.0666
  181MPD1    N1 2765   1.382   3.400  10.366  0.1077  0.1523 -0.0390
  181MPD1    H6 2766   1.314   3.360  10.430 -0.5785  1.3136 -0.0390
  181MPD1    H7 2767   1.398   3.498  10.390 -0.4701  0.6034 -1.5040
  182MPD1     C 2768   3.399   2.894   1.808  0.1316  0.0228 -0.4312
  182MPD1    C1 2769   3.456   2.832   1.694 -0.3131 -0.5450 -0.6363
  182MPD1    C2 2770   3.381   2.846   1.578 -0.2654  0.0641  0.3258
  182MPD1    C3 2771   3.251   2.889   1.573  0.5218 -0.9385  0.6503
  182MPD1    C4 2772   3.194   2.925   1.695  0.2128 -0.3571 -0.3934
  182MPD1    C5 2773   3.267   2.934   1.807  0.0142  0.5534  0.5954
  182MPD1     H 2774   3.426   2.826   1.482 -2.7272  0.7144 -0.9465
  182MPD1    H1 2775   3.091   2.958   1.709  0.1278 -0.9977  0.4288
  182MPD1    H2 2776   3.467   2.916   1.889 -2.9566 -1.5594  2.5887
  182MPD1    H3 2777   3.234   2.972   1.903  0.0105  1.3987  0.2589
  182MPD1     N 2778   3.169   2.908   1.457 -0.1000 -0.1897  0.2901
  182MPD1    H5 2779   3.078   2.950   1.470  0.0924 -0.5396  2.8229
  182MPD1    N1 2780   3.592   2.814   1.682 -0.2174 -0.1035  0.3646
  182MPD1    H6 2781   3.612   2.756   1.601 -1.3745  1.6189 -1.1438
  182MPD1    H7 2782   3.637   2.778   1.767 -0.1415  1.3402  0.9369
  183MPD1     C 2783   3.738   3.228   8.828  0.4353 -0.1441 -0.0717
  183MPD1    C1 2784   3.676   3.327   8.902 -0.2218  0.0058  0.6393
  183MPD1    C2 2785   3.709   3.326   9.040  0.2559  0.4845  0.6185
  183MPD1    C3 2786   3.814   3.248   9.084  0.0617  0.7319  0.0628
  183MPD1    C4 2787   3.875   3.163   9.005  0.4528 -0.1994 -0.0687
  183MPD1    C5 2788   3.844   3.161   8.873  0.0123  0.9311  0.0438
  183MPD1     H 2789   3.662   3.390   9.113 -2.4844 -1.2244  0.3626
  183MPD1    H1 2790   3.958   3.107   9.046  0.4797 -0.5927 -0.6726
  183MPD1    H2 2791   3.716   3.218   8.723  0.2915  3.2850 -0.3887
  183MPD1    H3 2792   3.899   3.088   8.815 -1.0207  0.7166 -0.6577
  183MPD1     N 2793   3.848   3.261   9.216  1.1921  0.0365  0.3341
  183MPD1    H5 2794   3.805   3.333   9.273  5.0762  0.9878  2.0508
  183MPD1    N1 2795   3.562   3.393   8.851 -0.3274  0.9022  0.2464
  183MPD1    H6 2796   3.535   3.483   8.890  1.5834  0.8635  1.6957
  183MPD1    H7 2797   3.580   3.400   8.751  0.7031  0.5325  0.4075
  184MPD1     C 2798   2.891   1.422  10.614 -0.3536  0.3184  0.6514
  184MPD1    C1 2799   2.865   1.339  10.511 -0.0474 -0.0457  0.2544
  184MPD1    C2 2800   2.903   1.373  10.385 -0.3206 -0.2633 -0.2360
  184MPD1    C3 2801   2.959   1.497  10.352 -0.5755  0.3626 -0.0779
  184MPD1    C4 2802   2.977   1.584  10.456 -0.2654 -0.8713  0.4934
  184MPD1    C5 2803   2.946   1.550  10.581  0.5636 -0.6203  0.4373
  184MPD1     H 2804   2.905   1.301  10.303 -0.5626  0.4790 -0.8973
  184MPD1    H1 2805   3.019   1.680  10.429 -0.8868 -1.6106 -3.0728
  184MPD1    H2 2806   2.879   1.402  10.719 -1.5195  0.4574  0.5444
  184MPD1    H3 2807   2.984   1.617  10.657 -1.5684  1.5627 -0.4387
  184MPD1     N 2808   2.999   1.539  10.226  0.2614  0.2099 -0.0284
  184MPD1    H5 2809   3.039   1.632  10.217 -0.3463  0.5277  0.6421
  184MPD1    N1 2810   2.824   1.212  10.542 -0.9071  0.3381  0.4347
  184MPD1    H6 2811   2.751   1.194  10.610 -1.1269 -2.4471 -0.5087
  184MPD1    H7 2812   2.774   1.160  10.470  2.3481 -0.2147 -1.4643
  185MPD1     C 2813   2.507   1.609   9.393  0.0978 -0.0105 -0.4029
  185MPD1    C1 2814   2.634   1.640   9.357 -1.1582 -0.2602  0.1979
  185MPD1    C2 2815   2.738   1.655   9.450 -0.7485 -0.1566 -0.1997
  185MPD1    C3 2816   2.725   1.600   9.572 -0.0870  0.0850 -1.3327
  185MPD1    C4 2817   2.598   1.545   9.608 -0.3301  0.2320  0.0813
  185MPD1    C5 2818   2.496   1.551   9.521  0.9495  0.4084  0.8675
  185MPD1     H 2819   2.828   1.703   9.415  0.2188 -1.6037  0.2951
  185MPD1    H1 2820   2.581   1.509   9.709 -2.3852  0.2354 -0.2553
  185MPD1    H2 2821   2.416   1.605   9.334 -0.3954 -0.7269  0.4202
  185MPD1    H3 2822   2.400   1.512   9.554  1.2219 -0.1064  1.0646
  185MPD1     N 2823   2.821   1.591   9.668 -0.1310  0.0509  0.4153
  185MPD1    H5 2824   2.793   1.558   9.760  0.3982  0.9022  0.8920
  185MPD1    N1 2825   2.652   1.694   9.228 -0.0022 -0.3350  0.1897
  185MPD1    H6 2826   2.588   1.655   9.159 -2.9863  1.8716  1.7441
  185MPD1    H7 2827   2.749   1.673   9.205 -1.2120 -2.1450 -3.3622
  186MPD1     C 2828   0.605   1.264  15.430  0.1902 -0.2178 -0.3718
  186MPD1    C1 2829   0.566   1.365  15.514  0.0205 -0.0003  0.0379
  186MPD1    C2 2830   0.649   1.399  15.620  0.1255  0.1857  0.0231
  186MPD1    C3 2831   0.772   1.335  15.632  0.3883 -1.0172  0.5336
  186MPD1    C4 2832   0.814   1.241  15.536  0.4051  0.5944  0.3234
  186MPD1    C5 2833   0.734   1.215  15.431  0.3752 -0.3096 -0.2110
  186MPD1     H 2834   0.621   1.482  15.683  2.3366  0.4041  0.7030
  186MPD1    H1 2835   0.910   1.193  15.552 -0.1886 -0.0437  2.0143
  186MPD1    H2 2836   0.534   1.227  15.357 -1.1641 -2.0895  1.9072
  186MPD1    H3 2837   0.761   1.141  15.356  0.2638 -0.3237 -0.2369
  186MPD1     N 2838   0.863   1.361  15.741  0.1328  0.4755 -0.3611
  186MPD1    H5 2839   0.951   1.311  15.743 -0.6162 -0.8457  0.3507
  186MPD1    N1 2840   0.431   1.404  15.520 -0.0565  0.4656  0.3100
  186MPD1    H6 2841   0.387   1.394  15.429  1.2083 -0.8697 -0.1574
  186MPD1    H7 2842   0.430   1.504  15.544 -0.0139  0.5946 -0.2359
  187MPD1     C 2843   4.538   3.629   0.247  0.5465 -0.7808  0.4968
  187MPD1    C1 2844   4.614   3.714   0.173  0.7598  0.1728  0.0145
  187MPD1    C2 2845   4.692   3.655   0.077 -0.0525  0.2864 -0.1268
  187MPD1    C3 2846   4.698   3.516   0.063  0.6604  0.9471  0.2946
  187MPD1    C4 2847   4.612   3.436   0.137  0.7494 -0.0421  0.6790
  187MPD1    C5 2848   4.538   3.493   0.241 -0.3083 -0.2118 -0.3175
  187MPD1     H 2849   0.029   3.719   0.015  0.0110  0.8270  0.5063
  187MPD1    H1 2850   4.608   3.328   0.127 -3.1603  0.1072  0.6924
  187MPD1    H2 2851   4.474   3.668   0.326 -1.2574  1.6419 -2.1681
  187MPD1    H3 2852   4.497   3.424   0.314 -1.3927 -0.7545 -1.4542
  187MPD1     N 2853   0.046   3.448  17.666  0.1011  0.0826 -0.2167
  187MPD1    H5 2854   0.042   3.346  17.665  1.3220  0.0405 -0.2916
  187MPD1    N1 2855   4.585   3.848   0.171  0.1702 -0.1224 -0.1480
  187MPD1    H6 2856   4.560   3.885   0.263  1.9216 -2.1931  1.1389
  187MPD1    H7 2857   4.660   3.903   0.128  2.6177 -3.3975 -0.0851
  188MPD1     C 2858   0.265   2.588  10.375 -0.0130  1.0748 -0.1522
  188MPD1    C1 2859   0.289   2.579  10.237 -0.4098 -0.4953 -0.0639
  188MPD1    C2 2860   0.367   2.476  10.188  0.6819 -0.1365  0.4153
  188MPD1    C3 2861   0.412   2.383  10.277  0.1801  0.0932 -0.0505
  188MPD1    C4 2862   0.362   2.384  10.403  0.7000  0.0184 -0.4114
  188MPD1    C5 2863   0.290   2.487  10.462  0.3902 -0.3478  0.4157
  188MPD1     H 2864   0.395   2.470  10.083 -3.5603  0.0331 -0.7280
  188MPD1    H1 2865   0.406   2.329  10.486  0.1420 -0.7447 -0.6233
  188MPD1    H2 2866   0.205   2.666  10.420  2.7306  2.8674  0.4201
  188MPD1    H3 2867   0.257   2.485  10.565 -0.1444 -0.3500  0.2465
  188MPD1     N 2868   0.495   2.273  10.240 -1.0699  0.0380 -0.4303
  188MPD1    H5 2869   0.519   2.202  10.308  0.9053  1.2830  0.2064
  188MPD1    N1 2870   0.266   2.686  10.155  0.1966  0.4744 -0.6363
  188MPD1    H6 2871   0.240   2.652  10.062  3.6230  1.7148 -2.0402
  188MPD1    H7 2872   0.184   2.736  10.188 -1.4113 -1.5994 -1.5025
  189MPD1     C 2873   1.669   2.778   0.805  0.6815  0.3326 -0.1115
  189MPD1    C1 2874   1.539   2.813   0.775  0.0423  0.2592  0.4250
  189MPD1    C2 2875   1.512   2.917   0.686 -0.1776 -0.8389 -0.0790
  189MPD1    C3 2876   1.615   2.965   0.605 -0.4999 -0.3812 -0.4912
  189MPD1    C4 2877   1.746   2.921   0.631  1.0900 -0.2263 -0.2669
  189MPD1    C5 2878   1.771   2.828   0.727  0.0891  0.0564  0.3920
  189MPD1     H 2879   1.414   2.960   0.675 -0.0278 -0.5400 -0.2464
  189MPD1    H1 2880   1.835   2.954   0.577  0.0647 -1.9910 -3.0063
  189MPD1    H2 2881   1.690   2.702   0.879  0.4327  0.5857  0.2214
  189MPD1    H3 2882   1.871   2.787   0.734  0.3958  0.5150 -1.3712
  189MPD1     N 2883   1.583   3.059   0.507 -0.2937 -0.1466 -0.2779
  189MPD1    H5 2884   1.484   3.082   0.500  0.1967  1.8092 -0.5306
  189MPD1    N1 2885   1.439   2.769   0.862  0.0470 -0.0788 -0.9455
  189MPD1    H6 2886   1.344   2.754   0.829 -0.0548 -1.4622 -0.0391
  189MPD1    H7 2887   1.457   2.680   0.909 -2.6085 -0.8879 -1.4777
  190MPD1     C 2888   0.195   1.714  15.616  0.6007  0.4743 -0.5772
  190MPD1    C1 2889   0.298   1.694  15.702  0.7512 -0.0869 -0.2096
  190MPD1    C2 2890   0.423   1.692  15.648 -0.4624 -0.4530 -0.1416
  190MPD1    C3 2891   0.454   1.730  15.518 -0.0992 -0.1105  0.1127
  190MPD1    C4 2892   0.354   1.744  15.427 -0.4766  0.0684 -0.1178
  190MPD1    C5 2893   0.225   1.737  15.484 -0.1717  0.0194 -0.0087
  190MPD1     H 2894   0.505   1.687  15.718 -0.0943 -2.6741 -0.7318
  190MPD1    H1 2895   0.369   1.761  15.321 -1.1268 -0.1955 -0.2520
  190MPD1    H2 2896   0.089   1.723  15.636  0.9580  2.6471  0.4360
  190MPD1    H3 2897   0.138   1.738  15.420  0.6362  0.3721 -1.0819
  190MPD1     N 2898   0.591   1.751  15.491  0.1164  0.7614  0.0672
  190MPD1    H5 2899   0.652   1.770  15.569 -2.1278  4.1146  0.9926
  190MPD1    N1 2900   0.262   1.662  15.839 -0.1578  0.2005  0.0087
  190MPD1    H6 2901   0.167   1.688  15.866  0.5125  1.9631  0.6653
  190MPD1    H7 2902   0.328   1.711  15.899  1.1495 -1.9709  0.3267
  191MPD1     C 2903   4.572   3.959  12.748 -0.7061  0.1669  0.0942
  191MPD1    C1 2904   4.546   4.046  12.652 -0.2237 -0.4329 -0.5822
  191MPD1    C2 2905   4.637   4.066  12.562 -0.7214 -0.0173 -0.5283
  191MPD1    C3 2906   0.042   4.019  12.576 -0.5454 -0.3390 -0.4814
  191MPD1    C4 2907   0.067   3.946  12.689 -0.4099  0.1209  0.5843
  191MPD1    C5 2908   4.690   3.915  12.776  0.3567 -0.3939 -0.0053
  191MPD1     H 2909   4.612   4.125  12.475  0.7406  0.5364 -0.5696
  191MPD1    H1 2910   0.165   3.911  12.721  0.1266 -0.0766 -1.3184
  191MPD1    H2 2911   4.500   3.924  12.821 -2.0798  0.7215 -1.0005
  191MPD1    H3 2912   4.712   3.852  12.862 -0.1559  0.0921  0.4800
  191MPD1     N 2913   0.137   4.043  12.479  0.0519  0.5715 -0.4110
  191MPD1    H5 2914   0.104   4.072  12.387  1.9836  0.4015 -1.1607
  191MPD1    N1 2915   4.414   4.074  12.627  0.2660  0.1955 -0.9829
  191MPD1    H6 2916   4.392   4.166  12.589 -1.4634  0.2689  0.2166
  191MPD1    H7 2917   4.357   4.075  12.711  1.6685 -0.2388 -0.0209
  192MPD1     C 2918   4.676   4.274  11.723 -0.8318 -0.0640 -0.1723
  192MPD1    C1 2919   0.082   4.245  11.686 -0.0331 -0.5670 -0.4952
  192MPD1    C2 2920   0.175   4.233  11.794  0.1053  0.0569  1.0453
  192MPD1    C3 2921   0.133   4.252  11.925 -0.5310 -0.0606  0.0965
  192MPD1    C4 2922   0.010   4.311  11.947  0.5616 -0.6180 -0.3237
  192MPD1    C5 2923   4.646   4.327  11.847 -0.9399 -0.5152  0.0753
  192MPD1     H 2924   0.273   4.194  11.770 -0.5593 -1.6638  1.1282
  192MPD1    H1 2925   4.698   4.336  12.046 -0.8709 -0.3457 -0.9369
  192MPD1    H2 2926   4.597   4.296  11.653  0.1303 -0.2857 -1.3161
  192MPD1    H3 2927   4.544   4.361  11.860 -0.0976  2.2674 -0.7304
  192MPD1     N 2928   0.219   4.245  12.037  0.4494 -0.3513  0.3069
  192MPD1    H5 2929   0.180   4.286  12.122  1.1245  0.0469  0.4223
  192MPD1    N1 2930   0.117   4.203  11.556  0.0179 -0.3945 -0.1367
  192MPD1    H6 2931   0.068   4.254  11.484 -0.2457  0.9046  0.9760
  192MPD1    H7 2932   0.213   4.234  11.543  0.3688 -1.2525  0.3602
  193MPD1     C 2933   4.529   3.311  16.960 -0.3981 -0.1340 -0.5132
  193MPD1    C1 2934   4.647   3.269  16.904 -0.2452  0.1040 -0.4708
  193MPD1    C2 2935   4.714   3.363  16.826  0.1228  0.0384  0.2277
  193MPD1    C3 2936   4.681   3.495  16.820  0.3902 -0.0993  0.4579
  193MPD1    C4 2937   4.561   3.531  16.871  0.1383  0.2076 -0.8182
  193MPD1    C5 2938   4.490   3.443  16.942  0.0541  0.0830 -0.7853
  193MPD1     H 2939   0.085   3.323  16.792 -0.5055  0.0308 -1.5376
  193MPD1    H1 2940   4.524   3.632  16.861  0.5157  0.5289  0.9665
  193MPD1    H2 2941   4.467   3.259  17.033 -0.2793  0.3412 -0.0744
  193MPD1    H3 2942   4.399   3.486  16.980  0.4874 -1.0355  1.5072
  193MPD1     N 2943   0.048   3.597  16.782 -0.1234  0.6257 -0.0669
  193MPD1    H5 2944   0.028   3.695  16.804 -2.4693  0.0798  0.2799
  193MPD1    N1 2945   4.690   3.138  16.927 -0.5677  0.1554 -0.7293
  193MPD1    H6 2946   4.620   3.088  16.981 -1.6308  0.6131 -1.6815
  193MPD1    H7 2947   4.708   3.079  16.847 -0.4467  1.5845 -1.7665
  194MPD1     C 2948   1.858   1.414  16.942 -0.1181 -0.0262 -0.4968
  194MPD1    C1 2949   1.929   1.356  17.044 -0.1021 -0.6907  0.1126
  194MPD1    C2 2950   2.041   1.290  17.011  0.1324  0.2437  0.5920
  194MPD1    C3 2951   2.098   1.300  16.881 -0.7431 -0.5780 -0.3463
  194MPD1    C4 2952   2.024   1.357  16.780  0.5641 -0.8210 -0.6502
  194MPD1    C5 2953   1.900   1.399  16.811  0.9308  0.7524 -0.1289
  194MPD1     H 2954   2.089   1.244  17.096 -1.2531 -1.3198  0.5271
  194MPD1    H1 2955   2.058   1.355  16.677  1.6569 -1.8433 -0.2762
  194MPD1    H2 2956   1.770   1.473  16.963  1.3793  1.3829  1.7697
  194MPD1    H3 2957   1.837   1.439  16.733 -0.8812 -3.6798 -0.9183
  194MPD1     N 2958   2.217   1.232  16.842  0.0159 -0.0501 -0.0701
  194MPD1    H5 2959   2.243   1.253  16.746 -0.0832  0.0223 -0.0817
  194MPD1    N1 2960   1.881   1.371  17.175  0.4605  0.3006  0.1791
  194MPD1    H6 2961   1.781   1.390  17.169  0.2101 -0.6988  1.2476
  194MPD1    H7 2962   1.890   1.279  17.219 -1.4749  0.1692  0.2998
  195MPD1     C 2963   4.468   3.120  17.697  0.8391 -0.1983 -0.0329
  195MPD1    C1 2964   4.579   3.037   0.004  0.1039 -0.3712 -0.2561
  195MPD1    C2 2965   4.562   2.911   0.071  0.1186  0.2295 -0.1860
  195MPD1    C3 2966   4.444   2.865   0.134 -0.0816  0.2086  0.2510
  195MPD1    C4 2967   4.335   2.956   0.124  0.3262 -0.2495  0.2218
  195MPD1    C5 2968   4.357   3.081   0.062 -1.2640 -0.7434 -0.2975
  195MPD1     H 2969   4.645   2.843   0.058 -1.2864 -1.7614  1.4239
  195MPD1    H1 2970   4.233   2.935   0.155 -0.2677 -1.8638 -2.8481
  195MPD1    H2 2971   4.475   3.219  17.653  1.6102  0.0139  0.5570
  195MPD1    H3 2972   4.269   3.144   0.070 -0.0477  1.0380 -0.9441
  195MPD1     N 2973   4.421   2.741   0.193  0.0868  0.0023 -0.6941
  195MPD1    H5 2974   4.330   2.735   0.237  1.1048 -1.0305  1.2428
  195MPD1    N1 2975   4.709   3.066  17.650  0.2764 -0.2203  0.2481
  195MPD1    H6 2976   4.691   3.105  17.558 -0.4081  0.8588  0.8335
  195MPD1    H7 2977   0.023   2.973  17.636 -0.0177 -0.5126  1.3459
  196MPD1     C 2978   3.428   2.322  17.351  0.5540 -0.1062 -0.0780
  196MPD1    C1 2979   3.503   2.439  17.358  0.0466  0.0858  0.4971
  196MPD1    C2 2980   3.531   2.493  17.483  0.5920 -0.4006 -0.4336
  196MPD1    C3 2981   3.488   2.421  17.596 -0.2065 -0.0024 -0.3583
  196MPD1    C4 2982   3.434   2.295  17.586  0.1932  0.1286  0.1553
  196MPD1    C5 2983   3.389   2.251  17.464  0.1005  0.7926  0.4144
  196MPD1     H 2984   3.592   2.581  17.499 -0.0010 -0.3536  1.5564
  196MPD1    H1 2985   3.413   2.236  17.674 -0.6890  0.3129  0.0683
  196MPD1    H2 2986   3.407   2.275  17.255 -1.1821  2.6032 -1.0361
  196MPD1    H3 2987   3.336   2.157  17.454 -1.3876  1.5515  1.0265
  196MPD1     N 2988   3.519   2.459   0.027 -0.9114  0.1768  0.2271
  196MPD1    H5 2989   3.506   2.388   0.098  0.7512  0.9360  1.2871
  196MPD1    N1 2990   3.561   2.476  17.242 -0.5139 -0.2261 -0.8415
  196MPD1    H6 2991   3.502   2.434  17.170  2.6385 -1.7346 -2.5430
  196MPD1    H7 2992   3.578   2.576  17.228  0.3160 -0.5041 -1.8074
  197MPD1     C 2993   3.729   4.517   0.051  0.1322  0.2097 -0.8550
  197MPD1    C1 2994   3.712   4.657   0.042 -0.4579 -0.4822  1.0584
  197MPD1    C2 2995   3.715   4.723  17.624 -0.6326  0.6867 -0.3862
  197MPD1    C3 2996   3.721   4.652  17.502  1.0191  0.4952  0.0262
  197MPD1    C4 2997   3.737   4.518  17.509 -0.6064  0.0591 -0.2090
  197MPD1    C5 2998   3.747   4.455  17.633  0.1306 -0.1632 -0.2568
  197MPD1     H 2999   3.706   0.107  17.624 -3.4882  0.4429 -2.0100
  197MPD1    H1 3000   3.736   4.448  17.426  0.6822  1.0138 -1.0314
  197MPD1    H2 3001   3.735   4.456   0.141 -0.1537 -1.3128 -1.8630
  197MPD1    H3 3002   3.756   4.347  17.632  0.3912 -0.1418 -0.2032
  197MPD1     N 3003   3.713   4.712  17.372 -0.3000  0.7952  0.1496
  197MPD1    H5 3004   3.727   4.650  17.292 -1.6628  0.4070  0.1970
  197MPD1    N1 3005   3.717   0.010   0.164  0.0718  0.0563  0.5042
  197MPD1    H6 3006   3.651   0.087   0.172 -2.0688 -1.7752  0.2955
  197MPD1    H7 3007   3.692   4.673   0.241  3.5088 -0.1897  1.4335
  198MPD1     C 3008   0.741   2.517  15.000  0.2969  0.1190  0.7526
  198MPD1    C1 3009   0.827   2.614  14.965  0.5183  0.3154 -0.4953
  198MPD1    C2 3010   0.868   2.696  15.070 -0.1598  0.4364 -0.1618
  198MPD1    C3 3011   0.815   2.684  15.197 -0.0583 -0.8051 -0.0532
  198MPD1    C4 3012   0.710   2.602  15.219 -0.0651 -0.4085 -0.4764
  198MPD1    C5 3013   0.680   2.513  15.125  0.2563  0.3138 -0.2277
  198MPD1     H 3014   0.946   2.769  15.051  1.5715 -1.3168  0.1536
  198MPD1    H1 3015   0.647   2.610  15.307  0.2739  3.5931 -0.6086
  198MPD1    H2 3016   0.717   2.435  14.933  0.8007  0.2882  0.3641
  198MPD1    H3 3017   0.605   2.437  15.147  0.7085  0.3609  1.4029
  198MPD1     N 3018   0.873   2.766  15.295  0.2020 -0.1134  0.3720
  198MPD1    H5 3019   0.953   2.824  15.270 -1.0416  1.5193  0.1804
  198MPD1    N1 3020   0.892   2.618  14.840  0.8457  0.5330  0.0048
  198MPD1    H6 3021   0.839   2.583  14.760  1.4671 -0.3410 -0.0179
  198MPD1    H7 3022   0.923   2.711  14.813  1.1111  1.0860  2.2460
  199MPD1     C 3023   2.074   3.176   9.959  0.5675 -0.1116  0.6574
  199MPD1    C1 3024   2.195   3.207   9.915  0.4082 -0.5437  0.4461
  199MPD1    C2 3025   2.212   3.330   9.854 -0.3193  0.5560  0.1334
  199MPD1    C3 3026   2.109   3.418   9.846  0.4507 -0.5957 -0.5606
  199MPD1    C4 3027   1.987   3.384   9.894  0.6818  1.0344  0.3014
  199MPD1    C5 3028   1.966   3.263   9.950 -0.4180  0.1205  0.0032
  199MPD1     H 3029   2.311   3.354   9.817  0.7216  1.0535  3.1836
  199MPD1    H1 3030   1.907   3.457   9.889  1.1258  1.3254 -2.3377
  199MPD1    H2 3031   2.056   3.071   9.979  1.6811 -0.6606 -1.1710
  199MPD1    H3 3032   1.869   3.223   9.977  0.6245 -2.1980  0.3805
  199MPD1     N 3033   2.124   3.549   9.797 -0.8907  0.7102  0.0410
  199MPD1    H5 3034   2.051   3.614   9.822 -0.6004  0.7768  0.7308
  199MPD1    N1 3035   2.292   3.101   9.896 -0.2763 -0.3334 -0.7446
  199MPD1    H6 3036   2.388   3.132   9.884  0.5382 -0.7662  4.5201
  199MPD1    H7 3037   2.302   3.028   9.966  0.1214  3.2564  2.9347
  200MPD1     C 3038   1.439   4.068  14.679 -0.5656 -0.3935  0.6143
  200MPD1    C1 3039   1.435   4.169  14.577  0.9497  0.4720  0.3474
  200MPD1    C2 3040   1.544   4.164  14.487 -0.1275  0.3366  0.2064
  200MPD1    C3 3041   1.662   4.098  14.520  0.2845  0.4191 -0.1145
  200MPD1    C4 3042   1.670   4.015  14.629 -0.2184  0.1348 -1.0038
  200MPD1    C5 3043   1.559   4.007  14.710 -0.8536  0.4512  0.1323
  200MPD1     H 3044   1.550   4.234  14.404  2.6519  0.3599  0.4176
  200MPD1    H1 3045   1.754   3.950  14.653 -0.0710  0.6186 -0.2022
  200MPD1    H2 3046   1.351   4.053  14.740 -1.4208  0.9253 -0.3005
  200MPD1    H3 3047   1.563   3.944  14.798 -1.8557  1.2653  0.7525
  200MPD1     N 3048   1.776   4.116  14.432 -0.5376  0.3934 -0.0459
  200MPD1    H5 3049   1.762   4.182  14.355 -2.9714  0.9315  0.8572
  200MPD1    N1 3050   1.314   4.226  14.536 -0.6587  0.7747 -0.1991
  200MPD1    H6 3051   1.333   4.321  14.502  0.2249  2.2289  4.4128
  200MPD1    H7 3052   1.251   4.237  14.615  0.5503 -0.2060  0.8876
  201MPD1     C 3053   3.912   3.562  13.182 -0.2828  0.5549 -1.2905
  201MPD1    C1 3054   3.908   3.520  13.047 -0.1496  0.3586 -0.3218
  201MPD1    C2 3055   3.981   3.407  13.006  1.2071 -0.0883 -0.2680
  201MPD1    C3 3056   4.061   3.341  13.094  0.5154  0.0262 -0.2798
  201MPD1    C4 3057   4.065   3.386  13.221  0.1978 -0.2266 -0.2413
  201MPD1    C5 3058   3.988   3.485  13.265 -0.3382  0.5069  0.0875
  201MPD1     H 3059   3.959   3.363  12.909  1.0258  0.4907 -0.4877
  201MPD1    H1 3060   4.128   3.331  13.290 -0.6322 -1.6337 -0.6022
  201MPD1    H2 3061   3.836   3.634  13.213 -0.1719  0.5036 -0.8962
  201MPD1    H3 3062   3.972   3.497  13.372  2.6047 -2.6425  0.8721
  201MPD1     N 3063   4.149   3.238  13.061 -0.5273 -0.2782  0.9915
  201MPD1    H5 3064   4.211   3.211  13.136 -1.0562 -2.9232  0.4841
  201MPD1    N1 3065   3.796   3.564  12.964  0.4473  0.5141 -0.3195
  201MPD1    H6 3066   3.809   3.563  12.863 -1.1136 -1.2609 -0.5016
  201MPD1    H7 3067   3.767   3.658  12.989 -1.0682  0.0474 -0.3316
  202MPD1     C 3068   0.311   2.954   9.362  0.0271 -0.5085  0.0126
  202MPD1    C1 3069   0.364   2.939   9.486 -0.4717 -0.4128 -0.0718
  202MPD1    C2 3070   0.302   2.848   9.570  0.5124  0.1091 -0.2191
  202MPD1    C3 3071   0.177   2.801   9.545  0.0934  0.1724 -0.5004
  202MPD1    C4 3072   0.110   2.832   9.432 -0.9285 -0.0141 -0.6099
  202MPD1    C5 3073   0.183   2.899   9.331 -0.8200  0.3266 -0.0046
  202MPD1     H 3074   0.356   2.823   9.661  1.9618 -0.8681 -1.3476
  202MPD1    H1 3075   0.014   2.788   9.410  0.0973 -1.8300 -1.4822
  202MPD1    H2 3076   0.370   3.010   9.289 -0.6397  1.5389  1.0429
  202MPD1    H3 3077   0.145   2.917   9.231  1.3766  0.8496 -0.7518
  202MPD1     N 3078   0.106   2.713   9.625  0.3213  0.7012 -0.2181
  202MPD1    H5 3079   0.015   2.683   9.591  0.8304 -0.9305 -0.1199
  202MPD1    N1 3080   0.494   2.973   9.503  0.7149 -0.4313  0.2287
  202MPD1    H6 3081   0.516   2.984   9.602 -0.9510 -1.1903  0.6722
  202MPD1    H7 3082   0.502   3.071   9.477 -0.5421 -0.7140 -1.1928
  203MPD1     C 3083   2.884   4.045  12.838 -0.4008 -0.0489 -0.5528
  203MPD1    C1 3084   2.883   3.927  12.907 -0.3896 -0.4506  0.2513
  203MPD1    C2 3085   2.909   3.808  12.844 -0.1808  0.0583 -0.2454
  203MPD1    C3 3086   2.932   3.805  12.707 -0.0627  0.5872  0.3780
  203MPD1    C4 3087   2.929   3.924  12.639 -0.1157  0.6048 -0.0911
  203MPD1    C5 3088   2.904   4.041  12.703  0.0906  0.3073 -0.4523
  203MPD1     H 3089   2.900   3.714  12.896  0.2562  0.4236  0.4953
  203MPD1    H1 3090   2.942   3.914  12.532  0.6843  3.2310 -0.2484
  203MPD1    H2 3091   2.880   4.144  12.883  0.8286  0.2759 -1.1689
  203MPD1    H3 3092   2.901   4.131  12.642  1.4964 -0.0404 -1.0292
  203MPD1     N 3093   2.964   3.676  12.657  0.6269 -0.3121  0.2260
  203MPD1    H5 3094   2.987   3.602  12.721 -0.3388 -0.4523  0.4173
  203MPD1    N1 3095   2.872   3.943  13.047  0.7894 -0.2665 -0.4821
  203MPD1    H6 3096   2.826   3.865  13.095 -0.2154  0.7670  0.2398
  203MPD1    H7 3097   2.830   4.033  13.069 -0.5055 -0.7544 -0.9182
  204MPD1     C 3098   1.984   4.395  17.577 -0.7544 -0.3310 -0.0230
  204MPD1    C1 3099   1.958   4.387  17.437 -0.0562 -0.5465  0.3529
  204MPD1    C2 3100   2.006   4.281  17.363  0.2071 -0.0279  0.4483
  204MPD1    C3 3101   2.061   4.166  17.416  0.9281  0.8473 -0.0353
  204MPD1    C4 3102   2.084   4.169  17.556 -0.8210  0.3183  0.3683
  204MPD1    C5 3103   2.041   4.278  17.628  0.1613 -0.0231 -0.2373
  204MPD1     H 3104   1.991   4.290  17.256  3.7682  2.0403  0.1036
  204MPD1    H1 3105   2.124   4.082  17.607 -0.1895  0.9568  0.9603
  204MPD1    H2 3106   1.939   4.465  17.646 -1.2607 -1.3308  0.6713
  204MPD1    H3 3107   2.057   4.280   0.036  1.1093 -3.4146 -0.3154
  204MPD1     N 3108   2.105   4.062  17.333  0.3712 -0.0684 -0.0192
  204MPD1    H5 3109   2.094   4.078  17.233 -1.2654 -0.6106  0.0786
  204MPD1    N1 3110   1.902   4.489  17.365 -0.2586 -0.3245  0.1831
  204MPD1    H6 3111   1.834   4.554  17.405 -0.7758 -0.7451 -0.0082
  204MPD1    H7 3112   1.859   4.446  17.283  1.2287  1.1818 -1.3941
  205MPD1     C 3113   2.086   2.315  16.370  0.3308  0.5827 -0.2904
  205MPD1    C1 3114   2.052   2.454  16.376 -0.1142  0.7938 -0.2718
  205MPD1    C2 3115   2.071   2.510  16.500  0.2546 -0.7832 -0.0607
  205MPD1    C3 3116   2.116   2.445  16.610 -0.4640  0.5663 -0.7207
  205MPD1    C4 3117   2.134   2.309  16.600 -0.3160  0.0453  0.1894
  205MPD1    C5 3118   2.124   2.246  16.485  0.3951 -0.4799 -0.4313
  205MPD1     H 3119   2.049   2.615  16.515  2.3366 -0.4565  0.7388
  205MPD1    H1 3120   2.168   2.259  16.690 -2.6301 -1.9679 -0.0716
  205MPD1    H2 3121   2.082   2.265  16.274 -2.3645 -0.0397  0.1361
  205MPD1    H3 3122   2.152   2.141  16.492 -1.9575 -1.0270  0.9754
  205MPD1     N 3123   2.127   2.505  16.737  0.4965  0.4456 -0.3606
  205MPD1    H5 3124   2.185   2.455  16.804  1.1482  0.3888 -0.9648
  205MPD1    N1 3125   2.029   2.534  16.257 -0.2191 -0.0720  0.2883
  205MPD1    H6 3126   1.965   2.612  16.272 -2.4106 -1.7735 -0.1914
  205MPD1    H7 3127   1.977   2.478  16.189 -0.2375  0.3459 -0.0360
  206MPD1     C 3128   3.312   0.889  16.616  1.0728  0.4301 -0.1647
  206MPD1    C1 3129   3.177   0.876  16.622  0.1565  0.2888  0.3518
  206MPD1    C2 3130   3.101   0.927  16.528  0.0230  1.0104 -0.8301
  206MPD1    C3 3131   3.149   0.991  16.415 -0.2353 -1.1267 -0.0641
  206MPD1    C4 3132   3.283   1.009  16.406 -0.4454 -0.1722 -0.0103
  206MPD1    C5 3133   3.363   0.951  16.505  0.0048  0.3602 -0.5812
  206MPD1     H 3134   2.995   0.916  16.548  0.1326  0.2462 -0.6792
  206MPD1    H1 3135   3.327   1.074  16.331  0.3043 -0.0469  0.5301
  206MPD1    H2 3136   3.374   0.839  16.689  2.9994  1.5639 -1.0210
  206MPD1    H3 3137   3.464   0.988  16.506  0.5012 -1.0680  0.6227
  206MPD1     N 3138   3.066   1.059  16.314 -0.3794 -0.6120  0.0291
  206MPD1    H5 3139   3.121   1.106  16.243 -1.8954  0.3521 -0.5188
  206MPD1    N1 3140   3.109   0.814  16.733 -0.1141  0.1701 -0.2161
  206MPD1    H6 3141   3.033   0.872  16.769 -0.5029 -2.4150  3.0979
  206MPD1    H7 3142   3.175   0.785  16.805 -0.8745 -0.3200  0.2809
  207MPD1     C 3143   4.670   4.134   8.907 -0.0714  0.4119  0.3046
  207MPD1    C1 3144   4.611   4.012   8.938  0.7849  0.0732  0.1177
  207MPD1    C2 3145   4.638   3.948   9.058 -0.2942  0.0049 -0.7720
  207MPD1    C3 3146   4.720   4.010   9.156 -0.4575  0.6747  0.4752
  207MPD1    C4 3147   0.043   4.137   9.127  0.2839  0.1214  0.3122
  207MPD1    C5 3148   0.025   4.193   9.000 -0.2337 -0.4435  0.1952
  207MPD1     H 3149   4.585   3.855   9.071  0.8520 -0.5095  0.2814
  207MPD1    H1 3150   0.103   4.190   9.200  0.0285  0.6906  0.1017
  207MPD1    H2 3151   4.648   4.187   8.815 -2.9443  0.8219  1.2147
  207MPD1    H3 3152   0.061   4.292   8.974 -1.6913  0.4780  1.6975
  207MPD1     N 3153   0.030   3.949   9.286  0.0795 -0.0164  0.3891
  207MPD1    H5 3154   0.086   4.007   9.348  0.8100  0.3672 -0.6280
  207MPD1    N1 3155   4.534   3.940   8.846 -0.0699 -0.4940 -0.4013
  207MPD1    H6 3156   4.470   3.867   8.878  0.8023 -1.4874 -0.9006
  207MPD1    H7 3157   4.506   3.993   8.763 -1.0693 -0.5292 -0.0919
  208MPD1     C 3158   3.189   3.315  17.657 -0.3429 -0.7627  0.4123
  208MPD1    C1 3159   3.158   3.283   0.088  0.6105  0.0035  0.6150
  208MPD1    C2 3160   3.083   3.170   0.113 -0.4021  0.2144 -0.1593
  208MPD1    C3 3161   3.072   3.066   0.022  0.3578 -0.3651 -0.9618
  208MPD1    C4 3162   3.127   3.082  17.597  0.5325  0.3101 -0.1017
  208MPD1    C5 3163   3.187   3.208  17.567  0.0723  0.5281  0.0338
  208MPD1     H 3164   3.036   3.159   0.210  0.8269 -1.8294  0.2121
  208MPD1    H1 3165   3.114   3.007  17.519  0.9760  0.5587 -0.4176
  208MPD1    H2 3166   3.231   3.410  17.628  0.4661 -1.0872  0.5203
  208MPD1    H3 3167   3.213   3.224  17.463 -0.6009 -1.9970 -0.5282
  208MPD1     N 3168   3.001   2.947   0.063  0.2757  0.9462  0.0603
  208MPD1    H5 3169   2.988   2.954   0.163 -2.2191 -1.2862 -0.0891
  208MPD1    N1 3170   3.153   3.377   0.197  0.1474 -0.3313 -0.1609
  208MPD1    H6 3171   3.161   3.327   0.285  1.3505 -0.3690 -0.2829
  208MPD1    H7 3172   3.232   3.441   0.205 -0.6864  0.8231 -1.1651
  209MPD1     C 3173   4.169   2.490  10.422  0.0517 -0.2276 -1.0267
  209MPD1    C1 3174   4.264   2.509  10.326  0.6021 -0.8765 -0.5750
  209MPD1    C2 3175   4.305   2.643  10.310  0.4350 -0.8986  0.2009
  209MPD1    C3 3176   4.252   2.740  10.392 -0.8253 -0.4440  0.0749
  209MPD1    C4 3177   4.150   2.712  10.473 -0.0083 -0.3994  0.6040
  209MPD1    C5 3178   4.105   2.583  10.489 -0.3483 -0.4377  0.3882
  209MPD1     H 3179   4.377   2.674  10.236  1.1587 -0.7571  0.9670
  209MPD1    H1 3180   4.091   2.780  10.534  1.8960  1.6631  0.0979
  209MPD1    H2 3181   4.127   2.392  10.440 -0.9548  0.6939  1.6038
  209MPD1    H3 3182   4.030   2.568  10.566 -0.7140  0.4359  0.2078
  209MPD1     N 3183   4.307   2.865  10.389 -0.7383  1.0482 -0.4157
  209MPD1    H5 3184   4.381   2.877  10.320  1.9143 -0.1006  2.2212
  209MPD1    N1 3185   4.336   2.401  10.263  0.5000 -0.4775  0.3227
  209MPD1    H6 3186   4.368   2.425  10.170  1.5348  1.0249  1.0619
  209MPD1    H7 3187   4.281   2.316  10.251  0.3979 -0.0733 -1.8941
  210MPD1     C 3188   4.455   3.547  11.124 -0.0563 -0.2313 -0.1357
  210MPD1    C1 3189   4.527   3.595  11.016  0.4104  0.8510 -0.5593
  210MPD1    C2 3190   4.519   3.532  10.892 -0.1664 -0.5599 -0.1098
  210MPD1    C3 3191   4.441   3.419  10.873 -0.7548 -0.3549 -0.0802
  210MPD1    C4 3192   4.368   3.378  10.977  0.4115  0.1831  0.0159
  210MPD1    C5 3193   4.381   3.436  11.103  0.0225 -1.2157  0.4780
  210MPD1     H 3194   4.583   3.572  10.813  0.7995 -0.5034  0.6993
  210MPD1    H1 3195   4.313   3.285  10.981 -0.7861  0.8508 -0.8936
  210MPD1    H2 3196   4.458   3.599  11.219  1.9472 -0.4216 -0.0882
  210MPD1    H3 3197   4.321   3.396  11.184 -0.5516 -0.4883  0.4160
  210MPD1     N 3198   4.446   3.337  10.754 -0.7765  0.2618 -0.1737
  210MPD1    H5 3199   4.385   3.256  10.746  0.8986 -1.0922  0.7476
  210MPD1    N1 3200   4.617   3.701  11.022  0.7332 -0.4750  0.4027
  210MPD1    H6 3201   4.635   3.747  10.933  0.9881  1.9966  1.7067
  210MPD1    H7 3202   4.578   3.770  11.086 -0.4317 -0.6184 -0.1419
  211MPD1     C 3203   3.231   3.072  15.911 -0.1993 -0.8168 -0.5426
  211MPD1    C1 3204   3.238   3.203  15.938 -0.1870 -0.2921 -0.9264
  211MPD1    C2 3205   3.124   3.262  15.992 -0.6092  0.5430  0.6416
  211MPD1    C3 3206   3.002   3.188  15.999  0.9724 -0.2590  0.2974
  211MPD1    C4 3207   3.003   3.053  15.975  0.0457 -0.1607  0.8877
  211MPD1    C5 3208   3.120   3.001  15.932 -0.2617  0.1650  0.3977
  211MPD1     H 3209   3.132   3.363  16.029 -0.3504  0.3497  1.1095
  211MPD1    H1 3210   2.913   2.993  15.988 -0.2347 -0.1987 -1.2581
  211MPD1    H2 3211   3.317   3.016  15.877  1.5550 -0.0225  2.6739
  211MPD1    H3 3212   3.116   2.896  15.905  2.9832  0.0049  0.5625
  211MPD1     N 3213   2.891   3.247  16.065  0.3936 -0.1339 -0.3397
  211MPD1    H5 3214   2.921   3.337  16.101 -0.4241 -0.1322  0.3473
  211MPD1    N1 3215   3.362   3.269  15.945  0.0733 -0.4912  0.1494
  211MPD1    H6 3216   3.426   3.232  15.875  1.0985 -2.3096  2.0880
  211MPD1    H7 3217   3.347   3.368  15.923  0.5532  0.1163  2.5422
  212MPD1     C 3218   2.143   1.262  16.290 -0.4056 -0.5141 -0.1332
  212MPD1    C1 3219   2.050   1.323  16.372 -0.4636  0.4825 -0.4730
  212MPD1    C2 3220   1.948   1.251  16.426 -0.1844  0.5787  0.1270
  212MPD1    C3 3221   1.925   1.118  16.387 -0.6816 -0.4129  0.1048
  212MPD1    C4 3222   2.004   1.066  16.289 -0.0787  0.5812  0.3401
  212MPD1    C5 3223   2.118   1.134  16.252  0.0173 -0.2377  0.5763
  212MPD1     H 3224   1.908   1.290  16.518 -0.6917 -1.4387  0.7660
  212MPD1    H1 3225   1.993   0.966  16.247 -1.4596  1.3308 -1.0901
  212MPD1    H2 3226   2.237   1.306  16.258 -0.4520 -0.8004 -0.6739
  212MPD1    H3 3227   2.197   1.094  16.189  1.4403  1.9267  1.0155
  212MPD1     N 3228   1.815   1.046  16.437  0.2705  0.2855 -0.0053
  212MPD1    H5 3229   1.804   0.948  16.411  0.7409  0.1367  0.3538
  212MPD1    N1 3230   2.099   1.441  16.440  0.6869  0.4017  0.4700
  212MPD1    H6 3231   2.158   1.491  16.374  1.2070  0.4101  0.9411
  212MPD1    H7 3232   2.031   1.506  16.477 -1.0631 -0.4133 -1.2832
  213MPD1     C 3233   0.162   2.167  15.887 -0.7746 -0.0810  0.8745
  213MPD1    C1 3234   0.185   2.068  15.798  0.7468  0.8585 -0.8994
  213MPD1    C2 3235   0.122   2.088  15.679 -0.0266 -0.3891  0.5424
  213MPD1    C3 3236   0.015   2.177  15.663 -0.3360 -0.4132  0.3006
  213MPD1    C4 3237   4.694   2.249  15.773 -0.0190  0.5850 -0.0604
  213MPD1    C5 3238   0.054   2.251  15.876  0.4008 -0.5913 -0.0860
  213MPD1     H 3239   0.156   2.031  15.593  0.7471  0.5087  0.2649
  213MPD1    H1 3240   4.617   2.325  15.761  1.1116  1.7803  0.3934
  213MPD1    H2 3241   0.206   2.150  15.984  2.2822 -0.6204 -0.6338
  213MPD1    H3 3242   0.017   2.317  15.954 -1.6216  0.2448 -1.7415
  213MPD1     N 3243   4.692   2.198  15.534  0.4090  0.2083  0.7822
  213MPD1    H5 3244   0.033   2.175  15.460 -0.4753 -3.4811  1.1623
  213MPD1    N1 3245   0.313   2.009  15.802 -0.8166  0.1242  0.1710
  213MPD1    H6 3246   0.334   1.978  15.897 -1.2250  0.0401  0.2338
  213MPD1    H7 3247   0.301   1.928  15.741 -0.5200  1.2103 -1.3391
  214MPD1     C 3248   3.798   2.262  15.001  0.1364 -0.0476 -0.4151
  214MPD1    C1 3249   3.894   2.360  14.966 -0.2577 -0.6410  0.0891
  214MPD1    C2 3250   4.024   2.339  15.004  0.5892 -0.6635 -0.1252
  214MPD1    C3 3251   4.043   2.255  15.109 -0.6153 -0.4432  0.8838
  214MPD1    C4 3252   3.940   2.180  15.164 -0.0211  0.3590 -0.0559
  214MPD1    C5 3253   3.824   2.171  15.095 -0.1632 -0.4019  0.4922
  214MPD1     H 3254   4.105   2.396  14.961  0.6720  0.5547  1.6753
  214MPD1    H1 3255   3.961   2.104  15.238  0.0593  1.3221  0.9056
  214MPD1    H2 3256   3.693   2.274  14.977  0.6609  0.4718 -2.4197
  214MPD1    H3 3257   3.745   2.105  15.129  0.5568 -2.2165 -1.2992
  214MPD1     N 3258   4.169   2.221  15.154 -0.2875  0.4771 -0.4949
  214MPD1    H5 3259   4.179   2.162  15.236  2.2854  1.9338  0.2147
  214MPD1    N1 3260   3.869   2.463  14.871  0.2750 -0.4936 -0.0235
  214MPD1    H6 3261   3.781   2.514  14.874  0.2402 -0.5741  0.2615
  214MPD1    H7 3262   3.938   2.538  14.869 -1.3135  0.9607 -0.0509
  215MPD1     C 3263   4.404   2.860  10.833 -0.6097  0.0828  0.4630
  215MPD1    C1 3264   4.389   2.941  10.944  0.0783  0.0541 -0.4324
  215MPD1    C2 3265   4.476   3.038  10.970 -0.2597  0.0246 -0.4273
  215MPD1    C3 3266   4.589   3.044  10.892 -0.0441 -0.0074  0.0268
  215MPD1    C4 3267   4.608   2.964  10.785  0.6962 -0.1053 -0.1830
  215MPD1    C5 3268   4.515   2.873  10.751 -0.4079  0.3810 -0.3818
  215MPD1     H 3269   4.467   3.096  11.062 -1.0197 -1.9526  0.7552
  215MPD1    H1 3270   4.686   2.972  10.710  0.4049  2.3716 -0.2272
  215MPD1    H2 3271   4.330   2.784  10.811 -1.1762  0.8884 -0.3952
  215MPD1    H3 3272   4.526   2.810  10.663  1.9207  0.1871  0.0669
  215MPD1     N 3273   4.670   3.148  10.919 -0.3109 -0.3417  0.9565
  215MPD1    H5 3274   4.648   3.199  11.004  1.1325 -0.6909  1.5440
  215MPD1    N1 3275   4.260   2.930  11.007 -0.2669  0.2713 -0.7056
  215MPD1    H6 3276   4.274   2.964  11.102  0.1887 -0.1962 -0.6064
  215MPD1    H7 3277   4.217   2.838  11.017 -0.2452  0.4157  0.7786
  216MPD1     C 3278   1.680   1.633   0.237 -0.9268 -0.2173 -0.5368
  216MPD1    C1 3279   1.808   1.588   0.235 -0.6964  0.0137  0.5143
  216MPD1    C2 3280   1.826   1.453   0.199 -0.2894  0.1885 -0.6110
  216MPD1    C3 3281   1.725   1.374   0.155  0.5101  0.2807 -0.0178
  216MPD1    C4 3282   1.598   1.421   0.154  0.5221 -0.1622  0.5569
  216MPD1    C5 3283   1.582   1.539   0.212  0.5072  0.2329 -0.4466
  216MPD1     H 3284   1.928   1.418   0.199 -0.5423 -0.5381  1.8504
  216MPD1    H1 3285   1.513   1.366   0.114  0.4299 -0.1484  0.7358
  216MPD1    H2 3286   1.663   1.734   0.274 -1.2912 -0.5800  0.2734
  216MPD1    H3 3287   1.482   1.582   0.205  0.4310  0.3852  1.4560
  216MPD1     N 3288   1.750   1.242   0.119  0.2730 -0.2275 -0.6303
  216MPD1    H5 3289   1.848   1.220   0.135  0.4246  0.0655 -1.1623
  216MPD1    N1 3290   1.912   1.665   0.296 -0.2325 -0.1410 -0.6129
  216MPD1    H6 3291   2.005   1.630   0.271 -0.6685 -1.4824 -0.3425
  216MPD1    H7 3292   1.907   1.766   0.283 -0.3157 -0.3326 -2.0576
  217MPD1     C 3293   3.238   3.639   9.102  0.3307  0.9705  0.4409
  217MPD1    C1 3294   3.360   3.574   9.105 -0.1777  0.8634 -0.3653
  217MPD1    C2 3295   3.364   3.448   9.157 -0.3638 -1.2369 -0.4664
  217MPD1    C3 3296   3.256   3.391   9.227 -0.6098 -0.5073  0.0757
  217MPD1    C4 3297   3.133   3.461   9.218  0.2457 -0.6379  0.3051
  217MPD1    C5 3298   3.131   3.582   9.160 -0.2481  0.1279  0.2452
  217MPD1     H 3299   3.465   3.407   9.157  0.5544  1.0609  0.9814
  217MPD1    H1 3300   3.052   3.418   9.276 -1.3523  1.3448 -0.4869
  217MPD1    H2 3301   3.229   3.736   9.054  2.0985  0.8930 -0.0378
  217MPD1    H3 3302   3.036   3.634   9.166 -0.4330  0.0064 -1.7263
  217MPD1     N 3303   3.263   3.270   9.302 -0.1851  0.1824 -0.3782
  217MPD1    H5 3304   3.185   3.247   9.364 -0.0609  0.9803  0.0735
  217MPD1    N1 3305   3.476   3.629   9.058  0.4712  0.4592 -0.8190
  217MPD1    H6 3306   3.561   3.594   9.101 -0.0337  0.1236 -0.0968
  217MPD1    H7 3307   3.473   3.731   9.064  0.6338  0.3468  1.1472
  218MPD1     C 3308   4.159   3.650  12.840  0.1022  0.0987 -0.3575
  218MPD1    C1 3309   4.251   3.634  12.941  0.5777 -0.4078 -0.0408
  218MPD1    C2 3310   4.386   3.618  12.908  0.4040 -0.2134  0.3121
  218MPD1    C3 3311   4.421   3.601  12.776  0.7739  0.1456  0.4949
  218MPD1    C4 3312   4.327   3.588  12.679  0.2242  0.2656  0.3305
  218MPD1    C5 3313   4.196   3.620  12.711 -0.0829  1.1238 -0.3753
  218MPD1     H 3314   4.463   3.601  12.982  1.6826  2.3110 -0.4615
  218MPD1    H1 3315   4.348   3.567  12.575 -0.4359  0.8216  0.0839
  218MPD1    H2 3316   4.057   3.680  12.862 -0.1237 -0.3773 -0.7720
  218MPD1    H3 3317   4.111   3.609  12.645 -0.9249  3.1497  0.3736
  218MPD1     N 3318   4.562   3.590  12.744  0.2122  0.4685 -0.2003
  218MPD1    H5 3319   4.625   3.579  12.822 -1.6384  1.4925  1.4419
  218MPD1    N1 3320   4.208   3.666  13.069 -0.2970  0.2001 -0.1796
  218MPD1    H6 3321   4.121   3.617  13.092 -1.0572  2.3726  1.5378
  218MPD1    H7 3322   4.277   3.636  13.138  0.5116  0.8824 -0.7093
  219MPD1     C 3323   0.611   3.862  12.006  0.7687 -1.0700 -0.0252
  219MPD1    C1 3324   0.475   3.840  11.991  0.6861  0.1517 -0.1251
  219MPD1    C2 3325   0.406   3.768  12.092 -0.2205 -0.3852  1.2391
  219MPD1    C3 3326   0.463   3.758  12.217 -0.1836  0.4718 -0.0584
  219MPD1    C4 3327   0.597   3.779  12.231 -0.4130 -0.1101  0.0754
  219MPD1    C5 3328   0.673   3.830  12.128 -0.1737  0.4211  0.1872
  219MPD1     H 3329   0.306   3.726  12.085 -0.3444  0.2638 -1.0473
  219MPD1    H1 3330   0.649   3.756  12.324  3.1464  2.6030 -1.2122
  219MPD1    H2 3331   0.676   3.913  11.935  0.4453  0.8603  1.0568
  219MPD1    H3 3332   0.775   3.862  12.140  0.0230 -1.3632  3.3725
  219MPD1     N 3333   0.397   3.693  12.327 -0.2439  0.0648  0.5745
  219MPD1    H5 3334   0.456   3.639  12.390  0.7440  0.4409 -0.0310
  219MPD1    N1 3335   0.408   3.857  11.865 -0.0646 -0.4633  0.1366
  219MPD1    H6 3336   0.430   3.945  11.818 -2.4130  0.5990  1.0144
  219MPD1    H7 3337   0.308   3.846  11.878  0.2374 -0.7908  2.1740
  220MPD1     C 3338   4.484   4.221   9.315 -0.3574 -0.2819  0.1736
  220MPD1    C1 3339   4.560   4.256   9.428  0.5755  0.0547 -0.6459
  220MPD1    C2 3340   4.541   4.171   9.539  0.6672 -0.5585  0.3189
  220MPD1    C3 3341   4.467   4.059   9.545 -0.4682 -0.0022 -0.1260
  220MPD1    C4 3342   4.416   4.021   9.427 -0.2306 -0.0837 -0.6511
  220MPD1    C5 3343   4.426   4.097   9.311  0.5555  0.0823  0.3142
  220MPD1     H 3344   4.581   4.202   9.635  2.6223  0.9484 -0.9778
  220MPD1    H1 3345   4.367   3.924   9.425 -0.4839  0.0791 -2.1174
  220MPD1    H2 3346   4.473   4.288   9.230 -2.9092 -1.6989 -0.6275
  220MPD1    H3 3347   4.366   4.069   9.225  0.7298  2.5780 -0.5934
  220MPD1     N 3348   4.452   3.993   9.669  0.0861  0.3418 -0.0029
  220MPD1    H5 3349   4.479   4.042   9.754 -0.5673 -0.2320  0.5301
  220MPD1    N1 3350   4.617   4.387   9.451 -0.1052  0.2243 -0.0291
  220MPD1    H6 3351   4.635   4.432   9.361  0.6419  0.5675  0.2928
  220MPD1    H7 3352   4.705   4.392   9.502 -0.9325  0.7240  1.3586
  221MPD1     C 3353   2.167   1.876  16.353 -0.2983 -0.2209 -0.0439
  221MPD1    C1 3354   2.281   1.868  16.433  0.4951  0.1897  0.3514
  221MPD1    C2 3355   2.387   1.948  16.391 -0.1544  0.9369 -0.0577
  221MPD1    C3 3356   2.376   2.031  16.274  0.0099 -0.1744 -0.5370
  221MPD1    C4 3357   2.254   2.039  16.207  0.2492 -0.2585 -0.2683
  221MPD1    C5 3358   2.151   1.965  16.251  0.1953  0.0967 -0.1364
  221MPD1     H 3359   2.484   1.937  16.438 -0.0392  0.9983 -0.2860
  221MPD1    H1 3360   2.234   2.112  16.129  0.1204 -0.6490 -0.6001
  221MPD1    H2 3361   2.088   1.803  16.368  0.4884 -0.8765  0.8125
  221MPD1    H3 3362   2.060   1.966  16.193  1.0909 -0.1019 -1.5458
  221MPD1     N 3363   2.484   2.117  16.230  0.1481  0.1135  0.1835
  221MPD1    H5 3364   2.464   2.174  16.148  3.1152  0.4811 -0.2803
  221MPD1    N1 3365   2.294   1.759  16.521 -0.8111 -0.1974  0.0084
  221MPD1    H6 3366   2.205   1.716  16.544 -0.5943  0.0775  1.3621
  221MPD1    H7 3367   2.353   1.790  16.598  0.1496  0.3680 -0.9596
  222MPD1     C 3368   2.920   0.356  17.074 -0.4141  0.7120  0.0885
  222MPD1    C1 3369   2.915   0.444  17.180 -0.0879  0.1793  0.8610
  222MPD1    C2 3370   2.796   0.497  17.222  0.9966 -0.1470 -0.0242
  222MPD1    C3 3371   2.676   0.467  17.155 -0.3253 -1.2805  0.0861
  222MPD1    C4 3372   2.690   0.388  17.048 -0.7478  0.4200 -0.0507
  222MPD1    C5 3373   2.803   0.325  17.014  0.2151  0.1704 -0.0517
  222MPD1     H 3374   2.793   0.560  17.310 -1.1712 -0.6003  0.2181
  222MPD1    H1 3375   2.604   0.371  16.985 -0.5049 -1.4036  0.1153
  222MPD1    H2 3376   3.008   0.296  17.051  0.3459  1.7115  0.3600
  222MPD1    H3 3377   2.799   0.262  16.926  1.8932  0.8447 -0.6335
  222MPD1     N 3378   2.549   0.515  17.188 -0.2235 -0.7783  0.1076
  222MPD1    H5 3379   2.470   0.502  17.127 -0.6343  1.1706  0.2354
  222MPD1    N1 3380   3.032   0.461  17.258 -0.1248 -0.3752  0.2543
  222MPD1    H6 3381   3.114   0.438  17.203  0.1796 -0.9895  0.9594
  222MPD1    H7 3382   3.028   0.554  17.299  0.7159  0.3796 -1.4338
  223MPD1     C 3383   1.629   0.341  17.040  0.8444 -0.2517  0.3235
  223MPD1    C1 3384   1.749   0.309  16.989  0.7759  1.0260 -0.1688
  223MPD1    C2 3385   1.863   0.366  17.038 -1.0089  0.9066 -0.4549
  223MPD1    C3 3386   1.845   0.462  17.133 -0.1980 -0.5666  0.1820
  223MPD1    C4 3387   1.716   0.506  17.172 -0.5334 -0.4833  0.2643
  223MPD1    C5 3388   1.607   0.440  17.128 -1.3064  0.2575 -0.1169
  223MPD1     H 3389   1.959   0.324  17.009 -1.1313  0.1714  0.2074
  223MPD1    H1 3390   1.702   0.593  17.234 -0.4810 -0.0723 -0.2951
  223MPD1    H2 3391   1.539   0.284  17.021  0.6770 -1.0427  3.3528
  223MPD1    H3 3392   1.507   0.463  17.162 -0.4834  1.8127  1.2550
  223MPD1     N 3393   1.951   0.529  17.193 -0.3380 -0.1311  0.0639
  223MPD1    H5 3394   1.922   0.598  17.261  0.7781 -1.4117  1.8498
  223MPD1    N1 3395   1.742   0.197  16.897 -0.8404 -1.1132 -0.1399
  223MPD1    H6 3396   1.818   0.193  16.830  1.2027  0.5464  2.0519
  223MPD1    H7 3397   1.657   0.186  16.842 -2.5285  2.9106  1.6417
  224MPD1     C 3398   3.615   3.237   9.719 -0.3303  0.0110 -0.2168
  224MPD1    C1 3399   3.491   3.283   9.695 -0.0566 -0.1011  0.2041
  224MPD1    C2 3400   3.384   3.195   9.707  0.1164  0.1036 -0.4051
  224MPD1    C3 3401   3.390   3.072   9.766 -0.5093  0.6951 -0.5975
  224MPD1    C4 3402   3.523   3.034   9.793  0.0908 -0.3428 -0.1666
  224MPD1    C5 3403   3.633   3.117   9.782  0.0718  0.0718  0.5602
  224MPD1     H 3404   3.288   3.237   9.680  0.4549  0.6363 -0.7821
  224MPD1    H1 3405   3.540   2.939   9.843  1.3177  0.3231  0.6718
  224MPD1    H2 3406   3.693   3.310   9.702  1.3248 -1.9562 -1.0538
  224MPD1    H3 3407   3.726   3.074   9.818 -0.4382 -1.0628  0.5435
  224MPD1     N 3408   3.280   2.987   9.800  0.3591 -0.0696 -0.1807
  224MPD1    H5 3409   3.308   2.895   9.832 -1.7375 -0.6884 -0.0998
  224MPD1    N1 3410   3.472   3.402   9.627 -0.4159  0.2291 -0.3408
  224MPD1    H6 3411   3.548   3.464   9.654 -2.1508  1.9605  0.5368
  224MPD1    H7 3412   3.385   3.454   9.633 -0.9020 -0.8279  1.9524
  225MPD1     C 3413   4.624   4.567  12.254  0.0863 -0.3223  0.3696
  225MPD1    C1 3414   4.529   4.470  12.289 -1.0633 -0.7046  0.0109
  225MPD1    C2 3415   4.430   4.455  12.191  0.3303  0.3251 -0.8570
  225MPD1    C3 3416   4.418   4.540  12.080 -0.0376  0.0899  0.2053
  225MPD1    C4 3417   4.512   4.640  12.062 -0.3328  0.2825 -0.5170
  225MPD1    C5 3418   4.618   4.645  12.142  0.0062  0.1931  0.1651
  225MPD1     H 3419   4.360   4.376  12.215 -0.4139  0.9899 -0.8352
  225MPD1    H1 3420   4.499   4.708  11.978  0.8251  1.2049  0.0481
  225MPD1    H2 3421   4.711   4.587  12.316  0.5139 -0.8951 -0.0417
  225MPD1    H3 3422   4.683   0.006  12.125 -0.0922  0.4433  1.0307
  225MPD1     N 3423   4.316   4.534  11.981  0.2403 -0.4863  0.1600
  225MPD1    H5 3424   4.327   4.606  11.910  2.7510 -0.9517  0.0620
  225MPD1    N1 3425   4.541   4.386  12.403 -0.9185 -1.0891 -0.2449
  225MPD1    H6 3426   4.453   4.340  12.425 -1.3623 -0.8269 -1.4419
  225MPD1    H7 3427   4.568   4.437  12.486 -2.1104  1.6245 -1.5178
  226MPD1     C 3428   4.209   4.014   8.840 -0.7880 -0.9405  0.1176
  226MPD1    C1 3429   4.126   3.955   8.927  0.2000  0.5773  0.0829
  226MPD1    C2 3430   4.096   4.016   9.050  0.1993 -0.0709 -0.1859
  226MPD1    C3 3431   4.144   4.146   9.077 -0.4550  0.2873  0.9130
  226MPD1    C4 3432   4.223   4.205   8.982  0.7027  0.3805 -0.3873
  226MPD1    C5 3433   4.249   4.139   8.863  0.0433  0.6915 -0.3474
  226MPD1     H 3434   4.030   3.972   9.124  1.4314 -0.0195  0.9444
  226MPD1    H1 3435   4.263   4.306   8.974  2.1624 -0.1864 -0.2382
  226MPD1    H2 3436   4.249   3.975   8.747  0.4312  0.5061  0.0396
  226MPD1    H3 3437   4.321   4.186   8.796  1.5889 -0.2085  0.7039
  226MPD1     N 3438   4.114   4.201   9.198 -0.5719  0.1251 -0.2295
  226MPD1    H5 3439   4.052   4.146   9.258 -1.9180  1.2575 -0.5772
  226MPD1    N1 3440   4.086   3.819   8.906 -0.5931 -0.5014  0.3248
  226MPD1    H6 3441   4.003   3.794   8.959 -0.2617 -0.5025  0.8452
  226MPD1    H7 3442   4.059   3.803   8.809  0.9715 -1.8756  0.1285
  227MPD1     C 3443   4.314   0.331   9.717  0.0193  0.1080 -0.3371
  227MPD1    C1 3444   4.397   0.239   9.662  0.1052 -0.3661  0.3123
  227MPD1    C2 3445   4.343   0.129   9.598 -0.2536  0.8800 -0.0121
  227MPD1    C3 3446   4.205   0.107   9.600  0.1142  0.3835 -0.5459
  227MPD1    C4 3447   4.121   0.201   9.661  0.1667  0.4824  0.2025
  227MPD1    C5 3448   4.178   0.315   9.719 -0.2809  0.2641  0.3242
  227MPD1     H 3449   4.415   0.060   9.555  0.2384  1.6406 -0.4082
  227MPD1    H1 3450   4.012   0.206   9.659  0.1089 -0.1696  1.4947
  227MPD1    H2 3451   4.350   0.419   9.771 -0.0781  0.5731 -1.0341
  227MPD1    H3 3452   4.122   0.398   9.760 -0.2763  0.1219  0.6173
  227MPD1     N 3453   4.148   4.713   9.531  0.2658  0.1989 -0.0131
  227MPD1    H5 3454   4.216   4.652   9.487  1.7961  3.1229 -1.7968
  227MPD1    N1 3455   4.535   0.262   9.649  0.0594 -0.4533  0.3650
  227MPD1    H6 3456   4.596   0.182   9.636  2.3298  1.0985  1.4228
  227MPD1    H7 3457   4.573   0.333   9.711 -0.7853 -0.0219  0.3983
  228MPD1     C 3458   1.223   2.323  13.042  0.7880  0.5187 -0.6555
  228MPD1    C1 3459   1.108   2.380  12.990 -0.1249 -0.3816  0.4840
  228MPD1    C2 3460   0.996   2.297  12.960 -0.1045 -1.1025  0.8764
  228MPD1    C3 3461   1.000   2.161  12.991 -0.0752  0.3246  0.0122
  228MPD1    C4 3462   1.118   2.107  13.044  0.0487  0.4030  0.1473
  228MPD1    C5 3463   1.228   2.189  13.063 -0.2279  0.9448 -0.0724
  228MPD1     H 3464   0.905   2.349  12.935 -0.3903 -1.9107  0.2610
  228MPD1    H1 3465   1.112   2.004  13.077 -0.8849  1.6793  3.9720
  228MPD1    H2 3466   1.312   2.381  13.062  2.7118 -2.4801 -0.5675
  228MPD1    H3 3467   1.324   2.151  13.095 -1.1268 -0.8157  0.5412
  228MPD1     N 3468   0.880   2.084  12.979 -0.9808 -0.6361  0.5745
  228MPD1    H5 3469   0.798   2.119  12.930 -0.2148  0.4374  0.0810
  228MPD1    N1 3470   1.090   2.517  12.989  1.0614 -0.1367 -0.3658
  228MPD1    H6 3471   1.032   2.554  12.913  0.9879 -0.7405 -0.6051
  228MPD1    H7 3472   1.181   2.562  12.991  1.5889 -1.2229  0.1967
  229MPD1     C 3473   1.073   0.930  14.299 -0.3682  0.3033 -0.1622
  229MPD1    C1 3474   0.968   0.920  14.388 -0.0650 -0.1891 -0.6530
  229MPD1    C2 3475   0.962   0.807  14.466  0.9391 -0.4186  0.4282
  229MPD1    C3 3476   1.055   0.705  14.459  0.1194 -0.2280 -0.3166
  229MPD1    C4 3477   1.172   0.732  14.388  0.1478 -0.3095 -0.2820
  229MPD1    C5 3478   1.182   0.843  14.305  0.5672 -0.3141  0.0016
  229MPD1     H 3479   0.863   0.776  14.498  1.3316 -1.0731  0.9864
  229MPD1    H1 3480   1.256   0.664  14.391  0.3868  0.0537  1.5386
  229MPD1    H2 3481   1.068   1.003  14.219 -1.3949  1.6372  1.1288
  229MPD1    H3 3482   1.266   0.853  14.237  1.6594 -0.7381  1.3009
  229MPD1     N 3483   1.053   0.582  14.518 -0.1532 -0.2908  0.5426
  229MPD1    H5 3484   1.132   0.518  14.513 -0.3852 -0.5850  0.6681
  229MPD1    N1 3485   0.855   1.000  14.373 -0.3056  0.2087  0.8568
  229MPD1    H6 3486   0.866   1.094  14.336  1.0418 -0.9027 -1.5312
  229MPD1    H7 3487   0.797   1.012  14.457 -1.9769 -0.0892 -0.2587
  230MPD1     C 3488   0.591   0.203  15.293  0.5496  0.3235  0.5743
  230MPD1    C1 3489   0.551   0.294  15.202  0.3215  0.5140  1.0431
  230MPD1    C2 3490   0.618   0.295  15.084  0.5079  0.3527  0.1993
  230MPD1    C3 3491   0.717   0.209  15.051 -0.0984  0.1910 -1.0284
  230MPD1    C4 3492   0.756   0.119  15.145  0.1655 -0.3929  1.1602
  230MPD1    C5 3493   0.683   0.107  15.260  0.1314  0.4239  0.3395
  230MPD1     H 3494   0.604   0.378  15.016 -2.2036 -0.6132 -0.4034
  230MPD1    H1 3495   0.835   0.045  15.131  0.2032  0.0222 -0.7281
  230MPD1    H2 3496   0.560   0.213  15.396  1.8175 -3.2399  1.3213
  230MPD1    H3 3497   0.715   0.044  15.341  0.6032 -0.9983 -0.9533
  230MPD1     N 3498   0.791   0.229  14.940  0.0449  0.3675  0.6906
  230MPD1    H5 3499   0.770   0.318  14.895 -0.9993  1.1588  2.7539
  230MPD1    N1 3500   0.446   0.381  15.231 -0.3823  0.2383  0.3243
  230MPD1    H6 3501   0.368   0.354  15.171  1.4162 -0.9056 -1.5094
  230MPD1    H7 3502   0.413   0.368  15.326  1.3393 -3.1248  0.4567
  231MPD1     C 3503   4.210   2.570  15.241  0.2700  0.2739  0.5173
  231MPD1    C1 3504   4.203   2.663  15.128  0.5398 -1.1496 -1.1335
  231MPD1    C2 3505   4.329   2.694  15.077 -0.4656 -0.2698  0.1868
  231MPD1    C3 3506   4.449   2.644  15.123 -0.1324  0.0159  0.1547
  231MPD1    C4 3507   4.454   2.579  15.243 -0.2905 -0.6748 -0.5228
  231MPD1    C5 3508   4.333   2.539  15.298 -0.4215 -0.5775  0.2085
  231MPD1     H 3509   4.325   2.768  14.998 -0.4332 -0.9816 -0.4835
  231MPD1    H1 3510   4.545   2.545  15.289  0.8888  1.9760 -0.8925
  231MPD1    H2 3511   4.123   2.525  15.287  0.0695 -0.9102 -1.0513
  231MPD1    H3 3512   4.346   2.476  15.385  1.2422 -0.3075  0.1614
  231MPD1     N 3513   4.561   2.684  15.052  0.5107  0.2746 -0.0456
  231MPD1    H5 3514   4.549   2.748  14.974  0.5971 -0.6639 -0.8263
  231MPD1    N1 3515   4.084   2.706  15.069  0.1827  0.2661 -0.3155
  231MPD1    H6 3516   4.093   2.801  15.035  0.1263  0.4156  0.0922
  231MPD1    H7 3517   3.999   2.694  15.122  1.8977  2.3194  2.8613
  232MPD1     C 3518   1.441   0.666   0.142  0.4765 -0.1266  0.1653
  232MPD1    C1 3519   1.358   0.770   0.117  0.3975 -0.7045 -0.5991
  232MPD1    C2 3520   1.260   0.797   0.207  0.6570  0.4261  0.1304
  232MPD1    C3 3521   1.236   0.710   0.312 -0.3250  0.1380 -0.4686
  232MPD1    C4 3522   1.312   0.596   0.325  0.4844  0.0074 -0.2332
  232MPD1    C5 3523   1.422   0.578   0.245  0.2402 -0.5391  0.2215
  232MPD1     H 3524   1.201   0.886   0.191 -0.1599 -0.1163  0.1115
  232MPD1    H1 3525   1.290   0.521   0.400  1.9060  1.0958  1.2663
  232MPD1    H2 3526   1.527   0.658   0.077 -0.0277 -2.1242 -0.2383
  232MPD1    H3 3527   1.495   0.499   0.251  0.8377 -0.0778 -0.9609
  232MPD1     N 3528   1.130   0.755   0.392  0.6973  0.0378  0.9697
  232MPD1    H5 3529   1.068   0.824   0.352  1.3833  0.6074  0.8925
  232MPD1    N1 3530   1.385   0.853   0.006  0.1790  0.1030 -0.6224
  232MPD1    H6 3531   1.391   0.947   0.043 -0.1898  0.2412 -0.9279
  232MPD1    H7 3532   1.313   0.844  17.635  0.9691 -0.9163 -1.3006
  233MPD1     C 3533   1.512   3.747   1.035 -0.5609 -0.1981 -0.4884
  233MPD1    C1 3534   1.622   3.799   1.099  0.0499 -0.1414 -0.5186
  233MPD1    C2 3535   1.729   3.711   1.120  0.1576  0.0046 -0.0800
  233MPD1    C3 3536   1.724   3.577   1.072  1.1947  0.3326  0.2522
  233MPD1    C4 3537   1.615   3.533   0.999 -0.0005 -0.1920 -0.4496
  233MPD1    C5 3538   1.513   3.620   0.982 -0.2636  0.2885 -0.1074
  233MPD1     H 3539   1.815   3.745   1.178  0.0546  0.3436 -0.1286
  233MPD1    H1 3540   1.614   3.432   0.959 -1.0966 -0.1634 -0.5083
  233MPD1    H2 3541   1.418   3.797   1.015  0.4551  1.5365 -0.9190
  233MPD1    H3 3542   1.429   3.592   0.920  0.0042 -0.0024 -0.3360
  233MPD1     N 3543   1.826   3.484   1.091  0.4354  0.5025  0.2227
  233MPD1    H5 3544   1.799   3.388   1.072  0.6651  0.5348 -0.2637
  233MPD1    N1 3545   1.611   3.924   1.169 -0.4338 -0.0557  0.3325
  233MPD1    H6 3546   1.542   3.990   1.134 -1.3556 -1.5683 -0.7393
  233MPD1    H7 3547   1.698   3.978   1.171 -0.1564 -0.4912  0.0643
  234MPD1     C 3548   4.514   1.966   9.996 -0.2659  0.0621  0.2162
  234MPD1    C1 3549   4.447   2.009   9.881 -0.0804  0.2234 -0.1526
  234MPD1    C2 3550   4.328   2.072   9.904  0.5644 -0.4087 -0.1886
  234MPD1    C3 3551   4.294   2.113  10.031  0.8191  0.4379  0.2882
  234MPD1    C4 3552   4.368   2.080  10.143 -0.8306  0.7318  0.4894
  234MPD1    C5 3553   4.483   2.007  10.130 -0.2309  0.2062 -0.3521
  234MPD1     H 3554   4.267   2.098   9.818  2.5123  0.4042 -1.3103
  234MPD1    H1 3555   4.339   2.095  10.246 -0.4214  1.6334  0.4791
  234MPD1    H2 3556   4.608   1.911   9.990 -0.4737 -0.5034  2.3665
  234MPD1    H3 3557   4.543   1.973  10.214  1.0394 -1.2091 -1.8334
  234MPD1     N 3558   4.168   2.177  10.028  0.2591 -0.2282  0.0224
  234MPD1    H5 3559   4.124   2.177   9.936  0.4545  1.8592 -0.0668
  234MPD1    N1 3560   4.483   1.974   9.749  0.4256  0.0320 -0.2567
  234MPD1    H6 3561   4.583   1.988   9.735  0.5593  0.3892  1.0203
  234MPD1    H7 3562   4.434   2.031   9.680  0.2403  1.0069  0.6706
  235MPD1     C 3563   4.269   4.139   9.957 -0.1331 -0.1279  0.1282
  235MPD1    C1 3564   4.323   4.247   9.882 -0.7148  0.0922 -0.0471
  235MPD1    C2 3565   4.449   4.283   9.928  0.0757 -0.2389 -0.0788
  235MPD1    C3 3566   4.524   4.207  10.015 -0.6498  0.0449 -0.3328
  235MPD1    C4 3567   4.475   4.084  10.060  0.2052  0.5412 -0.4916
  235MPD1    C5 3568   4.342   4.047  10.024 -0.6539 -0.9829 -0.0676
  235MPD1     H 3569   4.484   4.379   9.892  0.0442 -0.6247 -1.1289
  235MPD1    H1 3570   4.530   4.015  10.122 -0.1894  0.3236 -0.3860
  235MPD1    H2 3571   4.164   4.114   9.945 -0.2845  1.3650 -1.7193
  235MPD1    H3 3572   4.290   3.961  10.064 -1.4097 -0.6964 -0.4182
  235MPD1     N 3573   4.655   4.248  10.041  0.3349  0.1004 -0.3371
  235MPD1    H5 3574   4.689   4.333   9.998 -0.0733  0.8267  0.7548
  235MPD1    N1 3575   4.248   4.342   9.809  0.2030 -0.0382  0.3662
  235MPD1    H6 3576   4.310   4.398   9.750  0.5788  0.0140  0.8069
  235MPD1    H7 3577   4.167   4.312   9.755  0.5054 -0.8172  0.3372
  236MPD1     C 3578   4.669   1.157   9.662  0.0664 -0.2997 -0.4204
  236MPD1    C1 3579   4.711   1.041   9.607 -0.1249  0.8505  0.7396
  236MPD1    C2 3580   4.710   0.929   9.694 -0.2083  0.5015 -0.1975
  236MPD1    C3 3581   4.677   0.948   9.828 -0.5586  0.5009 -0.1841
  236MPD1    C4 3582   4.654   1.073   9.883 -0.2009  0.1915 -0.1553
  236MPD1    C5 3583   4.644   1.182   9.797 -0.1096  0.4279  0.4787
  236MPD1     H 3584   0.013   0.832   9.654  0.0790 -0.5788  2.6436
  236MPD1    H1 3585   4.634   1.094   9.987 -0.0774  1.4353 -0.3810
  236MPD1    H2 3586   4.665   1.244   9.599  0.1505 -0.6704 -0.9335
  236MPD1    H3 3587   4.617   1.284   9.823  0.3799  0.7284 -0.1821
  236MPD1     N 3588   4.683   0.836   9.914  0.0649 -0.0330 -0.1842
  236MPD1    H5 3589   4.701   0.853  10.013 -0.5333 -2.4547  0.3344
  236MPD1    N1 3590   4.724   1.036   9.466  0.0958  0.9540  0.1300
  236MPD1    H6 3591   0.036   1.124   9.431  0.7641  0.5023 -0.3039
  236MPD1    H7 3592   0.040   0.956   9.417 -0.7650  1.1535 -0.8982
  237MPD1     C 3593   4.406   3.353  15.359 -0.2314  0.3683 -0.6889
  237MPD1    C1 3594   4.319   3.442  15.418 -0.2789 -0.3509  0.2008
  237MPD1    C2 3595   4.223   3.502  15.337 -0.3819  0.4726 -0.5510
  237MPD1    C3 3596   4.215   3.476  15.201  0.8732  0.3486 -0.2469
  237MPD1    C4 3597   4.303   3.392  15.148 -0.7176  0.3478 -0.0035
  237MPD1    C5 3598   4.408   3.340  15.226 -0.7652  0.4537 -0.3819
  237MPD1     H 3599   4.148   3.565  15.382  0.9323  2.3261 -0.9689
  237MPD1    H1 3600   4.295   3.359  15.045 -2.9615 -2.2001  0.9854
  237MPD1    H2 3601   4.477   3.297  15.420 -0.2525  1.9823  0.8384
  237MPD1    H3 3602   4.480   3.271  15.185 -1.5609 -0.2794 -0.5516
  237MPD1     N 3603   4.111   3.534  15.123  0.0575  0.1438  0.0913
  237MPD1    H5 3604   4.109   3.491  15.031 -1.5035 -0.0273  0.2063
  237MPD1    N1 3605   4.313   3.453  15.557 -0.1538  0.3697 -0.5096
  237MPD1    H6 3606   4.272   3.540  15.591 -0.1098  0.1836  0.0323
  237MPD1    H7 3607   4.407   3.459  15.598 -0.4106  0.6027  0.0507
  238MPD1     C 3608   1.671   1.901  15.176 -0.0840 -0.6290  0.0465
  238MPD1    C1 3609   1.587   1.815  15.115 -0.4056 -0.4657  0.6643
  238MPD1    C2 3610   1.467   1.864  15.061  0.2592  0.2167  0.1571
  238MPD1    C3 3611   1.415   1.988  15.106 -0.4628 -0.2203 -0.2624
  238MPD1    C4 3612   1.486   2.064  15.195  0.2651 -0.3515  0.2579
  238MPD1    C5 3613   1.607   2.011  15.231 -0.1929  0.4944 -0.1334
  238MPD1     H 3614   1.404   1.794  15.008  0.3634 -0.2683  0.6722
  238MPD1    H1 3615   1.448   2.159  15.230 -2.0338 -0.4705 -1.9409
  238MPD1    H2 3616   1.772   1.882  15.211 -0.5136 -1.2648  0.9383
  238MPD1    H3 3617   1.665   2.075  15.295  1.1714  0.1882 -1.0692
  238MPD1     N 3618   1.292   2.039  15.055 -0.0813 -0.0699  0.0290
  238MPD1    H5 3619   1.260   2.128  15.090 -2.2207 -0.0447 -2.0425
  238MPD1    N1 3620   1.642   1.694  15.071 -0.0317 -0.5915  0.2117
  238MPD1    H6 3621   1.710   1.649  15.132 -1.2391  0.5154  2.3242
  238MPD1    H7 3622   1.570   1.625  15.050  0.3281 -0.7142 -0.6263
  239MPD1     C 3623   1.868   3.228  14.906 -0.3310 -0.1687  0.4667
  239MPD1    C1 3624   1.817   3.147  14.812 -1.0283 -0.4261  0.3978
  239MPD1    C2 3625   1.725   3.191  14.717 -0.1535 -0.1939 -0.7915
  239MPD1    C3 3626   1.694   3.325  14.705  0.2580 -0.1199 -0.2741
  239MPD1    C4 3627   1.751   3.411  14.795  0.8878  0.2086 -0.3590
  239MPD1    C5 3628   1.825   3.360  14.890  0.1204 -0.4624  0.1543
  239MPD1     H 3629   1.677   3.118  14.653 -0.8977 -0.0398 -0.4068
  239MPD1    H1 3630   1.732   3.518  14.797 -3.0136 -0.4596 -0.5217
  239MPD1    H2 3631   1.934   3.192  14.984 -0.7184 -2.3606 -0.2227
  239MPD1    H3 3632   1.879   3.431  14.951 -1.2275  0.2089  0.5681
  239MPD1     N 3633   1.616   3.382  14.612  0.9375  0.0440 -0.0325
  239MPD1    H5 3634   1.643   3.478  14.590 -0.6493  1.3181  3.5846
  239MPD1    N1 3635   1.842   3.011  14.822  0.1357  0.2110  0.5995
  239MPD1    H6 3636   1.942   2.996  14.838  0.7373 -1.4236 -4.4700
  239MPD1    H7 3637   1.829   2.969  14.730  3.9295 -0.9374  0.5928
  240MPD1     C 3638   0.952   3.261  13.698  0.4324  0.1497  0.6456
  240MPD1    C1 3639   0.826   3.212  13.713  0.3123  0.6913 -1.0866
  240MPD1    C2 3640   0.807   3.132  13.825  0.6111  0.7119  0.2019
  240MPD1    C3 3641   0.907   3.113  13.921  0.3773  1.0474 -0.6664
  240MPD1    C4 3642   1.035   3.147  13.893 -0.9569 -0.3986 -0.1373
  240MPD1    C5 3643   1.055   3.214  13.777 -0.7601  0.1885 -0.2558
  240MPD1     H 3644   0.714   3.077  13.833 -0.3990  2.4901  0.6209
  240MPD1    H1 3645   1.114   3.140  13.967  0.6620  0.5090 -1.7871
  240MPD1    H2 3646   0.985   3.323  13.615 -0.7115  0.7597  0.6422
  240MPD1    H3 3647   1.153   3.257  13.764 -0.4862 -0.3325  0.0747
  240MPD1     N 3648   0.870   3.046  14.044  0.0699  0.3658  0.0299
  240MPD1    H5 3649   0.774   3.015  14.050  0.4865 -1.1400 -1.0966
  240MPD1    N1 3650   0.724   3.241  13.619  0.2338  0.2125 -0.1898
  240MPD1    H6 3651   0.765   3.287  13.538  0.8392 -2.5384 -1.4436
  240MPD1    H7 3652   0.649   3.173  13.605 -0.2385  0.3006  1.8468
  241MPD1     C 3653   1.434   2.753  14.875 -0.3122 -0.6136  0.1271
  241MPD1    C1 3654   1.311   2.791  14.927  0.0180  0.2523  0.5370
  241MPD1    C2 3655   1.216   2.824  14.825 -0.4846  0.1375 -0.7072
  241MPD1    C3 3656   1.245   2.818  14.690 -0.0367 -0.3078  0.1955
  241MPD1    C4 3657   1.381   2.802  14.654 -0.2025 -0.0202 -0.4610
  241MPD1    C5 3658   1.468   2.747  14.747 -0.2600 -0.3545 -0.2282
  241MPD1     H 3659   1.119   2.861  14.858 -0.3971 -0.4174  0.1965
  241MPD1    H1 3660   1.424   2.791  14.555  0.6526 -1.1256  0.0259
  241MPD1    H2 3661   1.512   2.716  14.942  1.4598  1.3375 -0.8582
  241MPD1    H3 3662   1.564   2.702  14.723  0.0131 -0.0852  0.3748
  241MPD1     N 3663   1.149   2.854  14.588  0.0990 -0.0799  0.5208
  241MPD1    H5 3664   1.188   2.848  14.495  1.5275 -3.6851  1.3438
  241MPD1    N1 3665   1.278   2.780  15.061  0.5568 -0.1286 -0.2101
  241MPD1    H6 3666   1.201   2.840  15.090 -0.3100 -1.1414 -0.4279
  241MPD1    H7 3667   1.354   2.783  15.128 -1.8736  2.0854  2.4356
  242MPD1     C 3668   0.280   0.954  15.616  0.0774 -0.0937 -0.4290
  242MPD1    C1 3669   0.249   1.048  15.516 -0.3579  0.1934  0.0684
  242MPD1    C2 3670   0.317   1.036  15.397  0.4725 -1.0954 -0.2750
  242MPD1    C3 3671   0.386   0.918  15.364  0.0592 -0.2519 -0.2473
  242MPD1    C4 3672   0.381   0.812  15.456 -0.2129 -0.0148  0.7223
  242MPD1    C5 3673   0.330   0.837  15.574  0.6501  0.4140  0.1287
  242MPD1     H 3674   0.316   1.116  15.325 -0.5964 -0.7355  0.1441
  242MPD1    H1 3675   0.437   0.719  15.447 -0.7134 -0.3231  0.7960
  242MPD1    H2 3676   0.245   0.962  15.718  1.0324  1.4385 -0.2221
  242MPD1    H3 3677   0.333   0.750  15.640 -0.4945  0.5383  0.3534
  242MPD1     N 3678   0.453   0.902  15.239 -0.6988 -0.6598  0.2409
  242MPD1    H5 3679   0.497   0.810  15.234  0.1025 -0.3759  1.9088
  242MPD1    N1 3680   0.200   1.172  15.565 -0.6641 -0.5805 -0.2818
  242MPD1    H6 3681   0.138   1.160  15.645 -2.0817 -0.4891 -1.3552
  242MPD1    H7 3682   0.162   1.236  15.495  1.5413 -0.6032 -1.4821
  243MPD1     C 3683   2.613   0.719  16.875  0.1979  0.1503 -0.5394
  243MPD1    C1 3684   2.568   0.682  16.748  0.5087 -0.1386 -0.1371
  243MPD1    C2 3685   2.432   0.685  16.729 -0.0756 -1.0470 -0.0719
  243MPD1    C3 3686   2.340   0.729  16.825 -0.6519  0.7071 -0.0807
  243MPD1    C4 3687   2.390   0.767  16.950  0.4809  0.8499  1.1032
  243MPD1    C5 3688   2.525   0.763  16.968  0.4334  1.0796  0.5960
  243MPD1     H 3689   2.391   0.654  16.634 -1.4019 -0.5098  0.3284
  243MPD1    H1 3690   2.334   0.791  17.039  0.1420  0.5529  0.9693
  243MPD1    H2 3691   2.716   0.704  16.904 -0.2604 -0.7676  0.6143
  243MPD1    H3 3692   2.561   0.784  17.068  0.0992  0.5898  0.8224
  243MPD1     N 3693   2.200   0.710  16.798 -0.2683  0.3852 -0.0696
  243MPD1    H5 3694   2.180   0.697  16.699  2.4124 -1.7133 -0.3355
  243MPD1    N1 3695   2.650   0.608  16.671  0.0109 -0.3384 -0.0773
  243MPD1    H6 3696   2.749   0.630  16.673 -0.4905  1.8655  0.8819
  243MPD1    H7 3697   2.618   0.589  16.576  1.0001 -0.9020 -0.2919
  244MPD1     C 3698   1.428   0.994  17.342 -0.1372 -0.1151 -0.2227
  244MPD1    C1 3699   1.549   1.051  17.314 -1.1077 -0.4180  0.8696
  244MPD1    C2 3700   1.615   1.002  17.203 -0.0219 -0.3148  0.1961
  244MPD1    C3 3701   1.563   0.893  17.130  0.2379  0.0686 -0.0200
  244MPD1    C4 3702   1.435   0.842  17.164 -0.2600 -0.4100 -0.9699
  244MPD1    C5 3703   1.372   0.896  17.267 -0.2499  1.1888 -0.0283
  244MPD1     H 3704   1.707   1.049  17.170  0.1772 -0.2688  0.8085
  244MPD1    H1 3705   1.400   0.751  17.116  0.1284 -2.4363  2.5873
  244MPD1    H2 3706   1.374   1.029  17.429  0.8082  1.8007 -0.4040
  244MPD1    H3 3707   1.280   0.846  17.296 -0.0468  0.9456  0.1981
  244MPD1     N 3708   1.649   0.839  17.033 -0.1836  0.0344  0.3186
  244MPD1    H5 3709   1.740   0.881  17.017  1.0921 -3.1661 -0.8671
  244MPD1    N1 3710   1.596   1.167  17.375 -0.0349  0.1218  0.3031
  244MPD1    H6 3711   1.696   1.179  17.359 -0.0913 -0.8740 -0.7420
  244MPD1    H7 3712   1.576   1.163  17.475 -0.9254  0.7098  0.1418
  245MPD1     C 3713   4.294   0.352  12.987  1.0320 -0.3976 -0.1056
  245MPD1    C1 3714   4.332   0.398  13.109 -0.6758 -0.3374  0.0925
  245MPD1    C2 3715   4.392   0.522  13.120 -0.6727  0.1469  0.4318
  245MPD1    C3 3716   4.410   0.601  13.011 -0.2807  0.6583 -0.3051
  245MPD1    C4 3717   4.379   0.560  12.883 -0.3101  0.3038 -0.4488
  245MPD1    C5 3718   4.320   0.432  12.873  0.6133  0.0138  0.7643
  245MPD1     H 3719   4.424   0.559  13.217  0.5332  2.5539 -0.8970
  245MPD1    H1 3720   4.404   0.610  12.790 -0.3084  1.2494  0.0619
  245MPD1    H2 3721   4.253   0.252  12.978 -0.0511  0.1319 -1.0739
  245MPD1    H3 3722   4.293   0.397  12.774  0.2049 -1.9734  1.5863
  245MPD1     N 3723   4.463   0.725  13.036 -0.6619  0.0627 -0.0085
  245MPD1    H5 3724   4.500   0.741  13.129 -2.8519 -0.4084  0.9430
  245MPD1    N1 3725   4.323   0.323  13.224 -0.4655  0.7170  0.7930
  245MPD1    H6 3726   4.231   0.284  13.239 -0.7034  0.5991 -0.9585
  245MPD1    H7 3727   4.336   0.377  13.309 -0.7844  1.6185  0.2717
  246MPD1     C 3728   1.596   1.960  10.012  0.4037  0.8110  0.5555
  246MPD1    C1 3729   1.713   1.933   9.943  0.2153 -0.2421  0.5132
  246MPD1    C2 3730   1.712   1.874   9.818 -0.1672 -0.1751 -0.3102
  246MPD1    C3 3731   1.588   1.847   9.762 -0.1097 -0.5214  0.4940
  246MPD1    C4 3732   1.473   1.863   9.834 -0.1776 -0.5305  0.6990
  246MPD1    C5 3733   1.477   1.922   9.957  0.1909  0.6963 -0.4741
  246MPD1     H 3734   1.807   1.855   9.769  0.3552 -0.6685  0.8871
  246MPD1    H1 3735   1.380   1.817   9.802  0.2728 -1.4133  0.6622
  246MPD1    H2 3736   1.587   1.999  10.113  0.4862 -0.2551  0.9719
  246MPD1    H3 3737   1.386   1.915  10.015  1.2964 -1.5641  0.9591
  246MPD1     N 3738   1.591   1.784   9.638 -0.1505  0.6061 -0.3033
  246MPD1    H5 3739   1.687   1.761   9.612 -0.5708 -1.2062 -0.2513
  246MPD1    N1 3740   1.833   1.996   9.999 -0.1068 -0.0465 -0.0390
  246MPD1    H6 3741   1.921   1.945   9.989 -0.6769 -0.8565 -0.9179
  246MPD1    H7 3742   1.820   2.021  10.096  2.9487 -0.2658  0.4320
  247MPD1     C 3743   3.232   0.730  16.151  0.4346 -0.5375  0.2098
  247MPD1    C1 3744   3.315   0.651  16.230 -0.4101  0.0147 -0.5433
  247MPD1    C2 3745   3.365   0.531  16.184  0.0426  0.0842 -0.0953
  247MPD1    C3 3746   3.358   0.503  16.046  0.3996  0.0458 -0.0176
  247MPD1    C4 3747   3.287   0.592  15.965  1.1355 -0.1275  0.1875
  247MPD1    C5 3748   3.208   0.693  16.020 -0.2929 -0.9113 -0.3331
  247MPD1     H 3749   3.435   0.473  16.243  2.1305  0.8831 -1.7785
  247MPD1    H1 3750   3.261   0.579  15.860 -1.6788 -1.3060  1.0317
  247MPD1    H2 3751   3.182   0.817  16.193 -1.9049 -1.7898  0.0414
  247MPD1    H3 3752   3.148   0.755  15.953  1.7228 -0.0154 -1.2968
  247MPD1     N 3753   3.409   0.388  15.980  0.2075 -0.5724  0.5405
  247MPD1    H5 3754   3.399   0.389  15.880  2.8318 -0.4881  0.2593
  247MPD1    N1 3755   3.343   0.683  16.365  0.6486  0.0469  0.2332
  247MPD1    H6 3756   3.339   0.781  16.389 -0.9907 -0.0082  0.1582
  247MPD1    H7 3757   3.439   0.651  16.377  0.2882 -0.7838  0.9355
  248MPD1     C 3758   4.529   4.339  17.567  0.5969  0.2364 -1.2169
  248MPD1    C1 3759   4.460   4.458  17.584 -0.0083 -0.1337  0.6616
  248MPD1    C2 3760   4.411   4.490   0.013  0.5872 -0.2436  0.2840
  248MPD1    C3 3761   4.442   4.410   0.126 -0.3928  0.9339  0.4615
  248MPD1    C4 3762   4.515   4.296   0.095  0.2813 -0.4321 -0.2015
  248MPD1    C5 3763   4.564   4.259  17.672  0.5823  0.5941 -0.6084
  248MPD1     H 3764   4.355   4.580   0.035  1.9401  0.6266  0.1867
  248MPD1    H1 3765   4.542   4.221   0.169 -1.1484  0.1489  0.9124
  248MPD1    H2 3766   4.548   4.305  17.466 -0.1415 -0.3283 -1.1609
  248MPD1    H3 3767   4.619   4.165  17.663  1.7510  1.2953 -0.7862
  248MPD1     N 3768   4.395   4.441   0.258 -0.0808  0.6034 -0.5020
  248MPD1    H5 3769   4.355   4.532   0.278 -0.2755  0.2097  0.9119
  248MPD1    N1 3770   4.413   4.533  17.476 -0.3003  0.5578  0.2056
  248MPD1    H6 3771   4.376   4.626  17.492 -0.7274  0.4251 -0.0075
  248MPD1    H7 3772   4.464   4.533  17.389  1.0868  0.3295  1.0136
  249MPD1     C 3773   0.042   2.953  10.421 -0.3233  0.5697 -0.0553
  249MPD1    C1 3774   0.080   3.077  10.384  0.2407  0.2448 -0.2759
  249MPD1    C2 3775   0.079   3.105  10.248  0.2868 -0.0992  0.4699
  249MPD1    C3 3776   0.020   3.020  10.152  0.3693  0.5653 -0.0055
  249MPD1    C4 3777   4.700   2.902  10.194  0.9148 -0.1210  0.1726
  249MPD1    C5 3778   4.712   2.868  10.327  0.4060  0.2763  0.7113
  249MPD1     H 3779   0.116   3.200  10.211  4.7654 -2.3013 -0.6513
  249MPD1    H1 3780   4.651   2.832  10.127 -0.5519 -0.6004  1.7578
  249MPD1    H2 3781   0.038   2.917  10.523  1.2229  0.8369  0.1005
  249MPD1    H3 3782   4.670   2.773  10.357 -3.1907  1.8584  0.7079
  249MPD1     N 3783   0.029   3.054  10.015  0.1533 -0.0835  0.3131
  249MPD1    H5 3784   0.081   3.140  10.001 -1.4258  0.8456  0.2107
  249MPD1    N1 3785   0.157   3.161  10.470  0.0218  0.0401 -0.1945
  249MPD1    H6 3786   0.120   3.162  10.565  0.7285  1.6140  0.0681
  249MPD1    H7 3787   0.153   3.257  10.435 -0.0289  0.1298  0.0616
  250MPD2     C 3788   2.270   4.175  13.105  0.1986  0.4036 -0.4689
  250MPD2    C1 3789   2.336   4.186  12.990 -0.0941 -0.2342  0.6456
  250MPD2    C2 3790   2.300   4.097  12.888  0.3883 -0.6518 -0.4354
  250MPD2    C3 3791   2.202   4.001  12.915 -0.1592  0.3630  0.8272
  250MPD2    C4 3792   2.136   3.993  13.036 -0.3385  0.1081  0.1174
  250MPD2    C5 3793   2.174   4.080  13.133  0.4184 -0.3569  0.1684
  250MPD2     H 3794   2.349   4.106  12.792  0.9308 -0.0265 -0.1045
  250MPD2    H1 3795   2.049   3.929  13.043  0.7347 -1.0445  3.0202
  250MPD2    H2 3796   2.291   4.245  13.185 -1.2287  1.4624 -1.0260
  250MPD2    H3 3797   2.127   4.083  13.230 -1.3230  0.0573 -0.6934
  250MPD2     N 3798   2.158   3.908  12.820 -0.0188  0.4957 -0.1073
  250MPD2    H5 3799   2.112   3.827  12.860 -1.1296  0.6443 -1.0837
  250MPD2    N1 3800   2.424   4.295  12.953  0.0550  0.3829  0.3852
  250MPD2    H7 3801   2.426   4.375  13.015 -0.6350  0.7067 -0.0126
  251TMC3    C1 3802   2.589   4.420  12.846  0.0722  0.1046  0.0917
  251TMC3    C2 3803   2.530   4.543  12.884  0.4109  0.5786  0.3967
  251TMC3    C3 3804   2.603   4.655  12.859  0.6709 -0.3794  0.1714
  251TMC3    C4 3805   2.714   4.413  12.796  0.3442 -0.3841 -0.1515
  251TMC3    C5 3806   2.775   4.539  12.764 -0.0181  0.1265 -0.2998
  251TMC3    C6 3807   2.720   4.657  12.790 -0.1909 -0.2496  0.4325
  251TMC3     C 3808   2.514   4.301  12.850  0.2503  0.6609 -0.2217
  251TMC3     O 3809   2.555   4.210  12.779  0.2697 -0.7446  0.6314
  251TMC3     H 3810   2.425   4.538  12.909  0.2968  0.7789 -0.0504
  251TMC3    H1 3811   2.770   4.323  12.773  0.4020 -1.2060  3.1282
  251TMC3    H2 3812   2.742   0.019  12.729 -2.4194 -0.2265 -0.3508
  251TMC3    C7 3813   2.920   4.543  12.763 -0.2499  0.3978 -0.9284
  251TMC3    C8 3814   2.546   0.054  12.896  0.2443 -0.2913 -0.8390
  251TMC3    O1 3815   2.987   4.440  12.763  0.4606  0.3391  0.6290
  251TMC3    O2 3816   2.441   0.055  12.961  0.1934  0.5482 -0.1410
  252TMC3    C1 3817   3.299   3.874   9.496  0.7771 -0.0976 -0.3463
  252TMC3    C2 3818   3.418   3.905   9.443 -0.8565  0.6317 -0.9215
  252TMC3    C3 3819   3.424   4.027   9.380 -0.0538  0.2739  0.1328
  252TMC3    C4 3820   3.199   3.969   9.517  0.4013 -0.9843 -0.1086
  252TMC3    C5 3821   3.206   4.086   9.449 -0.6744 -0.3745  0.2918
  252TMC3    C6 3822   3.318   4.116   9.376 -0.3028 -0.1990  0.2132
  252TMC3     C 3823   3.284   3.754   9.571 -0.4258  0.2663  0.3128
  252TMC3     O 3824   3.382   3.710   9.632 -0.5404 -0.0351  0.2281
  252TMC3     H 3825   3.506   3.841   9.438  0.6117  2.5668  0.1881
  252TMC3    H1 3826   3.110   3.950   9.576  0.4140 -1.2157 -0.1635
  252TMC3    H2 3827   3.308   4.197   9.304 -1.1691  0.1324  0.7087
  252TMC3    C7 3828   3.089   4.161   9.420  0.0849 -0.3145 -0.2173
  252TMC3    C8 3829   3.540   4.071   9.317  0.2125 -0.3522 -0.4814
  252TMC3    O1 3830   3.108   4.262   9.361 -0.1072  0.0219 -0.4033
  252TMC3    O2 3831   3.621   3.983   9.291 -0.2999 -0.4243 -0.0899
  253MPD2     C 3832   3.822   4.100  14.929  0.0731  0.3857  0.0197
  253MPD2    C1 3833   3.680   4.112  14.936 -0.3561 -0.6232  0.2162
  253MPD2    C2 3834   3.621   4.115  15.060  0.5355  0.0650  0.5597
  253MPD2    C3 3835   3.697   4.094  15.175  0.7802  0.2964  0.0842
  253MPD2    C4 3836   3.832   4.078  15.172  0.4530 -0.1258  0.2734
  253MPD2    C5 3837   3.893   4.089  15.049  0.4173 -0.9504 -0.3377
  253MPD2     H 3838   3.512   4.114  15.065  0.6205 -1.7107  1.9295
  253MPD2    H1 3839   3.888   4.064  15.263 -1.2419  0.2584  1.3883
  253MPD2    H2 3840   3.881   4.099  14.838  1.4172  0.7973  0.8841
  253MPD2    H3 3841   3.999   4.070  15.042  0.5982 -0.0028 -0.1220
  253MPD2     N 3842   3.637   4.058  15.298 -0.0937 -0.3192 -0.5581
  253MPD2    H5 3843   3.693   4.014  15.370 -0.4209  0.0961 -0.0469
  253MPD2    N1 3844   3.594   4.115  14.825  0.6328  0.3056 -0.6387
  253MPD2    H7 3845   3.496   4.139  14.843  0.3707 -1.0915 -0.2434
  254TMC3    C1 3846   3.457   3.999  15.452 -0.6319  0.0297 -0.3260
  254TMC3    C2 3847   3.333   4.035  15.489 -0.0161 -0.1019  0.4574
  254TMC3    C3 3848   3.288   3.993  15.610  0.3471  0.0753 -0.0547
  254TMC3    C4 3849   3.533   3.915  15.533 -0.4816 -0.2726 -0.3795
  254TMC3    C5 3850   3.478   3.863  15.648  0.3731  0.3027  0.0564
  254TMC3    C6 3851   3.354   3.907  15.689 -0.2744  0.3397 -0.2216
  254TMC3     C 3852   3.496   4.063  15.330 -0.1527  0.4697 -0.2149
  254TMC3     O 3853   3.405   4.109  15.264 -0.5012  0.2809 -0.0653
  254TMC3     H 3854   3.280   4.120  15.447  0.6985 -0.4009 -1.0360
  254TMC3    H1 3855   3.633   3.883  15.507  0.1666  0.7556  0.8705
  254TMC3    H2 3856   3.308   3.878  15.783 -1.5326  0.1065 -0.9094
  254TMC3    C7 3857   3.550   3.796  15.749  0.7577 -0.5802 -0.8046
  254TMC3    C8 3858   3.155   4.035  15.661 -0.3285  0.7927  0.0227
  254TMC3    O1 3859   3.470   3.737  15.821 -0.4941  0.1765 -0.1457
  254TMC3    O2 3860   3.112   3.966  15.752 -0.2646  0.3939  0.2364
  255MPD2     C 3861   2.217   0.828  10.004 -0.9463 -0.1888 -0.3046
  255MPD2    C1 3862   2.325   0.897   9.953 -0.1311  0.0229  0.7349
  255MPD2    C2 3863   2.444   0.825   9.925 -1.2624  0.7124 -0.1773
  255MPD2    C3 3864   2.460   0.695   9.972 -0.7740 -0.9667  0.2574
  255MPD2    C4 3865   2.353   0.634  10.031  0.9581  0.5539 -0.0423
  255MPD2    C5 3866   2.242   0.704  10.060 -0.0924  0.6817  0.1905
  255MPD2     H 3867   2.525   0.875   9.872  0.8324  0.3864  2.7519
  255MPD2    H1 3868   2.347   0.532  10.069 -0.6190  0.5952 -0.1999
  255MPD2    H2 3869   2.121   0.871  10.030 -0.5363  0.2492  0.4818
  255MPD2    H3 3870   2.165   0.648  10.112 -0.5246  2.6543  1.6659
  255MPD2     N 3871   2.587   0.629   9.951  0.6964 -0.1882 -0.2576
  255MPD2    H5 3872   2.577   0.528   9.949  0.6982 -0.2026  0.3637
  255MPD2    N1 3873   2.308   1.038   9.924  0.1614 -0.4644  0.0503
  255MPD2    H7 3874   2.217   1.077   9.947  0.0722 -0.8597  0.3691
  256TMC3    C1 3875   2.384   1.262   9.941  0.1382 -0.2580  0.0226
  256TMC3    C2 3876   2.488   1.352   9.936  0.2865 -0.8175  0.1710
  256TMC3    C3 3877   2.458   1.478   9.982  0.2968 -0.4007  0.8982
  256TMC3    C4 3878   2.256   1.294   9.996 -0.4792  0.4321 -0.6647
  256TMC3    C5 3879   2.249   1.422  10.054 -0.0212  0.6142  0.1503
  256TMC3    C6 3880   2.345   1.517  10.053  0.9144  0.6482 -0.0848
  256TMC3     C 3881   2.413   1.120   9.907 -0.3313  0.2723 -0.5960
  256TMC3     O 3882   2.528   1.095   9.873  0.1831 -0.5991  0.0325
  256TMC3     H 3883   2.570   1.330   9.868 -0.6460 -3.1215 -0.2077
  256TMC3    H1 3884   2.174   1.223  10.004  1.7091 -2.2350 -1.5934
  256TMC3    H2 3885   2.331   1.618  10.091  1.3536  0.7440 -0.1898
  256TMC3    C7 3886   2.114   1.462  10.086 -0.6617 -0.3036  0.1455
  256TMC3    C8 3887   2.569   1.569   9.957 -0.1590 -0.8978 -0.0754
  256TMC3    O1 3888   2.027   1.382  10.050 -0.3583  0.0191 -0.3634
  256TMC3    O2 3889   2.672   1.524   9.918  0.2033  0.2284 -0.4133
  257MPD2     C 3890   1.082   3.868  13.247 -0.6954  0.2519 -0.8448
  257MPD2    C1 3891   1.197   3.837  13.179 -0.2275  1.0572 -0.1057
  257MPD2    C2 3892   1.266   3.720  13.212 -0.2166 -0.6458 -0.1198
  257MPD2    C3 3893   1.237   3.648  13.327  0.6697 -0.6733  0.0122
  257MPD2    C4 3894   1.132   3.693  13.410  0.1298  0.0905 -0.3445
  257MPD2    C5 3895   1.062   3.803  13.365 -0.3754  0.1047  0.4469
  257MPD2     H 3896   1.347   3.686  13.149  0.8053 -1.0214  1.4212
  257MPD2    H1 3897   1.101   3.648  13.503 -0.0315 -0.2492 -0.5643
  257MPD2    H2 3898   1.012   3.947  13.224 -3.5715 -1.2058  2.9150
  257MPD2    H3 3899   0.978   3.827  13.429 -0.6173 -0.7154  0.4481
  257MPD2     N 3900   1.316   3.529  13.358  0.4722  0.6265 -0.1243
  257MPD2    H5 3901   1.391   3.510  13.292  0.4608 -2.4583  0.7680
  257MPD2    N1 3902   1.222   3.912  13.066  0.0745 -0.0754  0.1066
  257MPD2    H7 3903   1.156   3.984  13.037  0.8240  0.2647 -0.7683
  258TMC3    C1 3904   1.390   3.341  13.495  0.5590  0.1230 -0.0779
  258TMC3    C2 3905   1.459   3.291  13.389 -0.5992 -0.1688  0.0427
  258TMC3    C3 3906   1.566   3.209  13.419 -0.2738 -0.2963 -0.3427
  258TMC3    C4 3907   1.416   3.298  13.629  0.1482  0.2662 -1.2304
  258TMC3    C5 3908   1.518   3.208  13.649 -0.4591 -0.1093  0.2830
  258TMC3    C6 3909   1.596   3.163  13.543 -0.1152  0.0543  0.7262
  258TMC3     C 3910   1.300   3.454  13.475 -0.6025 -0.2199  1.3160
  258TMC3     O 3911   1.228   3.483  13.573 -0.2892  0.5528  0.4547
  258TMC3     H 3912   1.432   3.301  13.285  0.2637  1.8374  0.0051
  258TMC3    H1 3913   1.356   3.342  13.707  0.5186 -1.9244  0.2879
  258TMC3    H2 3914   1.681   3.095  13.553  0.1492  0.2937  0.1091
  258TMC3    C7 3915   1.520   3.160  13.787  0.0245  0.4080 -0.0698
  258TMC3    C8 3916   1.649   3.152  13.315  0.3950  0.2480  0.1882
  258TMC3    O1 3917   1.413   3.121  13.835 -0.2587  0.9650  0.3600
  258TMC3    O2 3918   1.691   3.039  13.340  0.1440 -0.0360 -0.0210
  259MPD2     C 3919   0.077   4.722   1.183  0.1381 -0.2566 -0.3584
  259MPD2    C1 3920   0.185   4.671   1.107  0.0466  0.1501  0.3214
  259MPD2    C2 3921   0.224   4.708   0.977  0.2009  0.6146 -0.2809
  259MPD2    C3 3922   0.148   0.082   0.917  0.3341  0.0810  0.7859
  259MPD2    C4 3923   0.043   0.130   0.987 -0.2196 -0.8556  0.1272
  259MPD2    C5 3924   0.011   0.095   1.114 -0.0367  0.5118  0.0523
  259MPD2     H 3925   0.318   4.667   0.941  1.3907  2.8434  0.2518
  259MPD2    H1 3926   4.702   0.195   0.931  0.7592 -1.4242 -1.6695
  259MPD2    H2 3927   0.041   4.676   1.275 -1.2801 -0.4561 -1.0041
  259MPD2    H3 3928   4.646   0.145   1.149 -0.2070  0.5524 -0.4441
  259MPD2     N 3929   0.172   0.108   0.783  0.2882 -0.2128  0.2880
  259MPD2    H5 3930   0.248   0.057   0.739  0.1420 -1.2004  1.1916
  259MPD2    N1 3931   0.260   4.577   1.182 -0.3737 -0.1642 -0.0319
  259MPD2    H7 3932   0.218   4.539   1.266  1.9814  0.2505  1.3354
  260TMC3    C1 3933   0.154   0.188   0.563 -0.0796  0.2320 -0.0494
  260TMC3    C2 3934   0.088   0.277   0.476 -0.1960  0.4589  0.6264
  260TMC3    C3 3935   0.103   0.260   0.343 -0.0655  0.5981  0.9785
  260TMC3    C4 3936   0.234   0.080   0.511 -0.6038  0.1537  0.4467
  260TMC3    C5 3937   0.239   0.079   0.371  0.5500 -0.0403 -0.1715
  260TMC3    C6 3938   0.164   0.155   0.283 -0.3359  0.0493 -0.8188
  260TMC3     C 3939   0.106   0.196   0.701 -0.3395 -0.2878  0.2538
  260TMC3     O 3940   0.008   0.263   0.728 -0.2959  0.3264  0.1813
  260TMC3     H 3941   0.036   0.360   0.522  1.8894  1.6800  0.8068
  260TMC3    H1 3942   0.259   4.715   0.566  1.9616 -0.0430 -1.0288
  260TMC3    H2 3943   0.184   0.160   0.176  0.0908 -1.2855 -0.8005
  260TMC3    C7 3944   0.339   4.713   0.312  0.3585 -0.1922 -0.1598
  260TMC3    C8 3945   0.120   0.380   0.269  0.3264  0.4660 -0.7530
  260TMC3    O1 3946   0.322   4.674   0.200  0.0535  0.1518 -0.4027
  260TMC3    O2 3947   0.106   0.385   0.146  0.4155 -0.5137 -0.1619
  261MPD2     C 3948   2.007   3.662  11.997 -0.0655  0.0768  0.1215
  261MPD2    C1 3949   2.004   3.769  12.087  0.8782  0.5130 -0.2114
  261MPD2    C2 3950   1.974   3.893  12.032 -0.7804 -0.3447  1.0361
  261MPD2    C3 3951   1.936   3.907  11.900 -1.3366 -0.5677 -0.1437
  261MPD2    C4 3952   1.924   3.794  11.815 -0.0735 -0.4462  0.2930
  261MPD2    C5 3953   1.962   3.673  11.867 -1.0808 -0.2817 -0.4132
  261MPD2     H 3954   1.965   3.980  12.096  0.6887 -1.3056  2.5605
  261MPD2    H1 3955   1.906   3.810  11.710  0.4902  0.8327  0.3868
  261MPD2    H2 3956   2.024   3.563  12.037  0.9911  0.6440  1.0750
  261MPD2    H3 3957   1.970   3.581  11.810 -3.6803 -0.0612 -1.1664
  261MPD2     N 3958   1.890   4.033  11.856 -0.3731 -0.0996 -0.5772
  261MPD2    H5 3959   1.908   4.114  11.915  0.2586  0.6917 -1.8605
  261MPD2    N1 3960   2.030   3.770  12.229  0.6838 -0.5916  0.1650
  261MPD2    H7 3961   2.039   3.864  12.266  0.1236  0.4065 -2.2242
  262TMC3    C1 3962   1.832   4.208  11.721  0.5523  0.9323 -0.1590
  262TMC3    C2 3963   1.789   4.275  11.831 -0.1302  0.4896 -0.4473
  262TMC3    C3 3964   1.826   4.404  11.835  0.1817  0.2713 -0.6002
  262TMC3    C4 3965   1.925   4.254  11.628 -0.2452 -0.0963  0.5305
  262TMC3    C5 3966   1.952   4.382  11.642 -0.9126  0.6127 -0.5842
  262TMC3    C6 3967   1.911   4.463  11.744  1.2416 -0.3104 -0.6644
  262TMC3     C 3968   1.833   4.066  11.733  0.1777  0.3232 -0.7870
  262TMC3     O 3969   1.812   4.003  11.629 -0.4145  0.2938  0.0098
  262TMC3     H 3970   1.708   4.230  11.888  0.5522 -1.4582 -1.0032
  262TMC3    H1 3971   1.938   4.197  11.537 -2.3544 -0.3795  0.4046
  262TMC3    H2 3972   1.928   4.569  11.728 -0.8003  0.1550  0.4039
  262TMC3    C7 3973   2.060   4.425  11.551 -0.0654 -0.2384 -0.5656
  262TMC3    C8 3974   1.765   4.481  11.942  0.2004 -0.2147  0.2218
  262TMC3    O1 3975   2.082   4.342  11.465  0.5440  0.1072 -0.2062
  262TMC3    O2 3976   1.662   4.440  11.992 -0.1534  0.1441 -0.2297
  263MPD2     C 3977   2.716   3.102  11.510 -0.8363 -0.2891  0.0131
  263MPD2    C1 3978   2.837   3.103  11.442  0.6530  0.2748  0.1618
  263MPD2    C2 3979   2.837   3.140  11.307  0.1557 -0.4886  0.0941
  263MPD2    C3 3980   2.722   3.185  11.239 -0.4075 -0.1570  0.1335
  263MPD2    C4 3981   2.607   3.190  11.319 -0.5663  0.1016  0.2429
  263MPD2    C5 3982   2.606   3.143  11.450 -0.2242 -0.1110  0.3739
  263MPD2     H 3983   2.935   3.120  11.265 -0.2682  0.3256 -1.2977
  263MPD2    H1 3984   2.512   3.222  11.278 -0.8928 -2.1298 -0.7649
  263MPD2    H2 3985   2.713   3.062  11.611 -1.4340  0.5566  0.3349
  263MPD2    H3 3986   2.511   3.145  11.502  1.1255 -1.2721  2.8544
  263MPD2     N 3987   2.723   3.219  11.103 -0.3532  0.1755 -0.7392
  263MPD2    H5 3988   2.819   3.215  11.071 -0.3081 -1.6824 -0.3591
  263MPD2    N1 3989   2.948   3.043  11.511 -0.5236 -1.2359 -0.3307
  263MPD2    H7 3990   2.948   3.038  11.612 -0.6554  2.2167 -0.1604
  264TMC3    C1 3991   2.641   3.320  10.891 -0.8567  0.4983  0.4232
  264TMC3    C2 3992   2.543   3.412  10.863  0.1672  0.2601  0.8821
  264TMC3    C3 3993   2.573   3.511  10.777  0.3373 -0.3790 -0.0106
  264TMC3    C4 3994   2.754   3.309  10.809  0.3241 -0.1409  0.1862
  264TMC3    C5 3995   2.772   3.404  10.713 -0.1586 -0.2312  0.8128
  264TMC3    C6 3996   2.679   3.505  10.689  0.2789 -0.7491 -0.4615
  264TMC3     C 3997   2.615   3.248  11.022  0.4041 -0.1715 -0.0082
  264TMC3     O 3998   2.497   3.228  11.050  0.1416  0.8680  0.2675
  264TMC3     H 3999   2.471   3.422  10.943 -0.0670 -1.4267  0.8763
  264TMC3    H1 4000   2.832   3.234  10.823 -0.5830 -1.2908 -0.9246
  264TMC3    H2 4001   2.694   3.576  10.609  0.9181 -2.2825 -1.7012
  264TMC3    C7 4002   2.884   3.398  10.607  0.1742  0.2008 -0.1994
  264TMC3    C8 4003   2.492   3.624  10.788  0.3420 -0.7169 -0.8012
  264TMC3    O1 4004   2.920   3.286  10.575  0.2214  0.5697 -0.0091
  264TMC3    O2 4005   2.388   3.621  10.850  0.2240  0.2876  0.1249
  265MPD2     C 4006   0.407   3.041  15.709  0.0064 -0.3659  0.7190
  265MPD2    C1 4007   0.414   3.146  15.623 -0.7540 -0.5788  0.0147
  265MPD2    C2 4008   0.462   3.131  15.493  0.1856 -0.5282 -0.5280
  265MPD2    C3 4009   0.518   3.007  15.459 -0.1874 -0.1683  0.0802
  265MPD2    C4 4010   0.509   2.904  15.540 -0.0606 -0.1500  0.7977
  265MPD2    C5 4011   0.455   2.921  15.668 -1.1358 -0.6108 -0.4050
  265MPD2     H 4012   0.459   3.215  15.425 -2.6532 -0.3085 -0.1265
  265MPD2    H1 4013   0.549   2.807  15.514  3.2389  1.7361 -1.0625
  265MPD2    H2 4014   0.371   3.050  15.811  1.4189 -1.3272  1.3125
  265MPD2    H3 4015   0.453   2.844  15.744  0.7967 -0.1865  0.0682
  265MPD2     N 4016   0.568   2.981  15.331  0.0398  0.0401  0.2566
  265MPD2    H5 4017   0.603   2.887  15.313  0.9141  0.0913  1.6560
  265MPD2    N1 4018   0.369   3.278  15.663 -0.0765 -0.7714 -0.4762
  265MPD2    H7 4019   0.376   3.357  15.600 -0.4184  0.0126  0.4684
  266TMC3    C1 4020   0.268   3.451  15.790 -0.9345  0.4695 -0.4674
  266TMC3    C2 4021   0.268   3.506  15.919  0.7913  0.8865  0.4881
  266TMC3    C3 4022   0.255   3.638  15.926  0.5013 -0.2644  0.3318
  266TMC3    C4 4023   0.250   3.531  15.674  0.6361  0.1995 -0.1391
  266TMC3    C5 4024   0.246   3.662  15.696 -0.1584  0.4890 -0.2718
  266TMC3    C6 4025   0.242   3.719  15.820  0.1888 -0.4543  0.1965
  266TMC3     C 4026   0.310   3.312  15.786 -0.6550 -0.4254 -0.3733
  266TMC3     O 4027   0.296   3.251  15.890 -0.0216 -0.1041 -0.2069
  266TMC3     H 4028   0.279   3.456  16.014  0.9356  0.2211  0.1214
  266TMC3    H1 4029   0.227   3.497  15.573 -0.7564 -0.1390  0.2922
  266TMC3    H2 4030   0.247   3.826  15.839 -0.6584 -0.3460 -0.2124
  266TMC3    C7 4031   0.217   3.747  15.579  0.5676  0.0824  0.6845
  266TMC3    C8 4032   0.298   3.686  16.057 -0.3531 -0.4698  0.3448
  266TMC3    O1 4033   0.195   3.695  15.470 -0.5584 -0.2511 -0.0792
  266TMC3    O2 4034   0.354   3.609  16.132  0.0709 -0.0305  0.8066
  267MPD2     C 4035   2.442   0.846   0.417 -0.4999 -0.1507 -0.2797
  267MPD2    C1 4036   2.451   0.820   0.281 -0.3371  0.5200 -0.5525
  267MPD2    C2 4037   2.331   0.831   0.211 -0.2821 -0.1755 -0.3527
  267MPD2    C3 4038   2.215   0.888   0.268 -0.2590  0.2687  0.4804
  267MPD2    C4 4039   2.224   0.923   0.404  0.1791 -0.2123 -0.6885
  267MPD2    C5 4040   2.335   0.908   0.479  0.4631  0.3256 -0.1612
  267MPD2     H 4041   2.329   0.809   0.105  0.4513 -0.0879 -0.3840
  267MPD2    H1 4042   2.138   0.970   0.450  1.6604  0.0761  1.8078
  267MPD2    H2 4043   2.530   0.834   0.478  0.1878  1.8317 -0.8841
  267MPD2    H3 4044   2.335   0.930   0.585  0.2211 -2.4915  0.4022
  267MPD2     N 4045   2.100   0.918   0.198  0.1016 -0.1407 -0.9784
  267MPD2    H5 4046   2.035   0.979   0.246  0.3340  0.8247 -1.8866
  267MPD2    N1 4047   2.570   0.776   0.230  0.0085 -0.2373 -0.3862
  267MPD2    H7 4048   2.649   0.750   0.288  0.4516  0.4518 -0.6919
  268TMC3    C1 4049   2.718   0.708   0.071  0.2639  0.4608 -0.1813
  268TMC3    C2 4050   2.781   0.736  17.653  0.3235  0.2444  0.1871
  268TMC3    C3 4051   2.898   0.668  17.626  0.2163 -0.0504  0.3910
  268TMC3    C4 4052   2.747   0.599   0.147  0.6337  0.8550 -0.4689
  268TMC3    C5 4053   2.859   0.523   0.109 -0.1486  0.5813  0.1965
  268TMC3    C6 4054   2.938   0.562   0.005  0.2670 -0.1083 -0.2483
  268TMC3     C 4055   2.591   0.766   0.093 -0.2371 -0.0613  0.0370
  268TMC3     O 4056   2.516   0.795  17.699 -0.4678 -0.2865  0.4525
  268TMC3     H 4057   2.738   0.820  17.601  0.4607  0.8554  1.0516
  268TMC3    H1 4058   2.678   0.563   0.222 -0.5326  1.1212 -1.4094
  268TMC3    H2 4059   3.021   0.504  17.666  1.3974  0.0144  2.0318
  268TMC3    C7 4060   2.846   0.385   0.159 -0.0036 -0.9924 -0.2681
  268TMC3    C8 4061   2.970   0.695  17.502  0.0323  0.4164 -0.8296
  268TMC3    O1 4062   2.763   0.371   0.245 -0.1899  0.0162 -0.2502
  268TMC3    O2 4063   3.087   0.688  17.522  0.2813 -0.0362  0.0016
  269MPD2     C 4064   2.605   4.158  15.465 -0.3134  0.4528 -0.0824
  269MPD2    C1 4065   2.480   4.204  15.491 -0.2018 -0.8840  0.1287
  269MPD2    C2 4066   2.449   4.331  15.443 -0.1639  0.1276  0.3963
  269MPD2    C3 4067   2.536   4.405  15.366  0.4167  0.1452  0.0273
  269MPD2    C4 4068   2.664   4.358  15.342  1.1864  0.5328 -0.0437
  269MPD2    C5 4069   2.694   4.241  15.402  0.1174 -0.5546 -0.8374
  269MPD2     H 4070   2.349   4.367  15.463 -0.4547 -0.2224 -0.4077
  269MPD2    H1 4071   2.734   4.392  15.267 -1.0738 -0.0048 -2.4043
  269MPD2    H2 4072   2.633   4.054  15.477 -0.8647  0.4738  1.3965
  269MPD2    H3 4073   2.795   4.205  15.383  0.2808 -0.1155 -0.8217
  269MPD2     N 4074   2.489   4.531  15.321 -0.0346  0.4736 -0.0009
  269MPD2    H5 4075   2.395   4.557  15.349 -1.1317 -1.2849 -2.1370
  269MPD2    N1 4076   2.393   4.116  15.561 -0.0747 -0.0767  0.2875
  269MPD2    H7 4077   2.428   4.026  15.593 -0.8750 -0.9685 -1.3147
  270TMC3    C1 4078   2.210   4.024  15.643  0.3031 -0.4028  0.4854
  270TMC3    C2 4079   2.117   3.960  15.563  0.1440  0.4339  1.1376
  270TMC3    C3 4080   2.098   3.826  15.574  0.2363 -0.0289  0.4170
  270TMC3    C4 4081   2.281   3.955  15.734 -0.5691 -0.1459 -0.1729
  270TMC3    C5 4082   2.241   3.826  15.763  1.0646  0.1843  0.5034
  270TMC3    C6 4083   2.147   3.760  15.686  0.3311 -0.1441 -0.2487
  270TMC3     C 4084   2.266   4.141  15.583  0.0631 -0.2137 -0.3400
  270TMC3     O 4085   2.192   4.236  15.566  0.5990  0.2163 -0.3798
  270TMC3     H 4086   2.102   4.008  15.467 -1.7534  0.8191  1.6294
  270TMC3    H1 4087   2.357   4.001  15.796 -0.5501 -1.8717  1.0882
  270TMC3    H2 4088   2.133   3.654  15.702  0.8366 -0.0462  0.7958
  270TMC3    C7 4089   2.354   3.739  15.784  0.0389  0.9111  0.3225
  270TMC3    C8 4090   2.131   3.758  15.448 -0.2957 -0.4915  0.4554
  270TMC3    O1 4091   2.462   3.787  15.758 -0.2156 -0.4674 -0.6541
  270TMC3    O2 4092   2.215   3.817  15.380  1.0959  0.3983  0.3155
  271MPD2     C 4093   1.835   3.864  13.859  0.5318  0.0306 -0.0438
  271MPD2    C1 4094   1.766   3.818  13.971  0.1579  0.0600  0.5774
  271MPD2    C2 4095   1.630   3.830  13.969 -0.1835  0.0929  0.3878
  271MPD2    C3 4096   1.562   3.907  13.872 -0.2881 -0.1610  0.5482
  271MPD2    C4 4097   1.626   3.956  13.768  0.1751 -0.1507  0.3006
  271MPD2    C5 4098   1.764   3.927  13.756 -0.3718 -0.2242 -0.2193
  271MPD2     H 4099   1.575   3.784  14.050  1.1187 -0.4925  0.9481
  271MPD2    H1 4100   1.576   4.026  13.702 -1.9740 -2.5938 -0.6532
  271MPD2    H2 4101   1.936   3.831  13.838 -0.6287 -1.5239 -3.2353
  271MPD2    H3 4102   1.812   3.967  13.667 -0.3733  3.0042  1.1959
  271MPD2     N 4103   1.420   3.935  13.869 -0.1502  0.4087 -0.1375
  271MPD2    H5 4104   1.381   3.966  13.780  1.4487  1.0598 -0.6194
  271MPD2    N1 4105   1.819   3.737  14.067  0.4580  0.7838  0.3147
  271MPD2    H7 4106   1.765   3.687  14.136 -0.2424  0.1202 -0.7126
  272TMC3    C1 4107   1.977   3.641  14.204 -0.3801 -0.4905  0.3244
  272TMC3    C2 4108   2.099   3.580  14.207 -0.4434  0.6743 -0.2631
  272TMC3    C3 4109   2.135   3.533  14.331  0.3332 -0.3764  0.1028
  272TMC3    C4 4110   1.897   3.663  14.311 -0.3235 -0.0739  0.1771
  272TMC3    C5 4111   1.950   3.624  14.436  0.3585  0.3653  0.8158
  272TMC3    C6 4112   2.071   3.565  14.449  0.0679  1.0131  0.2086
  272TMC3     C 4113   1.949   3.705  14.077  0.2779  0.3014 -0.8677
  272TMC3     O 4114   2.046   3.734  14.010  0.7029  0.7475 -0.2038
  272TMC3     H 4115   2.167   3.578  14.123 -0.1576 -1.2127  0.0193
  272TMC3    H1 4116   1.797   3.703  14.309  0.0926  1.0279  1.1976
  272TMC3    H2 4117   2.103   3.522  14.544 -0.1624 -2.1601 -1.1733
  272TMC3    C7 4118   1.873   3.659  14.551 -0.6026 -1.0683 -0.5705
  272TMC3    C8 4119   2.272   3.471  14.331 -0.5142 -0.2765 -0.5591
  272TMC3    O1 4120   1.753   3.639  14.555 -0.3888  0.0539  0.1345
  272TMC3    O2 4121   2.310   3.439  14.222 -0.9020  0.1142 -0.6694
  273MPD2     C 4122   3.311   1.699  11.916 -0.0373  0.0906  0.8039
  273MPD2    C1 4123   3.394   1.805  11.883  0.9660 -0.2881 -0.5008
  273MPD2    C2 4124   3.409   1.846  11.755 -0.0557 -0.1248  0.3524
  273MPD2    C3 4125   3.355   1.769  11.651 -1.1358 -0.0946 -0.0345
  273MPD2    C4 4126   3.284   1.651  11.684  0.3860  0.0939 -0.3551
  273MPD2    C5 4127   3.265   1.621  11.814 -0.2081  0.4480  0.1054
  273MPD2     H 4128   3.455   1.942  11.733 -0.3318 -0.2927 -1.0025
  273MPD2    H1 4129   3.240   1.585  11.610  2.6199 -0.4479 -1.1762
  273MPD2    H2 4130   3.307   1.649  12.012  0.2805  0.3351  0.9466
  273MPD2    H3 4131   3.230   1.523  11.845  0.5839 -0.0028 -0.4381
  273MPD2     N 4132   3.375   1.795  11.506 -0.3641 -0.1492 -0.1103
  273MPD2    H5 4133   3.345   1.728  11.436 -0.1672  0.4772 -0.8002
  273MPD2    N1 4134   3.463   1.865  11.990 -0.1777  0.1533  0.3147
  273MPD2    H7 4135   3.443   1.820  12.079  0.1616 -1.8744 -0.6310
  274TMC3    C1 4136   3.447   1.929  11.321 -0.4536 -0.5132 -0.2117
  274TMC3    C2 4137   3.328   1.900  11.256 -0.9442 -0.4049 -0.3979
  274TMC3    C3 4138   3.294   1.995  11.161 -0.1463  0.4186  0.4590
  274TMC3    C4 4139   3.532   2.028  11.282  0.3484 -0.2899  0.1075
  274TMC3    C5 4140   3.494   2.120  11.193 -0.2301 -0.5614  0.1869
  274TMC3    C6 4141   3.383   2.093  11.118  0.1988 -0.1535  0.2351
  274TMC3     C 4142   3.439   1.907  11.465  1.0950 -0.2396  0.5160
  274TMC3     O 4143   3.508   1.984  11.531  0.6620 -0.1465 -0.2300
  274TMC3     H 4144   3.251   1.832  11.290 -1.7536 -0.0923 -1.6014
  274TMC3    H1 4145   3.620   2.041  11.343  1.0732  2.6179 -1.5321
  274TMC3    H2 4146   3.351   2.174  11.053 -4.0782 -2.3742 -0.3931
  274TMC3    C7 4147   3.511   2.250  11.251 -0.3372  0.4757 -0.2607
  274TMC3    C8 4148   3.161   2.008  11.103  0.7430 -0.0169 -0.1211
  274TMC3    O1 4149   3.430   2.339  11.232  0.1674 -0.0805 -0.2250
  274TMC3    O2 4150   3.108   2.118  11.110 -0.7646 -0.6900 -0.6842
  275MPD2     C 4151   3.336   0.149  13.917 -0.3884 -0.2686 -0.2172
  275MPD2    C1 4152   3.280   0.156  14.040  0.5468 -0.5030  0.4920
  275MPD2    C2 4153   3.174   0.084  14.076  0.1142 -1.1081  0.7541
  275MPD2    C3 4154   3.104   4.725  13.984 -0.4469 -0.3777  0.0848
  275MPD2    C4 4155   3.155   4.719  13.864  0.4177 -0.7558  0.2194
  275MPD2    C5 4156   3.265   0.066  13.831  0.0893 -0.4984 -0.6095
  275MPD2     H 4157   3.142   0.082  14.179 -1.8095  1.9720  0.2095
  275MPD2    H1 4158   3.108   4.654  13.790 -0.6361 -0.5751  0.7233
  275MPD2    H2 4159   3.432   0.196  13.899 -0.8383  1.5088  2.0385
  275MPD2    H3 4160   3.301   0.040  13.732 -1.6716 -0.0988 -1.3660
  275MPD2     N 4161   2.987   4.651  14.028  0.4606  0.3785  0.2516
  275MPD2    H5 4162   2.950   4.578  13.968  0.5138  0.3397  0.2653
  275MPD2    N1 4163   3.336   0.226  14.151 -0.3794 -0.1604  0.5355
  275MPD2    H7 4164   3.277   0.237  14.232 -0.7426 -0.0687  0.2600
  276TMC3    C1 4165   3.460   0.374  14.277 -0.3858  0.3345 -0.6512
  276TMC3    C2 4166   3.344   0.358  14.360  0.1972 -0.2080  0.6494
  276TMC3    C3 4167   3.362   0.321  14.492 -0.3448  0.9663  0.5269
  276TMC3    C4 4168   3.583   0.360  14.325 -0.2721 -0.1332 -0.0563
  276TMC3    C5 4169   3.590   0.353  14.464 -0.3919 -0.1773 -1.0037
  276TMC3    C6 4170   3.481   0.331  14.546 -0.7323 -0.0232 -0.4916
  276TMC3     C 4171   3.445   0.312  14.145  1.0314  0.1114  0.6464
  276TMC3     O 4172   3.535   0.307  14.063  0.3047  0.0163 -0.2510
  276TMC3     H 4173   3.244   0.377  14.323  0.3416  1.5104  1.1065
  276TMC3    H1 4174   3.672   0.366  14.265  0.8374 -0.2434  1.5823
  276TMC3    H2 4175   3.497   0.317  14.653 -1.8542 -2.2280 -0.6079
  276TMC3    C7 4176   3.709   0.393  14.534 -0.0619  0.3868  0.3247
  276TMC3    C8 4177   3.312   0.192  14.514  0.7637  0.3283 -0.5544
  276TMC3    O1 4178   3.723   0.342  14.645  0.0402  0.2254  0.1568
  276TMC3    O2 4179   3.400   0.104  14.526 -0.2945  0.2901 -0.5326
  277MPD2     C 4180   0.728   3.942  12.973 -0.3123  0.2831  0.0351
  277MPD2    C1 4181   0.602   3.972  13.008  0.0605  0.5491  0.3751
  277MPD2    C2 4182   0.553   3.930  13.132  0.3650 -0.1373  0.3735
  277MPD2    C3 4183   0.634   3.844  13.201 -0.1580 -0.0413 -0.8095
  277MPD2    C4 4184   0.766   3.813  13.164 -0.1056 -0.2518 -0.3423
  277MPD2    C5 4185   0.814   3.864  13.050 -1.1100 -0.8018  0.0286
  277MPD2     H 4186   0.461   3.973  13.170 -1.5416 -2.7359 -1.2952
  277MPD2    H1 4187   0.814   3.740  13.228 -0.8075  0.1193  0.6044
  277MPD2    H2 4188   0.760   3.977  12.876  1.1982  0.3978  0.5824
  277MPD2    H3 4189   0.917   3.859  13.019 -1.5936 -0.1541 -1.6838
  277MPD2     N 4190   0.571   3.810  13.318  0.0424 -0.0651 -0.6693
  277MPD2    H5 4191   0.475   3.842  13.326  0.6732  1.2431  1.6850
  277MPD2    N1 4192   0.531   4.046  12.917  0.3037 -0.2241 -0.5190
  277MPD2    H7 4193   0.572   4.099  12.840  1.4136  0.7653  0.7693
  278TMC3    C1 4194   0.509   3.705  13.520  0.9349  0.1320 -0.6950
  278TMC3    C2 4195   0.477   3.575  13.510  0.1446 -0.1314 -0.6608
  278TMC3    C3 4196   0.346   3.542  13.494  0.0858 -0.0345 -0.0295
  278TMC3    C4 4197   0.417   3.798  13.498 -0.3750 -0.4644  0.2792
  278TMC3    C5 4198   0.285   3.764  13.479 -0.1773 -0.4392  0.1367
  278TMC3    C6 4199   0.246   3.633  13.469 -0.2643  0.7879  0.5984
  278TMC3     C 4200   0.609   3.716  13.415  0.7072 -0.7532 -0.1128
  278TMC3     O 4201   0.698   3.630  13.412 -0.2819  0.0469 -0.3870
  278TMC3     H 4202   0.546   3.498  13.543 -1.3709 -2.2419 -2.4548
  278TMC3    H1 4203   0.449   3.902  13.496 -2.9232  0.3360  0.5600
  278TMC3    H2 4204   0.140   3.611  13.479  0.3415 -0.9008  3.1095
  278TMC3    C7 4205   0.211   3.854  13.379  0.4252  0.0066 -0.6812
  278TMC3    C8 4206   0.318   3.401  13.485  0.2714  0.0137  0.6103
  278TMC3    O1 4207   0.278   3.927  13.308  0.0064  0.3557  0.0802
  278TMC3    O2 4208   0.395   3.328  13.549 -0.1762 -0.5185 -0.4912
  279MPD2     C 4209   4.123   3.888   0.451 -0.0907  0.2453 -0.7312
  279MPD2    C1 4210   4.021   3.835   0.385 -0.2251  0.0390  0.3723
  279MPD2    C2 4211   4.027   3.816   0.247  0.2128  0.4684  0.1357
  279MPD2    C3 4212   4.135   3.865   0.180 -0.2190 -0.1391  0.0167
  279MPD2    C4 4213   4.246   3.920   0.252 -0.5209  0.4071  0.2741
  279MPD2    C5 4214   4.238   3.925   0.388  0.3891  0.0766 -0.2753
  279MPD2     H 4215   3.951   3.765   0.189  1.8921 -0.6831 -1.0349
  279MPD2    H1 4216   4.335   3.963   0.207 -0.1888 -2.1632 -1.5450
  279MPD2    H2 4217   4.114   3.889   0.559  2.5307 -0.2598 -0.5060
  279MPD2    H3 4218   4.322   3.951   0.451  0.2039 -0.3573  0.1603
  279MPD2     N 4219   4.147   3.873   0.041 -0.0924 -0.7876 -0.5783
  279MPD2    H5 4220   4.231   3.919   0.008 -1.5431  2.6228  0.4682
  279MPD2    N1 4221   3.909   3.816   0.467 -0.6715  0.2681 -0.5390
  279MPD2    H7 4222   3.927   3.817   0.567 -0.1673  0.3077 -0.6332
  280TMC3    C1 4223   3.733   3.859   0.309  0.4574  0.3442 -0.6183
  280TMC3    C2 4224   3.693   3.774   0.212  0.3872  0.7396 -0.0749
  280TMC3    C3 4225   3.597   3.824   0.124 -1.0357  0.2977 -0.2627
  280TMC3    C4 4226   3.670   3.978   0.327  0.2102  0.0662 -0.1755
  280TMC3    C5 4227   3.574   4.024   0.245  0.1958 -0.4613  0.5126
  280TMC3    C6 4228   3.541   3.950   0.136 -0.5751 -0.8953  0.7056
  280TMC3     C 4229   3.775   3.796   0.426  0.1409 -0.5422 -1.0154
  280TMC3     O 4230   3.685   3.754   0.498 -0.0543 -0.6394 -0.0742
  280TMC3     H 4231   3.743   3.679   0.206  3.9107  2.7529 -2.0995
  280TMC3    H1 4232   3.697   4.031   0.417  0.6821 -3.6456  1.8752
  280TMC3    H2 4233   3.468   3.986   0.065 -0.0687  0.6058  0.9483
  280TMC3    C7 4234   3.520   4.158   0.260  0.7104  0.8736  0.2943
  280TMC3    C8 4235   3.581   3.756  17.693 -0.2708  1.1427 -1.0155
  280TMC3    O1 4236   3.539   4.218   0.365  0.6249 -0.9067 -0.0449
  280TMC3    O2 4237   3.489   3.785  17.620 -0.1883  0.4590  0.0392
  281TMC3    C1 4238   3.180   4.301  13.003 -0.5111 -0.6844 -0.2422
  281TMC3    C2 4239   3.280   4.391  12.965  0.0995 -0.3837 -0.2870
  281TMC3    C3 4240   3.348   4.359  12.856  0.8508  0.0951 -0.7282
  281TMC3    C4 4241   3.171   4.174  12.954  0.7157  0.7356 -0.2107
  281TMC3    C5 4242   3.259   4.140  12.855  0.4455  0.5497 -0.6371
  281TMC3    C6 4243   3.343   4.230  12.811  0.9389  0.5005 -0.1975
  281TMC3     C 4244   3.058   4.359  13.056 -0.6469 -0.3453  0.2799
  281TMC3     O 4245   2.963   4.283  13.073  0.1293 -0.1135  0.5525
  281TMC3     H 4246   3.290   4.492  13.004 -0.0810 -0.0154 -1.2013
  281TMC3    H1 4247   3.096   4.109  12.998  1.3903  0.6590  0.8053
  281TMC3    H2 4248   3.390   4.200  12.718 -0.6556  0.0772 -0.8667
  281TMC3    C7 4249   3.301   4.002  12.831 -0.3603  0.2640 -0.4021
  281TMC3    C8 4250   3.456   4.434  12.792  0.2051 -0.7435  0.1722
  281TMC3    O1 4251   3.418   3.991  12.793 -0.0545 -0.0083  0.2406
  281TMC3    O2 4252   3.551   4.368  12.750 -0.1863 -0.1226 -0.4067
  282MPD2     C 4253   0.287   0.669  15.099 -0.1942  0.1729  0.1047
  282MPD2    C1 4254   0.179   0.754  15.089  0.0854 -1.1201 -0.1704
  282MPD2    C2 4255   0.162   0.820  14.969  0.2869  0.0606  0.2124
  282MPD2    C3 4256   0.234   0.790  14.856  0.1895  0.0519  0.5686
  282MPD2    C4 4257   0.341   0.699  14.873 -0.1472 -0.0627  0.2530
  282MPD2    C5 4258   0.365   0.638  14.987 -0.4295 -0.4778  0.8636
  282MPD2     H 4259   0.082   0.892  14.964  0.2477 -0.0184 -0.2774
  282MPD2    H1 4260   0.411   0.664  14.798 -3.5205  1.8094 -3.7245
  282MPD2    H2 4261   0.310   0.619  15.192 -0.5828  1.1601  0.7314
  282MPD2    H3 4262   0.447   0.567  14.994 -0.0834  0.1047  2.6772
  282MPD2     N 4263   0.208   0.851  14.729 -0.3476 -0.5444 -0.5907
  282MPD2    H5 4264   0.122   0.904  14.728 -0.8028 -1.2716 -0.4081
  282MPD2    N1 4265   0.092   0.788  15.193  0.0449 -0.0034  0.3627
  282MPD2    H7 4266   0.029   0.867  15.181 -1.7685 -1.3830  0.7585
  283TMC3    C1 4267   4.698   0.762  15.395  0.6249  0.6714  0.2640
  283TMC3    C2 4268   4.673   0.893  15.429  0.6910 -0.0122 -0.1261
  283TMC3    C3 4269   4.588   0.919  15.531 -0.1907 -0.4822 -0.7995
  283TMC3    C4 4270   4.623   0.661  15.438 -0.4165 -0.3740 -0.7301
  283TMC3    C5 4271   4.525   0.691  15.531 -0.2587 -0.2961  0.0947
  283TMC3    C6 4272   4.511   0.819  15.586 -0.5441 -0.1401 -0.2630
  283TMC3     C 4273   0.082   0.723  15.307  0.6561  0.6351 -0.5513
  283TMC3     O 4274   0.132   0.618  15.339 -0.5687 -0.1396  0.5901
  283TMC3     H 4275   0.004   0.972  15.380  0.2558  0.4452  0.1125
  283TMC3    H1 4276   4.651   0.561  15.407 -0.0156 -0.5451  0.1708
  283TMC3    H2 4277   4.433   0.846  15.655 -0.4208  0.1597 -0.2436
  283TMC3    C7 4278   4.430   0.587  15.573  0.0505 -0.0106  0.5290
  283TMC3    C8 4279   4.562   1.053  15.589 -0.5452 -0.4718 -0.0489
  283TMC3    O1 4280   4.378   0.610  15.682  0.5710  0.0051  0.2905
  283TMC3    O2 4281   4.517   1.050  15.702  0.2159  0.4600  0.1595
  284MPD2     C 4282   2.836   0.310  11.853 -0.8413  0.2603  0.1148
  284MPD2    C1 4283   2.871   0.222  11.752  0.4765  0.0301  0.2374
  284MPD2    C2 4284   2.791   0.107  11.740 -0.3615 -0.1061 -0.1033
  284MPD2    C3 4285   2.693   0.065  11.831  0.1660 -0.2025  0.6494
  284MPD2    C4 4286   2.660   0.161  11.927  0.0972 -0.6560  0.3508
  284MPD2    C5 4287   2.732   0.276  11.943 -0.3124  0.6303 -0.4153
  284MPD2     H 4288   2.819   0.043  11.656  0.5793 -0.7056  0.6767
  284MPD2    H1 4289   2.588   0.147  12.008  0.5737 -0.2692  0.8398
  284MPD2    H2 4290   2.889   0.402  11.871  1.5924 -1.0008 -0.6875
  284MPD2    H3 4291   2.702   0.344  12.021  1.0036  0.4516  0.2530
  284MPD2     N 4292   2.632   4.663  11.836  0.7296 -0.7929  0.1091
  284MPD2    H5 4293   2.577   4.633  11.916  0.0986  0.8631  0.3116
  284MPD2    N1 4294   2.967   0.236  11.655  0.2721 -0.5593  0.1308
  284MPD2    H7 4295   2.969   0.166  11.582  0.1010 -1.7625  1.2705
  285TMC3    C1 4296   3.144   0.333  11.538 -0.3179 -0.2300  0.2448
  285TMC3    C2 4297   3.087   0.288  11.419 -0.4823 -0.3323  0.4901
  285TMC3    C3 4298   3.169   0.313  11.309 -0.3119  0.0720 -0.4381
  285TMC3    C4 4299   3.265   0.388  11.560  0.7272 -0.1062  0.0202
  285TMC3    C5 4300   3.342   0.398  11.451 -0.3118 -0.8076 -0.1039
  285TMC3    C6 4301   3.294   0.361  11.324 -0.3890  0.1897  0.0805
  285TMC3     C 4302   3.068   0.324  11.663 -0.1507  0.7109 -0.5252
  285TMC3     O 4303   3.096   0.392  11.763 -0.5114  0.4754 -0.2188
  285TMC3     H 4304   2.986   0.249  11.408 -0.2942  0.4734 -4.0975
  285TMC3    H1 4305   3.300   0.404  11.661 -1.2654  2.3392  0.3201
  285TMC3    H2 4306   3.357   0.373  11.236  0.1593 -0.3763  0.3999
  285TMC3    C7 4307   3.455   0.484  11.459  0.0524 -0.0671 -0.1210
  285TMC3    C8 4308   3.115   0.272  11.181 -0.5292  0.2235  0.4729
  285TMC3    O1 4309   3.487   0.538  11.351  0.0734 -0.0410  0.9353
  285TMC3    O2 4310   3.018   0.194  11.177 -0.3354 -0.1871  0.2059
  286MPD2     C 4311   3.290   3.380   1.339 -0.2283 -0.5991 -0.0490
  286MPD2    C1 4312   3.279   3.377   1.200  0.0221  0.1891 -0.2537
  286MPD2    C2 4313   3.344   3.280   1.126 -0.2719 -0.0229  0.9177
  286MPD2    C3 4314   3.410   3.176   1.191  0.7173 -0.1394  0.3999
  286MPD2    C4 4315   3.416   3.181   1.327  0.8776  0.1747  0.2175
  286MPD2    C5 4316   3.362   3.282   1.400 -0.4277  0.3136 -0.6264
  286MPD2     H 4317   3.329   3.277   1.019 -3.2376 -2.1795  1.3850
  286MPD2    H1 4318   3.459   3.098   1.380 -1.5628 -0.3389  1.3873
  286MPD2    H2 4319   3.259   3.467   1.395  0.9726 -0.1315 -0.1157
  286MPD2    H3 4320   3.379   3.281   1.507  0.0341 -0.4451 -0.7075
  286MPD2     N 4321   3.451   3.056   1.132  0.6510 -0.3882 -0.1355
  286MPD2    H5 4322   3.511   2.991   1.182  0.2469 -1.6199 -1.2515
  286MPD2    N1 4323   3.203   3.476   1.137  0.2616 -0.4630 -0.5023
  286MPD2    H7 4324   3.162   3.545   1.200 -0.6728 -0.6919 -0.8590
  287TMC3    C1 4325   3.475   2.887   0.967 -0.2887 -0.7704 -0.4810
  287TMC3    C2 4326   3.407   2.804   0.879 -0.0697  0.1257  0.7645
  287TMC3    C3 4327   3.476   2.690   0.838  0.2456  0.1810  0.6252
  287TMC3    C4 4328   3.591   2.834   1.022  0.0435 -0.3078 -0.1943
  287TMC3    C5 4329   3.658   2.723   0.978 -0.0315  0.2978 -0.2989
  287TMC3    C6 4330   3.601   2.651   0.878 -0.1019  0.7670  1.0554
  287TMC3     C 4331   3.408   3.010   1.007 -0.5123 -0.5013  0.2717
  287TMC3     O 4332   3.329   3.061   0.928 -0.1696  0.0819 -0.1465
  287TMC3     H 4333   3.310   2.838   0.844 -0.7820 -0.4352  2.1919
  287TMC3    H1 4334   3.633   2.891   1.103  3.3255 -2.9725  0.0280
  287TMC3    H2 4335   3.651   2.562   0.842 -0.1585  1.3202 -0.3756
  287TMC3    C7 4336   3.803   2.723   1.005 -0.3435 -0.1058  0.5289
  287TMC3    C8 4337   3.424   2.613   0.728 -0.6486  0.1387 -0.5472
  287TMC3    O1 4338   3.850   2.813   1.073  0.1746 -0.4525 -0.1434
  287TMC3    O2 4339   3.485   2.509   0.706  0.1090  0.3817  0.4747
  288TMC3    C1 4340   0.858   3.651  14.385  0.0571 -0.0828 -0.1906
  288TMC3    C2 4341   0.808   3.625  14.515 -0.5502 -0.3608 -0.0364
  288TMC3    C3 4342   0.689   3.563  14.527  0.3239  0.0668  0.2400
  288TMC3    C4 4343   0.785   3.615  14.276  0.3975  0.1873 -0.8186
  288TMC3    C5 4344   0.660   3.557  14.296  0.1538  0.6047 -0.1994
  288TMC3    C6 4345   0.608   3.526  14.419  0.2419 -0.7636 -0.0862
  288TMC3     C 4346   1.000   3.669  14.373 -0.0687 -0.1894  0.2231
  288TMC3     O 4347   1.037   3.724  14.268 -0.3047 -0.5122  0.1547
  288TMC3     H 4348   0.863   3.656  14.604 -0.0793 -0.2834 -0.3547
  288TMC3    H1 4349   0.815   3.634  14.173  0.0327  0.9587 -0.7870
  288TMC3    H2 4350   0.507   3.490  14.434  0.7033 -0.7969  3.0527
  288TMC3    C7 4351   0.560   3.561  14.184 -0.1164 -0.7940  0.4365
  288TMC3    C8 4352   0.656   3.524  14.660 -0.1818  0.1755 -0.0328
  288TMC3    O1 4353   0.475   3.471  14.190 -0.2919 -0.1611 -0.0367
  288TMC3    O2 4354   0.714   3.569  14.758  0.6275 -0.2984 -0.6661
  289MPD2     C 4355   0.440   2.466  14.500  1.0141  0.4100 -0.3111
  289MPD2    C1 4356   0.440   2.582  14.426  0.3544  0.2900  0.5126
  289MPD2    C2 4357   0.331   2.617  14.350 -0.1355  0.8722 -0.5494
  289MPD2    C3 4358   0.216   2.539  14.341  0.6262  0.1419  0.2044
  289MPD2    C4 4359   0.218   2.415  14.406 -0.0262 -0.3385 -0.5775
  289MPD2    C5 4360   0.330   2.385  14.488 -0.4284 -1.2304 -0.6750
  289MPD2     H 4361   0.340   2.706  14.289  1.7259  1.6035  0.8026
  289MPD2    H1 4362   0.141   2.338  14.403 -0.8218  0.4331  0.1945
  289MPD2    H2 4363   0.523   2.439  14.564  1.9107  1.0949 -1.1809
  289MPD2    H3 4364   0.336   2.293  14.547 -0.9313 -0.7555  0.1103
  289MPD2     N 4365   0.102   2.580  14.263  0.2712 -0.2583 -0.0304
  289MPD2    H5 4366   0.038   2.502  14.252 -0.6589  0.4933  0.1684
  289MPD2    N1 4367   0.552   2.677  14.437 -0.2578  0.7652 -0.2815
  289MPD2    H7 4368   0.620   2.651  14.507  2.2818  1.1976 -2.6022
  290TMC3    C1 4369   4.658   2.722  14.186 -0.0938 -0.4272 -0.3516
  290TMC3    C2 4370   4.600   2.841  14.203 -0.5954 -0.7383 -0.0637
  290TMC3    C3 4371   4.471   2.862  14.165 -0.1061  0.3083  0.4371
  290TMC3    C4 4372   4.593   2.617  14.124 -0.0988  0.1486 -0.0396
  290TMC3    C5 4373   4.456   2.635  14.096  0.5106 -0.5562  0.1065
  290TMC3    C6 4374   4.394   2.755  14.122  0.2555 -0.1825  1.1092
  290TMC3     C 4375   0.071   2.709  14.230 -0.2827  0.0546  0.2833
  290TMC3     O 4376   0.134   2.812  14.249 -0.0554 -0.0822 -0.0247
  290TMC3     H 4377   4.662   2.919  14.247 -1.8509 -0.2605  0.8951
  290TMC3    H1 4378   4.644   2.522  14.114 -0.5676 -0.3411  2.1966
  290TMC3    H2 4379   4.290   2.772  14.096  0.9509  1.9256 -0.2923
  290TMC3    C7 4380   4.361   2.525  14.057 -0.2496  0.1609 -0.7128
  290TMC3    C8 4381   4.389   2.964  14.238 -0.7417  0.7218  0.2132
  290TMC3    O1 4382   4.266   2.562  13.987  0.0748  0.1351  0.1280
  290TMC3    O2 4383   4.270   2.959  14.239  0.2876 -0.1081 -0.3124
  291MPD2     C 4384   3.763   2.226  17.614 -0.0236 -0.3522 -0.1871
  291MPD2    C1 4385   3.812   2.149   0.017 -0.5799  0.0866  0.1292
  291MPD2    C2 4386   3.917   2.198   0.088  0.0362  0.3050 -0.6951
  291MPD2    C3 4387   3.967   2.331   0.067  0.3518 -0.5645 -0.0634
  291MPD2    C4 4388   3.910   2.402  17.669  0.0834 -0.2502 -0.3374
  291MPD2    C5 4389   3.810   2.350  17.593 -0.0516 -0.3438  0.2992
  291MPD2     H 4390   3.961   2.125   0.155 -0.1484  1.0620  0.2527
  291MPD2    H1 4391   3.969   2.487  17.637 -3.5445  1.7332 -1.7079
  291MPD2    H2 4392   3.698   2.184  17.538 -0.4797  2.2908 -1.2369
  291MPD2    H3 4393   3.780   2.397  17.500  3.3555 -2.1374 -1.7340
  291MPD2     N 4394   4.090   2.372   0.124  0.0987 -0.1408  0.4933
  291MPD2    H5 4395   4.133   2.457   0.090  0.6698 -0.0738  1.3661
  291MPD2    N1 4396   3.785   2.008   0.036  0.4683 -0.4484  0.2258
  291MPD2    H7 4397   3.812   1.967   0.125  2.0703 -0.3579 -0.2082
  292TMC3    C1 4398   3.660   1.803  17.698  0.0005  0.6564  0.0862
  292TMC3    C2 4399   3.638   1.783   0.135  0.1725 -0.4519 -0.2258
  292TMC3    C3 4400   3.601   1.658   0.177 -0.5753 -0.0949  0.4664
  292TMC3    C4 4401   3.650   1.698  17.614  0.5436 -0.5244  0.3893
  292TMC3    C5 4402   3.606   1.578  17.661  0.0065 -0.1560 -0.6171
  292TMC3    C6 4403   3.581   1.556   0.090 -0.2024  0.0004 -0.3860
  292TMC3     C 4404   3.707   1.934  17.649 -0.6551 -0.1753 -0.0051
  292TMC3     O 4405   3.691   1.956  17.532  0.1375 -0.3498  0.1923
  292TMC3     H 4406   3.637   1.865   0.205  0.8983 -0.5674 -0.0814
  292TMC3    H1 4407   3.665   1.712  17.507 -0.2026 -0.4075  0.2953
  292TMC3    H2 4408   3.561   1.453   0.119  1.8118 -0.4118 -0.4582
  292TMC3    C7 4409   3.654   1.461  17.599  0.2827  0.1848 -0.6960
  292TMC3    C8 4410   3.611   1.613   0.319 -0.9658  1.0510  0.6905
  292TMC3    O1 4411   3.693   1.372  17.671 -0.1357  0.3071  0.3255
  292TMC3    O2 4412   3.553   1.512   0.349  0.3502  0.4986 -0.6514
  293MPD2     C 4413   1.652   3.664  12.497 -0.0311 -0.0016  0.1838
  293MPD2    C1 4414   1.530   3.679  12.563 -0.0935 -0.1274 -0.3153
  293MPD2    C2 4415   1.541   3.712  12.697  0.1980  0.4402 -0.4136
  293MPD2    C3 4416   1.660   3.702  12.764  0.1937  0.1660  0.4455
  293MPD2    C4 4417   1.779   3.679  12.696 -0.6115  0.7856  0.3050
  293MPD2    C5 4418   1.778   3.672  12.559  0.1772 -0.9646  0.2613
  293MPD2     H 4419   1.458   3.740  12.761  1.5753  1.8731  0.7528
  293MPD2    H1 4420   1.877   3.683  12.744 -0.5020  0.2470  0.1224
  293MPD2    H2 4421   1.652   3.635  12.392  0.7089 -1.3169  0.5387
  293MPD2    H3 4422   1.873   3.679  12.507 -0.3637  0.2341 -0.5758
  293MPD2     N 4423   1.655   3.712  12.905 -0.1894 -0.0386 -0.1913
  293MPD2    H5 4424   1.562   3.708  12.946 -0.3762  0.9943 -0.5447
  293MPD2    N1 4425   1.411   3.684  12.485 -0.4279 -0.2383 -0.1965
  293MPD2    H7 4426   1.413   3.669  12.384 -0.8126 -0.0440 -0.2289
  294TMC3    C1 4427   1.189   3.672  12.434  0.2341  0.4748 -0.1616
  294TMC3    C2 4428   1.071   3.631  12.484  0.2140  0.4918 -0.2906
  294TMC3    C3 4429   0.962   3.611  12.396  0.1716 -0.2673 -0.6056
  294TMC3    C4 4430   1.206   3.722  12.307 -0.3853 -0.1966 -0.4457
  294TMC3    C5 4431   1.095   3.705  12.228  0.1131  0.5198 -0.5309
  294TMC3    C6 4432   0.981   3.642  12.269  0.4427  0.0186 -0.0566
  294TMC3     C 4433   1.283   3.696  12.536 -0.7535  0.1304 -0.2181
  294TMC3     O 4434   1.256   3.700  12.655 -0.3647  0.2063 -0.1574
  294TMC3     H 4435   1.062   3.595  12.586 -2.1166 -0.4895 -0.8279
  294TMC3    H1 4436   1.296   3.771  12.272 -0.9166  0.6807 -0.5867
  294TMC3    H2 4437   0.902   3.627  12.197  1.7131  0.7770 -1.6218
  294TMC3    C7 4438   1.103   3.729  12.080  0.2889 -0.4357 -0.2117
  294TMC3    C8 4439   0.870   3.508  12.435 -0.3261  0.2604  0.8642
  294TMC3    O1 4440   0.998   3.722  12.017 -0.4968  0.0854  0.1235
  294TMC3    O2 4441   0.847   3.495  12.556 -0.1786  0.7060  0.6165
  295MPD2     C 4442   1.266   1.718  17.542 -0.0769 -1.3567  0.3994
  295MPD2    C1 4443   1.372   1.741  17.626 -0.3548 -0.5421  0.1701
  295MPD2    C2 4444   1.356   1.830   0.029 -0.2377 -0.3926  0.1138
  295MPD2    C3 4445   1.228   1.881   0.060 -0.3263  0.1203 -0.3676
  295MPD2    C4 4446   1.131   1.867  17.666  0.2601  0.0904 -0.4427
  295MPD2    C5 4447   1.152   1.787  17.558 -0.2028  0.1192 -0.0678
  295MPD2     H 4448   1.440   1.861   0.090  1.1334 -1.0733 -1.4123
  295MPD2    H1 4449   1.034   1.914  17.681  0.6892  0.0742  2.4541
  295MPD2    H2 4450   1.282   1.652  17.457 -2.2768 -0.5857 -0.6080
  295MPD2    H3 4451   1.069   1.776  17.490  1.0940  1.4344 -1.8331
  295MPD2     N 4452   1.198   1.945   0.186 -0.2393  0.3771 -0.1780
  295MPD2    H5 4453   1.103   1.974   0.206 -0.5778 -0.2749 -0.8386
  295MPD2    N1 4454   1.504   1.698  17.605 -0.3595  1.0274 -0.2465
  295MPD2    H7 4455   1.585   1.732  17.655  1.6184 -3.4175 -0.4134
  296TMC3    C1 4456   1.230   2.028   0.403 -0.0438  0.7236  0.7137
  296TMC3    C2 4457   1.308   2.115   0.482 -0.7991 -0.0332 -0.3618
  296TMC3    C3 4458   1.276   2.137   0.609  0.3072  0.9025 -0.0054
  296TMC3    C4 4459   1.113   1.980   0.455  0.7735  0.0038  1.3054
  296TMC3    C5 4460   1.090   2.003   0.586  0.8678 -0.7003 -0.7270
  296TMC3    C6 4461   1.161   2.089   0.664 -0.2845  0.0177  0.1407
  296TMC3     C 4462   1.291   1.982   0.278 -0.5140  0.0389 -0.7092
  296TMC3     O 4463   1.416   1.975   0.285 -0.0733 -0.2557  0.4906
  296TMC3     H 4464   1.391   2.164   0.432 -0.4449  1.0827  1.3188
  296TMC3    H1 4465   1.052   1.908   0.404  0.0791  1.1683  0.4996
  296TMC3    H2 4466   1.130   2.129   0.760  0.6538 -2.4223  1.4501
  296TMC3    C7 4467   0.967   1.949   0.635 -0.2565 -0.7964  0.2745
  296TMC3    C8 4468   1.368   2.212   0.689  0.3770 -0.2375  0.0166
  296TMC3    O1 4469   0.871   1.974   0.566  0.8201 -0.4886 -0.3188
  296TMC3    O2 4470   1.323   2.298   0.761  0.1233  0.3695 -0.2772
  297MPD2     C 4471   3.868   4.174  16.298  0.1008 -0.4121 -0.1930
  297MPD2    C1 4472   3.863   4.264  16.196 -0.1053  1.0313 -1.0184
  297MPD2    C2 4473   3.963   4.361  16.186 -0.1772  0.4500 -0.8433
  297MPD2    C3 4474   4.046   4.382  16.295  0.6605  0.3119 -0.2689
  297MPD2    C4 4475   4.039   4.296  16.407 -0.4711 -0.2890  0.0124
  297MPD2    C5 4476   3.950   4.188  16.408  0.3038 -0.1537 -0.3054
  297MPD2     H 4477   3.979   4.436  16.109  1.4045  1.9652  0.9440
  297MPD2    H1 4478   4.100   4.302  16.496 -1.5020  1.8254  0.5758
  297MPD2    H2 4479   3.809   4.084  16.288 -2.5388  1.2829 -0.1408
  297MPD2    H3 4480   3.938   4.106  16.477  1.1308 -0.8180 -0.9423
  297MPD2     N 4481   4.125   4.499  16.289  0.4925 -0.8962  1.2640
  297MPD2    H5 4482   4.111   4.550  16.202  0.3961 -1.3731  1.0000
  297MPD2    N1 4483   3.780   4.251  16.085 -0.8236  0.1658  0.0091
  297MPD2    H7 4484   3.786   4.319  16.010  0.7294  1.7997  1.6072
  298TMC3    C1 4485   3.598   4.191  15.963  0.5896  0.3933 -0.6531
  298TMC3    C2 4486   3.668   4.204  15.850 -0.1654  0.2001 -0.4900
  298TMC3    C3 4487   3.606   4.228  15.727  0.0552  0.2756  0.3269
  298TMC3    C4 4488   3.463   4.209  15.964 -0.0586 -0.1574  0.0631
  298TMC3    C5 4489   3.404   4.242  15.837 -1.2949 -0.3665  0.8602
  298TMC3    C6 4490   3.474   4.239  15.721  0.1519 -0.0619 -0.2677
  298TMC3     C 4491   3.666   4.174  16.092  0.0864 -0.1558  0.1073
  298TMC3     O 4492   3.609   4.116  16.184 -0.5392  0.2143  0.0143
  298TMC3     H 4493   3.773   4.178  15.851 -0.4704 -1.0679 -1.3462
  298TMC3    H1 4494   3.413   4.204  16.060  0.1510 -0.2994  0.1638
  298TMC3    H2 4495   3.427   4.263  15.626 -2.1675  1.3412  1.2378
  298TMC3    C7 4496   3.320   4.358  15.855 -0.2600 -0.0732  0.2801
  298TMC3    C8 4497   3.678   4.282  15.615 -0.3383  0.0564  0.4619
  298TMC3    O1 4498   3.267   4.359  15.969 -0.7409 -0.2489  0.5560
  298TMC3    O2 4499   3.621   4.274  15.505 -0.2750 -0.5095 -0.9245
  299MPD2     C 4500   4.163   3.584  10.745  0.1540 -0.6115  0.3617
  299MPD2    C1 4501   4.171   3.632  10.613 -0.4373  0.1442  0.2557
  299MPD2    C2 4502   4.055   3.614  10.537 -0.0823 -0.2215  0.1180
  299MPD2    C3 4503   3.946   3.548  10.579 -0.3389 -0.1016 -0.1532
  299MPD2    C4 4504   3.953   3.482  10.697 -0.6686  0.4863  0.0545
  299MPD2    C5 4505   4.058   3.503  10.780 -0.6877  0.3019  0.3623
  299MPD2     H 4506   4.057   3.658  10.439  0.2438  0.1201  0.2774
  299MPD2    H1 4507   3.866   3.420  10.720 -0.0185  0.1816  1.7144
  299MPD2    H2 4508   4.244   3.592  10.816 -0.6894  0.9471  1.1525
  299MPD2    H3 4509   4.057   3.448  10.873 -1.5802  0.5599  0.5079
  299MPD2     N 4510   3.829   3.536  10.509 -0.3697 -0.7714  0.4150
  299MPD2    H5 4511   3.758   3.472  10.542 -0.0927 -0.3794  1.7673
  299MPD2    N1 4512   4.288   3.689  10.570  0.4057 -0.1112  0.0018
  299MPD2    H7 4513   4.362   3.693  10.639  0.2229 -1.6949  0.2897
  300TMC3    C1 4514   3.662   3.597  10.340  0.2954  0.2412 -0.2800
  300TMC3    C2 4515   3.654   3.671  10.227  0.3659  0.4657 -0.5793
  300TMC3    C3 4516   3.560   3.763  10.217 -0.3737 -1.0625  1.1572
  300TMC3    C4 4517   3.577   3.612  10.444 -0.8884  0.8533  0.1122
  300TMC3    C5 4518   3.478   3.710  10.429  0.6033  0.9525 -0.0257
  300TMC3    C6 4519   3.472   3.785  10.316 -0.1364 -0.6163  0.9800
  300TMC3     C 4520   3.807   3.601  10.391  0.0839 -0.3071 -0.0448
  300TMC3     O 4521   3.879   3.671  10.322 -0.1734  0.1039 -0.1953
  300TMC3     H 4522   3.735   3.670  10.155 -0.6882  0.1694 -1.7599
  300TMC3    H1 4523   3.589   3.561  10.538 -1.6129  0.5867  0.0580
  300TMC3    H2 4524   3.414   3.876  10.304  2.1017  0.6951  0.2379
  300TMC3    C7 4525   3.444   3.779  10.553  0.0034  0.3397  0.3501
  300TMC3    C8 4526   3.605   3.892  10.162  0.1402  0.2899  0.7189
  300TMC3    O1 4527   3.516   3.748  10.649  0.3915 -0.6759  0.3439
  300TMC3    O2 4528   3.680   3.952  10.238 -0.3720  0.4290 -0.2087
  301MPD2     C 4529   1.625   0.635   1.627  0.3875 -0.1835  0.1961
  301MPD2    C1 4530   1.589   0.625   1.492 -0.4597 -0.1726 -0.2608
  301MPD2    C2 4531   1.690   0.593   1.405  0.4510 -0.0892  0.1254
  301MPD2    C3 4532   1.819   0.572   1.447  0.0766 -0.4286 -0.3947
  301MPD2    C4 4533   1.846   0.605   1.576  0.1353 -0.0289 -0.1878
  301MPD2    C5 4534   1.749   0.617   1.670 -0.5486  0.0834 -0.8305
  301MPD2     H 4535   1.658   0.582   1.302  0.2624  1.2377  0.0433
  301MPD2    H1 4536   1.948   0.588   1.609  0.4250  1.1779 -0.4796
  301MPD2    H2 4537   1.553   0.665   1.703 -2.7364 -3.2735 -1.5371
  301MPD2    H3 4538   1.777   0.618   1.775 -1.2433 -1.5296 -0.6352
  301MPD2     N 4539   1.916   0.541   1.355  0.5194  1.0443  0.4991
  301MPD2    H5 4540   2.014   0.556   1.378  1.0414  0.4740 -1.3205
  301MPD2    N1 4541   1.467   0.657   1.432  0.1521  0.7361  0.2514
  301MPD2    H7 4542   1.462   0.665   1.331 -0.4816  0.4930  0.2598
  302TMC3    C1 4543   1.998   0.465   1.150  0.1410 -0.4453  0.1350
  302TMC3    C2 4544   1.972   0.370   1.054  0.4644  0.0094  0.1899
  302TMC3    C3 4545   1.985   0.406   0.922 -0.0780 -0.1446 -0.5330
  302TMC3    C4 4546   2.053   0.584   1.119 -0.9010 -0.1858  0.2341
  302TMC3    C5 4547   2.071   0.614   0.984 -0.3426 -0.0174  0.3456
  302TMC3    C6 4548   2.032   0.527   0.886 -1.0779  0.3909  0.4179
  302TMC3     C 4549   1.898   0.450   1.256  0.5334 -0.2869 -0.1685
  302TMC3     O 4550   1.793   0.387   1.246  0.5837 -0.2028 -0.2748
  302TMC3     H 4551   1.937   0.268   1.068  0.0404 -0.0606 -1.3978
  302TMC3    H1 4552   2.068   0.664   1.192 -1.1504  0.3971 -0.3508
  302TMC3    H2 4553   2.053   0.557   0.784 -2.6259 -0.5708 -0.1912
  302TMC3    C7 4554   2.098   0.752   0.951  0.0766 -0.0342  0.5883
  302TMC3    C8 4555   1.921   0.312   0.824 -0.6599  0.2815  0.0372
  302TMC3    O1 4556   2.187   0.807   1.011  0.1511 -0.2521  0.5966
  302TMC3    O2 4557   1.863   0.213   0.871 -0.2392  0.1046  0.0291
  303MPD2     C 4558   1.827   3.567  10.556 -0.4092  0.6273 -0.0354
  303MPD2    C1 4559   1.697   3.531  10.591  0.2227  0.5372 -1.1720
  303MPD2    C2 4560   1.593   3.610  10.551  0.3877 -0.5100 -0.4311
  303MPD2    C3 4561   1.612   3.723  10.479  0.2906 -0.7029 -0.0716
  303MPD2    C4 4562   1.740   3.760  10.452  0.0557  0.3005 -0.1926
  303MPD2    C5 4563   1.848   3.685  10.492  0.3052 -0.3765  0.3327
  303MPD2     H 4564   1.497   3.560  10.556  0.5464 -1.1628 -3.6258
  303MPD2    H1 4565   1.758   3.858  10.409 -2.0238  0.5355 -0.5239
  303MPD2    H2 4566   1.918   3.520  10.592 -0.1210  0.9934 -0.2921
  303MPD2    H3 4567   1.949   3.716  10.469  0.4434 -0.1728  1.2413
  303MPD2     N 4568   1.509   3.801  10.427 -0.3455  0.0914 -0.4252
  303MPD2    H5 4569   1.537   3.896  10.406 -3.0266  0.7002 -1.2185
  303MPD2    N1 4570   1.679   3.416  10.666 -0.1315 -0.1487 -0.4114
  303MPD2    H7 4571   1.750   3.345  10.673  0.2170  0.1227 -1.1763
  304TMC3    C1 4572   1.555   3.246  10.767 -0.0624  0.1887 -0.5816
  304TMC3    C2 4573   1.447   3.217  10.844 -0.0377 -0.4025 -0.3131
  304TMC3    C3 4574   1.410   3.089  10.870 -0.0572 -0.4970  0.0936
  304TMC3    C4 4575   1.624   3.140  10.698  0.6808  0.3115 -0.0487
  304TMC3    C5 4576   1.585   3.016  10.734 -0.1602 -1.0137 -0.0451
  304TMC3    C6 4577   1.475   2.989  10.806  0.1375  0.4014  0.6800
  304TMC3     C 4578   1.567   3.390  10.735  0.2837 -0.0641 -0.6653
  304TMC3     O 4579   1.476   3.465  10.771 -0.2549 -0.1356 -0.2615
  304TMC3     H 4580   1.415   3.295  10.912  2.7013  1.9412 -1.7158
  304TMC3    H1 4581   1.696   3.140  10.617 -0.2638  1.3227 -0.8805
  304TMC3    H2 4582   1.465   2.885  10.836  1.4184  0.0012 -0.2804
  304TMC3    C7 4583   1.595   2.920  10.630 -0.7559 -0.0997  0.4262
  304TMC3    C8 4584   1.267   3.067  10.857  0.7494 -0.0735  0.1671
  304TMC3    O1 4585   1.702   2.888  10.583 -0.2101  0.2244 -0.0989
  304TMC3    O2 4586   1.249   2.969  10.784  0.3275 -0.0522  0.5011
  305MPD2     C 4587   0.272   1.058  13.399  0.3890 -1.0086 -0.0410
  305MPD2    C1 4588   0.298   0.934  13.440  0.5039  0.0940  0.0725
  305MPD2    C2 4589   0.264   0.827  13.354 -0.3201 -0.4493  0.1630
  305MPD2    C3 4590   0.227   0.853  13.221  0.6554  0.0499  0.3802
  305MPD2    C4 4591   0.198   0.987  13.178  0.3705 -0.5177  0.1968
  305MPD2    C5 4592   0.232   1.085  13.271 -0.2333  0.6546  0.7856
  305MPD2     H 4593   0.296   0.727  13.379  0.1002 -0.3557  0.0054
  305MPD2    H1 4594   0.167   1.011  13.077 -1.0512  0.4659  0.8686
  305MPD2    H2 4595   0.299   1.145  13.457  0.0308  0.6258 -2.2965
  305MPD2    H3 4596   0.214   1.191  13.255 -0.1664  0.4882 -0.3626
  305MPD2     N 4597   0.247   0.757  13.118  0.0461 -0.4230  0.4565
  305MPD2    H5 4598   0.250   0.798  13.025  1.0996  0.7218  0.9920
  305MPD2    N1 4599   0.339   0.921  13.570  0.2952 -0.3329  0.1700
  305MPD2    H7 4600   0.338   1.007  13.624 -0.0493 -0.6282  0.6304
  306TMC3    C1 4601   0.381   0.818  13.780  0.5253 -0.1553  0.5837
  306TMC3    C2 4602   0.448   0.717  13.826 -0.8166  0.1705 -0.4659
  306TMC3    C3 4603   0.470   0.711  13.958  0.3768  0.2766  0.7634
  306TMC3    C4 4604   0.341   0.927  13.856  0.1258  0.1834 -0.1413
  306TMC3    C5 4605   0.379   0.922  13.991  0.3173  0.3760 -0.0697
  306TMC3    C6 4606   0.443   0.813  14.043 -0.5518 -0.3889  0.3180
  306TMC3     C 4607   0.350   0.803  13.641 -0.5394 -0.0521  0.8873
  306TMC3     O 4608   0.345   0.687  13.595  0.7642  0.1782  0.1398
  306TMC3     H 4609   0.474   0.625  13.775 -2.5914 -0.7079  0.2338
  306TMC3    H1 4610   0.274   1.008  13.831 -0.5545 -0.0936  0.7787
  306TMC3    H2 4611   0.483   0.817  14.144 -0.5445  1.3227  0.2578
  306TMC3    C7 4612   0.334   1.031  14.073  0.5112  0.3074  0.3710
  306TMC3    C8 4613   0.556   0.607  14.013 -0.1879  0.5231 -0.5768
  306TMC3    O1 4614   0.218   1.072  14.055 -0.1795 -0.2882  0.0202
  306TMC3    O2 4615   0.649   0.555  13.952 -0.2105  0.1355 -0.4224
  307MPD2     C 4616   2.433   2.718  17.652  0.5969 -0.2504 -0.3262
  307MPD2    C1 4617   2.518   2.818  17.646 -0.1821 -0.7470 -0.0158
  307MPD2    C2 4618   2.566   2.865   0.069  0.1192  0.8475  0.3376
  307MPD2    C3 4619   2.541   2.811   0.193  0.7615  0.5305 -0.1057
  307MPD2    C4 4620   2.463   2.695   0.187 -1.4061  0.2038  0.4343
  307MPD2    C5 4621   2.410   2.655   0.069  0.9098 -0.5382 -0.5975
  307MPD2     H 4622   2.628   2.953   0.079 -0.8509  1.5170  0.4777
  307MPD2    H1 4623   2.445   2.630   0.272 -0.2225 -0.5840  0.0755
  307MPD2    H2 4624   2.380   2.678  17.566  1.7024 -1.7975 -0.2914
  307MPD2    H3 4625   2.353   2.563   0.077  0.7057 -0.2636  1.1443
  307MPD2     N 4626   2.600   2.861   0.313 -0.3183  0.0594 -0.4271
  307MPD2    H5 4627   2.652   2.948   0.312  0.2685 -0.3196 -2.0731
  307MPD2    N1 4628   2.546   2.900  17.536  0.2285 -0.2106  0.4865
  307MPD2    H7 4629   2.616   2.974  17.535 -1.1520  1.0995 -0.8092
  308TMC3    C1 4630   2.514   3.029   0.716 -0.2376  0.3994  0.0020
  308TMC3    C2 4631   2.618   3.118   0.706  0.0824 -0.1760 -0.2046
  308TMC3    C3 4632   2.721   3.090   0.617  0.1232  0.1339  0.1426
  308TMC3    C4 4633   2.523   2.912   0.641 -0.4431 -0.2223 -0.4519
  308TMC3    C5 4634   2.620   2.897   0.541 -0.2544 -0.0845  0.2963
  308TMC3    C6 4635   2.722   2.986   0.537  0.2190  0.6577  0.0743
  308TMC3     C 4636   2.397   3.047   0.793  0.7374  0.3968 -0.2411
  308TMC3     O 4637   2.354   2.948   0.850 -0.4203 -0.0946  0.0515
  308TMC3     H 4638   2.627   3.203   0.773 -2.5472 -1.3322  1.6071
  308TMC3    H1 4639   2.439   2.844   0.650  0.8907 -1.8621 -0.4029
  308TMC3    H2 4640   2.801   2.973   0.463 -0.1261 -0.9177 -0.0101
  308TMC3    C7 4641   2.578   2.808   0.437  0.4300  0.1747 -0.5260
  308TMC3    C8 4642   2.829   3.188   0.593 -0.7441 -0.0509 -0.3522
  308TMC3    O1 4643   2.520   2.707   0.469 -0.3364  0.6234  0.5204
  308TMC3    O2 4644   2.936   3.150   0.545  0.4430  0.0242  0.1399
  309MPD2     C 4645   1.753   3.879  17.140 -0.4627 -0.0164  0.2926
  309MPD2    C1 4646   1.678   3.959  17.068  0.9070  1.0304  0.2785
  309MPD2    C2 4647   1.597   4.051  17.125  0.0080  0.0958 -0.3322
  309MPD2    C3 4648   1.605   4.067  17.262  0.0570  0.1493  0.1800
  309MPD2    C4 4649   1.679   3.978  17.338  0.7760  0.3578  0.3146
  309MPD2    C5 4650   1.753   3.885  17.275 -0.3479 -0.2255 -0.6488
  309MPD2     H 4651   1.545   4.126  17.067 -0.5202 -0.4103 -0.5104
  309MPD2    H1 4652   1.662   3.972  17.445 -0.4027 -1.1558  0.0399
  309MPD2    H2 4653   1.813   3.798  17.099 -0.0185 -0.1812  1.2699
  309MPD2    H3 4654   1.810   3.810  17.327  1.8086  1.2547 -0.8899
  309MPD2     N 4655   1.518   4.148  17.346  1.3991 -0.5610  0.2865
  309MPD2    H5 4656   1.532   4.128  17.444  0.3909 -0.6966  0.4114
  309MPD2    N1 4657   1.694   3.972  16.932 -0.1848 -0.0713  0.0407
  309MPD2    H7 4658   1.650   4.054  16.892 -2.4514  0.0027  2.7144
  310TMC3    C1 4659   1.801   3.943  16.721  0.0964  0.4547 -0.6925
  310TMC3    C2 4660   1.715   4.034  16.666  0.6226 -0.8182  0.4468
  310TMC3    C3 4661   1.761   4.089  16.550  0.2654 -0.3590 -0.2458
  310TMC3    C4 4662   1.907   3.892  16.656  0.5450  0.5414  0.0075
  310TMC3    C5 4663   1.945   3.940  16.533  0.1736 -0.0968  0.2986
  310TMC3    C6 4664   1.868   4.041  16.480 -0.4050 -0.6406  0.1646
  310TMC3     C 4665   1.778   3.892  16.859 -0.3505  0.6319 -0.3936
  310TMC3     O 4666   1.838   3.788  16.884  0.2540 -0.1205 -0.1359
  310TMC3     H 4667   1.625   4.069  16.717 -0.9199  0.3114 -3.0129
  310TMC3    H1 4668   1.960   3.808  16.698 -0.9427 -1.7174 -2.5960
  310TMC3    H2 4669   1.889   4.078  16.380  0.6897 -0.5704  0.4282
  310TMC3    C7 4670   2.049   3.867  16.461  0.0143 -0.0987  0.1409
  310TMC3    C8 4671   1.675   4.175  16.469 -0.5605 -0.0019  0.2202
  310TMC3    O1 4672   2.097   3.769  16.517 -0.1670 -0.2159 -0.1711
  310TMC3    O2 4673   1.684   4.167  16.349 -0.1470 -0.3008 -0.2282
  311MPD2     C 4674   3.989   0.408  12.519  0.3600  0.1646 -0.2733
  311MPD2    C1 4675   4.011   0.535  12.584 -0.4810  0.4484  1.1351
  311MPD2    C2 4676   3.908   0.596  12.654 -0.1789  0.2398 -0.2573
  311MPD2    C3 4677   3.785   0.534  12.672  0.2061 -0.2710 -0.4149
  311MPD2    C4 4678   3.773   0.409  12.611  0.3478 -0.7120 -0.0304
  311MPD2    C5 4679   3.865   0.356  12.529 -0.0758 -0.3607 -0.2947
  311MPD2     H 4680   3.917   0.697  12.694  0.5418  1.2325 -2.9358
  311MPD2    H1 4681   3.688   0.348  12.639  0.1593 -1.0669 -1.3677
  311MPD2    H2 4682   4.057   0.354  12.454  0.9080 -0.5626  0.8914
  311MPD2    H3 4683   3.847   0.261  12.482  2.2371 -0.5923 -0.6708
  311MPD2     N 4684   3.692   0.582  12.766  0.3483  0.4266  0.0081
  311MPD2    H5 4685   3.725   0.655  12.830  0.4597 -0.1271  0.5793
  311MPD2    N1 4686   4.139   0.605  12.585 -0.7499  0.3257  0.0072
  311MPD2    H7 4687   4.129   0.696  12.628  1.7537  0.6432 -0.0684
  312TMC3    C1 4688   3.488   0.599  12.875  0.6270 -0.0629 -0.3601
  312TMC3    C2 4689   3.351   0.589  12.859  0.1607  0.0877 -0.5701
  312TMC3    C3 4690   3.277   0.677  12.933  0.0543 -0.0245 -0.1572
  312TMC3    C4 4691   3.553   0.678  12.966 -0.1387  0.8258  0.2201
  312TMC3    C5 4692   3.471   0.758  13.039 -0.5158 -0.0808  0.0464
  312TMC3    C6 4693   3.334   0.766  13.023  0.7021  0.0439  0.1737
  312TMC3     C 4694   3.561   0.547  12.763  0.1078  0.6435 -0.2272
  312TMC3     O 4695   3.499   0.497  12.672 -0.1020 -0.0445  1.0431
  312TMC3     H 4696   3.305   0.523  12.786  0.5102  1.0762 -1.6901
  312TMC3    H1 4697   3.660   0.671  12.981 -0.4214  0.2585  2.0542
  312TMC3    H2 4698   3.275   0.839  13.077  0.2286 -1.9256  2.3103
  312TMC3    C7 4699   3.515   0.822  13.156 -0.6241  0.5936 -0.0560
  312TMC3    C8 4700   3.143   0.703  12.889 -0.0987 -0.6995  0.8384
  312TMC3    O1 4701   3.449   0.918  13.193 -0.5825 -0.3619  0.4412
  312TMC3    O2 4702   3.110   0.657  12.781 -0.1912 -0.3344  1.0173
  313MPD2     C 4703   3.398   4.333  10.366 -0.3551 -0.2995 -0.7681
  313MPD2    C1 4704   3.339   4.415  10.273 -0.6668 -0.7066  0.2646
  313MPD2    C2 4705   3.294   4.355  10.156 -0.0773 -0.2345 -0.1995
  313MPD2    C3 4706   3.301   4.221  10.131 -0.4774  0.0811 -0.4343
  313MPD2    C4 4707   3.374   4.149  10.226 -0.1728 -0.1982 -0.6123
  313MPD2    C5 4708   3.425   4.204  10.346  0.5964  0.0865  0.1113
  313MPD2     H 4709   3.231   4.419  10.096  1.5323  0.4377 -1.1623
  313MPD2    H1 4710   3.405   4.047  10.207  1.6232 -0.1568  1.9540
  313MPD2    H2 4711   3.431   4.373  10.462  0.1748 -2.1175 -0.1899
  313MPD2    H3 4712   3.480   4.130  10.404  1.1807  1.1620  0.9145
  313MPD2     N 4713   3.229   4.158  10.028  0.0248 -0.2440 -0.9048
  313MPD2    H5 4714   3.190   4.208   9.949  2.1965  0.5217 -1.5104
  313MPD2    N1 4715   3.316   4.553  10.292  0.1028 -0.1846 -0.0129
  313MPD2    H7 4716   3.285   4.614  10.217 -1.0266 -0.1154  0.5103
  314TMC3    C1 4717   3.321   0.026  10.400 -0.6980 -0.2147 -0.3241
  314TMC3    C2 4718   3.408   0.083  10.487 -0.2966 -0.0705 -0.1371
  314TMC3    C3 4719   3.478   0.200  10.455 -0.4685 -0.2850 -0.3149
  314TMC3    C4 4720   3.304   0.078  10.274  0.0455 -0.3286  0.0362
  314TMC3    C5 4721   3.383   0.187  10.243 -0.0498  0.6255 -0.1406
  314TMC3    C6 4722   3.475   0.246  10.329 -0.7907  0.2641 -0.0998
  314TMC3     C 4723   3.327   4.612  10.414 -0.5333  0.1217  0.4897
  314TMC3     O 4724   3.341   4.567  10.527 -0.0086 -0.0516 -0.3421
  314TMC3     H 4725   3.410   0.041  10.587 -0.4469  0.5054  0.1135
  314TMC3    H1 4726   3.231   0.033  10.208  0.4407  1.0782 -1.3659
  314TMC3    H2 4727   3.535   0.333  10.302 -0.7763 -0.2616 -1.7383
  314TMC3    C7 4728   3.390   0.229  10.107 -0.1649  0.0797 -0.1265
  314TMC3    C8 4729   3.556   0.270  10.557 -0.4180  0.1499 -0.1651
  314TMC3    O1 4730   3.494   0.280  10.065  0.2507  0.3021  0.4766
  314TMC3    O2 4731   3.618   0.372  10.523 -0.1302 -0.5266  0.0036
  315MPD2     C 4732   3.017   3.985  16.992 -0.0046 -0.5495 -0.0506
  315MPD2    C1 4733   3.061   4.006  17.118  0.0482 -0.1875 -0.4451
  315MPD2    C2 4734   3.105   4.134  17.152 -0.1828  0.1675  0.2149
  315MPD2    C3 4735   3.127   4.237  17.063 -0.1432 -0.3416 -0.2189
  315MPD2    C4 4736   3.097   4.211  16.934 -0.2769  0.3335 -0.0646
  315MPD2    C5 4737   3.033   4.091  16.901  0.2717  0.0321 -0.3764
  315MPD2     H 4738   3.108   4.152  17.259 -1.4886  0.2990  0.2286
  315MPD2    H1 4739   3.105   4.289  16.859 -1.1406  0.4506 -0.0410
  315MPD2    H2 4740   2.952   3.905  16.960 -1.5194 -0.4301  2.7362
  315MPD2    H3 4741   3.008   4.073  16.797 -2.4023  0.5305  0.1659
  315MPD2     N 4742   3.160   4.364  17.116  0.1934  0.7176  0.6164
  315MPD2    H5 4743   3.159   4.361  17.217 -2.1915  0.1732  0.5893
  315MPD2    N1 4744   3.022   3.931  17.232  0.9264 -0.0375  0.4181
  315MPD2    H7 4745   3.026   3.971  17.325 -0.3545  0.6256  0.1884
  316TMC3    C1 4746   3.221   4.588  17.138  0.0715  0.1162  0.3456
  316TMC3    C2 4747   3.244   4.568  17.273 -0.0731  0.1251 -0.1158
  316TMC3    C3 4748   3.272   4.672  17.350  0.9423  0.0018 -0.1266
  316TMC3    C4 4749   3.223   4.713  17.086 -0.9860  0.4293 -0.7681
  316TMC3    C5 4750   3.246   0.100  17.167 -0.2969 -0.0577  0.0427
  316TMC3    C6 4751   3.277   0.079  17.304  0.6844 -0.3369 -0.2161
  316TMC3     C 4752   3.178   4.481  17.047 -0.0205 -0.2640  0.2921
  316TMC3     O 4753   3.160   4.503  16.926  0.6224 -0.2629  0.3910
  316TMC3     H 4754   3.227   4.466  17.306  1.9754 -0.5942 -1.3349
  316TMC3    H1 4755   3.222   0.003  16.979 -0.7597 -0.9441 -0.9637
  316TMC3    H2 4756   3.282   0.163  17.372  0.1597 -1.0650  0.7249
  316TMC3    C7 4757   3.265   0.231  17.101 -0.4341  0.4506 -0.1900
  316TMC3    C8 4758   3.274   4.653  17.496  0.0368  0.0060 -0.0134
  316TMC3    O1 4759   3.279   0.324  17.175 -0.0968 -0.2402 -0.2415
  316TMC3    O2 4760   3.286   0.033  17.560 -0.3186  0.1037 -0.2818
  317MPD2     C 4761   0.217   2.913  13.003  0.1165 -0.3132  1.3027
  317MPD2    C1 4762   0.201   2.781  12.973 -0.3429 -0.0302  0.1739
  317MPD2    C2 4763   0.270   2.687  13.053 -0.4689  0.1405 -0.0250
  317MPD2    C3 4764   0.350   2.721  13.161 -0.5359 -0.4476 -0.0694
  317MPD2    C4 4765   0.359   2.857  13.193 -0.4951 -0.1885 -0.2479
  317MPD2    C5 4766   0.291   2.947  13.113 -0.2332  0.2927 -0.3306
  317MPD2     H 4767   0.258   2.581  13.033 -2.1748  0.8290 -2.5851
  317MPD2    H1 4768   0.411   2.893  13.282 -1.2369 -3.0261  1.3499
  317MPD2    H2 4769   0.158   2.991  12.955 -1.6152 -1.2422  1.9300
  317MPD2    H3 4770   0.289   3.051  13.141 -1.6334 -0.4320  2.2795
  317MPD2     N 4771   0.406   2.617  13.237 -0.5009  0.3666  0.5011
  317MPD2    H5 4772   0.388   2.522  13.208  0.2872  0.8320 -1.5493
  317MPD2    N1 4773   0.125   2.741  12.860 -0.2664  0.5112  1.0394
  317MPD2    H7 4774   0.140   2.646  12.829  0.3930  1.2065 -0.7909
  318TMC3    C1 4775   0.539   2.510  13.394 -0.6846 -0.7284  0.5971
  318TMC3    C2 4776   0.468   2.396  13.365  0.3580 -0.2259 -0.5174
  318TMC3    C3 4777   0.509   2.280  13.420 -0.5168  0.7017 -0.1352
  318TMC3    C4 4778   0.643   2.505  13.486 -0.1430 -0.3102 -0.7938
  318TMC3    C5 4779   0.688   2.382  13.526  0.6855 -0.5292  0.1158
  318TMC3    C6 4780   0.619   2.268  13.498  0.4143  0.1139 -0.1059
  318TMC3     C 4781   0.484   2.632  13.350  0.2367 -0.8610 -0.5399
  318TMC3     O 4782   0.515   2.734  13.412  0.2072  0.3537 -0.0971
  318TMC3     H 4783   0.373   2.394  13.312  0.4131 -0.5062 -0.6045
  318TMC3    H1 4784   0.700   2.589  13.526 -0.6230  0.2207 -1.2313
  318TMC3    H2 4785   0.647   2.181  13.555  0.4059  0.9096  1.1178
  318TMC3    C7 4786   0.776   2.386  13.642 -0.0291 -0.0316  0.3998
  318TMC3    C8 4787   0.413   2.166  13.409  0.8106 -0.2316 -0.3271
  318TMC3    O1 4788   0.730   2.446  13.741 -0.2227  0.1723  0.2336
  318TMC3    O2 4789   0.442   2.074  13.488 -0.0780  0.1555 -0.5609
  319MPD2     C 4790   1.494   3.386  16.783 -0.8340 -0.5039  0.0932
  319MPD2    C1 4791   1.385   3.299  16.828  0.1499  0.2040  0.1615
  319MPD2    C2 4792   1.280   3.280  16.742  0.3947  0.9517 -0.8053
  319MPD2    C3 4793   1.274   3.356  16.619  0.6255  0.6603 -0.1266
  319MPD2    C4 4794   1.374   3.449  16.592  0.2446  0.3632  0.7126
  319MPD2    C5 4795   1.482   3.462  16.671  0.4959 -0.6400 -0.6960
  319MPD2     H 4796   1.201   3.209  16.760 -0.5635  2.5670  1.3861
  319MPD2    H1 4797   1.365   3.510  16.503  0.8863  1.4225  1.3771
  319MPD2    H2 4798   1.569   3.417  16.854  0.9835  0.1563 -2.1271
  319MPD2    H3 4799   1.553   3.543  16.658 -0.5410  0.4934  0.6866
  319MPD2     N 4800   1.167   3.337  16.524 -0.1154 -0.2249  0.4095
  319MPD2    H5 4801   1.173   3.399  16.444 -0.0693 -1.3921 -0.4848
  319MPD2    N1 4802   1.386   3.237  16.952  0.0313 -0.2193  0.0711
  319MPD2    H7 4803   1.300   3.193  16.985 -0.9621  0.1549 -2.0039
  320TMC3    C1 4804   0.964   3.250  16.430 -0.4809  0.1354 -0.8816
  320TMC3    C2 4805   0.937   3.357  16.349  0.6004  0.3041 -0.0995
  320TMC3    C3 4806   0.875   3.341  16.229 -0.5003  0.1570  0.0468
  320TMC3    C4 4807   0.947   3.121  16.386  0.2217 -0.0810  0.4095
  320TMC3    C5 4808   0.887   3.103  16.265 -0.1027  0.2798 -0.0294
  320TMC3    C6 4809   0.850   3.215  16.187  0.5209 -0.8331  0.4415
  320TMC3     C 4810   1.054   3.255  16.543  0.4766 -0.2109  0.3376
  320TMC3     O 4811   1.027   3.187  16.643  0.3653  0.0360  0.1221
  320TMC3     H 4812   0.964   3.453  16.391  0.4913  0.4590 -0.3875
  320TMC3    H1 4813   0.982   3.041  16.450 -0.8439 -1.3434 -0.5660
  320TMC3    H2 4814   0.806   3.200  16.089  0.5256 -2.0628  0.6249
  320TMC3    C7 4815   0.874   2.979  16.204 -1.1193  1.0212  0.2039
  320TMC3    C8 4816   0.811   3.464  16.171 -0.3162  0.2707 -0.0170
  320TMC3    O1 4817   0.849   2.972  16.086  0.2696 -0.0310 -0.4377
  320TMC3    O2 4818   0.818   3.571  16.228  0.0962  0.1445 -0.1819
  321TMC3    C1 4819   1.419   3.180  17.163  0.4590  0.4598 -0.4000
  321TMC3    C2 4820   1.324   3.085  17.148 -0.3336 -0.1063  0.1491
  321TMC3    C3 4821   1.258   3.040  17.260 -0.0987 -0.2735  0.2391
  321TMC3    C4 4822   1.440   3.239  17.287  0.3689 -0.3356  0.3781
  321TMC3    C5 4823   1.381   3.185  17.402  0.0942 -0.4616 -0.2134
  321TMC3    C6 4824   1.279   3.096  17.382  0.0341 -0.3626 -0.0268
  321TMC3     C 4825   1.470   3.250  17.054  0.1879  0.4768 -0.0515
  321TMC3     O 4826   1.569   3.319  17.068 -0.2550  0.2281 -0.3073
  321TMC3     H 4827   1.306   3.026  17.058 -1.0852  2.6882 -1.5211
  321TMC3    H1 4828   1.514   3.319  17.288  0.0667 -0.0550  0.2559
  321TMC3    H2 4829   1.225   3.066  17.471 -0.2391 -0.7860 -0.3328
  321TMC3    C7 4830   1.477   3.138  17.505  0.5771  0.2169  0.3773
  321TMC3    C8 4831   1.255   2.895  17.264  0.0020 -0.3912 -0.2469
  321TMC3    O1 4832   1.432   3.041  17.562  0.0342 -0.2612  0.1887
  321TMC3    O2 4833   1.198   2.828  17.173  0.0732 -0.3933 -0.7827
  322MPD2     C 4834   4.550   0.060  13.468  1.1578 -0.5878 -0.6173
  322MPD2    C1 4835   4.671   0.016  13.524  0.5894  0.0107  0.3704
  322MPD2    C2 4836   4.718   4.623  13.477  0.2654  0.4798  0.1124
  322MPD2    C3 4837   4.648   4.544  13.389 -0.5036 -0.0642 -0.0617
  322MPD2    C4 4838   4.525   4.575  13.351  0.4953  0.1195  0.1245
  322MPD2    C5 4839   4.479   4.696  13.387  0.3213 -0.7234 -0.3309
  322MPD2     H 4840   0.090   4.591  13.515  0.2131  0.4230  0.1963
  322MPD2    H1 4841   4.459   4.513  13.293 -0.0639 -0.2400  1.1582
  322MPD2    H2 4842   4.499   0.150  13.499 -1.1245 -2.0729 -0.0422
  322MPD2    H3 4843   4.382   0.001  13.349 -0.0313 -0.8063  0.4907
  322MPD2     N 4844   4.703   4.417  13.373  0.3380  0.3955  0.8376
  322MPD2    H5 4845   0.069   4.413  13.417  1.1510  0.0709 -0.8403
  322MPD2    N1 4846   0.021   0.089  13.617  0.4118  0.7558 -0.7316
  322MPD2    H7 4847   0.117   0.060  13.636  0.2258  0.3832 -0.3474
  323TMC3    C1 4848   0.086   0.243  13.784  0.3215 -0.3935 -0.8379
  323TMC3    C2 4849   0.212   0.263  13.736 -0.0894 -0.0415  0.7087
  323TMC3    C3 4850   0.304   0.305  13.828 -0.0983 -0.3375 -0.1858
  323TMC3    C4 4851   0.051   0.276  13.912 -0.8572 -0.0429 -0.1398
  323TMC3    C5 4852   0.148   0.311  13.999  0.4036  0.5048  0.1394
  323TMC3    C6 4853   0.275   0.327  13.961  0.0440  0.6944  0.1170
  323TMC3     C 4854   4.704   0.194  13.699 -0.4072 -0.0706 -0.8008
  323TMC3     O 4855   4.591   0.238  13.717 -0.2306 -0.5733 -0.6893
  323TMC3     H 4856   0.230   0.248  13.630  3.0680  1.4994  1.0451
  323TMC3    H1 4857   4.675   0.258  13.949 -1.6771  1.0605 -1.8307
  323TMC3    H2 4858   0.349   0.342  14.039 -0.2893  0.4618  0.4756
  323TMC3    C7 4859   0.137   0.260  14.137  0.2233 -0.5506 -0.4111
  323TMC3    C8 4860   0.442   0.324  13.789  0.4068 -0.2281  0.2443
  323TMC3    O1 4861   0.137   0.139  14.147  0.0320 -0.2957 -0.1968
  323TMC3    O2 4862   0.526   0.307  13.879  0.1989  0.1581 -0.6089
  324MPD2     C 4863   1.854   1.342  14.040  0.0510  0.0477  0.6461
  324MPD2    C1 4864   1.797   1.431  14.127 -0.0556 -0.3913  0.6105
  324MPD2    C2 4865   1.665   1.467  14.100  0.0885  0.0686  0.1113
  324MPD2    C3 4866   1.594   1.414  13.991 -0.4144 -0.0334 -0.6181
  324MPD2    C4 4867   1.657   1.320  13.919 -0.0915  0.3053 -0.0286
  324MPD2    C5 4868   1.783   1.276  13.942 -0.0736 -0.6732 -1.1938
  324MPD2     H 4869   1.626   1.546  14.164 -0.3420 -0.3709  0.3922
  324MPD2    H1 4870   1.616   1.272  13.831 -1.0716 -1.5652  1.4543
  324MPD2    H2 4871   1.957   1.313  14.060  0.3669  0.7092 -0.0110
  324MPD2    H3 4872   1.825   1.192  13.887  0.7672 -0.0309 -1.5178
  324MPD2     N 4873   1.468   1.449  13.951  0.1233 -0.1151 -0.2684
  324MPD2    H5 4874   1.429   1.397  13.873 -2.2500  0.5305  0.4889
  324MPD2    N1 4875   1.858   1.501  14.238 -0.1440 -0.0143  0.4400
  324MPD2    H7 4876   1.807   1.571  14.289 -0.8816 -0.1877 -0.0556
  325TMC3    C1 4877   1.258   1.571  13.941 -0.0089  0.0131  0.0535
  325TMC3    C2 4878   1.190   1.480  13.870 -1.0508  0.3959  0.0566
  325TMC3    C3 4879   1.067   1.507  13.822 -0.9661  1.4183 -0.0710
  325TMC3    C4 4880   1.201   1.693  13.960 -0.6639 -0.2777 -0.1873
  325TMC3    C5 4881   1.074   1.716  13.919  0.3301 -0.2376 -0.2787
  325TMC3    C6 4882   1.001   1.626  13.846  0.2649 -0.3051 -0.5104
  325TMC3     C 4883   1.401   1.561  13.992  0.0017 -0.0793  0.4767
  325TMC3     O 4884   1.437   1.653  14.071 -0.1548 -1.0540  0.2589
  325TMC3     H 4885   1.232   1.382  13.852  1.3940  1.3439  0.6472
  325TMC3    H1 4886   1.265   1.763  14.012 -1.7127 -1.3591  2.5378
  325TMC3    H2 4887   0.897   1.645  13.822 -0.4489 -1.9020  1.2861
  325TMC3    C7 4888   1.014   1.837  13.956  0.1709  0.4219  0.4274
  325TMC3    C8 4889   1.011   1.401  13.751  0.0357 -0.4676  0.3071
  325TMC3    O1 4890   0.957   1.897  13.869  0.2411  0.5864 -0.7985
  325TMC3    O2 4891   1.037   1.288  13.787  0.4232 -0.4985  0.0259
  326MPD2     C 4892   2.516   2.616  11.388  0.1206  0.6163 -0.3881
  326MPD2    C1 4893   2.566   2.552  11.270 -0.2466 -0.4711  0.5722
  326MPD2    C2 4894   2.672   2.607  11.201  0.1035 -0.0629 -0.2925
  326MPD2    C3 4895   2.746   2.707  11.262 -0.1538 -0.3851  0.6881
  326MPD2    C4 4896   2.699   2.759  11.377 -0.0165 -0.3011 -0.2341
  326MPD2    C5 4897   2.577   2.732  11.434  0.3269  0.4646 -0.1006
  326MPD2     H 4898   2.703   2.560  11.109 -2.0253  0.0283 -1.0486
  326MPD2    H1 4899   2.761   2.828  11.434 -1.0379  0.3063  0.1549
  326MPD2    H2 4900   2.420   2.585  11.427 -0.4168  2.2351 -0.4021
  326MPD2    H3 4901   2.537   2.792  11.515 -0.8121  0.6269 -0.7786
  326MPD2     N 4902   2.860   2.770  11.201 -0.2188  0.3588 -0.2299
  326MPD2    H5 4903   2.899   2.855  11.239  0.8781 -0.0258 -0.4932
  326MPD2    N1 4904   2.519   2.424  11.232 -0.2736  0.3771 -0.5322
  326MPD2    H7 4905   2.567   2.375  11.158  0.5213  0.7807 -0.2887
  327TMC3    C1 4906   2.351   2.278  11.155  0.5495 -0.4159 -0.1943
  327TMC3    C2 4907   2.228   2.289  11.086  0.6330  0.2476  0.2191
  327TMC3    C3 4908   2.213   2.219  10.970  0.1005 -0.1631  0.2486
  327TMC3    C4 4909   2.458   2.205  11.101 -0.1990 -0.1123 -0.1024
  327TMC3    C5 4910   2.434   2.133  10.981  0.6091 -0.5985 -0.1314
  327TMC3    C6 4911   2.315   2.140  10.918 -0.8532  0.1150  0.5683
  327TMC3     C 4912   2.389   2.376  11.250 -0.0356 -0.4653  0.3385
  327TMC3     O 4913   2.295   2.420  11.316  0.1439 -0.2095  0.3431
  327TMC3     H 4914   2.157   2.362  11.123  0.6888 -0.4553  1.7288
  327TMC3    H1 4915   2.548   2.189  11.159 -0.3586  0.2344  0.2399
  327TMC3    H2 4916   2.283   2.093  10.826  0.2837  0.0655  0.2021
  327TMC3    C7 4917   2.523   2.021  10.932 -0.1366 -0.5360 -0.4736
  327TMC3    C8 4918   2.125   2.283  10.876 -0.7667 -0.9749  0.3150
  327TMC3    O1 4919   2.475   1.943  10.852  0.5909  0.0533  0.1358
  327TMC3    O2 4920   2.172   2.266  10.765  0.2174  0.2505 -0.1270
  328MPD2     C 4921   0.875   2.541  17.315  1.0332 -0.0267 -0.3365
  328MPD2    C1 4922   0.740   2.509  17.329  0.3653 -0.4021  0.4374
  328MPD2    C2 4923   0.644   2.563  17.250 -0.2854 -0.6867 -0.7960
  328MPD2    C3 4924   0.684   2.650  17.142  0.3628 -0.0760  0.0592
  328MPD2    C4 4925   0.818   2.680  17.134  0.2707  0.3470  0.2164
  328MPD2    C5 4926   0.912   2.620  17.217 -0.3491 -0.0705  0.0590
  328MPD2     H 4927   0.544   2.526  17.267  0.1648 -0.4902  2.2486
  328MPD2    H1 4928   0.857   2.743  17.054  2.6721  0.5877  1.5507
  328MPD2    H2 4929   0.949   2.510  17.388  1.6267  0.3460 -0.7821
  328MPD2    H3 4930   1.015   2.654  17.214 -0.5484  0.6416  1.3013
  328MPD2     N 4931   0.602   2.703  17.041  0.0507 -0.5833 -0.3266
  328MPD2    H5 4932   0.643   2.772  16.978  0.0352  1.5598  1.9711
  328MPD2    N1 4933   0.715   2.410  17.425 -0.3214 -0.7545  0.3082
  328MPD2    H7 4934   0.802   2.372  17.461 -0.0533  0.2003  0.6692
  329TMC3    C1 4935   0.589   2.248  17.551  0.1431 -0.5142  0.0247
  329TMC3    C2 4936   0.610   2.236  17.689  0.5630  0.2102 -0.4599
  329TMC3    C3 4937   0.631   2.112   0.041 -0.4066  0.4250 -0.5298
  329TMC3    C4 4938   0.631   2.149  17.469  0.4561 -0.3041  0.5547
  329TMC3    C5 4939   0.648   2.021  17.520  0.1578 -0.9491  0.0595
  329TMC3    C6 4940   0.654   2.009  17.660 -0.1758 -0.2794 -0.6775
  329TMC3     C 4941   0.594   2.379  17.487  0.5512 -0.0285  0.0509
  329TMC3     O 4942   0.485   2.430  17.460 -0.2599  0.2232 -0.6733
  329TMC3     H 4943   0.579   2.315   0.057  1.1741  0.9193 -1.0083
  329TMC3    H1 4944   0.620   2.168  17.363 -0.6565  0.0911  0.7473
  329TMC3    H2 4945   0.668   1.908  17.697 -2.1711 -0.4404 -0.3396
  329TMC3    C7 4946   0.558   1.919  17.473  0.2390  0.2137  0.1880
  329TMC3    C8 4947   0.570   2.075   0.160  0.6124 -0.4022  0.0347
  329TMC3    O1 4948   0.552   1.810  17.537  0.4131  0.2355  0.1429
  329TMC3    O2 4949   0.631   1.993   0.225  0.1358  0.0544  0.2024
  330TMC3    C1 4950   3.845   1.976   9.735  0.5993  0.1476 -0.0929
  330TMC3    C2 4951   3.724   1.932   9.695 -0.0685  0.0229 -0.6904
  330TMC3    C3 4952   3.675   1.817   9.758  0.9152 -0.7928  0.7952
  330TMC3    C4 4953   3.904   1.926   9.841 -0.4206 -0.6142  0.1429
  330TMC3    C5 4954   3.853   1.807   9.896  0.4365  0.2712  0.5808
  330TMC3    C6 4955   3.739   1.749   9.859  0.2516  0.0466  0.6583
  330TMC3     C 4956   3.909   2.093   9.681  0.2128  0.0815  0.3892
  330TMC3     O 4957   4.015   2.137   9.725 -0.1452  0.1442  0.0775
  330TMC3     H 4958   3.669   1.979   9.615 -1.5793 -0.2427  0.2092
  330TMC3    H1 4959   4.005   1.953   9.870 -0.3515 -0.4701 -0.2260
  330TMC3    H2 4960   3.701   1.659   9.905 -0.5365  1.3742  2.5938
  330TMC3    C7 4961   3.932   1.734   9.990  0.5192 -0.1374  0.0272
  330TMC3    C8 4962   3.560   1.746   9.691  0.2166 -0.9379 -0.3134
  330TMC3    O1 4963   4.027   1.798  10.035  0.6143  0.2658  0.1092
  330TMC3    O2 4964   3.521   1.804   9.590  0.1504  0.1593 -0.0404
  331MPD2     C 4965   0.837   1.046  12.235  0.1968 -0.0716 -0.2180
  331MPD2    C1 4966   0.963   1.075  12.277  0.4788  0.3797 -0.1898
  331MPD2    C2 4967   1.051   0.967  12.299 -0.4094  0.3617  0.5385
  331MPD2    C3 4968   1.015   0.833  12.275  1.3738 -0.4782 -0.4300
  331MPD2    C4 4969   0.887   0.809  12.233  0.4614  0.4193 -0.3236
  331MPD2    C5 4970   0.803   0.916  12.216  0.0207 -0.4819 -0.0740
  331MPD2     H 4971   1.153   0.982  12.332  0.5514  1.0494 -2.7788
  331MPD2    H1 4972   0.859   0.712  12.195  2.4895 -0.0860 -0.4867
  331MPD2    H2 4973   0.754   1.110  12.206  0.5603 -1.5166 -4.4074
  331MPD2    H3 4974   0.702   0.895  12.183 -0.3321 -1.0309  1.3644
  331MPD2     N 4975   1.116   0.737  12.273  0.1976 -0.7998 -0.5150
  331MPD2    H5 4976   1.211   0.775  12.273  0.5039 -1.5627 -0.4392
  331MPD2    N1 4977   1.004   1.211  12.291  0.6680 -0.4377  0.4619
  331MPD2    H7 4978   0.943   1.279  12.247 -1.7885 -1.1853  2.6984
  332TMC3    C1 4979   1.240   0.566  12.218  0.2552 -0.5328  0.3449
  332TMC3    C2 4980   1.302   0.631  12.113 -0.2923  0.2947  0.3789
  332TMC3    C3 4981   1.439   0.629  12.107 -0.7223  0.0735 -0.0673
  332TMC3    C4 4982   1.308   0.497  12.314 -0.1471 -0.5921  0.2749
  332TMC3    C5 4983   1.445   0.502  12.311 -0.0194 -0.0555 -0.4846
  332TMC3    C6 4984   1.509   0.559  12.204  0.1096  0.3520  0.2641
  332TMC3     C 4985   1.109   0.603  12.254  0.3678 -0.2739 -0.0789
  332TMC3     O 4986   1.010   0.533  12.250 -0.3206  0.4106  0.4691
  332TMC3     H 4987   1.248   0.686  12.037 -0.1448  1.1713  0.9082
  332TMC3    H1 4988   1.251   0.455  12.396 -2.7534  0.4029 -1.0195
  332TMC3    H2 4989   1.618   0.564  12.208  0.1522  0.0589 -0.6554
  332TMC3    C7 4990   1.508   0.520  12.445  0.0049 -0.1074 -0.1516
  332TMC3    C8 4991   1.516   0.733  12.034  0.0264 -0.7594  0.2142
  332TMC3    O1 4992   1.427   0.524  12.538  0.4829 -0.2225 -0.7812
  332TMC3    O2 4993   1.632   0.750  12.073 -0.0603 -0.0212  0.3049
  333MPD2     C 4994   1.834   0.724  11.526  0.2769  0.4960 -0.0271
  333MPD2    C1 4995   1.819   0.617  11.446  0.2108 -0.6503 -0.2083
  333MPD2    C2 4996   1.748   0.509  11.496 -0.4921 -0.2256  0.7338
  333MPD2    C3 4997   1.699   0.508  11.624 -0.1662  0.1688 -0.9578
  333MPD2    C4 4998   1.713   0.619  11.708  0.1578  0.0268  0.6113
  333MPD2    C5 4999   1.784   0.721  11.655  0.5859 -0.4672  0.1787
  333MPD2     H 5000   1.724   0.419  11.440 -0.6152 -0.5564  1.3152
  333MPD2    H1 5001   1.679   0.622  11.811  2.1609 -2.1727  1.3361
  333MPD2    H2 5002   1.881   0.817  11.496  0.1494  0.9910  1.2910
  333MPD2    H3 5003   1.816   0.806  11.715  1.3798  0.7637 -1.9630
  333MPD2     N 5004   1.629   0.390  11.659 -0.6376  0.1699  0.1733
  333MPD2    H5 5005   1.633   0.314  11.592  0.6915  0.1615  0.2618
  333MPD2    N1 5006   1.870   0.625  11.318  0.5539  0.6335 -0.0104
  333MPD2    H7 5007   1.879   0.719  11.282  1.9244 -0.4123 -2.4427
  334TMC3    C1 5008   1.937   0.562  11.097 -0.2412 -0.4882  0.2350
  334TMC3    C2 5009   2.000   0.470  11.015 -0.0072  0.0744  0.6504
  334TMC3    C3 5010   2.095   0.518  10.929  0.3087  0.0899  0.0519
  334TMC3    C4 5011   1.945   0.699  11.071 -0.0934  0.5830 -0.6405
  334TMC3    C5 5012   2.034   0.742  10.974 -0.3861 -0.4245 -1.2228
  334TMC3    C6 5013   2.116   0.658  10.907 -0.7145 -0.0217 -0.3756
  334TMC3     C 5014   1.884   0.518  11.225 -0.2941 -0.2711  0.2586
  334TMC3     O 5015   1.892   0.401  11.255 -0.5350 -0.3257 -0.7235
  334TMC3     H 5016   2.000   0.366  11.043 -0.0568 -0.6989 -2.2244
  334TMC3    H1 5017   1.876   0.766  11.121  0.9600  1.1347  0.0844
  334TMC3    H2 5018   2.183   0.699  10.832  1.3788 -2.3658  0.2101
  334TMC3    C7 5019   2.020   0.877  10.924  0.8124  0.3412 -0.5008
  334TMC3    C8 5020   2.198   0.427  10.889 -0.1849 -0.2952 -0.1323
  334TMC3    O1 5021   2.004   0.962  11.014 -0.2488  0.6243  0.8345
  334TMC3    O2 5022   2.167   0.306  10.876 -0.3324  0.5659 -0.1109
  335TMC3    C1 5023   1.323   2.201   0.015  0.1593  0.3132 -0.0232
  335TMC3    C2 5024   1.200   2.210  17.649  0.5341 -0.8522 -0.1140
  335TMC3    C3 5025   1.191   2.165  17.521  0.1138  1.2418  0.2887
  335TMC3    C4 5026   1.431   2.150  17.650  0.0165  0.5394 -0.6201
  335TMC3    C5 5027   1.423   2.102  17.524 -0.2765  0.1917 -0.0116
  335TMC3    C6 5028   1.300   2.100  17.462 -0.1341  0.1853 -0.6068
  335TMC3     C 5029   1.350   2.299   0.117  0.2901 -0.1285  0.1295
  335TMC3     O 5030   1.267   2.390   0.120  0.1799 -0.0152 -0.2867
  335TMC3     H 5031   1.112   2.254  17.694  1.0509  1.5984 -1.5038
  335TMC3    H1 5032   1.524   2.133   0.002 -0.8631  0.1349  0.8312
  335TMC3    H2 5033   1.304   2.070  17.358  0.1953  0.7132 -0.7482
  335TMC3    C7 5034   1.538   2.068  17.442 -0.3689 -0.1978 -1.2616
  335TMC3    C8 5035   1.063   2.193  17.446 -0.2552  0.7349  0.4915
  335TMC3    O1 5036   1.519   2.023  17.329  0.2245 -0.0747 -0.9595
  335TMC3    O2 5037   0.981   2.274  17.494 -0.0145  0.3820 -0.5963
  336MPD2     C 5038   0.811   4.614  16.386 -0.5969 -0.5405  0.3919
  336MPD2    C1 5039   0.841   4.572  16.258  0.3639  0.3930 -0.4475
  336MPD2    C2 5040   0.923   4.459  16.244  0.3779  0.5735 -0.1545
  336MPD2    C3 5041   0.988   4.407  16.353  0.4347 -0.4150 -0.1772
  336MPD2    C4 5042   0.970   4.464  16.481 -0.2188  0.4044 -0.4036
  336MPD2    C5 5043   0.876   4.567  16.495 -0.2754  0.0038  0.5381
  336MPD2     H 5044   0.954   4.431  16.144 -1.7786  1.6749 -1.1174
  336MPD2    H1 5045   1.015   4.422  16.570 -2.4016 -1.4486 -0.1798
  336MPD2    H2 5046   0.737   4.691  16.405  0.2959  1.0220 -2.4099
  336MPD2    H3 5047   0.861   4.601  16.597  0.8005  0.1929  0.6400
  336MPD2     N 5048   1.067   4.294  16.349  0.1372 -0.4248 -0.1520
  336MPD2    H5 5049   1.108   4.264  16.437 -1.7537  1.7761  1.4810
  336MPD2    N1 5050   0.788   4.635  16.145  0.3117 -0.2701 -0.2184
  336MPD2    H7 5051   0.829   4.610  16.056 -1.3091 -1.4570 -0.6320
  337TMC3    C1 5052   0.662   0.067  16.004 -0.0557 -0.0324  0.8743
  337TMC3    C2 5053   0.538   0.129  15.991  0.7525  0.1093  0.4611
  337TMC3    C3 5054   0.493   0.156  15.868  0.1134  0.2177  0.0171
  337TMC3    C4 5055   0.744   0.045  15.905  0.4225 -0.0880 -0.6071
  337TMC3    C5 5056   0.697   0.081  15.781  0.2804  0.0159 -0.2588
  337TMC3    C6 5057   0.571   0.127  15.758 -0.1979 -0.1892  0.1616
  337TMC3     C 5058   0.694   0.018  16.144 -0.2518 -0.5930 -0.3604
  337TMC3     O 5059   0.635   0.069  16.239  0.5375  0.4100  0.3918
  337TMC3     H 5060   0.487   0.153  16.084  1.3359  0.0843  0.7925
  337TMC3    H1 5061   0.841   4.723  15.920  1.0163  1.1263 -0.6369
  337TMC3    H2 5062   0.544   0.164  15.660  0.5873 -0.7807 -0.2782
  337TMC3    C7 5063   0.788   0.076  15.663 -0.2180  0.1319  0.0471
  337TMC3    C8 5064   0.353   0.190  15.851 -0.1716 -0.2046  0.2059
  337TMC3    O1 5065   0.732   0.098  15.554  0.0905  1.0985  0.6893
  337TMC3    O2 5066   0.304   0.262  15.938 -0.0069 -0.4214 -0.3943
  338MPD2     C 5067   1.800   4.221   0.918  0.5977  0.4558 -0.2688
  338MPD2    C1 5068   1.691   4.146   0.889 -0.3147  0.5095 -0.4880
  338MPD2    C2 5069   1.565   4.205   0.920  0.1342  0.3200  0.3007
  338MPD2    C3 5070   1.561   4.329   0.985  0.2776  0.5707 -0.2356
  338MPD2    C4 5071   1.675   4.390   1.035  0.4707 -0.6275  0.0069
  338MPD2    C5 5072   1.790   4.340   0.987  0.2241  0.3868 -0.1862
  338MPD2     H 5073   1.479   4.149   0.885  0.9035 -0.1765 -0.7977
  338MPD2    H1 5074   1.672   4.481   1.093 -0.4333 -0.7960  0.2156
  338MPD2    H2 5075   1.897   4.175   0.904 -0.0910 -0.6608 -1.3819
  338MPD2    H3 5076   1.881   4.393   1.011  0.8324  0.1626 -1.9861
  338MPD2     N 5077   1.435   4.378   1.022  0.5037  0.0242  0.0429
  338MPD2    H5 5078   1.364   4.308   1.006  0.7950  0.1236 -1.6897
  338MPD2    N1 5079   1.692   4.014   0.831 -0.1127 -0.4890 -0.3529
  338MPD2    H7 5080   1.602   3.972   0.810  1.1926 -2.8500 -1.2351
  339TMC3    C1 5081   1.269   4.539   1.061 -0.0445  0.7258  0.0943
  339TMC3    C2 5082   1.174   4.446   1.091 -0.3064  0.4302  0.4662
  339TMC3    C3 5083   1.040   4.486   1.112 -0.3968  0.5363 -0.3799
  339TMC3    C4 5084   1.230   4.667   1.041  0.2175  0.5422 -0.0857
  339TMC3    C5 5085   1.095   4.699   1.058  0.3874  0.5615  0.4560
  339TMC3    C6 5086   0.996   4.612   1.096 -0.0726 -0.0065  0.3620
  339TMC3     C 5087   1.412   4.512   1.057 -0.3595 -0.3176 -0.0133
  339TMC3     O 5088   1.484   4.612   1.067  0.0992  0.2031 -0.1899
  339TMC3     H 5089   1.204   4.344   1.112 -0.5261 -0.5549 -3.9923
  339TMC3    H1 5090   1.307   0.013   1.013 -0.9304  1.5900 -0.6039
  339TMC3    H2 5091   0.891   4.636   1.081 -0.1968 -1.3684 -0.9557
  339TMC3    C7 5092   1.062   0.110   1.043 -0.0195 -0.3430  1.1467
  339TMC3    C8 5093   0.944   4.387   1.149 -0.3635 -0.3487  0.0997
  339TMC3    O1 5094   1.136   0.178   0.976 -0.4441  0.0903 -0.8593
  339TMC3    O2 5095   0.869   4.410   1.242  0.1336  0.2145  0.8923
  340MPD2     C 5096   1.702   1.708  10.247  0.3100 -0.8154  0.0841
  340MPD2    C1 5097   1.719   1.616  10.143  0.2046 -0.4228  0.5558
  340MPD2    C2 5098   1.852   1.576  10.118 -0.6649  0.7065  0.5851
  340MPD2    C3 5099   1.965   1.637  10.171  0.2047 -0.5096  0.1320
  340MPD2    C4 5100   1.944   1.748  10.252  0.4963 -0.0922  0.0673
  340MPD2    C5 5101   1.815   1.779  10.283 -0.0594  0.5526 -0.4779
  340MPD2     H 5102   1.858   1.506  10.035  0.3859 -0.5937  1.7651
  340MPD2    H1 5103   2.022   1.810  10.295  0.2104  0.9996 -0.9711
  340MPD2    H2 5104   1.610   1.752  10.285 -0.2278 -2.4474  0.6790
  340MPD2    H3 5105   1.801   1.867  10.346 -0.1681 -0.4748  0.9273
  340MPD2     N 5106   2.094   1.583  10.146 -0.5440  0.2055  0.4066
  340MPD2    H5 5107   2.177   1.630  10.181 -0.6723  0.7323  0.0022
  340MPD2    N1 5108   1.620   1.560  10.063 -0.2182  0.2268  0.0975
  340MPD2    H7 5109   1.647   1.487   9.998 -1.0697  1.5128 -1.7025
  341TMC3    C1 5110   1.410   1.510   9.978  0.5074  0.1772 -0.3029
  341TMC3    C2 5111   1.313   1.424  10.022  0.1358  0.1605  0.0847
  341TMC3    C3 5112   1.291   1.310   9.956  0.8921  0.5325  0.2303
  341TMC3    C4 5113   1.474   1.485   9.859 -0.1772  0.0858  0.4119
  341TMC3    C5 5114   1.450   1.368   9.797  0.9134 -0.3116 -0.4943
  341TMC3    C6 5115   1.353   1.281   9.836 -1.5116 -0.2841  0.0750
  341TMC3     C 5116   1.486   1.591  10.074  0.7153  0.3969 -0.0272
  341TMC3     O 5117   1.427   1.631  10.172  0.0921  0.0654 -0.3566
  341TMC3     H 5118   1.275   1.450  10.120 -1.5474  2.1618 -1.0815
  341TMC3    H1 5119   1.550   1.553   9.821 -0.1366  0.4750  1.1861
  341TMC3    H2 5120   1.338   1.186   9.787 -1.6380  0.1478 -0.7371
  341TMC3    C7 5121   1.532   1.351   9.679 -0.6707 -0.4934 -0.1594
  341TMC3    C8 5122   1.191   1.219  10.000 -0.1104  0.0012  0.1442
  341TMC3    O1 5123   1.639   1.406   9.680  0.0466  0.0620  0.1369
  341TMC3    O2 5124   1.135   1.152   9.916  0.4709 -0.3599  0.4004
  342MPD2     C 5125   4.023   0.248  16.836 -0.2025 -0.2164  0.5214
  342MPD2    C1 5126   4.031   0.200  16.964  0.6921  0.4469 -0.4654
  342MPD2    C2 5127   4.025   0.289  17.072  0.1411 -0.3797  0.4505
  342MPD2    C3 5128   3.999   0.421  17.054  0.1898  0.3098  0.1928
  342MPD2    C4 5129   3.999   0.464  16.926  0.1890  0.0711  0.2524
  342MPD2    C5 5130   4.007   0.378  16.822  0.7005  0.5964  0.9384
  342MPD2     H 5131   4.018   0.255  17.175 -0.4964  0.9682  0.8505
  342MPD2    H1 5132   3.976   0.567  16.900 -0.9616 -0.1825  0.2442
  342MPD2    H2 5133   4.035   0.186  16.748  0.6753  0.5332  0.1104
  342MPD2    H3 5134   4.020   0.428  16.727 -0.0887 -0.4583  0.2710
  342MPD2     N 5135   3.974   0.508  17.163 -0.2687  0.0627  0.6403
  342MPD2    H5 5136   3.975   0.606  17.137 -0.0600 -0.0208  0.3338
  342MPD2    N1 5137   4.051   0.067  16.999 -0.4553  0.5358 -0.0289
  342MPD2    H7 5138   4.059   0.048  17.098  3.6475 -2.4028 -0.9441
  343TMC3    C1 5139   4.092   4.565  16.983  0.2509 -0.9847  0.0093
  343TMC3    C2 5140   4.202   4.493  16.957  0.3113  0.9167 -0.1121
  343TMC3    C3 5141   4.238   4.394  17.050 -0.3844 -0.6147  0.4401
  343TMC3    C4 5142   4.003   4.539  17.086 -0.1931  0.0227 -0.5380
  343TMC3    C5 5143   4.046   4.448  17.180 -0.1356 -0.0048 -0.2478
  343TMC3    C6 5144   4.168   4.374  17.172 -0.1934 -0.0826  0.0407
  343TMC3     C 5145   4.071   4.688  16.914 -0.3274  0.1409  0.3454
  343TMC3     O 5146   4.093   4.697  16.790 -0.1406  0.1695 -0.5266
  343TMC3     H 5147   4.262   4.525  16.872 -0.1842  1.8331 -0.1064
  343TMC3    H1 5148   3.914   4.595  17.112 -0.3580 -1.4997  2.2500
  343TMC3    H2 5149   4.213   4.314  17.250 -2.2617 -1.8195 -0.1063
  343TMC3    C7 5150   3.937   4.387  17.247 -0.3292  0.0425 -0.0152
  343TMC3    C8 5151   4.379   4.395  17.072 -0.0577  0.2023 -0.1104
  343TMC3    O1 5152   3.822   4.414  17.207  0.0029 -0.4463  0.1892
  343TMC3    O2 5153   4.420   4.452  17.171 -0.1733  0.1895 -0.4771
  344MPD2     C 5154   4.336   4.447  10.294  0.0416 -0.5858  0.3012
  344MPD2    C1 5155   4.455   4.404  10.340  0.6725 -0.3659 -0.3548
  344MPD2    C2 5156   4.573   4.478  10.333  0.6470 -0.6047  0.1454
  344MPD2    C3 5157   4.570   4.608  10.290  0.1533 -0.0101  0.1435
  344MPD2    C4 5158   4.453   4.657  10.249 -0.1589 -0.4116  0.5208
  344MPD2    C5 5159   4.338   4.576  10.248 -0.2138 -0.5933  0.2527
  344MPD2     H 5160   4.666   4.428  10.361  0.5571 -1.0502 -0.3516
  344MPD2    H1 5161   4.437   0.033  10.212 -0.9088 -0.7137  0.0259
  344MPD2    H2 5162   4.247   4.384  10.292 -0.5539  0.3179 -1.5093
  344MPD2    H3 5163   4.251   4.629  10.213 -1.7877 -1.5571  2.7015
  344MPD2     N 5164   4.690   4.688  10.283  0.2472  0.0510  0.1090
  344MPD2    H5 5165   4.677   0.045  10.223  1.0506  0.3040  0.2824
  344MPD2    N1 5166   4.472   4.270  10.378 -0.0593  0.0558 -0.0655
  344MPD2    H7 5167   4.569   4.240  10.382  0.1508  0.7049 -0.2484
  345TMC3    C1 5168   0.197   0.018  10.308  0.4883 -0.3043  0.6507
  345TMC3    C2 5169   0.304   0.010  10.392  0.3338 -0.4459  0.2137
  345TMC3    C3 5170   0.421   0.068  10.359  0.2076 -0.2169  0.3376
  345TMC3    C4 5171   0.200   0.104  10.199 -0.2294  0.5398 -0.1951
  345TMC3    C5 5172   0.318   0.169  10.178 -0.2442 -0.4979 -0.6574
  345TMC3    C6 5173   0.430   0.156  10.255 -0.1493 -1.0015  0.4695
  345TMC3     C 5174   0.085   4.657  10.336 -0.4953 -0.4318  0.3725
  345TMC3     O 5175   0.120   4.558  10.399  0.3659 -0.2450  0.0466
  345TMC3     H 5176   0.308   4.672  10.480  1.8399 -0.4311  0.1500
  345TMC3    H1 5177   0.120   0.111  10.126  0.5615  1.1709 -1.0110
  345TMC3    H2 5178   0.525   0.201  10.229  1.2158 -3.1644  1.6516
  345TMC3    C7 5179   0.329   0.276  10.081 -0.6695  0.2406  0.9906
  345TMC3    C8 5180   0.522   0.062  10.456 -0.2495  0.3328  0.4504
  345TMC3    O1 5181   0.397   0.372  10.120 -0.0702 -0.0359 -0.5300
  345TMC3    O2 5182   0.493   0.029  10.571  0.6767  0.3494 -0.2862
  346MPD2     C 5183   0.060   2.023  14.439 -0.1531 -0.3336 -0.0940
  346MPD2    C1 5184   0.176   2.006  14.374  0.0659 -0.7941  0.5489
  346MPD2    C2 5185   0.290   1.997  14.443 -0.5407  0.8039 -0.2938
  346MPD2    C3 5186   0.291   2.001  14.582  0.4371 -1.1304  0.5726
  346MPD2    C4 5187   0.180   2.018  14.651 -0.1488  0.6738  0.3571
  346MPD2    C5 5188   0.063   2.029  14.578 -0.0010 -0.9233 -0.6284
  346MPD2     H 5189   0.387   1.995  14.393 -0.7680  0.0237 -0.7029
  346MPD2    H1 5190   0.167   2.020  14.759 -1.4371  0.2139  0.2172
  346MPD2    H2 5191   4.688   2.038  14.391 -1.0470 -1.5036  1.3369
  346MPD2    H3 5192   4.694   2.030  14.631 -0.4600  1.1870 -1.4829
  346MPD2     N 5193   0.415   1.981  14.639 -0.2254  0.4973 -0.0071
  346MPD2    H5 5194   0.491   1.977  14.572  0.8004  1.8704  1.0994
  346MPD2    N1 5195   0.184   1.986  14.234  0.3189 -0.3586  0.0682
  346MPD2    H7 5196   0.270   1.955  14.189  0.3225 -0.0521 -0.1324
  347TMC3    C1 5197   0.590   1.946  14.793 -0.3514 -0.6536  0.9375
  347TMC3    C2 5198   0.679   1.984  14.699  0.1985  0.0826 -0.5421
  347TMC3    C3 5199   0.794   1.915  14.707 -0.0176  0.6322 -0.4792
  347TMC3    C4 5200   0.611   1.861  14.900  0.4358 -0.6457  0.0073
  347TMC3    C5 5201   0.731   1.799  14.899 -0.1816  0.1612  0.2057
  347TMC3    C6 5202   0.824   1.820  14.798  0.6959 -0.6521  0.2836
  347TMC3     C 5203   0.441   1.965  14.771 -0.0545  0.5193 -0.4298
  347TMC3     O 5204   0.363   1.945  14.864 -0.5186 -0.2810 -0.1140
  347TMC3     H 5205   0.664   2.058  14.621 -2.1828 -1.0927 -1.1835
  347TMC3    H1 5206   0.533   1.846  14.973 -0.2494  1.9064 -0.2064
  347TMC3    H2 5207   0.913   1.759  14.786  0.2529 -1.4436  1.0383
  347TMC3    C7 5208   0.710   1.669  14.949 -0.4101  0.2793 -0.3492
  347TMC3    C8 5209   0.876   1.911  14.586  0.5099 -0.3635 -0.6548
  347TMC3    O1 5210   0.599   1.617  14.931  0.4449  0.1420  0.0090
  347TMC3    O2 5211   0.909   1.801  14.547  0.0709  0.4644 -0.4534
  348MPD2     C 5212   3.869   1.310  12.273 -0.6019 -0.1989  0.3472
  348MPD2    C1 5213   3.974   1.363  12.206 -0.0291 -0.0649 -0.8190
  348MPD2    C2 5214   3.962   1.472  12.125  0.4221 -0.6776 -0.1279
  348MPD2    C3 5215   3.833   1.516  12.096 -0.1432 -0.2615 -0.2118
  348MPD2    C4 5216   3.724   1.453  12.158 -0.0325 -0.5383 -0.1629
  348MPD2    C5 5217   3.745   1.355  12.252  0.2117  0.3056 -0.0562
  348MPD2     H 5218   4.045   1.519  12.074  1.2852  0.8430  2.7208
  348MPD2    H1 5219   3.625   1.495  12.143 -0.5301 -1.5225  0.3146
  348MPD2    H2 5220   3.883   1.240  12.354 -1.7686 -0.1261  0.6096
  348MPD2    H3 5221   3.667   1.322  12.319  1.7158 -0.6881  1.2201
  348MPD2     N 5222   3.820   1.612  11.997  0.6200 -0.4104 -0.2821
  348MPD2    H5 5223   3.904   1.666  11.977 -0.8104  1.5520 -0.9178
  348MPD2    N1 5224   4.107   1.307  12.211  0.6481  0.3211  0.3421
  348MPD2    H7 5225   4.178   1.358  12.160  2.6575 -3.2937 -0.4515
  349TMC3    C1 5226   4.269   1.140  12.238  0.2403  0.6773  0.6744
  349TMC3    C2 5227   4.263   1.002  12.243 -0.1490 -0.3832  0.9087
  349TMC3    C3 5228   4.303   0.928  12.134  0.1449  0.2386 -0.5301
  349TMC3    C4 5229   4.323   1.202  12.130 -0.1772 -0.7197  0.8580
  349TMC3    C5 5230   4.353   1.129  12.019  0.3940 -0.2015  0.1930
  349TMC3    C6 5231   4.347   0.993  12.021  0.3838 -0.4729 -0.3189
  349TMC3     C 5232   4.149   1.198  12.285  0.3383 -0.6097  0.8038
  349TMC3     O 5233   4.077   1.115  12.336  0.6167 -0.2649 -0.3387
  349TMC3     H 5234   4.234   0.947  12.332  1.3221  0.2302  1.7688
  349TMC3    H1 5235   4.351   1.306  12.138  1.3559 -1.0307 -0.3763
  349TMC3    H2 5236   4.361   0.940  11.928 -0.9689  1.4320 -1.6127
  349TMC3    C7 5237   4.291   1.172  11.899  0.6175 -0.2318  0.6093
  349TMC3    C8 5238   4.257   0.790  12.131 -0.0265  0.4858 -0.4877
  349TMC3    O1 5239   4.232   1.090  11.831 -0.2764  0.3661  0.2967
  349TMC3    O2 5240   4.188   0.750  12.224 -0.6391  0.3170 -0.0791
  350MPD2     C 5241   2.336   4.096  10.076 -1.2964 -0.4565  0.0769
  350MPD2    C1 5242   2.397   3.972  10.053  0.7930 -0.2875  0.0477
  350MPD2    C2 5243   2.524   3.964  10.006  0.0054  1.1071 -0.0196
  350MPD2    C3 5244   2.585   4.076   9.951 -0.1581  0.4622 -0.3661
  350MPD2    C4 5245   2.530   4.197   9.971 -0.3389  0.5999  0.3648
  350MPD2    C5 5246   2.410   4.202  10.037 -0.6009 -0.2205 -0.2640
  350MPD2     H 5247   2.563   3.864   9.988  0.6084  1.2346  0.6087
  350MPD2    H1 5248   2.576   4.291   9.942 -0.0041 -0.3167 -2.1173
  350MPD2    H2 5249   2.240   4.104  10.125 -0.1977  1.2010  1.9609
  350MPD2    H3 5250   2.369   4.299  10.063  0.2444 -0.1373  0.7293
  350MPD2     N 5251   2.707   4.041   9.894  0.5623 -0.1525 -0.2551
  350MPD2    H5 5252   2.729   3.944   9.877 -2.6112 -0.6000 -1.8981
  350MPD2    N1 5253   2.334   3.847  10.081 -0.1253 -0.0460 -0.6624
  350MPD2    H7 5254   2.379   3.760  10.056 -1.0158 -0.7294  0.1195
  351TMC3    C1 5255   2.184   3.695  10.172 -0.0305 -0.3997 -0.0175
  351TMC3    C2 5256   2.281   3.602  10.158 -0.0423  0.5854 -0.2336
  351TMC3    C3 5257   2.246   3.473  10.181  0.5727 -0.5962  0.4169
  351TMC3    C4 5258   2.049   3.658  10.184  0.1110  0.0923  0.1438
  351TMC3    C5 5259   2.019   3.526  10.199 -0.3555  0.4768  0.4694
  351TMC3    C6 5260   2.119   3.430  10.203  0.4967  0.2802  0.5962
  351TMC3     C 5261   2.213   3.832  10.146  0.9087 -0.0677 -0.4745
  351TMC3     O 5262   2.132   3.918  10.176 -0.2017 -0.2308 -0.0038
  351TMC3     H 5263   2.388   3.620  10.158 -0.0218  0.4615 -0.2650
  351TMC3    H1 5264   1.983   3.743  10.190  0.0467  0.1642 -1.5950
  351TMC3    H2 5265   2.102   3.323  10.191 -0.4658  0.6292 -1.1785
  351TMC3    C7 5266   1.882   3.487  10.193 -0.4297 -0.4336  0.2578
  351TMC3    C8 5267   2.353   3.373  10.171 -0.2108  0.8083 -0.5274
  351TMC3    O1 5268   1.802   3.577  10.157  0.3384  0.6544 -0.3035
  351TMC3    O2 5269   2.445   3.390  10.093 -0.0625  0.3711 -0.3139
  352MPD2     C 5270   1.132   1.443   1.388 -0.7177 -0.2789  0.1053
  352MPD2    C1 5271   1.035   1.380   1.316 -0.2060  0.5321  0.0135
  352MPD2    C2 5272   1.012   1.243   1.341 -0.2053  0.1355  0.5142
  352MPD2    C3 5273   1.088   1.175   1.435  0.1438  0.6566 -0.5500
  352MPD2    C4 5274   1.189   1.240   1.503 -0.2013 -0.2473  0.4545
  352MPD2    C5 5275   1.207   1.372   1.479  0.3934 -0.4754  0.1755
  352MPD2     H 5276   0.934   1.192   1.287  0.2685  0.4233 -0.4539
  352MPD2    H1 5277   1.254   1.199   1.579  1.3998  2.4934  0.5633
  352MPD2    H2 5278   1.143   1.550   1.386 -0.9645 -0.1955  2.4803
  352MPD2    H3 5279   1.280   1.432   1.532  0.9279 -2.6092  1.8285
  352MPD2     N 5280   1.079   1.039   1.448 -0.4823  0.0464  0.5811
  352MPD2    H5 5281   1.135   1.006   1.526  0.3949 -0.1807 -0.1465
  352MPD2    N1 5282   0.959   1.446   1.219 -0.2695 -0.6341  0.9006
  352MPD2    H7 5283   0.993   1.537   1.193 -2.6547  1.1124  3.8871
  353TMC3    C1 5284   1.041   0.817   1.383  0.3338 -0.0738 -0.0515
  353TMC3    C2 5285   1.135   0.774   1.466  1.0733  0.0604 -0.4003
  353TMC3    C3 5286   1.235   0.701   1.407 -0.1188 -0.2979  0.9022
  353TMC3    C4 5287   1.054   0.763   1.253  0.2095  0.5884  0.2182
  353TMC3    C5 5288   1.133   0.665   1.209 -0.3098  0.2435  0.0961
  353TMC3    C6 5289   1.236   0.630   1.294 -0.3254 -0.8813  0.5201
  353TMC3     C 5290   1.000   0.954   1.379 -0.0511  0.2811  0.1073
  353TMC3     O 5291   0.913   0.973   1.300  0.6483 -0.2679  0.5317
  353TMC3     H 5292   1.154   0.820   1.562 -0.3560  2.3399 -1.2283
  353TMC3    H1 5293   0.978   0.776   1.176  0.4331 -2.4202 -0.4998
  353TMC3    H2 5294   1.323   0.582   1.251  1.5027  0.6489  2.5487
  353TMC3    C7 5295   1.175   0.692   1.075 -0.6708  0.5697 -0.2856
  353TMC3    C8 5296   1.349   0.671   1.494  0.1736  0.2636  0.0256
  353TMC3    O1 5297   1.170   0.805   1.033  0.7777  0.1674  0.0031
  353TMC3    O2 5298   1.328   0.680   1.613 -0.0521  0.0465 -0.7128
  354TMC3    C1 5299   3.042   2.828  13.595  0.1349  0.3180  0.4127
  354TMC3    C2 5300   3.046   2.947  13.520 -0.1846 -0.3720  0.1892
  354TMC3    C3 5301   3.039   2.945  13.383 -0.2431 -0.2968 -0.5212
  354TMC3    C4 5302   3.028   2.703  13.530 -1.0777 -0.0930 -0.5366
  354TMC3    C5 5303   3.037   2.710  13.393 -0.3996  0.7987 -0.4570
  354TMC3    C6 5304   3.041   2.826  13.319  0.3601  0.3872 -0.6136
  354TMC3     C 5305   3.028   2.850  13.738  0.0063 -0.2652 -1.3846
  354TMC3     O 5306   2.988   2.960  13.777  0.2865 -0.6832 -0.2266
  354TMC3     H 5307   3.071   3.038  13.575  2.1152  0.0924 -1.6205
  354TMC3    H1 5308   3.053   2.614  13.587 -0.1630 -0.0875 -0.9225
  354TMC3    H2 5309   3.020   2.825  13.213  1.5787 -1.7925 -0.8368
  354TMC3    C7 5310   3.103   2.603  13.324 -0.1166  0.3398 -0.3656
  354TMC3    C8 5311   3.101   3.038  13.296 -0.3876 -0.1041  0.4187
  354TMC3    O1 5312   3.104   2.494  13.371  0.3066 -0.0288 -0.1194
  354TMC3    O2 5313   3.031   3.129  13.257  0.1349 -0.1549 -0.0738
  355MPD2     C 5314   2.700   3.445  11.678  0.0518 -0.0368  0.2056
  355MPD2    C1 5315   2.773   3.472  11.564  0.0031 -0.0424  0.2676
  355MPD2    C2 5316   2.908   3.454  11.569  0.5984  0.1914 -0.0518
  355MPD2    C3 5317   2.974   3.413  11.684  0.5522 -0.2766 -0.0076
  355MPD2    C4 5318   2.898   3.370  11.789  0.2153 -0.3596 -0.4122
  355MPD2    C5 5319   2.766   3.395  11.792  0.0510  0.3695  0.5781
  355MPD2     H 5320   2.971   3.488  11.488 -1.0234  0.9215 -1.0162
  355MPD2    H1 5321   2.937   3.324  11.879 -2.3255  0.4216  1.1107
  355MPD2    H2 5322   2.594   3.466  11.671  0.3956  1.8705  0.6899
  355MPD2    H3 5323   2.707   3.365  11.878 -2.7126  2.0955 -0.6854
  355MPD2     N 5324   3.108   3.414  11.692 -0.6276  0.0554  0.8540
  355MPD2    H5 5325   3.150   3.405  11.785 -0.2180  0.7456  0.7378
  355MPD2    N1 5326   2.706   3.534  11.450 -0.2668 -0.4310  0.1055
  355MPD2    H7 5327   2.611   3.562  11.470 -0.4682  0.7590 -2.5049
  356TMC3    C1 5328   3.351   3.429  11.632 -0.1652  0.0002 -0.2425
  356TMC3    C2 5329   3.434   3.395  11.538 -0.3385  0.1402 -0.1281
  356TMC3    C3 5330   3.553   3.459  11.543 -1.0239  0.0850 -0.0482
  356TMC3    C4 5331   3.382   3.501  11.741  0.1596  0.2316  0.1491
  356TMC3    C5 5332   3.508   3.558  11.747 -0.3761  0.2739  0.1901
  356TMC3    C6 5333   3.591   3.551  11.642  0.5208 -0.3073  0.1594
  356TMC3     C 5334   3.210   3.432  11.594 -0.1859 -0.6778 -0.2880
  356TMC3     O 5335   3.198   3.454  11.473  0.3003 -0.0205  0.1836
  356TMC3     H 5336   3.395   3.347  11.449 -0.5234  0.9169 -0.4572
  356TMC3    H1 5337   3.315   3.499  11.827 -1.4103 -3.1329 -1.1745
  356TMC3    H2 5338   3.691   3.592  11.648  0.0052  1.2748 -2.1926
  356TMC3    C7 5339   3.525   3.643  11.857 -0.5319 -0.0835 -0.0204
  356TMC3    C8 5340   3.618   3.469  11.410 -0.7754  0.2221 -0.5533
  356TMC3    O1 5341   3.459   3.619  11.957  0.2236 -0.4797 -0.2016
  356TMC3    O2 5342   3.608   3.378  11.327 -0.0450  0.7505 -0.3398
  357MPD2     C 5343   2.787   3.406   0.892  0.0795 -0.0398 -0.1744
  357MPD2    C1 5344   2.769   3.314   0.993  0.3564  0.2101  0.3856
  357MPD2    C2 5345   2.649   3.310   1.055 -0.4194 -0.1550 -0.7277
  357MPD2    C3 5346   2.545   3.388   1.018 -0.0840  1.0549  0.7261
  357MPD2    C4 5347   2.562   3.473   0.911 -0.0151  0.5596  0.1048
  357MPD2    C5 5348   2.678   3.477   0.844 -0.5837 -0.1494  0.1874
  357MPD2     H 5349   2.630   3.231   1.127 -2.5397  0.8546 -0.1542
  357MPD2    H1 5350   2.476   3.529   0.876  0.1471  0.8431  0.1677
  357MPD2    H2 5351   2.883   3.409   0.843  0.9775 -0.4312  1.5756
  357MPD2    H3 5352   2.681   3.548   0.762  0.5277  0.0073  0.3641
  357MPD2     N 5353   2.420   3.384   1.079  0.6563  0.0364  0.0106
  357MPD2    H5 5354   2.360   3.454   1.036  0.9032  0.2295 -0.0178
  357MPD2    N1 5355   2.879   3.231   1.020 -0.0649 -0.0169 -0.0084
  357MPD2    H7 5356   2.953   3.219   0.951 -0.1556  1.7053 -0.4110
  358TMC3    C1 5357   2.971   3.057   1.131  0.4829  0.4596  0.6049
  358TMC3    C2 5358   2.960   2.972   1.025 -0.4872  0.6470  0.0897
  358TMC3    C3 5359   3.017   2.853   1.018  0.0496 -0.5800 -0.3314
  358TMC3    C4 5360   3.034   3.022   1.242 -0.3370  0.4220 -0.5642
  358TMC3    C5 5361   3.099   2.899   1.237  0.1417  0.7062 -0.3122
  358TMC3    C6 5362   3.099   2.822   1.125 -0.2295 -0.5347 -0.3558
  358TMC3     C 5363   2.882   3.162   1.136  0.5119  0.2625 -0.1215
  358TMC3     O 5364   2.830   3.193   1.243  0.2823  0.1442  0.6650
  358TMC3     H 5365   2.905   3.010   0.940 -1.0221 -1.6230 -0.5794
  358TMC3    H1 5366   3.034   3.089   1.327  3.1257  0.1192 -0.3319
  358TMC3    H2 5367   3.138   2.722   1.138  0.3355 -0.1057  1.2218
  358TMC3    C7 5368   3.206   2.876   1.333 -0.0900 -0.2562 -0.6017
  358TMC3    C8 5369   3.004   2.769   0.898  0.2127 -0.6931  0.2002
  358TMC3    O1 5370   3.304   2.816   1.291 -0.3987 -0.0368 -0.7435
  358TMC3    O2 5371   2.909   2.797   0.826  0.5899  0.4114  0.8012
  359MPD2     C 5372   3.724   1.547  12.580  0.0934  1.0292  0.8584
  359MPD2    C1 5373   3.628   1.632  12.526 -0.0043  0.5594 -0.3881
  359MPD2    C2 5374   3.504   1.651  12.586 -0.2484 -0.4361 -0.2578
  359MPD2    C3 5375   3.483   1.589  12.704  0.4878  0.4276 -0.5079
  359MPD2    C4 5376   3.581   1.514  12.765 -0.8341  0.9494 -0.0926
  359MPD2    C5 5377   3.700   1.499  12.709 -0.3244 -0.4850  0.5659
  359MPD2     H 5378   3.431   1.716  12.540 -2.0357 -1.7780  0.7160
  359MPD2    H1 5379   3.575   1.465  12.862  0.9303 -0.9116 -0.9129
  359MPD2    H2 5380   3.816   1.527  12.525 -0.4044 -0.5385  0.6010
  359MPD2    H3 5381   3.773   1.452  12.774  0.6056 -3.2443 -2.4361
  359MPD2     N 5382   3.361   1.608  12.775 -1.3144 -0.5835 -0.0857
  359MPD2    H5 5383   3.366   1.573  12.870  1.8183  1.9696  0.6725
  359MPD2    N1 5384   3.658   1.713  12.414 -0.6089  0.4195 -0.2009
  359MPD2    H7 5385   3.575   1.749  12.368 -0.8185 -0.0022 -0.1523
  360TMC3    C1 5386   3.773   1.831  12.252 -0.5339  0.1049  0.6422
  360TMC3    C2 5387   3.873   1.919  12.236  0.1723 -0.0839 -0.3790
  360TMC3    C3 5388   3.842   2.049  12.198 -0.2406 -0.1605  0.0632
  360TMC3    C4 5389   3.656   1.852  12.180 -0.7148  0.0088 -0.5197
  360TMC3    C5 5390   3.643   1.962  12.100  0.1810 -0.9958 -0.5878
  360TMC3    C6 5391   3.723   2.066  12.126 -0.8012 -0.1474  0.0577
  360TMC3     C 5392   3.781   1.738  12.364 -0.3467  0.1350 -0.3248
  360TMC3     O 5393   3.888   1.721  12.421 -0.2491  0.3155 -0.3575
  360TMC3     H 5394   3.959   1.899  12.299  0.7487  2.0064 -0.5272
  360TMC3    H1 5395   3.597   1.763  12.163 -1.9058  0.9321 -1.2060
  360TMC3    H2 5396   3.721   2.151  12.059  0.5167 -0.3315 -0.2127
  360TMC3    C7 5397   3.562   1.958  11.979 -0.0353  0.0530 -0.0055
  360TMC3    C8 5398   3.945   2.143  12.172  0.4888 -0.2046 -0.6529
  360TMC3    O1 5399   3.596   2.038  11.890 -0.0991 -0.0749 -0.7306
  360TMC3    O2 5400   3.914   2.260  12.164  0.3497 -0.0900  0.1454
  361MPD2     C 5401   0.145   0.558  16.995 -0.0359 -0.0386  0.0570
  361MPD2    C1 5402   0.099   0.626  17.111  0.4467 -0.1362 -0.6180
  361MPD2    C2 5403   0.150   0.575  17.233 -0.2829 -0.5195  0.8816
  361MPD2    C3 5404   0.234   0.469  17.248  0.1778  0.6120 -0.2190
  361MPD2    C4 5405   0.250   0.388  17.141  0.2188  0.1219 -1.0836
  361MPD2    C5 5406   0.215   0.436  17.022  0.0231  0.2567  0.4450
  361MPD2     H 5407   0.116   0.632  17.320  0.7504  1.5603 -0.0711
  361MPD2    H1 5408   0.322   0.308  17.153  0.2216  0.2766 -0.0972
  361MPD2    H2 5409   0.096   0.577  16.900  1.7572 -1.7387 -1.1814
  361MPD2    H3 5410   0.238   0.365  16.943 -1.5264 -0.8694  1.0153
  361MPD2     N 5411   0.282   0.426  17.370 -0.4837 -0.3784 -0.2475
  361MPD2    H5 5412   0.341   0.344  17.366  0.4980  0.2404  1.5607
  361MPD2    N1 5413   0.011   0.738  17.114  0.4593 -0.1381  0.2678
  361MPD2    H7 5414   4.721   0.784  17.204  0.5106  0.1731  0.1178
  362TMC3    C1 5415   4.607   0.914  17.027  0.0240  0.1685  0.1521
  362TMC3    C2 5416   4.502   0.884  17.116 -0.1748 -0.9145 -0.0174
  362TMC3    C3 5417   4.402   0.980  17.129 -0.4332 -0.1857  0.4686
  362TMC3    C4 5418   4.608   1.015  16.942 -0.0270 -0.4241 -0.3033
  362TMC3    C5 5419   4.502   1.095  16.947 -0.9259 -1.0626  0.2309
  362TMC3    C6 5420   4.410   1.093  17.051 -0.7625 -0.2799  0.7883
  362TMC3     C 5421   4.696   0.801  16.999 -0.1864 -0.0126  0.6230
  362TMC3     O 5422   0.023   0.782  16.891 -0.0124  0.1858 -0.1150
  362TMC3     H 5423   4.501   0.790  17.171  1.0341 -1.2560 -0.5689
  362TMC3    H1 5424   4.692   1.021  16.873  1.4177  0.4698  1.5188
  362TMC3    H2 5425   4.340   1.172  17.071 -1.2483 -0.1944 -1.2963
  362TMC3    C7 5426   4.511   1.225  16.883  0.0541  0.0802  0.9170
  362TMC3    C8 5427   4.342   0.986  17.261 -0.3055 -0.2914 -0.2519
  362TMC3    O1 5428   4.404   1.273  16.845  0.2070  0.3663  0.1765
  362TMC3    O2 5429   4.352   0.893  17.339 -0.3200  0.0875 -0.1139
  363TMC3    C1 5430   3.977   3.234   9.419 -0.1464 -0.3387  1.0507
  363TMC3    C2 5431   3.971   3.152   9.522  0.4704 -0.1641 -0.0812
  363TMC3    C3 5432   3.984   3.201   9.646  0.2005 -0.3863 -0.4419
  363TMC3    C4 5433   3.997   3.367   9.430  0.1637 -0.1170 -0.4377
  363TMC3    C5 5434   4.011   3.419   9.562  0.2407 -0.4087  0.3261
  363TMC3    C6 5435   4.002   3.332   9.672  0.2338 -0.7730  0.7352
  363TMC3     C 5436   3.929   3.179   9.290 -0.3960  0.2766 -0.0110
  363TMC3     O 5437   3.960   3.064   9.261  0.9892  0.1814 -0.0747
  363TMC3     H 5438   3.932   3.051   9.515  1.4682 -0.5960  0.5130
  363TMC3    H1 5439   3.997   3.434   9.344  0.7968  0.7037  0.2008
  363TMC3    H2 5440   4.018   3.370   9.772 -0.8416 -0.2823  0.7316
  363TMC3    C7 5441   3.993   3.562   9.578  0.3911  0.3985 -0.2472
  363TMC3    C8 5442   4.006   3.107   9.752 -0.4727 -0.1047  0.3218
  363TMC3    O1 5443   3.989   3.621   9.468  0.7542 -0.2229  0.0807
  363TMC3    O2 5444   3.972   3.148   9.864 -0.9674 -0.3637 -0.6629
  364MPD2     C 5445   1.761   2.636  10.760 -0.0931  0.2266  0.6735
  364MPD2    C1 5446   1.876   2.602  10.691 -0.5477  0.2881  0.1348
  364MPD2    C2 5447   1.966   2.505  10.742  0.3490  0.3386  0.6977
  364MPD2    C3 5448   1.940   2.454  10.868 -0.2372  0.4296 -0.1577
  364MPD2    C4 5449   1.834   2.498  10.941  0.6382 -0.3588  0.1536
  364MPD2    C5 5450   1.747   2.591  10.889  0.6095 -0.3709  0.4969
  364MPD2     H 5451   2.055   2.479  10.686  0.2174 -0.2568  0.7701
  364MPD2    H1 5452   1.825   2.474  11.046 -0.1341  1.0742  0.4230
  364MPD2    H2 5453   1.689   2.700  10.712  0.1339 -0.1912 -0.2149
  364MPD2    H3 5454   1.673   2.640  10.951  1.0487 -2.0278  2.3095
  364MPD2     N 5455   2.019   2.352  10.926  0.7973 -0.0075 -0.4987
  364MPD2    H5 5456   1.992   2.319  11.018  2.9229  0.1857  0.1957
  364MPD2    N1 5457   1.881   2.654  10.561  0.1642  0.1278 -0.6092
  364MPD2    H7 5458   1.813   2.727  10.545  0.1055  0.4552  1.1077
  365TMC3    C1 5459   1.992   2.717  10.364  0.3383  0.2656  0.6768
  365TMC3    C2 5460   2.092   2.692  10.275  0.0845 -0.2354  0.7291
  365TMC3    C3 5461   2.152   2.803  10.222  0.0581 -0.0617 -0.1615
  365TMC3    C4 5462   1.939   2.839  10.378 -0.0720 -0.5120 -0.0875
  365TMC3    C5 5463   2.002   2.950  10.323 -0.5339 -1.0134 -0.0204
  365TMC3    C6 5464   2.114   2.932  10.253  0.7277 -0.8601  0.3135
  365TMC3     C 5465   1.971   2.613  10.462 -0.2955  0.9556 -0.2364
  365TMC3     O 5466   2.036   2.513  10.453  0.3051  0.6587  0.7829
  365TMC3     H 5467   2.134   2.594  10.255  0.8234  0.1373  0.4802
  365TMC3    H1 5468   1.851   2.857  10.439 -1.0008  1.3803 -1.9816
  365TMC3    H2 5469   2.165   3.016  10.208 -0.1300 -0.8660 -0.6603
  365TMC3    C7 5470   2.005   3.065  10.413  0.9241 -0.1128 -0.3135
  365TMC3    C8 5471   2.276   2.776  10.148 -0.2460  0.3557  0.2306
  365TMC3    O1 5472   2.058   3.166  10.365 -0.4653  0.3882 -0.4067
  365TMC3    O2 5473   2.297   2.856  10.058  1.1864  0.2772 -0.0741
  366MPD2     C 5474   0.902   3.471  15.098 -1.0140  0.4750  0.0227
  366MPD2    C1 5475   0.874   3.601  15.109  0.1794 -0.1097 -0.8887
  366MPD2    C2 5476   0.966   3.697  15.088 -0.2620  0.3890 -0.5523
  366MPD2    C3 5477   1.097   3.665  15.056  0.2298  0.3665  0.1608
  366MPD2    C4 5478   1.126   3.537  15.041  0.6426 -0.5690  0.9859
  366MPD2    C5 5479   1.030   3.437  15.070 -0.1189 -0.5222  0.0618
  366MPD2     H 5480   0.939   3.802  15.094  1.0050  0.7366 -0.8910
  366MPD2    H1 5481   1.225   3.510  15.006  0.7185  0.3193  0.5026
  366MPD2    H2 5482   0.826   3.395  15.107  0.5582 -1.1268 -0.0569
  366MPD2    H3 5483   1.066   3.335  15.061  0.7920 -0.3283  1.4104
  366MPD2     N 5484   1.189   3.772  15.064  0.7198 -0.1977 -0.6648
  366MPD2    H5 5485   1.152   3.863  15.091  0.6165 -0.8252  1.3573
  366MPD2    N1 5486   0.744   3.643  15.157 -0.3702 -0.2941 -1.2142
  366MPD2    H7 5487   0.687   3.600  15.229  3.0025 -0.1020  1.6050
  367TMC3    C1 5488   0.577   3.799  15.212  0.3778  0.2457  0.0924
  367TMC3    C2 5489   0.613   3.832  15.334 -0.6155 -0.2824 -0.0809
  367TMC3    C3 5490   0.550   3.938  15.387  0.4177 -0.3880 -0.1071
  367TMC3    C4 5491   0.473   3.856  15.138  0.1257 -0.3539 -0.4469
  367TMC3    C5 5492   0.421   3.968  15.189 -0.6499 -0.0678  0.6761
  367TMC3    C6 5493   0.452   4.004  15.316  0.6877  0.2960 -0.5904
  367TMC3     C 5494   0.686   3.764  15.123  0.9224 -0.4831  0.0629
  367TMC3     O 5495   0.713   3.831  15.021  0.0735 -0.0353  0.2414
  367TMC3     H 5496   0.697   3.781  15.380  0.4268  1.2734 -0.2572
  367TMC3    H1 5497   0.454   3.832  15.034 -0.0046 -0.9778 -0.2819
  367TMC3    H2 5498   0.405   4.097  15.350  0.6668  0.4545 -1.0564
  367TMC3    C7 5499   0.331   4.055  15.116 -0.4958 -0.1185 -0.2039
  367TMC3    C8 5500   0.633   4.016  15.481  0.4071 -0.0268 -0.7244
  367TMC3    O1 5501   0.350   4.170  15.155  0.3037 -0.1178 -0.9656
  367TMC3    O2 5502   0.739   3.967  15.510 -0.0586 -0.4264  0.3974
  368MPD2     C 5503   1.450   1.452  13.160 -0.1343  0.2154  0.2739
  368MPD2    C1 5504   1.464   1.579  13.099  0.1666  0.3052  0.5060
  368MPD2    C2 5505   1.582   1.643  13.106  0.1278  0.5432 -0.2965
  368MPD2    C3 5506   1.695   1.579  13.165 -0.0458 -0.1766  0.6832
  368MPD2    C4 5507   1.675   1.455  13.220 -0.0752 -0.1261 -0.0129
  368MPD2    C5 5508   1.557   1.390  13.224 -0.0112 -0.1451  0.0457
  368MPD2     H 5509   1.591   1.732  13.046  0.8475  0.0000 -1.0042
  368MPD2    H1 5510   1.763   1.397  13.247  1.4441  2.5641  0.7966
  368MPD2    H2 5511   1.353   1.405  13.172  0.7978 -1.6564  0.4166
  368MPD2    H3 5512   1.538   1.298  13.277  0.2659  0.0829  0.5449
  368MPD2     N 5513   1.832   1.620  13.151 -0.2956 -0.3002 -0.8475
  368MPD2    H5 5514   1.897   1.555  13.194  1.2560  1.8440  0.0307
  368MPD2    N1 5515   1.350   1.632  13.039  0.4617 -0.1904  0.3294
  368MPD2    H7 5516   1.267   1.574  13.046 -0.0262  0.8075  2.9928
  369TMC3    C1 5517   1.223   1.727  12.872  0.1512  0.5818 -0.1116
  369TMC3    C2 5518   1.179   1.842  12.810 -0.0660  0.7126 -0.4021
  369TMC3    C3 5519   1.053   1.837  12.756 -0.2288  0.4418 -0.4325
  369TMC3    C4 5520   1.150   1.606  12.873  0.8478  0.7689  0.3849
  369TMC3    C5 5521   1.018   1.612  12.836  0.9592  0.0012 -0.1495
  369TMC3    C6 5522   0.975   1.722  12.767  0.2070 -0.1395  0.4117
  369TMC3     C 5523   1.336   1.741  12.960  0.2611 -0.0490  0.5550
  369TMC3     O 5524   1.389   1.850  12.957 -0.6379 -0.4390  0.1825
  369TMC3     H 5525   1.227   1.937  12.826 -1.6160  1.4821 -0.3443
  369TMC3    H1 5526   1.176   1.514  12.925  1.0653  0.2891 -0.5563
  369TMC3    H2 5527   0.880   1.721  12.715  1.0427  0.1973 -1.1292
  369TMC3    C7 5528   0.940   1.490  12.860  1.1434  0.5295 -0.2898
  369TMC3    C8 5529   1.009   1.936  12.655  0.7203 -0.6905  0.1682
  369TMC3    O1 5530   1.012   1.390  12.870  0.5366  0.0810  0.4600
  369TMC3    O2 5531   0.902   1.915  12.593 -0.7914  0.4573  0.8562
  370TMC3    C1 5532   1.370   1.813  15.965  0.4702  0.2029 -0.3313
  370TMC3    C2 5533   1.284   1.827  16.072 -0.1115  0.0117  0.4729
  370TMC3    C3 5534   1.148   1.807  16.051 -0.9392 -0.6014  0.7861
  370TMC3    C4 5535   1.329   1.769  15.842  0.3179 -0.2132 -0.2032
  370TMC3    C5 5536   1.199   1.738  15.831 -0.3139  0.1181  0.4451
  370TMC3    C6 5537   1.107   1.759  15.930 -0.0105 -0.3320  0.3629
  370TMC3     C 5538   1.505   1.785  16.004  0.4074  0.1363 -0.6554
  370TMC3     O 5539   1.528   1.721  16.112  0.1704 -0.1992  0.1827
  370TMC3     H 5540   1.318   1.859  16.169  0.5089  2.7221 -0.6330
  370TMC3    H1 5541   1.403   1.757  15.763  0.3031 -1.8856  0.0330
  370TMC3    H2 5542   1.001   1.759  15.907  0.2708 -0.7490 -0.8972
  370TMC3    C7 5543   1.155   1.682  15.703  0.1051 -0.3536  0.4424
  370TMC3    C8 5544   1.061   1.784  16.164 -0.4291 -0.1378 -0.2254
  370TMC3    O1 5545   1.035   1.670  15.687 -0.2804  0.6691 -0.4764
  370TMC3    O2 5546   0.988   1.687  16.157 -0.4297 -0.0442 -0.2991
  371TMC3    C1 5547   2.465   0.015  15.204 -0.5160  0.5007  0.0849
  371TMC3    C2 5548   2.335   0.020  15.240  0.2873 -0.0581  0.7130
  371TMC3    C3 5549   2.272   0.140  15.228  0.8291 -0.1450 -0.1820
  371TMC3    C4 5550   2.539   0.116  15.151 -0.1684 -0.6277 -0.0593
  371TMC3    C5 5551   2.461   0.232  15.133 -0.3261  0.9180  1.0631
  371TMC3    C6 5552   2.333   0.245  15.173  0.8800 -0.7262 -0.8408
  371TMC3     C 5553   2.552   4.620  15.236 -0.1896 -0.7535 -0.4383
  371TMC3     O 5554   2.669   4.616  15.203 -0.0344  0.1850 -0.6549
  371TMC3     H 5555   2.289   4.658  15.286  2.2824 -1.2727  0.4229
  371TMC3    H1 5556   2.643   0.103  15.124  0.1305  2.3288 -0.3658
  371TMC3    H2 5557   2.276   0.331  15.142  1.0752 -0.7964 -1.3986
  371TMC3    C7 5558   2.506   0.332  15.040 -0.3257 -0.5844 -0.7643
  371TMC3    C8 5559   2.129   0.149  15.266  0.1241  0.3508  0.7130
  371TMC3    O1 5560   2.436   0.435  15.023  0.2298  0.0446  0.0580
  371TMC3    O2 5561   2.072   0.042  15.271 -1.2407 -0.2069 -0.2688
  372MPD2     C 5562   1.882   1.476  13.533 -0.2482 -0.2937  0.5240
  372MPD2    C1 5563   2.011   1.450  13.570  0.2694  0.4905  0.5896
  372MPD2    C2 5564   2.039   1.325  13.623 -0.3480  0.8573  0.3393
  372MPD2    C3 5565   1.948   1.221  13.641 -0.0293 -0.3469  0.4696
  372MPD2    C4 5566   1.819   1.245  13.613  0.4469  0.0183  0.8104
  372MPD2    C5 5567   1.786   1.373  13.558  0.0828  1.1599 -0.7647
  372MPD2     H 5568   2.142   1.310  13.653 -0.0509  0.3347 -0.9288
  372MPD2    H1 5569   1.738   1.178  13.641  0.5736  0.2340  1.7137
  372MPD2    H2 5570   1.859   1.570  13.484  0.4388  1.1402  2.9600
  372MPD2    H3 5571   1.682   1.393  13.531 -0.7522 -0.8673  1.0122
  372MPD2     N 5572   2.003   1.104  13.699  0.2538  0.2474  0.3853
  372MPD2    H5 5573   2.103   1.102  13.716  0.7874  1.3774 -2.5623
  372MPD2    N1 5574   2.123   1.534  13.553  0.0692  0.9186  0.4709
  372MPD2    H7 5575   2.209   1.506  13.598  0.3318 -0.4702 -0.8721
  373TMC3    C1 5576   2.015   0.895  13.784 -0.1244 -1.1119 -0.7934
  373TMC3    C2 5577   1.969   0.915  13.907 -0.0609  0.9480  0.1106
  373TMC3    C3 5578   2.042   0.850  14.007 -0.5233  0.5771  0.2077
  373TMC3    C4 5579   2.126   0.815  13.749 -1.2183 -0.2404  0.3253
  373TMC3    C5 5580   2.191   0.750  13.846 -0.6174  0.1595 -0.2092
  373TMC3    C6 5581   2.151   0.775  13.980  0.1545  0.4247  0.1288
  373TMC3     C 5582   1.941   0.982  13.694 -0.5440 -0.9371 -0.7415
  373TMC3     O 5583   1.824   0.954  13.677  0.2794 -0.1435 -0.2985
  373TMC3     H 5584   1.876   0.971  13.913  0.3202  1.4614  1.1104
  373TMC3    H1 5585   2.158   0.811  13.646 -0.0263 -0.0436  0.6823
  373TMC3    H2 5586   2.208   0.723  14.055  0.3617 -0.5816 -0.7225
  373TMC3    C7 5587   2.332   0.708  13.828  0.0155  0.3406 -0.2427
  373TMC3    C8 5588   2.038   0.894  14.148 -0.7215  0.1695  0.9293
  373TMC3    O1 5589   2.359   0.661  13.722  0.6308  0.7518 -0.0661
  373TMC3    O2 5590   2.106   0.830  14.225 -0.3507  0.7761  0.1862
  374TMC3    C1 5591   3.038   1.543  10.003 -0.3055  0.2958  0.5193
  374TMC3    C2 5592   3.128   1.644  10.028 -0.4243  0.8691 -0.3891
  374TMC3    C3 5593   3.173   1.723   9.922 -0.1379 -1.1725 -0.2690
  374TMC3    C4 5594   2.983   1.525   9.877  0.4560 -0.1556  0.3665
  374TMC3    C5 5595   3.015   1.621   9.786 -0.2535  0.2430 -0.1687
  374TMC3    C6 5596   3.113   1.714   9.804  0.0011  0.4859  0.4241
  374TMC3     C 5597   2.980   1.469  10.111  0.6564 -0.0045 -0.2371
  374TMC3     O 5598   2.920   1.368  10.080  0.4130 -0.1742  0.0781
  374TMC3     H 5599   3.165   1.665  10.128  0.8415 -0.2354 -0.6217
  374TMC3    H1 5600   2.919   1.440   9.857  1.8485 -1.2198  0.4323
  374TMC3    H2 5601   3.141   1.788   9.730 -1.3819  0.3367 -0.2496
  374TMC3    C7 5602   2.950   1.632   9.656  0.3072  0.2896  0.0272
  374TMC3    C8 5603   3.269   1.834   9.937  0.0131 -0.2425 -0.1276
  374TMC3    O1 5604   3.010   1.682   9.563 -0.5691 -0.3041  0.5987
  374TMC3    O2 5605   3.249   1.941   9.872 -0.3572 -0.1160 -0.5843
  375MPD2     C 5606   2.626   1.409  16.884 -0.2592  0.3278  0.3150
  375MPD2    C1 5607   2.574   1.523  16.823 -0.5904  0.4846  0.6785
  375MPD2    C2 5608   2.646   1.588  16.729  0.1799  0.9426 -0.0833
  375MPD2    C3 5609   2.784   1.558  16.713  0.4280  0.1719 -0.8772
  375MPD2    C4 5610   2.836   1.456  16.778  0.3137 -0.6609 -0.8103
  375MPD2    C5 5611   2.756   1.383  16.860 -0.1989 -0.2644  0.6114
  375MPD2     H 5612   2.589   1.668  16.684  0.4986  1.3839  0.2993
  375MPD2    H1 5613   2.942   1.434  16.767  0.7339  0.7665  0.4415
  375MPD2    H2 5614   2.572   1.364  16.967 -0.9412  1.0523  0.2636
  375MPD2    H3 5615   2.807   1.299  16.908 -0.7931 -0.8149  0.2838
  375MPD2     N 5616   2.869   1.636  16.635 -0.3877 -0.2258 -0.2203
  375MPD2    H5 5617   2.970   1.624  16.644 -0.4334 -0.1417  0.4118
  375MPD2    N1 5618   2.447   1.576  16.860 -0.1942 -0.0721 -0.7190
  375MPD2    H7 5619   2.411   1.652  16.803 -1.5071 -0.8929 -0.9790
  376TMC3    C1 5620   2.922   1.781  16.462 -0.0052  0.7259 -0.3238
  376TMC3    C2 5621   3.011   1.870  16.528 -0.0247 -0.1569  0.1144
  376TMC3    C3 5622   3.058   1.977  16.461  0.2055 -0.7096 -0.2738
  376TMC3    C4 5623   2.876   1.809  16.333 -0.9466 -0.4701  0.1282
  376TMC3    C5 5624   2.928   1.919  16.273 -0.7790 -0.1502 -1.0303
  376TMC3    C6 5625   3.014   2.005  16.333 -0.2300  0.3531 -0.5577
  376TMC3     C 5626   2.817   1.720  16.537  0.0904  0.1432 -0.1063
  376TMC3     O 5627   2.707   1.745  16.496  0.1137 -0.2184  0.4949
  376TMC3     H 5628   3.031   1.867  16.634  0.1878 -0.8124  0.0510
  376TMC3    H1 5629   2.801   1.748  16.285 -1.0416 -0.1528 -0.1229
  376TMC3    H2 5630   3.049   2.093  16.279  2.2983  0.0416  0.5862
  376TMC3    C7 5631   2.946   1.925  16.127 -0.5919  0.6951  0.4850
  376TMC3    C8 5632   3.193   2.025  16.484 -0.5059  0.1631  0.8910
  376TMC3    O1 5633   3.036   1.990  16.075  0.4665  0.2885  0.2952
  376TMC3    O2 5634   3.228   2.114  16.407  0.4731  0.9847  0.9108
  377MPD2     C 5635   1.160   1.898  12.258 -0.0027 -0.0884  0.0975
  377MPD2    C1 5636   1.198   1.808  12.355  0.5289 -0.3873  0.0145
  377MPD2    C2 5637   1.115   1.709  12.403  1.4942 -0.7190 -1.0126
  377MPD2    C3 5638   0.987   1.699  12.356 -0.0452  0.0827 -0.8374
  377MPD2    C4 5639   0.952   1.782  12.251  0.7785  0.7916  0.4379
  377MPD2    C5 5640   1.038   1.879  12.203  0.4245 -0.1558  0.1863
  377MPD2     H 5641   1.146   1.639  12.480  1.0468 -0.2313 -0.3896
  377MPD2    H1 5642   0.850   1.794  12.215  1.0318  0.1744 -0.4685
  377MPD2    H2 5643   1.224   1.969  12.208 -0.4285  0.4156  0.2652
  377MPD2    H3 5644   1.000   1.932  12.117  2.4522  1.8110  0.5289
  377MPD2     N 5645   0.891   1.613  12.407  0.2530 -0.8119 -0.1810
  377MPD2    H5 5646   0.798   1.616  12.368 -1.3330  1.9619  3.7176
  377MPD2    N1 5647   1.331   1.836  12.404  0.2591 -0.1367 -0.5978
  377MPD2    H7 5648   1.388   1.912  12.368 -0.9482  0.7546 -0.6343
  378TMC3    C1 5649   1.729   1.782  12.380  0.5864 -0.6560  0.3947
  378TMC3    C2 5650   1.597   1.826  12.390 -0.6173 -0.0292 -0.6019
  378TMC3    C3 5651   1.536   1.794  12.507 -0.4208  0.4029 -0.0193
  378TMC3    C4 5652   1.803   1.725  12.479 -0.5590 -0.4897  0.4313
  378TMC3    C5 5653   1.731   1.699  12.594  0.5528  0.2699 -0.0340
  378TMC3    C6 5654   1.599   1.728  12.608  0.5739  0.7943  1.1188
  378TMC3     C 5655   1.800   1.818  12.255 -0.6909 -0.3012  0.5003
  378TMC3     O 5656   1.726   1.863  12.169 -0.2748 -0.2499 -0.8865
  378TMC3     H 5657   1.548   1.872  12.305 -1.4271 -0.7068 -0.5003
  378TMC3    H1 5658   1.902   1.683  12.462  0.7484  2.6689  0.2803
  378TMC3    H2 5659   1.540   1.711  12.697  0.0709 -1.6510  0.3060
  378TMC3    C7 5660   1.805   1.632  12.698  0.4197  0.7839  0.1386
  378TMC3    C8 5661   1.397   1.758  12.496 -0.3498  0.0559  0.3906
  378TMC3    O1 5662   1.740   1.559  12.770  0.4139 -0.4229 -0.1957
  378TMC3    O2 5663   1.368   1.652  12.546  0.6287 -0.3843 -0.3456
  379MPD2     C 5664   1.303   4.533  16.444  0.3564 -0.6194  0.6739
  379MPD2    C1 5665   1.381   4.475  16.345  0.8222 -0.1582  0.0482
  379MPD2    C2 5666   1.476   4.377  16.371  0.2370  0.3453 -0.8394
  379MPD2    C3 5667   1.493   4.338  16.498  0.0054  0.1758  0.1513
  379MPD2    C4 5668   1.428   4.400  16.602 -0.7023  0.4743  0.1679
  379MPD2    C5 5669   1.335   4.498  16.572  0.0430  0.5135 -0.2641
  379MPD2     H 5670   1.545   4.352  16.291  3.3225  0.1463  1.8710
  379MPD2    H1 5671   1.441   4.378  16.707 -0.5034  2.6524  0.6001
  379MPD2    H2 5672   1.220   4.600  16.428  0.4037 -1.2260 -2.0105
  379MPD2    H3 5673   1.278   4.533  16.658 -1.8052  1.1874 -1.7743
  379MPD2     N 5674   1.591   4.251  16.546 -0.3712 -0.3718  0.0280
  379MPD2    H5 5675   1.603   4.242  16.647 -0.7540  2.9144  0.3441
  379MPD2    N1 5676   1.346   4.507  16.210  0.6378 -0.1482  0.4049
  379MPD2    H7 5677   1.263   4.565  16.201  0.6903  0.0318  1.0971
  380TMC3    C1 5678   1.344   4.491  15.970 -0.1911 -0.0684  0.5063
  380TMC3    C2 5679   1.424   4.448  15.863 -0.5073 -0.3352  0.1893
  380TMC3    C3 5680   1.354   4.418  15.750  0.0311  0.0162  0.1898
  380TMC3    C4 5681   1.202   4.495  15.962 -0.0551  1.0068  0.3374
  380TMC3    C5 5682   1.145   4.465  15.842 -0.6069 -0.0561 -1.0020
  380TMC3    C6 5683   1.216   4.419  15.734 -0.3068 -0.2144 -0.4372
  380TMC3     C 5684   1.407   4.463  16.096 -0.3783  0.4044  0.2445
  380TMC3     O 5685   1.499   4.386  16.082  0.1558  0.5482  0.4644
  380TMC3     H 5686   1.532   4.450  15.869 -0.5132 -1.0694  0.5063
  380TMC3    H1 5687   1.147   4.529  16.049 -0.3818 -1.1079  0.9639
  380TMC3    H2 5688   1.176   4.401  15.635 -0.3132 -1.0754 -0.2766
  380TMC3    C7 5689   0.995   4.445  15.847 -0.3790 -0.5842  0.1521
  380TMC3    C8 5690   1.421   4.357  15.642 -0.0966 -0.0855  0.5028
  380TMC3    O1 5691   0.943   4.519  15.927 -0.8074  0.2265 -0.0902
  380TMC3    O2 5692   1.385   4.387  15.531 -0.4159  0.8097  0.6129
  381TMC3    C1 5693   0.915   1.415  15.968 -0.4965  0.0108  0.1167
  381TMC3    C2 5694   1.050   1.419  15.944  0.1010  0.1931  0.0208
  381TMC3    C3 5695   1.141   1.407  16.044 -0.3044  0.1446 -0.2374
  381TMC3    C4 5696   0.868   1.384  16.092  0.2009  0.3528 -0.1215
  381TMC3    C5 5697   0.958   1.364  16.190 -0.2812  0.5590 -0.1147
  381TMC3    C6 5698   1.094   1.370  16.170 -0.6108 -0.7376 -0.4939
  381TMC3     C 5699   0.817   1.406  15.864 -0.2259  0.3262  0.3480
  381TMC3     O 5700   0.698   1.415  15.901  0.3352 -0.8410 -0.2415
  381TMC3     H 5701   1.081   1.439  15.842 -0.2457  2.4481  0.3532
  381TMC3    H1 5702   0.762   1.369  16.110  0.5535 -0.4521  1.3045
  381TMC3    H2 5703   1.168   1.350  16.247 -0.5307  4.2493  0.7567
  381TMC3    C7 5704   0.921   1.278  16.299  0.6767  0.0555 -0.0185
  381TMC3    C8 5705   1.276   1.387  15.998  0.3010 -0.0260  0.0688
  381TMC3    O1 5706   0.972   1.166  16.290  0.1604 -0.6532  0.0139
  381TMC3    O2 5707   1.282   1.334  15.887 -0.1181 -0.5482  0.0588
  382MPD2     C 5708   0.915   3.221  17.054  0.5357  0.0305  1.1373
  382MPD2    C1 5709   0.878   3.339  17.114  0.5917  0.5659  0.3089
  382MPD2    C2 5710   0.755   3.351  17.178 -0.2330 -0.2546  0.3495
  382MPD2    C3 5711   0.680   3.234  17.207 -0.1189 -0.3159 -0.4141
  382MPD2    C4 5712   0.725   3.114  17.156 -0.8362  0.1696 -0.5048
  382MPD2    C5 5713   0.842   3.107  17.082 -0.0095 -0.0822  0.4875
  382MPD2     H 5714   0.726   3.448  17.216 -1.2118 -1.4348  2.6178
  382MPD2    H1 5715   0.681   3.017  17.177  1.3494 -0.5267  0.8779
  382MPD2    H2 5716   1.007   3.205  17.000 -0.5510 -0.5983 -0.5289
  382MPD2    H3 5717   0.875   3.010  17.046  3.1874  1.5483 -1.0295
  382MPD2     N 5718   0.561   3.240  17.285 -0.1545 -0.9459 -0.4559
  382MPD2    H5 5719   0.506   3.155  17.294  0.0957 -1.0450  0.1377
  382MPD2    N1 5720   0.954   3.458  17.098 -1.0903  0.5426 -0.3265
  382MPD2    H7 5721   0.913   3.549  17.114  1.5302  1.5116  0.8450
  383TMC3    C1 5722   0.375   3.351  17.368 -0.9382 -0.0557  0.6728
  383TMC3    C2 5723   0.298   3.248  17.313  0.1157 -0.0337 -0.2976
  383TMC3    C3 5724   0.177   3.221  17.367 -0.7295  0.2612 -0.1458
  383TMC3    C4 5725   0.329   3.431  17.464  0.0625 -0.2662  0.3001
  383TMC3    C5 5726   0.197   3.410  17.505 -0.0168  0.5782 -0.3287
  383TMC3    C6 5727   0.118   3.313  17.457  0.0261  1.0239  0.5393
  383TMC3     C 5728   0.518   3.355  17.341 -0.4901  0.2787  0.2648
  383TMC3     O 5729   0.581   3.459  17.373  0.3011  0.3454 -0.1548
  383TMC3     H 5730   0.333   3.190  17.229  2.6709  2.8283 -1.2388
  383TMC3    H1 5731   0.386   3.518  17.494 -0.2785  0.9077 -2.3650
  383TMC3    H2 5732   0.017   3.285  17.488  0.1069 -0.6325 -0.6806
  383TMC3    C7 5733   0.129   3.510  17.577 -0.1341  0.7237  0.5183
  383TMC3    C8 5734   0.100   3.100  17.328 -0.7316  0.0340  0.1683
  383TMC3    O1 5735   0.177   3.620  17.579  0.0898  0.5044  0.1321
  383TMC3    O2 5736   4.702   3.098  17.353  0.2341  0.4390  0.2037
  384MPD2     C 5737   2.233   4.204  11.868  0.3944  1.1373  0.4472
  384MPD2    C1 5738   2.314   4.172  11.978  0.5622  0.1732  0.0123
  384MPD2    C2 5739   2.368   4.045  11.980 -0.0405  0.0048 -0.1902
  384MPD2    C3 5740   2.348   3.954  11.882  1.3605 -0.2279  0.2636
  384MPD2    C4 5741   2.276   3.986  11.771  0.5671 -0.3266 -0.1326
  384MPD2    C5 5742   2.226   4.113  11.762 -0.3649 -0.0211 -0.3978
  384MPD2     H 5743   2.434   4.004  12.055  0.0503 -0.1032 -0.3291
  384MPD2    H1 5744   2.243   3.913  11.699  0.5210 -1.2130  0.7845
  384MPD2    H2 5745   2.164   4.287  11.868 -0.4547  0.4434  0.7618
  384MPD2    H3 5746   2.165   4.134  11.675  0.5968  0.6843 -0.9016
  384MPD2     N 5747   2.410   3.823  11.901 -0.0517 -0.3649 -0.3659
  384MPD2    H5 5748   2.447   3.811  11.994  3.0978 -0.5651 -1.6680
  384MPD2    N1 5749   2.342   4.259  12.087 -0.6546  0.2936  0.0349
  384MPD2    H7 5750   2.406   4.220  12.156  1.2174 -0.7900 -2.3008
  385TMC3    C1 5751   2.478   3.607  11.871 -0.1214  0.5731 -0.0942
  385TMC3    C2 5752   2.376   3.513  11.872 -0.3044  0.4276 -0.0772
  385TMC3    C3 5753   2.361   3.447  11.997 -0.4512 -0.4824  0.3113
  385TMC3    C4 5754   2.565   3.617  11.974 -0.1187  0.6117  0.2973
  385TMC3    C5 5755   2.529   3.577  12.098 -0.3711 -0.3005  0.0071
  385TMC3    C6 5756   2.422   3.495  12.114 -0.0256  0.6976  0.4243
  385TMC3     C 5757   2.421   3.722  11.814 -0.1942 -0.1037 -0.1597
  385TMC3     O 5758   2.376   3.717  11.698 -0.1718 -0.6712  0.1577
  385TMC3     H 5759   2.297   3.519  11.799  0.2491 -1.3486 -0.8145
  385TMC3    H1 5760   2.652   3.681  11.970 -1.0849  1.8447 -1.0331
  385TMC3    H2 5761   2.378   3.469  12.209 -1.1278  1.6959  0.1950
  385TMC3    C7 5762   2.540   3.689  12.194  0.2364  0.0078  0.0395
  385TMC3    C8 5763   2.237   3.371  12.019  0.2982  0.3472 -0.4594
  385TMC3    O1 5764   2.554   3.796  12.141 -0.0412 -0.3987 -0.1231
  385TMC3    O2 5765   2.202   3.358  12.138  0.1001  0.0192  0.7178
  386TMC3    C1 5766   2.059   2.235  11.835  0.1162 -0.3589 -0.8726
  386TMC3    C2 5767   2.121   2.197  11.723 -0.0786 -0.3622  0.7418
  386TMC3    C3 5768   2.044   2.179  11.614  0.0142  0.7382 -0.3125
  386TMC3    C4 5769   1.924   2.268  11.840 -0.2174 -0.1600  0.0198
  386TMC3    C5 5770   1.850   2.248  11.725  0.7148  0.1214 -0.0889
  386TMC3    C6 5771   1.912   2.192  11.620  0.2935  0.2408  0.6290
  386TMC3     C 5772   2.129   2.233  11.965 -0.1798  0.0737 -1.0049
  386TMC3     O 5773   2.080   2.294  12.063  0.0192  0.2996  0.5875
  386TMC3     H 5774   2.230   2.197  11.720 -0.1178  1.4778 -0.4939
  386TMC3    H1 5775   1.878   2.317  11.925  1.1763  1.8382 -0.3683
  386TMC3    H2 5776   1.854   2.172  11.531 -0.9385  0.5947  1.3537
  386TMC3    C7 5777   1.706   2.234  11.721  0.1446  0.0117 -0.3361
  386TMC3    C8 5778   2.094   2.127  11.493 -0.0055  0.1130  0.4556
  386TMC3    O1 5779   1.655   2.185  11.816 -0.0946 -0.6603 -0.1125
  386TMC3    O2 5780   2.022   2.115  11.396 -0.1421 -0.1550  0.4093
  387MPD2     C 5781   0.603   1.706   9.588  0.2364 -0.6669  0.2792
  387MPD2    C1 5782   0.652   1.661   9.705 -0.9565  0.0456  1.0005
  387MPD2    C2 5783   0.687   1.528   9.719  0.3384 -0.3965 -0.4014
  387MPD2    C3 5784   0.641   1.433   9.635  0.9011  0.2447  0.4046
  387MPD2    C4 5785   0.591   1.473   9.513  0.1400 -0.1386  0.4668
  387MPD2    C5 5786   0.587   1.607   9.489 -0.1604 -0.2379 -0.4078
  387MPD2     H 5787   0.730   1.496   9.813  4.0478  1.8913 -1.3178
  387MPD2    H1 5788   0.563   1.408   9.431 -0.8682 -2.0840  2.3703
  387MPD2    H2 5789   0.575   1.809   9.568 -2.2414 -1.4599 -0.3342
  387MPD2    H3 5790   0.562   1.650   9.393  0.9275  0.2929 -0.4473
  387MPD2     N 5791   0.636   1.295   9.679 -0.0128  0.1953  0.1726
  387MPD2    H5 5792   0.670   1.283   9.774  1.0104 -0.6038 -0.3033
  387MPD2    N1 5793   0.690   1.748   9.815 -0.2958 -0.0099  0.2616
  387MPD2    H7 5794   0.722   1.690   9.891  0.4022  0.9590  0.7094
  388TMC3    C1 5795   0.670   1.932   9.960 -0.1057  0.0829 -0.1924
  388TMC3    C2 5796   0.639   2.063   9.981 -0.7823 -0.2732  0.0964
  388TMC3    C3 5797   0.580   2.096  10.101 -0.7753 -0.0949  0.1416
  388TMC3    C4 5798   0.637   1.835  10.052 -0.4960  0.4869 -0.2417
  388TMC3    C5 5799   0.569   1.876  10.163  0.0174  0.6920 -0.0712
  388TMC3    C6 5800   0.541   2.004  10.195 -0.4428 -0.2596  0.9510
  388TMC3     C 5801   0.673   1.887   9.824 -0.3698  0.3561  0.4389
  388TMC3     O 5802   0.657   1.972   9.736  0.4579 -0.4773 -0.2222
  388TMC3     H 5803   0.675   2.133   9.906 -1.9644  0.3828  0.1616
  388TMC3    H1 5804   0.671   1.732  10.053 -0.2610  0.5515 -1.6270
  388TMC3    H2 5805   0.484   2.018  10.286  1.8208  1.1680  2.1300
  388TMC3    C7 5806   0.504   1.769  10.238 -0.2898  0.1139  0.4371
  388TMC3    C8 5807   0.534   2.238  10.109 -0.4534 -0.3050  0.4195
  388TMC3    O1 5808   0.490   1.790  10.360 -0.0721  0.5350  0.0009
  388TMC3    O2 5809   0.527   2.306  10.007 -0.4561  0.2435  0.5872
  389MPD2     C 5810   3.707   4.281  10.527  0.0959  0.6599 -0.7956
  389MPD2    C1 5811   3.686   4.416  10.536  0.1056 -0.9203  0.0246
  389MPD2    C2 5812   3.636   4.457  10.652  0.0487 -0.2225 -0.3288
  389MPD2    C3 5813   3.604   4.372  10.758  0.6149 -0.4703  0.1742
  389MPD2    C4 5814   3.640   4.237  10.749 -0.4508 -0.0088  0.4583
  389MPD2    C5 5815   3.685   4.192  10.631  0.2437  0.4284 -0.1909
  389MPD2     H 5816   3.599   4.559  10.658  1.8038  0.4987 -1.6861
  389MPD2    H1 5817   3.621   4.167  10.830  1.5472 -2.2346 -0.9992
  389MPD2    H2 5818   3.749   4.240  10.435 -1.7459 -0.0832 -1.3054
  389MPD2    H3 5819   3.699   4.086  10.619  2.6902  0.7767 -0.3613
  389MPD2     N 5820   3.525   4.419  10.866  0.4466  0.1735  0.9286
  389MPD2    H5 5821   3.512   4.360  10.948  0.6507 -1.3196 -0.1039
  389MPD2    N1 5822   3.704   4.495  10.413 -0.4332 -0.4940 -0.0935
  389MPD2    H7 5823   3.744   4.449  10.332  0.3621  1.9905 -1.1029
  390TMC3    C1 5824   3.363   4.537  10.978 -0.2085  0.6810 -0.7483
  390TMC3    C2 5825   3.385   4.470  11.093 -0.0869 -0.1351 -0.1166
  390TMC3    C3 5826   3.307   4.500  11.197  0.1440  0.3782 -0.4168
  390TMC3    C4 5827   3.253   4.615  10.949  0.1772 -0.2098  0.1543
  390TMC3    C5 5828   3.156   4.621  11.053  0.3186  0.4109  0.3551
  390TMC3    C6 5829   3.200   4.593  11.183 -0.5814  0.4033  0.6592
  390TMC3     C 5830   3.465   4.538  10.875  0.0417  0.1719 -0.1284
  390TMC3     O 5831   3.475   4.646  10.812  0.0193  0.5443  0.4836
  390TMC3     H 5832   3.462   4.397  11.115  1.2830  1.4005  0.1333
  390TMC3    H1 5833   3.244   4.663  10.852 -0.1523 -1.4860 -0.4493
  390TMC3    H2 5834   3.128   4.621  11.258 -0.3756  2.4219  0.1013
  390TMC3    C7 5835   3.041   4.532  11.018 -0.3272 -0.0009  0.6459
  390TMC3    C8 5836   3.255   4.382  11.268 -0.4153 -0.7728 -0.3946
  390TMC3    O1 5837   3.044   4.464  10.916 -0.3493 -0.0790 -0.2293
  390TMC3    O2 5838   3.263   4.272  11.217  0.2189  0.3918  0.1019
  391MPD2     C 5839   3.541   1.436  11.286 -0.3623  0.4132 -0.3478
  391MPD2    C1 5840   3.624   1.547  11.290  0.1547 -0.6066  0.6589
  391MPD2    C2 5841   3.685   1.588  11.169  0.4812  0.3282  0.8244
  391MPD2    C3 5842   3.660   1.529  11.047  0.3979  0.2854  0.8127
  391MPD2    C4 5843   3.572   1.416  11.047  0.6226  0.0738 -0.1182
  391MPD2    C5 5844   3.523   1.367  11.169  0.4367  0.0688  0.8329
  391MPD2     H 5845   3.749   1.675  11.170 -0.1884  0.8481 -2.3592
  391MPD2    H1 5846   3.543   1.371  10.952 -0.1617 -0.9773  0.6210
  391MPD2    H2 5847   3.482   1.401  11.370 -1.9021  0.2925 -1.4737
  391MPD2    H3 5848   3.456   1.282  11.162  0.9814 -0.3547  0.7505
  391MPD2     N 5849   3.730   1.580  10.933 -0.0802  0.2623  0.0436
  391MPD2    H5 5850   3.787   1.660  10.955  0.5640  0.0279 -0.7739
  391MPD2    N1 5851   3.646   1.615  11.416  0.2855 -0.4131 -0.0502
  391MPD2    H7 5852   3.614   1.580  11.505 -0.5829  0.5287  0.0132
  392TMC3    C1 5853   3.820   1.601  10.720  0.2782  0.3338 -0.4736
  392TMC3    C2 5854   3.769   1.610  10.596  0.0932  0.2586  0.1437
  392TMC3    C3 5855   3.801   1.717  10.518 -0.0747  0.4890  0.1594
  392TMC3    C4 5856   3.902   1.699  10.770  0.1888 -0.0105  0.2264
  392TMC3    C5 5857   3.950   1.790  10.681  0.1132  0.6742  0.3069
  392TMC3    C6 5858   3.904   1.798  10.554  0.0742  0.6806  0.6354
  392TMC3     C 5859   3.745   1.521  10.809  0.0966 -0.7789  0.8183
  392TMC3     O 5860   3.677   1.427  10.761 -0.0665  0.3866  0.5191
  392TMC3     H 5861   3.699   1.535  10.562  2.5999 -1.9772 -0.0422
  392TMC3    H1 5862   3.943   1.689  10.870 -0.2029 -0.1178  0.3738
  392TMC3    H2 5863   3.922   1.890  10.500  0.9575 -0.7656 -1.5042
  392TMC3    C7 5864   4.068   1.869  10.722 -0.7135 -0.6264  0.4295
  392TMC3    C8 5865   3.737   1.726  10.381  0.2527  0.4665 -0.4885
  392TMC3    O1 5866   4.077   1.883  10.844  0.7674 -0.2622  0.6310
  392TMC3    O2 5867   3.661   1.638  10.343 -1.0240  0.1805 -0.4748
  393TMC3    C1 5868   2.379   4.044  10.462  0.4261  0.9743 -0.2156
  393TMC3    C2 5869   2.273   4.037  10.552  0.3727 -0.4083 -0.5927
  393TMC3    C3 5870   2.244   3.908  10.593  0.5879 -0.2468 -0.6719
  393TMC3    C4 5871   2.453   3.940  10.423  0.8394 -0.8827 -0.0183
  393TMC3    C5 5872   2.415   3.815  10.462 -0.4295 -0.0125 -0.0787
  393TMC3    C6 5873   2.311   3.795  10.550 -0.9150 -0.0346  0.1990
  393TMC3     C 5874   2.433   4.182  10.448  0.4007  0.4019  0.5259
  393TMC3     O 5875   2.381   4.277  10.507  0.1849  0.9723 -0.5409
  393TMC3     H 5876   2.215   4.123  10.584  0.7720 -0.7531  1.0650
  393TMC3    H1 5877   2.526   3.951  10.343  1.7625 -0.9748  0.8212
  393TMC3    H2 5878   2.278   3.695  10.579  1.5341 -1.0967 -0.6276
  393TMC3    C7 5879   2.490   3.692  10.434  0.0050  0.6018  0.1430
  393TMC3    C8 5880   2.127   3.884  10.666  0.2433 -0.1823 -0.0066
  393TMC3    O1 5881   2.451   3.590  10.489 -0.0414  0.1055  1.0956
  393TMC3    O2 5882   2.035   3.958  10.642 -0.1532  0.3076  0.0590
  394TMC3    C1 5883   3.706   4.680  10.280 -0.7425  0.1279 -1.0473
  394TMC3    C2 5884   3.669   4.590  10.180 -0.9246  0.1027  0.1503
  394TMC3    C3 5885   3.723   4.604  10.050  0.8302  0.5209 -0.5927
  394TMC3    C4 5886   3.792   0.056  10.254 -0.0024 -0.1494  0.1448
  394TMC3    C5 5887   3.833   0.067  10.122 -0.0818 -0.4044 -0.3419
  394TMC3    C6 5888   3.793   4.712  10.017 -0.4119 -0.4270  0.4772
  394TMC3     C 5889   3.708   4.634  10.416  0.6276 -0.6715 -0.4351
  394TMC3     O 5890   3.705   4.714  10.507  0.0355 -0.3547 -0.2976
  394TMC3     H 5891   3.603   4.507  10.201  0.0665 -1.0570 -1.2812
  394TMC3    H1 5892   3.841   0.107  10.336  2.6392 -0.6679 -1.1100
  394TMC3    H2 5893   3.835   0.004   9.918 -1.8599  0.0736 -0.0486
  394TMC3    C7 5894   3.969   0.121  10.103 -0.0332 -0.2127  0.3695
  394TMC3    C8 5895   3.693   4.502   9.949  0.1438 -0.6863 -0.0162
  394TMC3    O1 5896   4.013   0.191  10.191 -0.3687 -0.5948 -0.3993
  394TMC3    O2 5897   3.684   4.540   9.834  0.3271  0.2878  0.5093
  395TMC3    C1 5898   4.207   1.910  14.501 -0.0994 -0.2677  0.7710
  395TMC3    C2 5899   4.088   1.929  14.440 -0.3602 -0.1845  0.2804
  395TMC3    C3 5900   4.076   2.034  14.356  0.1603 -0.3058 -0.7870
  395TMC3    C4 5901   4.313   2.002  14.498  0.7230  0.6111  0.2413
  395TMC3    C5 5902   4.290   2.113  14.423 -0.3734 -0.2844 -0.3477
  395TMC3    C6 5903   4.169   2.138  14.355 -0.9259 -0.0609 -0.3511
  395TMC3     C 5904   4.195   1.832  14.624  0.0069 -0.5996  0.2010
  395TMC3     O 5905   4.292   1.766  14.658  0.5013 -0.1760  0.2794
  395TMC3     H 5906   4.004   1.862  14.456  0.4622 -1.5471 -1.1074
  395TMC3    H1 5907   4.407   1.994  14.552  0.1216  1.2550  1.3860
  395TMC3    H2 5908   4.137   2.221  14.294 -1.0798  0.0156 -0.1672
  395TMC3    C7 5909   4.388   2.217  14.440 -0.0504  0.0223 -0.7038
  395TMC3    C8 5910   3.944   2.061  14.304 -0.6921  0.5614 -0.2924
  395TMC3    O1 5911   4.505   2.188  14.463  0.6055  0.7518  0.0441
  395TMC3    O2 5912   3.911   2.175  14.274 -0.3724  0.5357 -0.4261
  396MPD2     C 5913   3.252   2.946  16.835  0.6624 -0.0251  0.7425
  396MPD2    C1 5914   3.311   3.040  16.917  0.1143 -0.7179  0.6805
  396MPD2    C2 5915   3.375   3.145  16.849  0.2241  0.0148  0.0506
  396MPD2    C3 5916   3.389   3.150  16.713  0.1423  0.2684  0.3830
  396MPD2    C4 5917   3.320   3.055  16.639  0.1914  0.1177 -0.0831
  396MPD2    C5 5918   3.260   2.950  16.698 -1.0485 -0.2319  0.3620
  396MPD2     H 5919   3.404   3.229  16.910  1.3352  0.4342 -1.0606
  396MPD2    H1 5920   3.324   3.066  16.532  1.1925 -2.9218 -0.3699
  396MPD2    H2 5921   3.203   2.861  16.881  1.9390 -1.4628 -0.6062
  396MPD2    H3 5922   3.212   2.872  16.639 -0.4979  0.3682 -0.8753
  396MPD2     N 5923   3.462   3.264  16.673 -0.1326 -0.3472 -0.0011
  396MPD2    H5 5924   3.506   3.323  16.743 -1.5687  1.5219 -0.6663
  396MPD2    N1 5925   3.296   3.013  17.052  0.2055 -0.3843 -0.8425
  396MPD2    H7 5926   3.243   2.930  17.077  0.8029 -0.6388 -0.4022
  397TMC3    C1 5927   3.315   3.052  17.277 -0.0581 -0.9066  0.1214
  397TMC3    C2 5928   3.432   3.031  17.341 -0.2332 -0.8699  0.0114
  397TMC3    C3 5929   3.460   2.903  17.378 -0.2902 -0.4338  0.9494
  397TMC3    C4 5930   3.213   2.963  17.272 -0.1872  0.0645 -0.0323
  397TMC3    C5 5931   3.243   2.841  17.333 -0.3050 -1.1112  0.2062
  397TMC3    C6 5932   3.364   2.805  17.382 -0.2207 -0.1052 -0.2680
  397TMC3     C 5933   3.349   3.103  17.145 -0.1132  0.4388 -0.2057
  397TMC3     O 5934   3.438   3.187  17.132  0.1303  0.2209  0.0376
  397TMC3     H 5935   3.512   3.102  17.322  0.3206 -1.6481 -0.5414
  397TMC3    H1 5936   3.111   2.997  17.256  0.1843  2.1543  2.0588
  397TMC3    H2 5937   3.396   2.706  17.411 -1.1382 -0.2910  0.1149
  397TMC3    C7 5938   3.155   2.736  17.286 -0.1499  0.5644  0.0832
  397TMC3    C8 5939   3.577   2.856  17.302 -0.4586 -0.1767 -0.3091
  397TMC3    O1 5940   3.090   2.752  17.183 -0.5245 -0.5282  0.2188
  397TMC3    O2 5941   3.565   2.755  17.235 -0.0041 -0.3896  0.0618
  398MPD2     C 5942   1.759   3.819   0.187 -0.0801 -0.0227  0.2279
  398MPD2    C1 5943   1.844   3.709   0.215 -0.4379  0.0422 -0.2221
  398MPD2    C2 5944   1.982   3.729   0.224  0.4506 -0.4257 -0.1637
  398MPD2    C3 5945   2.033   3.859   0.213 -0.3162  0.9514  0.5773
  398MPD2    C4 5946   1.947   3.966   0.191  0.3619  0.4580  0.2405
  398MPD2    C5 5947   1.815   3.941   0.174  0.8241  0.1635  0.1398
  398MPD2     H 5948   2.047   3.647   0.253 -1.4720 -1.3456  1.5317
  398MPD2    H1 5949   1.977   4.067   0.166  1.1986  0.7222  2.2410
  398MPD2    H2 5950   1.652   3.815   0.171 -0.0833 -4.5815  1.4429
  398MPD2    H3 5951   1.746   4.023   0.154  0.7421 -0.0754 -0.5865
  398MPD2     N 5952   2.178   3.871   0.206 -0.5660  0.1239  0.5514
  398MPD2    H5 5953   2.242   3.794   0.226 -1.5019 -1.3400 -2.0188
  398MPD2    N1 5954   1.791   3.574   0.226  0.2138  0.9405  0.1104
  398MPD2    H7 5955   1.848   3.493   0.251 -0.0941 -0.2401 -3.0046
  399TMC3    C1 5956   1.640   3.398   0.192  0.4467  0.3695  0.8486
  399TMC3    C2 5957   1.685   3.323   0.298  0.0140  0.0247 -0.1402
  399TMC3    C3 5958   1.613   3.210   0.337  0.0676  0.1408  0.3671
  399TMC3    C4 5959   1.532   3.361   0.127  0.2495 -0.0042  0.0494
  399TMC3    C5 5960   1.460   3.251   0.167 -0.4405  0.2901  0.4252
  399TMC3    C6 5961   1.497   3.176   0.276 -0.6789 -0.5814 -0.2737
  399TMC3     C 5962   1.677   3.536   0.167  0.0626 -0.5937  0.1048
  399TMC3     O 5963   1.602   3.589   0.084  0.7494 -0.6778 -0.3209
  399TMC3     H 5964   1.779   3.348   0.345  0.2123  0.4943 -0.7899
  399TMC3    H1 5965   1.501   3.417   0.040 -0.7326  0.1716  0.5118
  399TMC3    H2 5966   1.436   3.090   0.299 -1.0370 -0.2510  0.0034
  399TMC3    C7 5967   1.327   3.223   0.122 -0.2018 -0.4405 -0.2777
  399TMC3    C8 5968   1.680   3.120   0.433  0.1814  0.3949 -0.2555
  399TMC3    O1 5969   1.266   3.122   0.156 -0.5295 -0.2195 -0.1177
  399TMC3    O2 5970   1.805   3.117   0.434  0.4554 -0.2141  0.9385
  400TMC3    C1 5971   0.395   2.767  16.947 -0.8395 -0.0454  0.5176
  400TMC3    C2 5972   0.280   2.727  16.891  0.4870 -0.4492 -0.8459
  400TMC3    C3 5973   0.208   2.835  16.845 -0.0791 -0.0471  0.4895
  400TMC3    C4 5974   0.441   2.898  16.958 -0.8143 -0.1588  0.4481
  400TMC3    C5 5975   0.359   2.994  16.910  0.0818  0.5100  0.8735
  400TMC3    C6 5976   0.240   2.965  16.857  0.4440 -0.2645 -0.2605
  400TMC3     C 5977   0.471   2.670  17.023 -0.8571  0.3750  0.3671
  400TMC3     O 5978   0.413   2.563  17.046  0.3824 -0.3613 -0.5750
  400TMC3     H 5979   0.251   2.622  16.889  1.5755 -0.7972  0.9076
  400TMC3    H1 5980   0.530   2.933  17.009 -0.6139 -0.9298  0.6173
  400TMC3    H2 5981   0.180   3.051  16.826 -1.2305 -0.6086  2.0806
  400TMC3    C7 5982   0.414   3.128  16.907 -0.3993 -0.1830  0.5933
  400TMC3    C8 5983   0.084   2.817  16.774 -0.5860  0.3109  0.0038
  400TMC3    O1 5984   0.535   3.143  16.878  0.6434 -0.4002  0.0212
  400TMC3    O2 5985   0.036   2.917  16.719 -0.0374 -0.1377 -0.3080
  401MPD2     C 5986   2.985   0.952   0.845  0.3910  0.4230  0.7514
  401MPD2    C1 5987   3.106   0.954   0.914 -0.0673  0.2519 -0.0717
  401MPD2    C2 5988   3.186   0.843   0.908 -0.3460 -1.0565  0.6109
  401MPD2    C3 5989   3.146   0.735   0.835 -0.9214 -0.4911  0.5205
  401MPD2    C4 5990   3.020   0.733   0.771 -0.8097 -0.1221 -0.3484
  401MPD2    C5 5991   2.943   0.845   0.779  1.0799 -0.2788  0.1020
  401MPD2     H 5992   3.280   0.841   0.962 -0.9192  1.7125  1.7000
  401MPD2    H1 5993   2.980   0.645   0.723 -0.6818  0.8560 -2.2387
  401MPD2    H2 5994   2.913   1.033   0.838  1.7552  1.5473 -0.4322
  401MPD2    H3 5995   2.857   0.848   0.713 -0.0249  0.1039  1.5570
  401MPD2     N 5996   3.230   0.624   0.839 -0.1830 -0.4202  0.4204
  401MPD2    H5 5997   3.314   0.635   0.895  0.0927 -1.1584  0.1517
  401MPD2    N1 5998   3.165   1.063   0.984 -0.2436  0.3304  0.1698
  401MPD2    H7 5999   3.240   1.049   1.050 -0.9443 -0.0156  0.8932
  402TMC3    C1 6000   3.340   0.427   0.792  0.1127  0.1584 -0.0551
  402TMC3    C2 6001   3.415   0.456   0.898 -0.5694  0.4355 -0.0448
  402TMC3    C3 6002   3.542   0.402   0.884  0.5415  0.1895 -0.5266
  402TMC3    C4 6003   3.380   0.375   0.672  0.2187 -0.4710  0.4519
  402TMC3    C5 6004   3.501   0.317   0.670  0.0484  0.0732 -0.4800
  402TMC3    C6 6005   3.589   0.331   0.777 -0.0226 -0.0725  0.5118
  402TMC3     C 6006   3.221   0.507   0.775 -0.2696 -0.3811 -0.8505
  402TMC3     O 6007   3.132   0.468   0.696 -0.0472 -0.2738 -0.0110
  402TMC3     H 6008   3.382   0.496   0.993 -0.8922  1.0488 -0.4169
  402TMC3    H1 6009   3.314   0.366   0.587  1.0939 -0.3718 -0.2404
  402TMC3    H2 6010   3.674   0.267   0.799 -2.8099 -1.3584  7.3067
  402TMC3    C7 6011   3.509   0.183   0.600  0.3353 -0.3629  0.0467
  402TMC3    C8 6012   3.622   0.393   1.009  0.0350 -0.2910  0.8617
  402TMC3    O1 6013   3.409   0.135   0.548  0.0552  0.3196  0.1181
  402TMC3    O2 6014   3.737   0.351   0.997  0.5161  0.0241 -0.1032
  403MPD2     C 6015   1.839   4.362  13.351  0.0581 -0.2814 -0.5615
  403MPD2    C1 6016   1.887   4.239  13.394  0.4086 -0.0071 -0.0229
  403MPD2    C2 6017   1.997   4.233  13.475 -0.4618  0.1020 -0.3858
  403MPD2    C3 6018   2.049   4.344  13.544 -0.3510 -0.0322  0.3567
  403MPD2    C4 6019   1.998   4.464  13.506 -0.0149 -0.4731 -0.4365
  403MPD2    C5 6020   1.893   4.471  13.419 -0.3589 -0.3027  0.1042
  403MPD2     H 6021   2.046   4.139  13.497  2.4937  2.4365  3.0840
  403MPD2    H1 6022   2.046   4.554  13.543 -0.8543  0.3128 -1.2713
  403MPD2    H2 6023   1.756   4.375  13.283  0.2304 -1.9604 -1.0684
  403MPD2    H3 6024   1.852   4.567  13.390  0.2044 -0.9137 -2.6370
  403MPD2     N 6025   2.166   4.330  13.624 -0.0159 -0.0850  0.3887
  403MPD2    H5 6026   2.214   4.242  13.637  1.2745  0.7248  1.1513
  403MPD2    N1 6027   1.820   4.126  13.338  0.2765 -0.1255  0.9255
  403MPD2    H7 6028   1.768   4.152  13.255  0.0080 -0.8872  0.8475
  404TMC3    C1 6029   1.750   3.915  13.303  0.5691  0.1045  0.3124
  404TMC3    C2 6030   1.658   3.838  13.372  0.5990 -0.0405  0.1415
  404TMC3    C3 6031   1.621   3.726  13.313 -0.1554 -0.6047  1.1294
  404TMC3    C4 6032   1.777   3.888  13.171 -0.2543 -0.5140 -0.2377
  404TMC3    C5 6033   1.720   3.779  13.113 -0.1204 -0.2655  0.7702
  404TMC3    C6 6034   1.643   3.696  13.184 -0.0290  0.4981 -0.1375
  404TMC3     C 6035   1.842   3.997  13.374 -0.2029  0.3223  0.3377
  404TMC3     O 6036   1.921   3.947  13.454 -0.0749 -0.6101  0.3192
  404TMC3     H 6037   1.647   3.866  13.477 -0.4916 -0.7363  0.2059
  404TMC3    H1 6038   1.846   3.946  13.111  0.4052 -1.3504 -0.2752
  404TMC3    H2 6039   1.611   3.599  13.148  0.6591  0.8778 -1.7391
  404TMC3    C7 6040   1.767   3.741  12.985 -0.3885 -0.4329  0.1046
  404TMC3    C8 6041   1.633   3.612  13.397  0.0481  0.4270  0.7091
  404TMC3    O1 6042   1.880   3.775  12.948 -0.2994  0.1967 -0.1271
  404TMC3    O2 6043   1.687   3.512  13.357 -0.0576  0.0372 -0.9246
  405MPD2     C 6044   2.297   4.514  14.303 -0.1112  0.1862 -0.7412
  405MPD2    C1 6045   2.241   4.452  14.189 -0.8000 -0.1219  0.3616
  405MPD2    C2 6046   2.190   4.534  14.089 -0.0977 -0.0864  0.6717
  405MPD2    C3 6047   2.189   4.671  14.099 -0.2149  0.0968  0.0286
  405MPD2    C4 6048   2.251   0.004  14.206 -0.2215 -0.0254  0.4781
  405MPD2    C5 6049   2.296   4.644  14.305  0.1032 -0.4168  1.2414
  405MPD2     H 6050   2.149   4.496  13.996  1.2628 -2.5602  1.0627
  405MPD2    H1 6051   2.270   0.110  14.206 -0.3161 -0.0086  0.2845
  405MPD2    H2 6052   2.342   4.458  14.384  1.1575 -0.1759 -1.6907
  405MPD2    H3 6053   2.353   4.691  14.384  2.3765 -0.4848 -0.3861
  405MPD2     N 6054   2.137   0.016  13.990  0.0156  0.3178  0.4211
  405MPD2    H5 6055   2.115   4.686  13.907  2.3548 -0.2989  0.1862
  405MPD2    N1 6056   2.219   4.317  14.180 -0.0807 -0.1731 -0.2493
  405MPD2    H7 6057   2.189   4.286  14.088 -1.3303 -0.2316  0.1723
  406TMC3    C1 6058   1.876   0.336  13.776  0.4853 -1.1891 -0.1970
  406TMC3    C2 6059   1.839   0.231  13.693 -0.4534  0.1063 -0.0232
  406TMC3    C3 6060   1.903   0.110  13.698 -0.2751  0.8707  0.0307
  406TMC3    C4 6061   1.995   0.315  13.849 -0.1587 -0.2368 -0.2782
  406TMC3    C5 6062   2.059   0.191  13.852 -0.0405 -0.0323 -0.8379
  406TMC3    C6 6063   2.014   0.092  13.768  0.3528 -0.1722  0.3012
  406TMC3     C 6064   1.775   0.418  13.838  0.2901 -0.5462  0.0226
  406TMC3     O 6065   1.805   0.508  13.914  0.1972  0.3279 -0.1643
  406TMC3     H 6066   1.747   0.237  13.636 -1.2771  2.1320  1.5128
  406TMC3    H1 6067   2.032   0.390  13.918 -0.2557  1.6805 -2.3459
  406TMC3    H2 6068   2.067   4.722  13.771  2.0078  0.7533  0.0351
  406TMC3    C7 6069   2.134   0.157  13.975 -0.4375  0.1412  0.8829
  406TMC3    C8 6070   1.810   0.006  13.722 -0.4439 -0.7796  0.4713
  406TMC3    O1 6071   2.182   0.240  14.047  0.3469  0.2889 -0.3728
  406TMC3    O2 6072   1.696   0.037  13.746  0.2760 -0.2796 -0.2222
  407MPD2     C 6073   0.163   1.398   9.271  0.4919 -0.1111 -0.0076
  407MPD2    C1 6074   0.251   1.341   9.360  0.0381 -0.1096  0.5344
  407MPD2    C2 6075   0.236   1.361   9.495  0.5124  0.0082  0.3725
  407MPD2    C3 6076   0.135   1.438   9.545  0.1971  0.2378  0.0455
  407MPD2    C4 6077   0.046   1.500   9.457 -0.7453 -0.2731 -0.3966
  407MPD2    C5 6078   0.063   1.486   9.322 -0.5156 -0.7183 -0.1822
  407MPD2     H 6079   0.315   1.329   9.562 -0.8369  0.2787  2.0773
  407MPD2    H1 6080   4.692   1.556   9.506  0.4676  1.0980 -0.0046
  407MPD2    H2 6081   0.174   1.387   9.164  0.7910  1.5513 -0.1339
  407MPD2    H3 6082   4.723   1.552   9.264 -0.7681 -1.6302 -0.9370
  407MPD2     N 6083   0.117   1.458   9.685  0.7300 -0.5511 -0.1218
  407MPD2    H5 6084   0.036   1.515   9.709  1.9375  0.2834  1.8930
  407MPD2    N1 6085   0.353   1.255   9.309 -0.4780  0.2458  0.5683
  407MPD2    H7 6086   0.408   1.206   9.379 -0.3220  0.6473  0.7276
  408TMC3    C1 6087   0.531   1.177   9.176 -0.5114  0.0738  0.9185
  408TMC3    C2 6088   0.517   1.051   9.225  0.0877 -0.5700  0.4952
  408TMC3    C3 6089   0.622   0.964   9.207 -0.1374  0.4618  0.6293
  408TMC3    C4 6090   0.644   1.217   9.111  0.2087  0.3970 -0.4791
  408TMC3    C5 6091   0.747   1.132   9.105  0.7822 -0.2752  0.2523
  408TMC3    C6 6092   0.745   1.011   9.162  0.2471  0.6454 -0.3404
  408TMC3     C 6093   0.411   1.259   9.185 -0.0600 -1.0298 -0.2413
  408TMC3     O 6094   0.393   1.344   9.091  0.5458 -0.3967  0.1971
  408TMC3     H 6095   0.422   1.017   9.265 -0.8676  2.5786  0.8447
  408TMC3    H1 6096   0.641   1.314   9.063 -2.1316  1.0385  0.9587
  408TMC3    H2 6097   0.822   0.936   9.143 -0.8610 -0.0754 -1.9800
  408TMC3    C7 6098   0.879   1.190   9.092  0.0748  0.4018  0.0755
  408TMC3    C8 6099   0.627   0.856   9.298 -0.0446 -0.6155 -0.7021
  408TMC3    O1 6100   0.899   1.303   9.129  0.0744 -0.4665 -0.3514
  408TMC3    O2 6101   0.559   0.758   9.271  0.1039  0.1385  0.4978
  409MPD2     C 6102   3.913   2.082  16.874 -1.0165 -0.0568  0.1176
  409MPD2    C1 6103   3.947   2.130  17.000 -0.2265  0.2863 -0.4592
  409MPD2    C2 6104   3.998   2.260  17.011  0.4748  0.2887  0.2132
  409MPD2    C3 6105   4.014   2.346  16.901 -0.9063  0.1068  0.2428
  409MPD2    C4 6106   3.973   2.294  16.784  1.0547  0.0730 -0.2746
  409MPD2    C5 6107   3.926   2.165  16.764 -0.0697 -1.2135 -0.1145
  409MPD2     H 6108   4.018   2.299  17.110 -0.3487 -2.3481  1.4022
  409MPD2    H1 6109   3.989   2.350  16.692 -0.1837  0.9964  0.0689
  409MPD2    H2 6110   3.893   1.978  16.849  0.1881  0.2723 -2.2254
  409MPD2    H3 6111   3.925   2.115  16.668 -0.0539 -1.5552  0.0622
  409MPD2     N 6112   4.067   2.475  16.914 -0.2749 -0.6504 -0.5128
  409MPD2    H5 6113   4.054   2.532  16.832  2.2234  0.7530  0.0708
  409MPD2    N1 6114   3.940   2.050  17.116  0.0436 -0.3923 -0.4111
  409MPD2    H7 6115   3.997   2.087  17.191 -1.5142 -0.1341  0.6558
  410TMC3    C1 6116   4.123   2.681  17.027 -0.3035 -0.0586  0.0693
  410TMC3    C2 6117   4.244   2.718  17.072 -0.8525 -0.1201 -0.5812
  410TMC3    C3 6118   4.310   2.824  17.014 -0.1100  0.4065  0.6396
  410TMC3    C4 6119   4.073   2.740  16.913  0.6427 -0.1272 -0.0109
  410TMC3    C5 6120   4.132   2.850  16.860 -0.3754  0.1663 -0.9229
  410TMC3    C6 6121   4.251   2.900  16.916 -0.1673 -0.4704  0.5543
  410TMC3     C 6122   4.104   2.535  17.032 -0.0391 -0.4550 -0.2874
  410TMC3     O 6123   4.116   2.482  17.143 -0.3263 -0.7160  0.1545
  410TMC3     H 6124   4.292   2.660  17.150 -0.6135  0.7234 -0.0996
  410TMC3    H1 6125   3.989   2.695  16.862  2.2320  0.0124 -2.7863
  410TMC3    H2 6126   4.314   2.977  16.872  0.7924 -1.5909 -0.0228
  410TMC3    C7 6127   4.102   2.861  16.719  0.2670  0.3313 -0.0325
  410TMC3    C8 6128   4.441   2.864  17.049  0.7621 -0.6323 -0.0903
  410TMC3    O1 6129   4.064   2.756  16.669 -0.3426 -0.1947  0.0954
  410TMC3    O2 6130   4.465   2.984  17.039 -0.2490 -0.3768  0.8428
  411MPD2     C 6131   4.508   3.636  14.587 -0.4304 -0.4352 -0.3985
  411MPD2    C1 6132   4.454   3.552  14.500 -0.6255 -0.1995  0.2170
  411MPD2    C2 6133   4.522   3.527  14.380 -0.2679  0.5683 -0.3046
  411MPD2    C3 6134   4.653   3.572  14.364 -0.3556  0.3251 -0.3416
  411MPD2    C4 6135   4.709   3.646  14.462 -0.1430 -0.0317  0.2307
  411MPD2    C5 6136   4.635   3.682  14.565 -0.0595 -0.5719 -0.7752
  411MPD2     H 6137   4.479   3.459  14.308  0.6172 -2.2907  1.8530
  411MPD2    H1 6138   0.076   3.701  14.444 -0.6590  1.1298  1.1531
  411MPD2    H2 6139   4.448   3.660  14.674  1.9834  0.3219  1.0225
  411MPD2    H3 6140   4.673   3.744  14.645 -0.4081  0.1047 -1.1300
  411MPD2     N 6141   4.710   3.558  14.239 -0.8624  0.4320 -0.8562
  411MPD2    H5 6142   0.086   3.542  14.244 -1.1576 -1.2549 -0.3560
  411MPD2    N1 6143   4.327   3.512  14.528  0.0880  0.1209  0.6394
  411MPD2    H7 6144   4.286   3.532  14.619 -0.8636  2.3997 -0.2977
  412TMC3    C1 6145   4.713   3.518  13.997  0.5760 -0.3884 -0.2134
  412TMC3    C2 6146   0.095   3.437  13.996  0.3898  0.5774  0.1314
  412TMC3    C3 6147   0.124   3.362  13.882  0.2537 -0.2056 -0.4873
  412TMC3    C4 6148   4.634   3.518  13.885 -0.6598  0.6065 -0.9457
  412TMC3    C5 6149   4.671   3.456  13.768  0.4474  0.3437 -0.2533
  412TMC3    C6 6150   0.059   3.386  13.763  0.4591  0.3668  0.2632
  412TMC3     C 6151   4.640   3.570  14.118 -0.4163 -0.2682  0.0584
  412TMC3     O 6152   4.518   3.601  14.106 -0.2682  0.2025 -0.2008
  412TMC3     H 6153   0.164   3.424  14.079  1.4907  1.2352 -0.6858
  412TMC3    H1 6154   4.534   3.560  13.890 -0.7136  0.3325  0.2109
  412TMC3    H2 6155   0.084   3.331  13.672 -0.8714 -0.2098  0.2601
  412TMC3    C7 6156   4.566   3.369  13.712 -0.0797 -0.1667  0.2001
  412TMC3    C8 6157   0.164   3.226  13.904 -0.1893 -0.6340  0.0209
  412TMC3    O1 6158   4.602   3.251  13.701  0.3208  0.4037 -0.3713
  412TMC3    O2 6159   0.214   3.206  14.015 -0.6251  0.1483  0.3328
  413MPD2     C 6160   0.904   0.486  15.176  0.4814  1.2334 -0.5705
  413MPD2    C1 6161   0.932   0.576  15.080  0.1557 -0.3372 -0.0482
  413MPD2    C2 6162   1.046   0.557  15.006 -0.1494 -0.5658 -1.0597
  413MPD2    C3 6163   1.128   0.446  15.031  0.5223 -0.5388 -0.1036
  413MPD2    C4 6164   1.088   0.349  15.122 -0.0345  0.5216 -0.5501
  413MPD2    C5 6165   0.973   0.372  15.190 -0.6142  0.2005  0.1668
  413MPD2     H 6166   1.077   0.626  14.928  2.0102 -0.4407 -0.0919
  413MPD2    H1 6167   1.148   0.263  15.149 -1.3803 -0.0616  0.5963
  413MPD2    H2 6168   0.826   0.504  15.249  2.9295 -0.0989  2.3885
  413MPD2    H3 6169   0.947   0.301  15.267  2.8471  0.2057  1.3473
  413MPD2     N 6170   1.240   0.435  14.948 -0.5967 -0.8092  0.1156
  413MPD2    H5 6171   1.249   0.497  14.868  0.0749 -1.6475 -0.4564
  413MPD2    N1 6172   0.839   0.678  15.059  0.5212 -0.2529 -0.3061
  413MPD2    H7 6173   0.756   0.675  15.118 -1.5327 -0.8870 -3.2043
  414TMC3    C1 6174   1.451   0.331  14.881 -0.3175  0.1798 -0.5188
  414TMC3    C2 6175   1.508   0.209  14.884 -0.2818 -0.1887  0.5668
  414TMC3    C3 6176   1.547   0.144  14.767 -0.6911  1.0260 -0.0608
  414TMC3    C4 6177   1.435   0.397  14.761  0.2305 -0.3273 -1.0856
  414TMC3    C5 6178   1.464   0.330  14.643  0.6840 -0.0870  0.3426
  414TMC3    C6 6179   1.520   0.208  14.649 -0.3719 -0.3159  0.1552
  414TMC3     C 6180   1.344   0.356  14.984  0.2003 -0.2333  0.5214
  414TMC3     O 6181   1.354   0.289  15.085 -0.2180 -0.4263  0.2812
  414TMC3     H 6182   1.525   0.152  14.975  2.2735 -0.5450 -0.1431
  414TMC3    H1 6183   1.382   0.492  14.757 -3.0402 -1.9684  2.6752
  414TMC3    H2 6184   1.526   0.155  14.554  2.4906 -0.6046  0.4942
  414TMC3    C7 6185   1.390   0.373  14.518 -0.2378  0.4597 -0.1420
  414TMC3    C8 6186   1.662   0.063  14.774  0.1708  0.2374  0.7385
  414TMC3    O1 6187   1.282   0.426  14.543 -0.6648 -0.1101  0.8451
  414TMC3    O2 6188   1.671   4.722  14.875  0.0254 -0.3329  0.1102
  415TMC3    C1 6189   1.299   3.853  10.318  0.3586 -0.7116 -0.6172
  415TMC3    C2 6190   1.364   3.951  10.247  0.0441  0.1505 -0.6661
  415TMC3    C3 6191   1.309   3.992  10.128 -0.1183 -0.3676  0.5675
  415TMC3    C4 6192   1.176   3.807  10.286  0.3026 -0.6077  0.0035
  415TMC3    C5 6193   1.121   3.860  10.167 -0.0167  0.1851 -0.5587
  415TMC3    C6 6194   1.185   3.953  10.086 -0.6380  0.2529  0.1517
  415TMC3     C 6195   1.371   3.772  10.417  0.6863 -0.4940  0.1323
  415TMC3     O 6196   1.315   3.675  10.459 -0.2081  0.0755 -0.3568
  415TMC3     H 6197   1.459   4.001  10.266 -0.7051  1.2614  0.1898
  415TMC3    H1 6198   1.132   3.725  10.342  0.8069 -0.1584  1.0711
  415TMC3    H2 6199   1.160   3.971   9.982 -3.0938  0.0347  0.7196
  415TMC3    C7 6200   1.020   3.785  10.098  0.4929  0.4730 -0.5020
  415TMC3    C8 6201   1.388   4.064  10.034  0.5262 -0.4828 -0.3192
  415TMC3    O1 6202   1.003   3.810   9.976  0.2399  0.0586  0.0716
  415TMC3    O2 6203   1.332   4.153   9.974 -0.4636  0.9540  0.4605
  416MPD2     C 6204   3.756   2.584  11.549 -0.8034 -0.1306 -0.2302
  416MPD2    C1 6205   3.625   2.580  11.516 -0.7136 -0.6826 -0.5987
  416MPD2    C2 6206   3.590   2.477  11.429  0.3741 -0.0303  0.3317
  416MPD2    C3 6207   3.681   2.381  11.382 -0.1854  0.1925 -0.5286
  416MPD2    C4 6208   3.814   2.391  11.421  0.5008  0.5208  0.3041
  416MPD2    C5 6209   3.849   2.493  11.502 -0.5286 -0.0908 -0.2089
  416MPD2     H 6210   3.486   2.469  11.402  0.4524  0.2046 -0.0375
  416MPD2    H1 6211   3.888   2.317  11.390 -0.2899 -0.6628  1.2624
  416MPD2    H2 6212   3.796   2.670  11.600  1.3586 -0.5477 -1.2349
  416MPD2    H3 6213   3.950   2.512  11.535 -0.1648 -0.3658 -1.1744
  416MPD2     N 6214   3.642   2.268  11.301 -0.1555 -0.4718  0.4926
  416MPD2    H5 6215   3.714   2.201  11.278 -1.7479 -1.6623 -1.0167
  416MPD2    N1 6216   3.533   2.667  11.565 -0.0630  0.5109  0.3412
  416MPD2    H7 6217   3.576   2.750  11.604 -0.1000  0.2337  0.9789
  417TMC3    C1 6218   3.337   2.790  11.584  0.1423 -0.2172  0.0060
  417TMC3    C2 6219   3.382   2.863  11.691  0.0085  0.5648 -0.1758
  417TMC3    C3 6220   3.306   2.974  11.718 -0.2148  1.3570  0.3673
  417TMC3    C4 6221   3.225   2.820  11.509 -0.2284 -0.0885  0.0045
  417TMC3    C5 6222   3.164   2.938  11.535 -1.0737 -0.1208  0.0710
  417TMC3    C6 6223   3.196   3.017  11.644  0.3173  0.2041  0.2730
  417TMC3     C 6224   3.400   2.662  11.552  0.0309 -0.7000  0.5190
  417TMC3     O 6225   3.320   2.579  11.508  0.2147  0.5433  0.1292
  417TMC3     H 6226   3.456   2.820  11.758 -3.4201 -3.1484  1.2480
  417TMC3    H1 6227   3.192   2.753  11.430 -1.0555  0.3983 -0.0590
  417TMC3    H2 6228   3.157   3.117  11.657 -1.5407 -0.5874  0.7016
  417TMC3    C7 6229   3.054   2.981  11.445 -0.0937 -0.3389  0.1437
  417TMC3    C8 6230   3.328   3.056  11.833  0.1935  0.1171  0.2553
  417TMC3    O1 6231   3.065   2.958  11.328  0.4764 -0.3972  0.5037
  417TMC3    O2 6232   3.228   3.114  11.864  0.6316  0.5368 -0.1779
  418TMC3    C1 6233   2.566   3.951   0.033 -1.0517  0.3136 -0.0384
  418TMC3    C2 6234   2.449   4.017   0.066  0.3146 -0.0224 -0.7602
  418TMC3    C3 6235   2.389   3.976   0.180  0.1063 -0.1383 -0.1781
  418TMC3    C4 6236   2.626   3.863   0.121 -0.2118  0.6230 -0.2707
  418TMC3    C5 6237   2.570   3.851   0.244  0.4080  0.4705 -0.6217
  418TMC3    C6 6238   2.449   3.898   0.274  0.5418 -0.1190 -0.5169
  418TMC3     C 6239   2.588   3.941  17.593 -0.1786  0.2907  0.1527
  418TMC3     O 6240   2.575   4.044  17.524 -0.2292  0.1648 -0.0011
  418TMC3     H 6241   2.403   4.077  17.688 -1.7497 -1.0798 -0.3659
  418TMC3    H1 6242   2.711   3.796   0.105 -0.3149  0.0920  1.3157
  418TMC3    H2 6243   2.397   3.891   0.369 -0.1779  1.1102 -0.8252
  418TMC3    C7 6244   2.618   3.754   0.339  0.6397  0.3490 -0.5849
  418TMC3    C8 6245   2.241   3.988   0.176 -0.0692 -0.0821  0.0489
  418TMC3    O1 6246   2.529   3.690   0.400 -0.2334 -0.4515 -0.2375
  418TMC3    O2 6247   2.207   4.093   0.125 -0.2088 -0.3981  0.3537
  419MPD2     C 6248   0.583   2.393  12.346 -0.3109  0.2203 -0.4594
  419MPD2    C1 6249   0.648   2.513  12.344 -0.0622  0.2073 -0.0811
  419MPD2    C2 6250   0.679   2.572  12.465  0.3573  0.4348 -0.7995
  419MPD2    C3 6251   0.648   2.515  12.585 -0.0066 -1.0994 -0.6513
  419MPD2    C4 6252   0.583   2.389  12.584 -0.1669 -0.3764 -0.2074
  419MPD2    C5 6253   0.559   2.326  12.463 -0.2747  0.3369  0.4724
  419MPD2     H 6254   0.731   2.667  12.459 -1.4988  1.5493  0.7160
  419MPD2    H1 6255   0.571   2.337  12.679 -1.0453  0.6921  0.2572
  419MPD2    H2 6256   0.552   2.348  12.253  0.0726 -0.8746 -0.0636
  419MPD2    H3 6257   0.513   2.228  12.458  0.3215 -0.0111  1.7750
  419MPD2     N 6258   0.684   2.583  12.703 -0.6166 -0.0025 -0.3291
  419MPD2    H5 6259   0.718   2.676  12.682 -0.3581  0.0206  0.1878
  419MPD2    N1 6260   0.681   2.579  12.226 -0.1660 -0.5350  0.0011
  419MPD2    H7 6261   0.733   2.666  12.233 -0.6605 -0.3139  0.9464
  420TMC3    C1 6262   0.681   2.648  12.933 -0.0905  0.5747  0.3624
  420TMC3    C2 6263   0.611   2.762  12.899  0.4298  0.0395  0.3587
  420TMC3    C3 6264   0.632   2.871  12.985 -0.2552 -0.4803  0.1139
  420TMC3    C4 6265   0.761   2.637  13.042 -0.4352  1.0481  0.2048
  420TMC3    C5 6266   0.773   2.747  13.120  0.0504 -0.0307  0.2512
  420TMC3    C6 6267   0.705   2.861  13.099  0.6297  0.2903  0.3190
  420TMC3     C 6268   0.682   2.537  12.835 -0.3885  0.4869 -0.6103
  420TMC3     O 6269   0.671   2.422  12.884  0.3308 -0.2911  0.1617
  420TMC3     H 6270   0.561   2.779  12.805 -0.4132  0.1568  0.8299
  420TMC3    H1 6271   0.812   2.542  13.052 -1.0738  0.6323 -0.4618
  420TMC3    H2 6272   0.701   2.938  13.175  2.0323  2.0533 -1.3716
  420TMC3    C7 6273   0.856   2.740  13.237 -0.6527  0.5253 -0.0237
  420TMC3    C8 6274   0.576   3.002  12.938 -0.7312 -0.5051  0.2234
  420TMC3    O1 6275   0.841   2.829  13.317  0.3104  0.3705  0.3441
  420TMC3    O2 6276   0.506   3.006  12.837 -0.5534  0.0277  0.0794
  421TMC3    C1 6277   2.334   4.431  13.773 -0.0976  0.6376 -0.8212
  421TMC3    C2 6278   2.388   4.551  13.816  0.3792 -0.7433  0.5000
  421TMC3    C3 6279   2.521   4.544  13.858 -0.2475 -0.2330  0.3681
  421TMC3    C4 6280   2.416   4.320  13.753 -0.0727  0.4921 -0.0828
  421TMC3    C5 6281   2.544   4.325  13.787  0.1691 -0.0726  0.0929
  421TMC3    C6 6282   2.597   4.433  13.843 -0.0992 -0.5669 -0.4608
  421TMC3     C 6283   2.203   4.437  13.706  0.1796 -0.3651 -0.1865
  421TMC3     O 6284   2.128   4.525  13.751  0.0896  0.0390 -0.3674
  421TMC3     H 6285   2.331   4.641  13.831 -2.0162 -2.2671  0.5301
  421TMC3    H1 6286   2.366   4.229  13.722  0.1500 -0.1939  1.5863
  421TMC3    H2 6287   2.700   4.424  13.877 -0.6568  0.7313  1.6133
  421TMC3    C7 6288   2.648   4.234  13.736  0.0891 -0.8359 -0.1114
  421TMC3    C8 6289   2.600   4.670  13.866  0.2198 -0.4551 -0.7199
  421TMC3    O1 6290   2.759   4.284  13.710  0.5187 -0.1347 -0.4037
  421TMC3    O2 6291   2.721   4.654  13.844  0.1095  0.1266 -0.2258
  422TMC3    C1 6292   4.541   0.750  12.379 -0.0547 -0.3537 -0.3263
  422TMC3    C2 6293   4.532   0.870  12.443 -0.4581 -0.0795 -0.0516
  422TMC3    C3 6294   4.429   0.896  12.534 -0.4951  0.1453  0.6926
  422TMC3    C4 6295   4.448   0.656  12.408 -0.0416  0.0638  0.2179
  422TMC3    C5 6296   4.355   0.671  12.506 -0.3443  0.8559  0.2869
  422TMC3    C6 6297   4.336   0.797  12.556 -0.1943 -0.0031  0.5982
  422TMC3     C 6298   4.618   0.753  12.253  0.3692 -0.3009  0.1805
  422TMC3     O 6299   4.638   0.862  12.201  0.4493  0.7955  0.2195
  422TMC3     H 6300   4.606   0.944  12.413 -2.3890  2.6013  1.8939
  422TMC3    H1 6301   4.448   0.558  12.362 -4.8294 -0.0448  0.4680
  422TMC3    H2 6302   4.259   0.816  12.631  0.1002 -1.6150  1.3138
  422TMC3    C7 6303   4.257   0.562  12.522  0.4187  0.0571 -0.1059
  422TMC3    C8 6304   4.409   1.034  12.561  0.3867 -0.0670  0.7793
  422TMC3    O1 6305   4.285   0.446  12.488 -0.2674  0.4321 -0.2574
  422TMC3    O2 6306   4.508   1.107  12.553  0.0487 -0.3976 -0.0122
  423MPD2     C 6307   1.159   1.618   0.485  0.1214 -0.9096 -0.0105
  423MPD2    C1 6308   1.050   1.539   0.476  0.8918  0.3748  0.3547
  423MPD2    C2 6309   1.017   1.467   0.357  0.1277  0.4796 -0.6200
  423MPD2    C3 6310   1.094   1.483   0.246  0.4151 -0.4020 -0.2163
  423MPD2    C4 6311   1.210   1.566   0.255  0.5373  0.9779 -0.1516
  423MPD2    C5 6312   1.238   1.625   0.376 -0.5101 -0.1476  1.3598
  423MPD2     H 6313   0.930   1.402   0.364  0.7365 -0.3027 -0.3612
  423MPD2    H1 6314   1.273   1.584   0.168  0.6172  1.1971 -0.0476
  423MPD2    H2 6315   1.196   1.675   0.569 -1.7065  2.5627 -1.5502
  423MPD2    H3 6316   1.330   1.683   0.385  0.7321 -1.6758 -1.5604
  423MPD2     N 6317   1.061   1.432   0.121  0.3736 -0.3625 -0.5065
  423MPD2    H5 6318   1.140   1.430   0.057 -0.5643 -0.3360 -1.6731
  423MPD2    N1 6319   0.970   1.498   0.587 -0.6228  0.3467 -0.0136
  423MPD2    H7 6320   0.896   1.432   0.567 -0.4383 -0.3975  1.8071
  424TMC3    C1 6321   0.884   1.507   0.815  0.6662 -0.2884 -0.1034
  424TMC3    C2 6322   0.914   1.494   0.951  0.3305 -0.0570  0.1920
  424TMC3    C3 6323   0.814   1.457   1.034  0.5735  0.7459 -0.1969
  424TMC3    C4 6324   0.764   1.480   0.767  1.1571  0.5495 -0.1371
  424TMC3    C5 6325   0.660   1.445   0.855  0.3486  0.8186 -0.1037
  424TMC3    C6 6326   0.688   1.417   0.985  0.1565  0.3233  0.5875
  424TMC3     C 6327   0.988   1.539   0.717 -0.2307  0.1327  0.5071
  424TMC3     O 6328   1.094   1.568   0.772  0.6124  0.2396  0.2617
  424TMC3     H 6329   1.012   1.520   0.991  0.5760 -0.9867  0.1821
  424TMC3    H1 6330   0.742   1.489   0.661  0.3024 -0.4653 -0.0413
  424TMC3    H2 6331   0.617   1.377   1.056 -2.6597 -0.1569 -2.4701
  424TMC3    C7 6332   0.524   1.418   0.807 -0.3510  0.4239 -0.0934
  424TMC3    C8 6333   0.840   1.399   1.162 -0.1714  0.2462 -0.1936
  424TMC3    O1 6334   0.508   1.391   0.691  0.5113  0.3369 -0.0508
  424TMC3    O2 6335   0.761   1.316   1.199  0.5365 -0.5008  0.3480
  425MPD2     C 6336   4.562   0.572   0.146 -0.2490 -0.1213 -0.5268
  425MPD2    C1 6337   4.541   0.506   0.024  0.7093  0.2068  0.0394
  425MPD2    C2 6338   4.423   0.536  17.655 -0.3188  0.1855 -0.7316
  425MPD2    C3 6339   4.336   0.638  17.699  0.0116  0.7925 -0.1731
  425MPD2    C4 6340   4.362   0.699   0.118  0.6092 -0.2047 -0.1891
  425MPD2    C5 6341   4.474   0.666   0.188 -0.1903 -0.6297 -0.0762
  425MPD2     H 6342   4.403   0.488  17.560 -1.5922 -1.0531  0.1698
  425MPD2    H1 6343   4.302   0.781   0.155  1.3254  0.6894 -1.0244
  425MPD2    H2 6344   4.658   0.575   0.197 -0.1464 -1.0861 -0.6642
  425MPD2    H3 6345   4.490   0.719   0.281  3.4829  1.0868 -1.6878
  425MPD2     N 6346   4.233   0.677  17.608 -0.1215 -0.1727 -0.5383
  425MPD2    H5 6347   4.230   0.627  17.520 -0.1006 -1.0438 -0.0407
  425MPD2    N1 6348   4.643   0.432  17.662 -0.1069  0.2690  0.1288
  425MPD2    H7 6349   0.002   0.417   0.018  0.3330  1.1106 -0.3255
  426TMC3    C1 6350   0.005   0.265  17.508  0.4059  0.3105  0.1786
  426TMC3    C2 6351   0.008   0.230  17.375 -0.4954  0.0339  0.3509
  426TMC3    C3 6352   0.015   0.101  17.337  0.0964 -0.4916  0.0805
  426TMC3    C4 6353   0.011   0.172  17.604  0.0766 -0.3845  0.2782
  426TMC3    C5 6354   0.008   0.041  17.558  0.1780 -0.3194  0.5171
  426TMC3    C6 6355   0.025   0.001  17.432 -0.2359  0.7274  0.3573
  426TMC3     C 6356   4.634   0.376  17.536 -0.3503  0.1825  0.4614
  426TMC3     O 6357   4.576   0.419  17.439 -0.5509  0.3162 -0.0654
  426TMC3     H 6358   4.711   0.302  17.297  0.2258 -0.4550 -0.3014
  426TMC3    H1 6359   0.014   0.201   0.009  1.6223  1.0893 -0.1812
  426TMC3    H2 6360   0.043   4.624  17.398  0.2707  0.7664  0.5113
  426TMC3    C7 6361   0.035   4.662  17.656 -0.1805 -0.8393  0.2755
  426TMC3    C8 6362   4.724   0.064  17.195  0.3174 -0.4816 -0.0563
  426TMC3    O1 6363   0.094   4.560  17.629 -0.1724  0.2064  0.6498
  426TMC3    O2 6364   0.066   4.691  17.164 -0.2291  0.0125  0.4096
  427MPD2     C 6365   3.144   3.337  15.205 -0.4443 -0.0607 -0.3866
  427MPD2    C1 6366   3.105   3.206  15.238 -0.1178 -0.2010  0.1308
  427MPD2    C2 6367   2.966   3.189  15.252  0.2526  1.0069  0.0619
  427MPD2    C3 6368   2.870   3.286  15.244 -0.7822  0.0286  0.3533
  427MPD2    C4 6369   2.914   3.411  15.205 -0.4924 -0.2447 -0.1152
  427MPD2    C5 6370   3.049   3.426  15.179  0.1224  0.4064 -0.8460
  427MPD2     H 6371   2.926   3.089  15.265 -0.0918  0.8980 -1.8311
  427MPD2    H1 6372   2.844   3.488  15.174  1.2424  0.6296 -1.8548
  427MPD2    H2 6373   3.246   3.371  15.187 -0.0143 -2.1880 -1.9222
  427MPD2    H3 6374   3.077   3.526  15.149  1.3997  0.4647  0.5418
  427MPD2     N 6375   2.735   3.263  15.242  0.1294 -0.1759 -0.3488
  427MPD2    H5 6376   2.675   3.342  15.218  1.2723  1.3755  1.8274
  427MPD2    N1 6377   3.197   3.100  15.243 -0.4004  0.0479  0.5088
  427MPD2    H7 6378   3.149   3.011  15.244 -0.6329  0.1736  0.7122
  428TMC3    C1 6379   3.412   3.005  15.256 -0.3118 -0.5475 -0.2616
  428TMC3    C2 6380   3.358   2.885  15.208  0.4804  0.1293 -0.8506
  428TMC3    C3 6381   3.439   2.770  15.226  0.2990  0.0285  0.2518
  428TMC3    C4 6382   3.536   3.021  15.310  0.5279 -0.1104  0.8348
  428TMC3    C5 6383   3.613   2.906  15.306 -0.0809  0.0510 -0.5142
  428TMC3    C6 6384   3.568   2.778  15.272  0.3405 -0.3499  0.1928
  428TMC3     C 6385   3.331   3.126  15.249 -0.3688 -0.2098  0.3325
  428TMC3     O 6386   3.385   3.230  15.295 -0.1614  0.3473 -0.4362
  428TMC3     H 6387   3.261   2.879  15.161 -0.6999 -0.7187  1.7084
  428TMC3    H1 6388   3.569   3.115  15.353 -1.3959  1.3427 -0.8804
  428TMC3    H2 6389   3.638   2.695  15.269 -0.2084 -0.7790 -0.8077
  428TMC3    C7 6390   3.753   2.926  15.329 -0.0300  0.9016 -0.3296
  428TMC3    C8 6391   3.395   2.636  15.177  0.3369 -0.3825  0.8038
  428TMC3    O1 6392   3.807   2.875  15.425  0.5741 -0.1505  0.5317
  428TMC3    O2 6393   3.441   2.538  15.236  0.5697 -0.6630  0.3712
  429MPD2     C 6394   4.224   3.103  17.431 -0.1006  0.0939  0.5215
  429MPD2    C1 6395   4.356   3.107  17.390  0.4134 -0.3430 -0.3186
  429MPD2    C2 6396   4.416   3.231  17.364 -0.2780 -0.8911 -0.0163
  429MPD2    C3 6397   4.348   3.345  17.360 -0.4931 -0.1950 -0.2729
  429MPD2    C4 6398   4.217   3.342  17.406  0.0315  0.2593  0.4352
  429MPD2    C5 6399   4.161   3.223  17.444 -0.1650 -0.0366 -0.0020
  429MPD2     H 6400   4.522   3.229  17.344 -0.5735 -2.5510 -1.4723
  429MPD2    H1 6401   4.164   3.436  17.411 -0.1846  0.0127  3.0555
  429MPD2    H2 6402   4.181   3.010  17.467 -1.8463  0.5748 -0.3152
  429MPD2    H3 6403   4.062   3.223  17.486 -0.0611 -1.7008  0.2568
  429MPD2     N 6404   4.424   3.448  17.309  0.0123  0.1619  0.1485
  429MPD2    H5 6405   4.518   3.431  17.275  0.8557  0.8928  2.1622
  429MPD2    N1 6406   4.434   2.986  17.393 -0.5431  0.5235 -0.0528
  429MPD2    H7 6407   4.531   3.002  17.369 -0.2780  0.1942  0.8212
  430TMC3    C1 6408   4.483   3.673  17.285  0.6988  0.7291  0.1781
  430TMC3    C2 6409   4.468   3.765  17.189 -0.3166 -0.2789  1.0031
  430TMC3    C3 6410   4.571   3.813  17.117 -0.1347 -0.2830 -0.0918
  430TMC3    C4 6411   4.612   3.641  17.314  0.5459  0.0220  0.0697
  430TMC3    C5 6412   4.717   3.698  17.249 -0.5279 -0.1703 -0.6385
  430TMC3    C6 6413   4.701   3.774  17.137 -0.0192  0.0544  0.3954
  430TMC3     C 6414   4.376   3.577  17.295 -0.5496  0.3322 -0.9432
  430TMC3     O 6415   4.260   3.609  17.285  0.0565  0.5764  0.0871
  430TMC3     H 6416   4.366   3.788  17.162 -0.5235 -2.3808 -0.0140
  430TMC3    H1 6417   4.637   3.574  17.396  0.0205  0.4280  0.5638
  430TMC3    H2 6418   0.056   3.806  17.071 -0.0300  2.6172  1.6268
  430TMC3    C7 6419   0.078   3.589  17.220  0.1184  0.2070 -0.0581
  430TMC3    C8 6420   4.538   3.881  16.996 -0.2287  0.1041  0.5904
  430TMC3    O1 6421   0.031   3.476  17.239  0.5021  0.1373  0.1563
  430TMC3    O2 6422   4.621   3.863  16.907 -0.1384 -0.3093 -0.1594
  431MPD2     C 6423   0.663   3.285  12.454 -0.6732  0.4587  0.4394
  431MPD2    C1 6424   0.743   3.315  12.344  0.1173 -0.2422 -0.3156
  431MPD2    C2 6425   0.730   3.229  12.237 -1.0932 -0.4455 -0.0359
  431MPD2    C3 6426   0.638   3.123  12.233  0.5643  0.0983 -0.6518
  431MPD2    C4 6427   0.555   3.097  12.342  0.3877 -0.3853  0.0025
  431MPD2    C5 6428   0.568   3.181  12.448 -0.0528 -0.9035  0.0803
  431MPD2     H 6429   0.802   3.247  12.159 -0.9455 -0.0709  0.1862
  431MPD2    H1 6430   0.498   3.005  12.345  0.9699 -0.7075  1.6057
  431MPD2    H2 6431   0.651   3.353  12.536  1.1282 -1.8263  2.5976
  431MPD2    H3 6432   0.514   3.165  12.541  0.1433 -1.3069  0.1227
  431MPD2     N 6433   0.626   3.026  12.136  0.1242 -0.5425  0.4756
  431MPD2    H5 6434   0.551   2.957  12.141 -2.2694  1.9814 -0.6080
  431MPD2    N1 6435   0.834   3.422  12.336 -0.5061  0.0411  0.4933
  431MPD2    H7 6436   0.889   3.424  12.251 -1.7348  0.8422 -0.2922
  432TMC3    C1 6437   0.687   2.881  11.974  0.7370 -0.5029 -0.3340
  432TMC3    C2 6438   0.723   2.866  11.843 -0.1135  0.3151  1.0846
  432TMC3    C3 6439   0.742   2.743  11.785  0.6084 -0.0642 -0.2330
  432TMC3    C4 6440   0.653   2.773  12.047  0.8377  0.0492 -0.4795
  432TMC3    C5 6441   0.684   2.650  12.003  0.2990 -0.0161 -0.1734
  432TMC3    C6 6442   0.726   2.629  11.874  0.6389 -0.6183 -0.0394
  432TMC3     C 6443   0.706   3.013  12.026  1.0687 -0.1013  0.4433
  432TMC3     O 6444   0.773   3.106  11.979 -0.1341  0.1615  0.2153
  432TMC3     H 6445   0.729   2.955  11.782  0.9884 -1.5738 -1.5515
  432TMC3    H1 6446   0.621   2.778  12.150  4.3820  2.1067  0.5020
  432TMC3    H2 6447   0.735   2.529  11.833  0.2132  0.6095 -3.1616
  432TMC3    C7 6448   0.662   2.538  12.094 -0.1230  0.1026  0.8585
  432TMC3    C8 6449   0.863   2.743  11.712 -0.4225  0.3519  1.4607
  432TMC3    O1 6450   0.653   2.426  12.047 -0.4332  0.1657  0.0039
  432TMC3    O2 6451   0.880   2.652  11.631  0.0872  0.1260  0.2569
  433MPD2     C 6452   0.049   1.880  10.982  0.5090  1.0542 -0.6810
  433MPD2    C1 6453   4.643   1.837  11.004  0.0197 -0.3410  0.0007
  433MPD2    C2 6454   4.590   1.835  11.138 -0.1452 -0.2378 -0.1414
  433MPD2    C3 6455   4.677   1.849  11.246  0.2124  0.0548  0.5696
  433MPD2    C4 6456   0.083   1.889  11.222  0.6181  0.5717 -0.5162
  433MPD2    C5 6457   0.123   1.907  11.091  0.1387  0.4231  0.5195
  433MPD2     H 6458   4.489   1.796  11.149 -0.3655  1.0172  2.2347
  433MPD2    H1 6459   0.150   1.920  11.301 -1.4706 -0.2215  1.5823
  433MPD2    H2 6460   0.087   1.891  10.881  2.0073  2.4837  0.0386
  433MPD2    H3 6461   0.225   1.936  11.068  0.7638 -3.2919 -1.4736
  433MPD2     N 6462   4.619   1.818  11.366 -0.1369  0.0447 -0.3366
  433MPD2    H5 6463   4.521   1.794  11.375 -0.7664  3.1343  0.9268
  433MPD2    N1 6464   4.577   1.779  10.890  0.1806 -0.3849  0.1160
  433MPD2    H7 6465   4.626   1.783  10.802 -0.4071  1.2599 -0.1370
  434TMC3    C1 6466   4.441   1.626  10.784  0.1852 -0.7851  0.1349
  434TMC3    C2 6467   4.398   1.503  10.830  0.0842  0.2081 -0.3745
  434TMC3    C3 6468   4.430   1.394  10.757 -0.2382 -0.2667  0.3642
  434TMC3    C4 6469   4.500   1.637  10.659  0.3995  0.8414  0.6031
  434TMC3    C5 6470   4.508   1.525  10.578 -0.4066  0.1850 -0.5783
  434TMC3    C6 6471   4.474   1.400  10.629  0.0238 -0.7421 -0.2725
  434TMC3     C 6472   4.456   1.723  10.894  0.3519  0.0954 -0.0653
  434TMC3     O 6473   4.371   1.724  10.980  0.2581  0.7713  0.1000
  434TMC3     H 6474   4.371   1.503  10.935  0.0771  1.1784 -0.3756
  434TMC3    H1 6475   4.518   1.735  10.616  0.9068 -0.4182 -2.0009
  434TMC3    H2 6476   4.522   1.316  10.579  1.0620  1.0504 -2.2867
  434TMC3    C7 6477   4.512   1.550  10.433  0.6290  0.2357 -0.0320
  434TMC3    C8 6478   4.441   1.272  10.831  0.5520 -0.3789 -0.7882
  434TMC3    O1 6479   4.539   1.661  10.402  0.0051 -0.2638  0.3094
  434TMC3    O2 6480   4.477   1.275  10.951  0.3247  0.3180 -0.2434
  435MPD2     C 6481   1.263   1.548  15.037  0.0867  0.4766  0.0004
  435MPD2    C1 6482   1.277   1.597  15.168 -0.1666  0.1693  0.4191
  435MPD2    C2 6483   1.386   1.549  15.238  0.5362  0.2047  0.1250
  435MPD2    C3 6484   1.464   1.442  15.188  0.3310 -0.5572  0.4107
  435MPD2    C4 6485   1.444   1.394  15.060  0.4098 -0.2386 -0.1235
  435MPD2    C5 6486   1.347   1.453  14.989  0.3583 -0.3905  0.1612
  435MPD2     H 6487   1.413   1.582  15.338 -0.7371 -0.6249  0.7432
  435MPD2    H1 6488   1.514   1.327  15.012 -0.4007 -1.2436  0.0954
  435MPD2    H2 6489   1.188   1.588  14.969 -0.7479 -2.6046 -0.8713
  435MPD2    H3 6490   1.342   1.415  14.888  1.2020 -0.1656  0.0333
  435MPD2     N 6491   1.569   1.390  15.263  0.5477 -0.3703 -0.2945
  435MPD2    H5 6492   1.579   1.442  15.350 -0.0170 -2.3134  0.9181
  435MPD2    N1 6493   1.191   1.685  15.229 -0.4302  0.4528  0.2468
  435MPD2    H7 6494   1.220   1.716  15.321 -0.3520 -0.8373  0.6616
  436TMC3    C1 6495   0.952   1.928  15.448 -0.1720  0.0127 -0.5187
  436TMC3    C2 6496   1.038   1.865  15.367  0.0561  0.3519  1.0105
  436TMC3    C3 6497   0.992   1.776  15.280 -0.5935  0.6097 -0.7087
  436TMC3    C4 6498   0.820   1.902  15.453 -0.2199 -0.2342 -0.0990
  436TMC3    C5 6499   0.775   1.818  15.362  0.2933 -0.2820 -0.0407
  436TMC3    C6 6500   0.856   1.760  15.271  0.1455 -0.0389  0.1650
  436TMC3     C 6501   1.010   1.997  15.558  0.4234  0.5833 -0.3234
  436TMC3     O 6502   1.123   2.042  15.537 -0.0586 -0.0991 -0.0197
  436TMC3     H 6503   1.139   1.903  15.365  0.0202  0.2694 -3.0478
  436TMC3    H1 6504   0.752   1.949  15.522 -0.3513 -1.2814  0.4796
  436TMC3    H2 6505   0.818   1.694  15.194 -0.3015 -1.9420  2.0291
  436TMC3    C7 6506   0.644   1.769  15.363  0.0170  0.2423 -0.1589
  436TMC3    C8 6507   1.076   1.724  15.181 -0.3980 -0.5362  0.1464
  436TMC3    O1 6508   0.586   1.738  15.260 -0.3232 -0.8275  0.0515
  436TMC3    O2 6509   1.035   1.738  15.064 -0.5609 -0.0555  0.0445
  437TMC3    C1 6510   0.360   4.047  12.367  0.6640 -0.5644  0.1812
  437TMC3    C2 6511   0.296   4.092  12.246  0.7275 -0.1201  0.1241
  437TMC3    C3 6512   0.383   4.157  12.168  0.3462 -0.5255 -0.1844
  437TMC3    C4 6513   0.490   4.068  12.393 -0.3993  0.5400 -0.6054
  437TMC3    C5 6514   0.574   4.114  12.301  0.4856  0.8881  0.0476
  437TMC3    C6 6515   0.522   4.160  12.185  0.1322  0.1096  0.1787
  437TMC3     C 6516   0.279   4.019  12.489  0.1348 -0.0672 -0.5710
  437TMC3     O 6517   0.332   3.954  12.579 -0.4189 -0.2051 -0.0087
  437TMC3     H 6518   0.192   4.072  12.223  0.5414  0.8801  0.0758
  437TMC3    H1 6519   0.523   4.022  12.486 -1.0293  0.0807 -0.6039
  437TMC3    H2 6520   0.579   4.226  12.120  0.6439 -0.7780 -0.2789
  437TMC3    C7 6521   0.713   4.114  12.335  0.0880 -0.1196  0.1846
  437TMC3    C8 6522   0.341   4.188  12.034 -0.0283 -0.1339 -0.4503
  437TMC3    O1 6523   0.744   4.102  12.453  0.2520 -0.3580 -0.0792
  437TMC3    O2 6524   0.420   4.171  11.942 -0.1045 -0.2455  0.4304
  438MPD2     C 6525   2.234   4.275  16.569 -0.4471 -0.4801  0.2391
  438MPD2    C1 6526   2.314   4.161  16.579 -0.2482  0.0582  0.1998
  438MPD2    C2 6527   2.277   4.066  16.672 -0.4277 -0.0524 -0.0824
  438MPD2    C3 6528   2.176   4.091  16.768 -0.0464  0.1373  0.1296
  438MPD2    C4 6529   2.104   4.209  16.758 -0.3207  0.5362 -0.3480
  438MPD2    C5 6530   2.128   4.296  16.657 -0.3145  0.0139  0.1250
  438MPD2     H 6531   2.321   3.969  16.652 -0.8773 -0.0284 -1.1651
  438MPD2    H1 6532   2.025   4.241  16.825  0.1554  1.2268 -0.1246
  438MPD2    H2 6533   2.255   4.362  16.509 -0.6085  0.2373  1.2235
  438MPD2    H3 6534   2.074   4.389  16.660 -0.8903 -0.2367 -2.3492
  438MPD2     N 6535   2.156   4.006  16.876  0.1551 -0.2601 -1.0097
  438MPD2    H5 6536   2.092   4.039  16.948 -0.7707 -0.8372 -1.5720
  438MPD2    N1 6537   2.426   4.134  16.497  0.4598  0.8646  0.6990
  438MPD2    H7 6538   2.479   4.051  16.523 -1.0414  0.3039  1.9875
  439TMC3    C1 6539   2.588   4.132  16.338 -0.1280  0.4914 -0.5417
  439TMC3    C2 6540   2.616   4.158  16.205  0.1663 -0.0381 -0.0875
  439TMC3    C3 6541   2.738   4.125  16.158  0.2688 -0.5272  0.3798
  439TMC3    C4 6542   2.691   4.096  16.421 -0.3202  0.8148  0.4456
  439TMC3    C5 6543   2.816   4.070  16.372 -0.6219  0.0023  0.3673
  439TMC3    C6 6544   2.835   4.075  16.241  0.1781 -0.3850  0.0568
  439TMC3     C 6545   2.474   4.204  16.393  0.4647 -0.2150 -0.4000
  439TMC3     O 6546   2.423   4.298  16.330  0.1955  0.1471  0.4879
  439TMC3     H 6547   2.535   4.193  16.142  1.2563 -0.6382 -1.8184
  439TMC3    H1 6548   2.671   4.095  16.528 -1.2635 -2.7623  0.2171
  439TMC3    H2 6549   2.925   4.033  16.197  0.1054 -0.4848  0.0010
  439TMC3    C7 6550   2.928   4.095  16.465  0.6423  0.6744 -0.7712
  439TMC3    C8 6551   2.770   4.110  16.017 -1.0000  0.0489  0.3227
  439TMC3    O1 6552   2.904   4.101  16.586 -0.5220  0.3352  0.2446
  439TMC3    O2 6553   2.816   4.003  15.979 -0.1730  0.3893 -0.2890
  440MPD2     C 6554   1.383   4.712  14.380 -0.3625 -0.2570  0.0089
  440MPD2    C1 6555   1.325   4.688  14.506  0.5888 -1.0455  0.3252
  440MPD2    C2 6556   1.390   4.596  14.586 -0.0106 -0.5099  0.3009
  440MPD2    C3 6557   1.511   4.544  14.546  0.6549  0.5492 -0.0039
  440MPD2    C4 6558   1.573   4.577  14.429  0.4853  0.7571 -0.1470
  440MPD2    C5 6559   1.507   4.660  14.350  0.5689 -0.4361 -0.1694
  440MPD2     H 6560   1.335   4.566  14.674 -1.6907  3.0258  0.4762
  440MPD2    H1 6561   1.664   4.537  14.387  1.4469  1.1808  1.5174
  440MPD2    H2 6562   1.338   0.061  14.315  1.1715 -0.2702 -1.0505
  440MPD2    H3 6563   1.552   4.698  14.259 -1.1386 -0.0728 -0.8786
  440MPD2     N 6564   1.584   4.458  14.635 -0.2067  0.6646  0.2971
  440MPD2    H5 6565   1.672   4.423  14.599 -0.9576 -2.0519  1.1320
  440MPD2    N1 6566   1.207   0.027  14.552 -0.0203  0.8706 -0.0978
  440MPD2    H7 6567   1.182   0.019  14.650 -4.0088 -0.3968 -1.2200
  441TMC3    C1 6568   1.650   4.333  14.820 -0.0066  0.0297  0.0418
  441TMC3    C2 6569   1.775   4.346  14.775  0.8900 -0.3751  0.1172
  441TMC3    C3 6570   1.874   4.339  14.868 -0.5018  0.1812 -0.3671
  441TMC3    C4 6571   1.612   4.298  14.949  0.0427 -0.3367 -0.6149
  441TMC3    C5 6572   1.714   4.293  15.039  0.3731 -0.0533 -0.2891
  441TMC3    C6 6573   1.845   4.308  15.000  0.2252  0.2882 -0.5700
  441TMC3     C 6574   1.555   4.426  14.764 -0.5608  0.8574  0.0101
  441TMC3     O 6575   1.455   4.451  14.828 -0.4702 -0.1265 -0.0658
  441TMC3     H 6576   1.797   4.359  14.670 -1.1447 -0.8570 -0.3702
  441TMC3    H1 6577   1.508   4.287  14.977  0.1264 -2.6650 -1.1644
  441TMC3    H2 6578   1.925   4.307  15.073  0.3892 -0.7787 -0.7665
  441TMC3    C7 6579   1.678   4.281  15.178  0.5576  0.0555 -0.0240
  441TMC3    C8 6580   2.014   4.327  14.827  0.7639  0.6231  1.1086
  441TMC3    O1 6581   1.560   4.284  15.205 -0.0568  0.1074 -0.2295
  441TMC3    O2 6582   2.089   4.253  14.895 -0.3370  0.0676 -0.9076
  442MPD2     C 6583   4.339   0.720  16.793  0.5724 -0.1924 -0.8063
  442MPD2    C1 6584   4.249   0.681  16.701  0.4936  0.0837  1.1912
  442MPD2    C2 6585   4.265   0.556  16.642 -0.0625  1.0766 -0.2304
  442MPD2    C3 6586   4.373   0.470  16.662 -0.0305 -0.1974 -0.1158
  442MPD2    C4 6587   4.462   0.511  16.756  0.3183  0.2361 -0.2624
  442MPD2    C5 6588   4.440   0.635  16.817 -0.3574  0.3406  0.5216
  442MPD2     H 6589   4.188   0.531  16.570  2.0457 -0.0757 -2.0596
  442MPD2    H1 6590   4.549   0.453  16.786 -0.5067 -1.9289 -2.0634
  442MPD2    H2 6591   4.358   0.816  16.839 -0.0088  0.3157 -1.6178
  442MPD2    H3 6592   4.512   0.663  16.894  0.3644  0.8516 -0.3477
  442MPD2     N 6593   4.394   0.346  16.597  0.3108  0.1311 -0.0004
  442MPD2    H5 6594   4.489   0.311  16.604  0.7494  1.6182  1.4525
  442MPD2    N1 6595   4.141   0.774  16.662 -0.1564  0.2034 -0.3564
  442MPD2    H7 6596   4.084   0.753  16.580  0.6841 -0.7529 -0.6925
  443TMC3    C1 6597   3.987   0.943  16.684  0.4703 -0.2472 -0.1027
  443TMC3    C2 6598   3.983   0.951  16.548 -0.3668 -0.4280  0.3023
  443TMC3    C3 6599   3.873   1.015  16.496 -0.2568  0.0929 -0.6695
  443TMC3    C4 6600   3.898   1.001  16.769 -0.4603  0.0922  0.1319
  443TMC3    C5 6601   3.799   1.073  16.710 -0.0425  0.4352 -0.4261
  443TMC3    C6 6602   3.770   1.065  16.577 -0.7241 -0.3317 -0.1379
  443TMC3     C 6603   4.099   0.878  16.743 -0.1583  0.7243  0.4937
  443TMC3     O 6604   4.129   0.914  16.855  0.3672  0.0196  0.5784
  443TMC3     H 6605   4.060   0.913  16.483  0.1082 -1.4532  1.4706
  443TMC3    H1 6606   3.909   1.001  16.877  1.8167 -1.2049 -0.0892
  443TMC3    H2 6607   3.676   1.102  16.536 -0.7439 -0.1094  0.1108
  443TMC3    C7 6608   3.684   1.065  16.786 -0.5464  0.4694 -0.7269
  443TMC3    C8 6609   3.854   0.997  16.353 -0.0186  0.2663 -0.2012
  443TMC3    O1 6610   3.642   1.172  16.826  0.3518 -0.0491 -0.2952
  443TMC3    O2 6611   3.941   0.933  16.295  0.3609 -0.2803  0.6481
  444MPD2     C 6612   4.666   4.420  17.012 -0.2160 -0.1668  0.2547
  444MPD2    C1 6613   4.589   4.324  16.963  0.2484  0.0408  0.6651
  444MPD2    C2 6614   4.653   4.221  16.890 -0.5291  0.1107 -0.1476
  444MPD2    C3 6615   0.063   4.212  16.871  0.0049  0.5462  0.3429
  444MPD2    C4 6616   0.142   4.306  16.926 -0.1949 -1.2138  0.5646
  444MPD2    C5 6617   0.079   4.412  16.989 -0.2825 -0.5437  0.1966
  444MPD2     H 6618   4.593   4.153  16.831 -1.8162  1.2482 -0.1487
  444MPD2    H1 6619   0.249   4.316  16.937 -0.2988  0.1171  0.3198
  444MPD2    H2 6620   4.624   4.507  17.062  0.9355  1.3942 -1.5153
  444MPD2    H3 6621   0.145   4.489  17.027 -0.1041 -0.1713 -0.8790
  444MPD2     N 6622   0.117   4.099  16.809  0.3525  0.1114  0.1087
  444MPD2    H5 6623   0.038   4.048  16.770 -0.9182  3.3979 -1.6280
  444MPD2    N1 6624   4.450   4.329  16.972 -0.1207  0.4482 -0.2179
  444MPD2    H7 6625   4.398   4.274  16.905  0.0182 -1.1810  1.0244
  445TMC3    C1 6626   0.276   3.933  16.753 -0.1739  0.1273  0.4188
  445TMC3    C2 6627   0.193   3.825  16.765 -0.1097  0.8924 -0.2976
  445TMC3    C3 6628   0.243   3.705  16.729  0.3219  0.4432 -0.1069
  445TMC3    C4 6629   0.408   3.924  16.726 -0.1094 -0.0799 -0.3288
  445TMC3    C5 6630   0.456   3.799  16.700  0.1857  0.2632  0.2051
  445TMC3    C6 6631   0.378   3.694  16.688  0.1904 -0.2187 -0.1697
  445TMC3     C 6632   0.247   4.059  16.810 -0.2820  1.0597 -0.3559
  445TMC3     O 6633   0.345   4.129  16.844 -0.1724  0.2961  0.2721
  445TMC3     H 6634   0.093   3.843  16.803 -0.9408 -2.3773 -1.0113
  445TMC3    H1 6635   0.460   4.014  16.693  0.6609 -0.2107  0.5248
  445TMC3    H2 6636   0.417   3.596  16.665  1.5672  0.2913 -0.0466
  445TMC3    C7 6637   0.600   3.794  16.662 -0.6638  0.8303 -0.0298
  445TMC3    C8 6638   0.171   3.582  16.739 -0.6465  0.2054 -0.4934
  445TMC3    O1 6639   0.663   3.900  16.659 -0.2596  0.0747 -0.1536
  445TMC3    O2 6640   0.232   3.479  16.712  0.0844  0.2391  0.5347
  446MPD2     C 6641   4.169   1.077  11.364  0.1408 -0.5341 -0.4051
  446MPD2    C1 6642   4.184   1.111  11.225  0.2437  0.0698  0.3029
  446MPD2    C2 6643   4.287   1.198  11.184  0.5417  0.0799 -0.2444
  446MPD2    C3 6644   4.374   1.252  11.273  1.0219 -0.7204 -0.2598
  446MPD2    C4 6645   4.346   1.235  11.411 -0.7832  0.7319 -0.0457
  446MPD2    C5 6646   4.252   1.147  11.453 -0.7522  0.3915 -0.3596
  446MPD2     H 6647   4.296   1.222  11.079 -1.3413  0.5272 -0.3175
  446MPD2    H1 6648   4.408   1.283  11.486 -1.5797  3.0934 -0.8921
  446MPD2    H2 6649   4.100   1.002  11.399 -0.5116  0.6004  0.7519
  446MPD2    H3 6650   4.232   1.133  11.559 -0.0173 -0.9750 -0.3956
  446MPD2     N 6651   4.480   1.326  11.226  0.0198 -0.1882 -0.2800
  446MPD2    H5 6652   4.492   1.337  11.126  0.5594  2.2064  0.0512
  446MPD2    N1 6653   4.124   1.042  11.115 -0.2721 -0.7568 -0.4692
  446MPD2    H7 6654   4.139   1.089  11.026  2.3894  2.8590  1.8607
  447TMC3    C1 6655   4.671   1.465  11.227 -0.5805 -0.1777  0.1953
  447TMC3    C2 6656   4.661   1.471  11.095 -0.0102 -0.1420  0.3325
  447TMC3    C3 6657   0.048   1.514  11.026 -0.2267 -0.1219  0.6102
  447TMC3    C4 6658   0.058   1.497  11.301 -0.7249 -0.1961  0.1321
  447TMC3    C5 6659   0.162   1.552  11.227  0.5387 -0.0616 -0.3200
  447TMC3    C6 6660   0.161   1.552  11.089  0.1391  0.4697  0.4782
  447TMC3     C 6661   4.573   1.390  11.304  0.6734  0.4191  0.2631
  447TMC3     O 6662   4.586   1.391  11.422 -0.1066  0.8045 -0.3205
  447TMC3     H 6663   4.563   1.468  11.049 -0.5542 -0.9617  1.5372
  447TMC3    H1 6664   0.068   1.473  11.407  1.7822 -2.7174 -0.6809
  447TMC3    H2 6665   0.235   1.609  11.035 -0.4536  1.1894  0.4318
  447TMC3    C7 6666   0.290   1.525  11.291 -0.0477  0.2470  0.3716
  447TMC3    C8 6667   0.066   1.492  10.889 -0.1744  1.1732 -0.7744
  447TMC3    O1 6668   0.371   1.470  11.219 -0.4940  0.4811 -0.2302
  447TMC3    O2 6669   0.083   1.583  10.812  0.2885  0.0719 -0.1804
  448TMC3    C1 6670   2.412   1.101  16.845  0.0790 -0.2876 -0.4018
  448TMC3    C2 6671   2.395   1.064  16.708 -0.9670  0.1800  0.6035
  448TMC3    C3 6672   2.502   1.038  16.634 -0.4680  0.8432  0.2712
  448TMC3    C4 6673   2.535   1.088  16.903  0.2668  0.0238  0.3996
  448TMC3    C5 6674   2.643   1.043  16.819  0.5927  0.3556  0.0018
  448TMC3    C6 6675   2.626   1.013  16.682 -0.8634 -0.5759  0.3990
  448TMC3     C 6676   2.303   1.154  16.922  0.1011  0.3607 -0.5699
  448TMC3     O 6677   2.305   1.137  17.043 -0.0359  0.0392 -0.4757
  448TMC3     H 6678   2.295   1.060  16.667 -0.6657  0.6856 -0.1721
  448TMC3    H1 6679   2.551   1.120  17.006  2.2809  2.6937 -0.7293
  448TMC3    H2 6680   2.710   0.976  16.624 -1.2394 -1.6954  0.5817
  448TMC3    C7 6681   2.769   0.996  16.881  0.0691  0.1607 -0.1703
  448TMC3    C8 6682   2.463   0.994  16.497  0.2359 -0.2661 -0.5613
  448TMC3    O1 6683   2.863   0.969  16.807  0.0090 -0.4303  0.1399
  448TMC3    O2 6684   2.351   1.004  16.451  0.5081 -0.5427 -0.7624
  449MPD2     C 6685   4.374   4.019  13.870  0.5771 -0.0849 -0.5726
  449MPD2    C1 6686   4.242   4.047  13.845  0.0598 -0.0478  0.3193
  449MPD2    C2 6687   4.144   3.969  13.899 -0.4959  0.8559  0.2287
  449MPD2    C3 6688   4.171   3.864  13.984  0.6853 -0.0050 -0.6748
  449MPD2    C4 6689   4.303   3.848  14.024  0.4825  0.1813  0.1122
  449MPD2    C5 6690   4.402   3.923  13.965 -0.1746  0.7876 -0.4881
  449MPD2     H 6691   4.040   3.990  13.877 -0.4260  0.1920 -0.7801
  449MPD2    H1 6692   4.335   3.774  14.097  1.4050 -0.5882 -1.0778
  449MPD2    H2 6693   4.454   4.080  13.829  0.9914 -1.0798 -1.2426
  449MPD2    H3 6694   4.506   3.916  13.996 -0.6006  0.8742  0.9447
  449MPD2     N 6695   4.063   3.784  14.026 -0.0383  0.2148 -0.1165
  449MPD2    H5 6696   3.973   3.810  13.986  0.6929 -0.7254 -2.3367
  449MPD2    N1 6697   4.201   4.150  13.761  0.0840 -0.1099 -0.2165
  449MPD2    H7 6698   4.100   4.166  13.753 -0.0267 -0.2320  1.0063
  450TMC3    C1 6699   4.180   4.323  13.609  0.1247  0.5143 -0.4507
  450TMC3    C2 6700   4.206   4.323  13.477  0.2695  0.3496 -0.5663
  450TMC3    C3 6701   4.102   4.294  13.394 -0.1381  0.0344 -0.7964
  450TMC3    C4 6702   4.055   4.318  13.655 -0.4363 -1.6998  0.1342
  450TMC3    C5 6703   3.951   4.280  13.573  0.7025 -0.7386  0.3488
  450TMC3    C6 6704   3.974   4.268  13.444 -0.0313 -0.1431  0.4387
  450TMC3     C 6705   4.274   4.243  13.690  0.2420 -0.6931 -0.4792
  450TMC3     O 6706   4.396   4.249  13.672 -0.6528 -0.6979  0.4912
  450TMC3     H 6707   4.309   4.335  13.444  0.8856  1.3572  1.7548
  450TMC3    H1 6708   4.030   4.326  13.760  0.7852 -1.7759  0.4228
  450TMC3    H2 6709   3.898   4.233  13.374 -1.5981  2.5263  0.8104
  450TMC3    C7 6710   3.868   4.188  13.643  0.0532 -0.7465  0.2545
  450TMC3    C8 6711   4.118   4.300  13.254  0.1317  0.0910 -0.2434
  450TMC3    O1 6712   3.915   4.144  13.746 -0.7698 -0.5412  0.3817
  450TMC3    O2 6713   4.018   4.298  13.183  0.2160 -0.0793  0.2469
  451MPD2     C 6714   4.421   2.658   0.579 -0.2971 -0.3361 -0.4786
  451MPD2    C1 6715   4.544   2.713   0.539 -0.5698 -0.7134  0.4352
  451MPD2    C2 6716   4.658   2.634   0.566  0.8800  0.0198  0.9589
  451MPD2    C3 6717   4.646   2.503   0.616  0.0527  0.1462  0.4778
  451MPD2    C4 6718   4.521   2.451   0.645 -0.8667  0.7731  0.2751
  451MPD2    C5 6719   4.412   2.530   0.627  0.0630 -0.0282  0.2156
  451MPD2     H 6720   0.031   2.675   0.542  0.8980 -0.3448  0.4040
  451MPD2    H1 6721   4.505   2.352   0.687 -0.0344  0.7753  0.5864
  451MPD2    H2 6722   4.331   2.714   0.557 -0.3513  0.4110  1.6292
  451MPD2    H3 6723   4.315   2.490   0.654  0.5494 -1.4303 -0.1009
  451MPD2     N 6724   0.047   2.432   0.633 -0.0475 -0.2606 -0.0135
  451MPD2    H5 6725   0.126   2.476   0.586  0.2672 -2.3056 -1.4098
  451MPD2    N1 6726   4.544   2.848   0.500 -0.0805  0.5115  0.6877
  451MPD2    H7 6727   4.452   2.891   0.503 -0.9920 -1.3371 -0.8529
  452TMC3    C1 6728   0.206   2.273   0.696 -0.0423 -0.0081  0.3788
  452TMC3    C2 6729   0.263   2.196   0.793  0.1986 -1.0905  0.0465
  452TMC3    C3 6730   0.400   2.173   0.782  0.5141 -0.0561 -0.2642
  452TMC3    C4 6731   0.272   2.312   0.586  0.6325  0.0705 -0.1893
  452TMC3    C5 6732   0.404   2.279   0.568 -0.0119  0.3272  0.6384
  452TMC3    C6 6733   0.475   2.216   0.671 -0.2053  0.9494 -0.2094
  452TMC3     C 6734   0.068   2.311   0.698 -0.3099 -0.5141  0.7073
  452TMC3     O 6735   4.709   2.231   0.743 -0.1030  0.4693 -0.0349
  452TMC3     H 6736   0.200   2.157   0.872  0.0795  1.3918  1.1754
  452TMC3    H1 6737   0.239   2.365   0.498 -0.7847 -0.5102  0.0083
  452TMC3    H2 6738   0.581   2.192   0.663 -0.1450  0.5319  2.0107
  452TMC3    C7 6739   0.485   2.338   0.455 -0.5846 -0.7599 -0.4900
  452TMC3    C8 6740   0.471   2.146   0.904  0.4588  0.7273 -0.6977
  452TMC3    O1 6741   0.441   2.427   0.384 -0.3976 -0.6426 -0.0292
  452TMC3    O2 6742   0.405   2.129   1.005 -0.5834 -0.2218  0.3219
  453TMC3    C1 6743   2.030   0.738  12.028 -0.0644 -0.3376 -0.1346
  453TMC3    C2 6744   1.948   0.664  12.109  0.0690 -0.2729 -0.0579
  453TMC3    C3 6745   1.898   0.557  12.042 -0.0814 -0.6073  0.3762
  453TMC3    C4 6746   2.078   0.693  11.906 -0.0577  0.4357 -0.2290
  453TMC3    C5 6747   2.021   0.583  11.847  0.8470 -0.2372 -0.3918
  453TMC3    C6 6748   1.933   0.511  11.922 -0.0873 -0.4654 -0.0898
  453TMC3     C 6749   2.107   0.843  12.096 -0.1334 -0.6560  0.0590
  453TMC3     O 6750   2.202   0.894  12.037 -0.3281  0.4686  0.4991
  453TMC3     H 6751   1.935   0.673  12.216 -3.4422 -1.4780 -0.3838
  453TMC3    H1 6752   2.142   0.764  11.854  0.9169  1.4676  2.4279
  453TMC3    H2 6753   1.866   0.438  11.877 -0.2160 -0.5459  0.2319
  453TMC3    C7 6754   2.077   0.520  11.728 -0.0962 -0.4243 -0.2587
  453TMC3    C8 6755   1.864   0.453  12.136 -0.0285 -0.2140  0.8295
  453TMC3    O1 6756   2.031   0.416  11.688  0.5231  0.2210  0.6551
  453TMC3    O2 6757   1.804   0.469  12.238 -0.6233  0.1442 -0.0933
  454MPD2     C 6758   0.705   4.242  16.512  0.4077 -0.4056  0.7472
  454MPD2    C1 6759   0.617   4.332  16.451  0.5629 -0.0792 -0.1623
  454MPD2    C2 6760   0.528   4.413  16.526  0.3250 -0.0668  0.6026
  454MPD2    C3 6761   0.517   4.391  16.660 -0.5775 -0.1439  0.4484
  454MPD2    C4 6762   0.610   4.301  16.722  0.1573 -0.8142  0.4735
  454MPD2    C5 6763   0.708   4.234  16.645  0.8462  0.3609 -0.2890
  454MPD2     H 6764   0.463   4.486  16.478 -0.2200 -1.1087 -0.2296
  454MPD2    H1 6765   0.610   4.287  16.829 -0.1151 -2.6276  0.2282
  454MPD2    H2 6766   0.776   4.188  16.451  0.5033  0.4974  0.0594
  454MPD2    H3 6767   0.768   4.161  16.700  0.0298 -1.7139 -2.1523
  454MPD2     N 6768   0.433   4.475  16.738 -0.5345 -0.2110 -0.3859
  454MPD2    H5 6769   0.455   4.484  16.837 -1.1474  1.5433 -0.4005
  454MPD2    N1 6770   0.611   4.350  16.311  0.0606  0.3874 -0.0792
  454MPD2    H7 6771   0.554   4.428  16.281 -0.0456  0.4883  0.3743
  455TMC3    C1 6772   0.242   4.486  16.580  0.7123 -0.0670 -0.4238
  455TMC3    C2 6773   0.155   4.567  16.531  0.6115  0.4468  0.3749
  455TMC3    C3 6774   0.029   4.526  16.488  0.1288 -0.4170  0.2007
  455TMC3    C4 6775   0.213   4.359  16.576  0.7195  1.0682 -1.0489
  455TMC3    C5 6776   0.102   4.307  16.508 -0.2902 -0.0751  0.2442
  455TMC3    C6 6777   0.002   4.395  16.458 -0.3312  0.0224  0.6434
  455TMC3     C 6778   0.312   4.538  16.703 -0.5935 -0.1322 -0.5428
  455TMC3     O 6779   0.257   4.634  16.756 -0.0784 -0.0761 -0.0321
  455TMC3     H 6780   0.164   4.673  16.552 -0.7517  0.9370 -1.5145
  455TMC3    H1 6781   0.279   4.298  16.636 -1.0762  0.3929  0.2494
  455TMC3    H2 6782   4.637   4.365  16.405 -0.2181  0.4883  0.1892
  455TMC3    C7 6783   0.130   4.195  16.424 -0.1321  1.1656 -0.0463
  455TMC3    C8 6784   4.645   4.570  16.575 -0.2390 -0.1853  0.2280
  455TMC3    O1 6785   0.043   4.158  16.344  0.3688 -0.1514  0.2849
  455TMC3    O2 6786   4.538   4.527  16.543 -0.4388 -0.0753 -0.6636
  456MPD2     C 6787   3.262   4.634  15.639 -0.2033  0.3543  0.4767
  456MPD2    C1 6788   3.273   4.571  15.754  0.5258 -0.0386 -0.0674
  456MPD2    C2 6789   3.218   4.636  15.865  0.2263  0.3919  0.4000
  456MPD2    C3 6790   3.176   0.045  15.865 -0.2611 -0.8014  1.0394
  456MPD2    C4 6791   3.185   0.115  15.742 -0.6797  0.2944 -0.2178
  456MPD2    C5 6792   3.217   0.041  15.631 -0.3723 -0.6592  0.0268
  456MPD2     H 6793   3.217   4.581  15.958 -2.1393  1.0329  0.7378
  456MPD2    H1 6794   3.157   0.219  15.725  2.0205  1.1157  0.2349
  456MPD2    H2 6795   3.267   4.584  15.543  1.1835 -2.0412  1.7859
  456MPD2    H3 6796   3.205   0.087  15.534 -3.6483 -0.3462  0.5994
  456MPD2     N 6797   3.128   0.105  15.976  0.0439 -1.0127 -0.6464
  456MPD2    H5 6798   3.124   0.041  16.056 -0.0562 -2.0722 -1.5017
  456MPD2    N1 6799   3.317   4.442  15.748  0.0627 -0.5282 -0.2826
  456MPD2    H7 6800   3.361   4.413  15.661  0.3680 -2.0273  0.3811
  457TMC3    C1 6801   3.070   0.288  16.120 -0.0167 -0.3959  0.1184
  457TMC3    C2 6802   2.985   0.396  16.130  0.0862 -0.6324 -0.7272
  457TMC3    C3 6803   2.996   0.472  16.240  0.3015 -0.1598 -0.0789
  457TMC3    C4 6804   3.161   0.257  16.222  0.5768 -0.2411 -0.7019
  457TMC3    C5 6805   3.164   0.334  16.331  0.4028  0.3345  0.6690
  457TMC3    C6 6806   3.082   0.445  16.344  0.7048  0.0846  1.4409
  457TMC3     C 6807   3.087   0.240  15.983  0.3639  0.8116 -0.0179
  457TMC3     O 6808   3.048   0.320  15.897  0.2019  0.4692  0.5130
  457TMC3     H 6809   2.918   0.417  16.048  0.1195  1.1028 -0.3097
  457TMC3    H1 6810   3.247   0.191  16.214 -1.5931 -3.2868  0.9531
  457TMC3    H2 6811   3.086   0.513  16.428  0.3936  1.2145  0.5491
  457TMC3    C7 6812   3.247   0.292  16.446 -0.3721 -0.0802 -1.3026
  457TMC3    C8 6813   2.911   0.594  16.259  0.4773  0.5301  0.5156
  457TMC3    O1 6814   3.235   0.175  16.489 -0.6479 -0.6407  0.1735
  457TMC3    O2 6815   2.926   0.651  16.364 -0.0827 -0.2566 -0.7075
  458MPD2     C 6816   1.214   4.088  12.204  0.1406 -0.4138  0.0842
  458MPD2    C1 6817   1.149   4.092  12.329 -0.3992  0.1983  0.6505
  458MPD2    C2 6818   1.013   4.124  12.337 -0.9199 -1.2432  0.2528
  458MPD2    C3 6819   0.937   4.119  12.226  0.5335  0.3233 -0.5787
  458MPD2    C4 6820   0.998   4.112  12.096  0.6217  0.1168  0.3477
  458MPD2    C5 6821   1.138   4.100  12.094  0.1416 -0.5136 -0.8815
  458MPD2     H 6822   0.961   4.125  12.433  0.1568 -0.1609  0.8285
  458MPD2    H1 6823   0.932   4.107  12.010  0.4921 -1.0223  0.5134
  458MPD2    H2 6824   1.321   4.073  12.190  0.1679 -0.1572  0.0286
  458MPD2    H3 6825   1.184   4.090  11.996 -0.0872  1.5730 -1.2026
  458MPD2     N 6826   0.794   4.129  12.225 -0.0800 -0.1123  0.3184
  458MPD2    H5 6827   0.759   4.136  12.130 -1.2755 -1.3531  0.6743
  458MPD2    N1 6828   1.232   4.062  12.437 -0.1025 -0.2729  0.1923
  458MPD2    H7 6829   1.329   4.086  12.420  0.0087 -0.5906  0.3827
  459TMC3    C1 6830   1.298   4.040  12.663 -0.2395 -0.1732  0.6420
  459TMC3    C2 6831   1.436   4.063  12.630  0.2046 -0.1729  0.0917
  459TMC3    C3 6832   1.530   4.044  12.732  0.5645  0.4280 -0.6037
  459TMC3    C4 6833   1.261   4.031  12.795 -0.4420  0.1615 -0.2680
  459TMC3    C5 6834   1.356   4.017  12.892 -0.1574  0.6310 -0.3541
  459TMC3    C6 6835   1.494   4.026  12.864 -0.0458 -0.1503 -0.4140
  459TMC3     C 6836   1.191   4.033  12.565 -0.0489  0.2224 -0.4612
  459TMC3     O 6837   1.080   4.006  12.604  0.7018 -0.8994  0.4590
  459TMC3     H 6838   1.470   4.082  12.529 -2.6874  0.0910 -0.8404
  459TMC3    H1 6839   1.157   4.029  12.824 -0.3724  0.0435 -0.0317
  459TMC3    H2 6840   1.567   4.003  12.941 -0.4714  0.4239  0.1580
  459TMC3    C7 6841   1.331   3.902  12.982 -0.6605 -0.0647 -0.6355
  459TMC3    C8 6842   1.661   4.104  12.713  0.2829  0.1350  0.2011
  459TMC3    O1 6843   1.409   3.810  12.986 -0.2053 -0.2902 -0.1775
  459TMC3    O2 6844   1.712   4.100  12.603 -0.1110 -0.2568  0.1501
  460MPD2     C 6845   0.029   1.159  10.742 -0.1771  0.4801  0.2420
  460MPD2    C1 6846   0.050   1.291  10.746  0.4461  0.3053  0.6114
  460MPD2    C2 6847   0.064   1.351  10.622  0.0313 -0.0922 -0.5040
  460MPD2    C3 6848   0.054   1.290  10.499  0.3616 -0.1544  0.0639
  460MPD2    C4 6849   0.011   1.155  10.503  0.7767  0.1242 -0.2127
  460MPD2    C5 6850   4.724   1.091  10.625 -0.3182 -0.6479 -0.0511
  460MPD2     H 6851   0.076   1.459  10.625 -0.8684  0.1113 -4.4346
  460MPD2    H1 6852   4.713   1.103  10.410  1.0617 -0.6303  0.1351
  460MPD2    H2 6853   0.017   1.100  10.832  0.2765 -0.1423 -0.1040
  460MPD2    H3 6854   4.689   0.990  10.639  1.0662 -0.8793  1.7054
  460MPD2     N 6855   0.067   1.360  10.375 -0.1065  0.6753  0.2680
  460MPD2    H5 6856   0.105   1.454  10.380  0.2949  0.5444 -0.4325
  460MPD2    N1 6857   0.053   1.358  10.876 -0.3845 -0.1393 -0.2477
  460MPD2    H7 6858   0.028   1.307  10.960 -1.5376  0.1430 -0.4211
  461TMC3    C1 6859   0.071   1.400  10.138 -0.3379  0.5857 -0.6289
  461TMC3    C2 6860   0.123   1.351  10.016 -0.1378 -0.1481 -0.5993
  461TMC3    C3 6861   0.141   1.444   9.918 -0.2208  0.2822  0.2662
  461TMC3    C4 6862   0.075   1.533  10.166  0.2740  0.5832 -0.5092
  461TMC3    C5 6863   0.116   1.614  10.066 -0.2438 -0.1893 -0.0790
  461TMC3    C6 6864   0.131   1.574   9.937 -0.1321 -0.8110  0.7404
  461TMC3     C 6865   0.043   1.308  10.248  1.0694 -0.1794  0.9802
  461TMC3     O 6866   4.725   1.197  10.212  0.0785  0.5773  0.3408
  461TMC3     H 6867   0.136   1.246   9.996 -1.3727 -0.6860  1.4265
  461TMC3    H1 6868   0.022   1.578  10.249  0.7706  3.1060 -1.5384
  461TMC3    H2 6869   0.149   1.648   9.860 -0.9292 -1.8635 -0.4634
  461TMC3    C7 6870   0.115   1.757  10.092  0.9354 -0.4774  0.0555
  461TMC3    C8 6871   0.183   1.395   9.792 -0.9993  0.9878  0.3136
  461TMC3    O1 6872   0.106   1.828   9.993  0.4879  0.0171 -0.4364
  461TMC3    O2 6873   0.284   1.326   9.798 -0.0029  0.4151 -0.1196
  462TMC3    C1 6874   4.460   2.517   0.239  0.1285 -0.6525  0.3806
  462TMC3    C2 6875   4.551   2.434   0.296 -0.6919  0.3553  0.9871
  462TMC3    C3 6876   4.515   2.303   0.320 -0.4645  0.2603 -0.2978
  462TMC3    C4 6877   4.339   2.480   0.203 -0.5175 -0.0026  0.3714
  462TMC3    C5 6878   4.306   2.355   0.230  0.0484  0.0830 -0.1858
  462TMC3    C6 6879   4.382   2.264   0.293 -0.1398 -0.4652  0.0891
  462TMC3     C 6880   4.518   2.645   0.199 -0.1818 -0.1139  0.3536
  462TMC3     O 6881   4.637   2.645   0.162 -0.1266 -0.2972 -0.2589
  462TMC3     H 6882   4.650   2.473   0.316 -0.1777 -0.7387  0.5383
  462TMC3    H1 6883   4.267   2.544   0.154 -1.1476  1.1010  2.7547
  462TMC3    H2 6884   4.353   2.161   0.280  1.3099 -0.8055 -0.4528
  462TMC3    C7 6885   4.164   2.304   0.213  0.3383 -0.2940  0.5119
  462TMC3    C8 6886   4.613   2.208   0.356 -0.5611 -0.7872 -0.1452
  462TMC3    O1 6887   4.132   2.200   0.268  0.4123 -0.3076  0.1201
  462TMC3    O2 6888   4.575   2.115   0.428 -0.2592 -0.4947 -0.1915
  463MPD2     C 6889   1.196   1.102   1.848  0.0546  1.1087  0.7002
  463MPD2    C1 6890   1.062   1.102   1.807 -0.2777 -0.0820 -0.6133
  463MPD2    C2 6891   1.002   1.228   1.787  0.2346  0.0275 -0.3226
  463MPD2    C3 6892   1.069   1.343   1.809  0.5692  0.2705  0.3386
  463MPD2    C4 6893   1.197   1.341   1.867 -0.6569  0.0615  1.0185
  463MPD2    C5 6894   1.262   1.219   1.881 -0.1622 -0.5185 -0.1775
  463MPD2     H 6895   0.899   1.225   1.752  0.6611  0.3541 -1.6153
  463MPD2    H1 6896   1.259   1.424   1.897 -2.5289  2.0357 -0.5938
  463MPD2    H2 6897   1.253   1.013   1.868 -1.4300  0.0176  0.0887
  463MPD2    H3 6898   1.356   1.209   1.935  1.0542  0.3412 -2.1109
  463MPD2     N 6899   1.020   1.468   1.768  0.0385 -0.3498 -0.8655
  463MPD2    H5 6900   1.085   1.544   1.784 -0.4966  0.4564 -2.5665
  463MPD2    N1 6901   0.981   0.984   1.801  0.2135  0.2144  0.2496
  463MPD2    H7 6902   0.883   0.990   1.778  0.1519  0.5482  0.5970
  464TMC3    C1 6903   0.942   0.749   1.772  0.6834  0.2371  0.2112
  464TMC3    C2 6904   0.807   0.771   1.762 -0.3067  0.1873 -0.0052
  464TMC3    C3 6905   0.732   0.676   1.696  0.0126  0.2910 -0.6622
  464TMC3    C4 6906   1.005   0.638   1.730  0.8246  0.0163 -0.0161
  464TMC3    C5 6907   0.926   0.549   1.661 -0.2958  0.7066  0.4027
  464TMC3    C6 6908   0.794   0.570   1.640 -0.4968 -0.1173 -0.2808
  464TMC3     C 6909   1.030   0.858   1.816 -0.1780 -0.0714  0.4539
  464TMC3     O 6910   1.141   0.814   1.847  0.5418  0.7107 -0.2420
  464TMC3     H 6911   0.762   0.861   1.802 -0.4514  1.5245 -3.1606
  464TMC3    H1 6912   1.109   0.616   1.750  1.0020  2.8072  2.1339
  464TMC3    H2 6913   0.739   0.490   1.591  0.1309 -0.2907 -0.6887
  464TMC3    C7 6914   0.988   0.437   1.602  0.1529  0.6990 -0.1435
  464TMC3    C8 6915   0.595   0.708   1.655  0.0472 -0.4098 -0.1335
  464TMC3    O1 6916   1.106   0.448   1.562  0.2858  0.1037 -0.6073
  464TMC3    O2 6917   0.543   0.667   1.549  0.3097 -0.1558  0.1056
  465MPD2     C 6918   1.719   0.274  16.389 -0.3316 -0.3870 -0.4642
  465MPD2    C1 6919   1.649   0.332  16.493 -0.3222 -0.3133 -0.7952
  465MPD2    C2 6920   1.524   0.285  16.523  0.1139  0.0573  0.3290
  465MPD2    C3 6921   1.460   0.203  16.433 -0.1398  0.2273 -0.3618
  465MPD2    C4 6922   1.527   0.156  16.322  0.3630 -0.1792 -0.6510
  465MPD2    C5 6923   1.659   0.181  16.303 -0.0638  0.7685  0.2010
  465MPD2     H 6924   1.472   0.320  16.612  1.4145  1.9860  0.3446
  465MPD2    H1 6925   1.490   0.097  16.239 -0.5090 -1.5619  0.7283
  465MPD2    H2 6926   1.818   0.309  16.364  0.0792 -1.6485 -0.6189
  465MPD2    H3 6927   1.710   0.155  16.211 -0.3290 -0.8971  0.5291
  465MPD2     N 6928   1.324   0.190  16.454  0.3720 -0.4024  0.3422
  465MPD2    H5 6929   1.277   0.235  16.532 -0.5922 -0.4043 -0.2353
  465MPD2    N1 6930   1.711   0.419  16.590  0.1988  0.6588 -0.4426
  465MPD2    H7 6931   1.652   0.451  16.666  0.3013  0.1839 -0.1604
  466TMC3    C1 6932   0.952   0.216  16.570  0.1327 -0.3181 -0.4434
  466TMC3    C2 6933   0.882   0.292  16.475  0.0574 -0.3051 -0.5377
  466TMC3    C3 6934   0.931   0.289  16.343 -0.6827 -0.6326 -0.2221
  466TMC3    C4 6935   1.067   0.149  16.544  0.4938  0.3711  0.3299
  466TMC3    C5 6936   1.100   0.141  16.406  0.4148 -0.0410  0.2557
  466TMC3    C6 6937   1.025   0.200  16.309  0.3227 -0.4797  0.0148
  466TMC3     C 6938   0.893   0.191  16.700  0.2249  0.6964 -0.6921
  466TMC3     O 6939   0.973   0.173  16.790 -0.4388  0.7184  0.1209
  466TMC3     H 6940   0.805   0.359  16.512 -0.0626 -0.1766 -1.0267
  466TMC3    H1 6941   1.122   0.086  16.613  0.9200 -0.2234 -0.5487
  466TMC3    H2 6942   1.078   0.195  16.214 -0.4395 -1.9377 -0.3269
  466TMC3    C7 6943   1.240   0.119  16.370  0.1508  0.1921 -0.5393
  466TMC3    C8 6944   0.959   0.417  16.284 -0.1695 -0.3751  0.6257
  466TMC3    O1 6945   1.261   0.053  16.270 -0.5268 -0.2493 -0.1223
  466TMC3    O2 6946   0.973   0.413  16.164  0.0732  0.2028  0.3294
  467TMC3    C1 6947   3.102   3.381  13.481  0.2442 -0.8931 -0.2551
  467TMC3    C2 6948   3.123   3.408  13.350 -0.2194 -0.3254 -0.5738
  467TMC3    C3 6949   3.014   3.433  13.275 -0.1292 -0.0788  0.3022
  467TMC3    C4 6950   2.973   3.383  13.530  0.1587  0.1223  0.4291
  467TMC3    C5 6951   2.867   3.415  13.455  0.4264  0.4004 -0.0740
  467TMC3    C6 6952   2.890   3.436  13.323  0.4063 -0.2192  0.3515
  467TMC3     C 6953   3.212   3.365  13.575  0.3429 -0.5493  0.6166
  467TMC3     O 6954   3.192   3.291  13.672 -0.2164 -0.2693  0.3597
  467TMC3     H 6955   3.224   3.413  13.312 -0.9696  0.9670 -2.3646
  467TMC3    H1 6956   2.961   3.378  13.638 -1.5165 -0.1533  0.2283
  467TMC3    H2 6957   2.804   3.447  13.259 -0.0747  1.1181  1.2276
  467TMC3    C7 6958   2.743   3.454  13.506  0.1398 -0.1630  0.2097
  467TMC3    C8 6959   3.025   3.484  13.143  0.1013 -0.2718 -0.0187
  467TMC3    O1 6960   2.679   3.530  13.427 -0.3193  0.1714  0.3388
  467TMC3    O2 6961   2.953   3.578  13.112 -0.3245 -0.0815 -0.8157
  468MPD2     C 6962   2.098   1.221  10.530 -0.0118  0.0987 -0.3638
  468MPD2    C1 6963   2.081   1.242  10.663  0.1162  0.2866 -0.2943
  468MPD2    C2 6964   2.061   1.139  10.751 -0.1285  0.1231 -0.9947
  468MPD2    C3 6965   2.061   1.010  10.711  0.0295  1.0390 -0.3104
  468MPD2    C4 6966   2.080   0.983  10.573 -0.3611 -0.3419 -0.3037
  468MPD2    C5 6967   2.099   1.088  10.489  0.1545 -0.1709  0.6238
  468MPD2     H 6968   2.052   1.162  10.857  1.1621  1.0052 -1.0661
  468MPD2    H1 6969   2.098   0.881  10.542 -2.6331  0.0595 -2.8758
  468MPD2    H2 6970   2.111   1.295  10.452 -0.9101  1.4426  0.7581
  468MPD2    H3 6971   2.130   1.063  10.388 -4.0280 -1.6220 -0.2763
  468MPD2     N 6972   2.043   0.893  10.788 -0.0638 -0.0453  0.1625
  468MPD2    H5 6973   2.058   0.805  10.740 -1.1381 -0.0811 -0.1172
  468MPD2    N1 6974   2.059   1.373  10.712 -0.7351 -0.3318 -0.0187
  468MPD2    H7 6975   2.038   1.380  10.811 -1.2251  2.2032 -0.2878
  469TMC3    C1 6976   2.053   1.609  10.702 -0.4513  0.6114  0.2940
  469TMC3    C2 6977   2.095   1.611  10.833 -0.3048 -0.1416 -0.0452
  469TMC3    C3 6978   2.118   1.730  10.890 -0.1278  0.7109  0.2765
  469TMC3    C4 6979   2.011   1.722  10.625  0.3743 -0.6554 -0.5607
  469TMC3    C5 6980   2.028   1.839  10.691 -0.2293 -0.5302  0.0013
  469TMC3    C6 6981   2.070   1.844  10.818 -0.5222  0.0484  0.0528
  469TMC3     C 6982   2.059   1.481  10.627 -0.0563  0.5971 -0.9651
  469TMC3     O 6983   2.047   1.496  10.504 -0.1211 -0.3447 -0.4873
  469TMC3     H 6984   2.137   1.525  10.883  0.6910  0.3689  0.0095
  469TMC3    H1 6985   1.971   1.721  10.525  1.0760  0.5737 -0.8532
  469TMC3    H2 6986   2.093   1.942  10.858 -1.9284  0.1171  0.6643
  469TMC3    C7 6987   1.955   1.946  10.629 -0.3567  0.1978  0.1038
  469TMC3    C8 6988   2.223   1.739  10.990 -0.5396 -0.3086  0.6199
  469TMC3    O1 6989   1.998   1.992  10.522  0.1502 -0.2125  0.3130
  469TMC3    O2 6990   2.308   1.649  11.000  0.0301 -0.1380 -0.4448
  470TMC3    C1 6991   3.572   2.596   0.208  0.0994  0.2267  0.4412
  470TMC3    C2 6992   3.564   2.719   0.270  0.3013  0.7342  0.0686
  470TMC3    C3 6993   3.616   2.728   0.402  0.0444  0.1672  0.1372
  470TMC3    C4 6994   3.633   2.480   0.271 -0.3127  0.5960 -0.7338
  470TMC3    C5 6995   3.674   2.502   0.399  0.3771  0.5939 -0.0195
  470TMC3    C6 6996   3.665   2.617   0.468 -0.6457 -0.0682 -0.4615
  470TMC3     C 6997   3.547   2.588   0.064 -0.0750 -0.0027  0.1495
  470TMC3     O 6998   3.545   2.690  17.696 -0.0740 -0.4103  0.7724
  470TMC3     H 6999   3.551   2.807   0.208 -4.4623  0.2207  0.3593
  470TMC3    H1 7000   3.661   2.395   0.209  1.9071  0.6392  0.2215
  470TMC3    H2 7001   3.707   2.640   0.565  0.4777  2.2290 -1.5057
  470TMC3    C7 7002   3.743   2.395   0.461 -0.0765 -0.1205 -0.3768
  470TMC3    C8 7003   3.604   2.849   0.482 -0.7362  0.7855 -0.2272
  470TMC3    O1 7004   3.756   2.294   0.391 -0.4539 -0.3883 -0.3751
  470TMC3    O2 7005   3.662   2.846   0.590  0.2484 -0.7684 -0.2694
  471MPD2     C 7006   4.219   4.042  16.632  0.2016 -0.0522  0.2086
  471MPD2    C1 7007   4.313   3.942  16.632  0.2519  0.4914 -0.1339
  471MPD2    C2 7008   4.389   3.926  16.747  0.6659  0.0085  0.5068
  471MPD2    C3 7009   4.352   3.978  16.871  0.7975  0.0900 -0.0304
  471MPD2    C4 7010   4.248   4.067  16.871  0.3562 -0.2135  0.0881
  471MPD2    C5 7011   4.189   4.102  16.754 -0.1955 -0.0399  0.2778
  471MPD2     H 7012   4.471   3.857  16.732  0.2116 -0.0835 -1.5641
  471MPD2    H1 7013   4.202   4.103  16.962 -2.0972 -2.1274 -0.3859
  471MPD2    H2 7014   4.172   4.086  16.545  1.7583  1.5616  0.1897
  471MPD2    H3 7015   4.109   4.176  16.752  0.9477  1.2234  0.8491
  471MPD2     N 7016   4.419   3.944  16.991  0.6704 -0.9101  0.2405
  471MPD2    H5 7017   4.395   3.983  17.081 -0.1020  0.6749 -0.6528
  471MPD2    N1 7018   4.336   3.872  16.507 -0.5119 -0.3580  0.0527
  471MPD2    H7 7019   4.406   3.799  16.512  0.2957  0.4242  0.3675
  472TMC3    C1 7020   4.276   3.749  16.323 -0.7712  0.6549  0.0385
  472TMC3    C2 7021   4.225   3.754  16.198  0.0036  0.1960  0.3816
  472TMC3    C3 7022   4.229   3.638  16.122  0.7622 -0.0568 -0.3402
  472TMC3    C4 7023   4.316   3.634  16.389 -0.7428  0.7676  1.0804
  472TMC3    C5 7024   4.313   3.526  16.313 -0.3809 -0.5210  0.0192
  472TMC3    C6 7025   4.278   3.522  16.178  0.2051 -0.4690 -0.2014
  472TMC3     C 7026   4.251   3.866  16.404 -0.1213  0.1309  0.2992
  472TMC3     O 7027   4.176   3.953  16.358  0.0947  0.0828 -0.0761
  472TMC3     H 7028   4.180   3.843  16.155  1.0533  0.9794  0.9230
  472TMC3    H1 7029   4.336   3.632  16.495 -1.6662 -0.2788  1.2323
  472TMC3    H2 7030   4.258   3.440  16.110  2.3411  0.0893 -1.5223
  472TMC3    C7 7031   4.285   3.403  16.389  0.9852 -0.7239  0.1719
  472TMC3    C8 7032   4.104   3.613  16.058  0.3033  0.9930 -0.3907
  472TMC3    O1 7033   4.288   3.412  16.513  0.0140 -0.0369 -0.7577
  472TMC3    O2 7034   4.086   3.630  15.940  0.2478  0.1809 -0.1040
  473MPD2     C 7035   4.680   0.970  13.648  0.0571  1.0261  0.7190
  473MPD2    C1 7036   4.658   1.091  13.585 -0.4114 -0.2900 -0.1169
  473MPD2    C2 7037   4.643   1.196  13.667 -0.0410  0.5310 -0.0986
  473MPD2    C3 7038   4.666   1.192  13.806 -0.8065 -0.0611  0.6189
  473MPD2    C4 7039   4.713   1.078  13.851 -0.5088  0.2794  0.0411
  473MPD2    C5 7040   4.712   0.965  13.779 -0.3374  0.3847 -0.4034
  473MPD2     H 7041   4.640   1.292  13.615 -2.2542  0.6523  0.2731
  473MPD2    H1 7042   0.020   1.067  13.955  2.1775  0.1678 -0.7893
  473MPD2    H2 7043   4.676   0.873  13.599  0.5706  1.7043 -0.6710
  473MPD2    H3 7044   0.005   0.869  13.828  1.3434  1.2305  0.6553
  473MPD2     N 7045   4.662   1.296  13.894 -0.6559 -0.4527 -0.2371
  473MPD2    H5 7046   4.688   1.273  13.989  1.7231  2.1985 -0.2295
  473MPD2    N1 7047   4.628   1.110  13.444  0.4361  0.7629 -0.0045
  473MPD2    H7 7048   4.618   1.207  13.415 -0.2383  1.4604  2.6201
  474TMC3    C1 7049   4.579   1.495  13.998 -0.2022  0.4306 -0.3111
  474TMC3    C2 7050   4.483   1.591  13.986 -0.0472  0.1853 -0.5705
  474TMC3    C3 7051   4.488   1.699  14.073 -0.4027 -0.2461 -0.2909
  474TMC3    C4 7052   4.677   1.507  14.084 -0.0358 -0.2326  0.3224
  474TMC3    C5 7053   4.677   1.611  14.181 -0.0053  0.0116  0.0918
  474TMC3    C6 7054   4.583   1.713  14.172  0.2587 -0.0144  0.2453
  474TMC3     C 7055   4.594   1.419  13.876 -0.1528 -1.1053  0.4625
  474TMC3     O 7056   4.523   1.450  13.781  0.6374 -0.0217  0.4601
  474TMC3     H 7057   4.413   1.588  13.904 -0.0809  1.1861 -0.5706
  474TMC3    H1 7058   0.033   1.434  14.085 -0.2789 -0.5001  0.0020
  474TMC3    H2 7059   4.590   1.802  14.234  1.2851 -0.3385  0.5852
  474TMC3    C7 7060   0.060   1.611  14.271  0.7556 -0.4239 -0.1109
  474TMC3    C8 7061   4.388   1.798  14.047 -0.8929  0.2902 -0.3792
  474TMC3    O1 7062   0.166   1.567  14.227 -0.0677  0.3587 -0.1749
  474TMC3    O2 7063   4.285   1.756  13.993  0.2369  0.0515 -0.3038
  475MPD2     C 7064   2.869   3.457  10.170 -0.1091  0.4070 -0.2327
  475MPD2    C1 7065   2.853   3.586  10.122  0.3698  0.5979  0.1793
  475MPD2    C2 7066   2.753   3.663  10.179  0.3090 -0.1179 -0.1829
  475MPD2    C3 7067   2.672   3.611  10.283  0.8231  0.0426 -0.0257
  475MPD2    C4 7068   2.678   3.476  10.317 -0.9410  0.4453 -0.1957
  475MPD2    C5 7069   2.782   3.408  10.258  0.0054  0.0942 -0.4502
  475MPD2     H 7070   2.743   3.768  10.153  0.9753 -0.1189 -0.4454
  475MPD2    H1 7071   2.604   3.423  10.377 -2.0920 -0.9266 -2.8250
  475MPD2    H2 7072   2.930   3.387  10.114  1.7978  0.0553  2.2976
  475MPD2    H3 7073   2.783   3.302  10.276 -2.8715  0.1153 -0.1395
  475MPD2     N 7074   2.594   3.712  10.343  0.1440 -0.3170 -0.2141
  475MPD2    H5 7075   2.620   3.807  10.319  1.4935 -0.1241  1.9880
  475MPD2    N1 7076   2.935   3.638  10.021 -1.2929 -0.4000 -0.3000
  475MPD2    H7 7077   3.023   3.595   9.994 -1.0069  0.7556 -1.1911
  476TMC3    C1 7078   2.971   3.815   9.851 -0.4250 -0.5388 -0.5301
  476TMC3    C2 7079   2.887   3.907   9.789  0.5357  0.3451 -0.9206
  476TMC3    C3 7080   2.919   4.039   9.801  0.0148 -0.5508  0.2894
  476TMC3    C4 7081   3.090   3.855   9.903  0.4069 -0.5673  0.2886
  476TMC3    C5 7082   3.124   3.985   9.904  0.5733 -0.6028  0.4756
  476TMC3    C6 7083   3.037   4.081   9.854 -0.3429 -0.5543  0.4103
  476TMC3     C 7084   2.881   3.735   9.933 -0.5595  0.1737 -0.7140
  476TMC3     O 7085   2.765   3.763   9.919  0.2146 -0.3040 -0.5255
  476TMC3     H 7086   2.793   3.874   9.747 -1.4795  0.1137  3.7717
  476TMC3    H1 7087   3.157   3.784   9.950  1.1295 -1.5346 -2.2209
  476TMC3    H2 7088   3.044   4.186   9.880 -1.6900  0.0524 -1.6142
  476TMC3    C7 7089   3.218   4.023  10.009  0.0723 -0.0894 -0.2513
  476TMC3    C8 7090   2.804   4.125   9.837 -0.2412  0.1320  0.0860
  476TMC3    O1 7091   3.258   3.935  10.089 -0.0494 -0.3312  0.4210
  476TMC3    O2 7092   2.810   4.247   9.844 -0.2681 -0.2927  0.4742
  477MPD2     C 7093   0.193   0.258  11.375  0.4168 -0.2875  0.2756
  477MPD2    C1 7094   0.092   0.288  11.467  0.8450 -0.0199  0.4167
  477MPD2    C2 7095   0.112   0.252  11.603  0.1228  0.0206 -0.3363
  477MPD2    C3 7096   0.237   0.211  11.644  0.1962 -0.0650  0.7029
  477MPD2    C4 7097   0.338   0.188  11.555 -0.6333  0.1012  0.1367
  477MPD2    C5 7098   0.314   0.207  11.420 -0.5042 -0.0931 -0.3444
  477MPD2     H 7099   0.032   0.259  11.677  0.5929 -1.0170  0.2697
  477MPD2    H1 7100   0.440   0.163  11.580 -0.4932  2.3451  1.8070
  477MPD2    H2 7101   0.183   0.266  11.267 -0.0903 -0.6581  0.2929
  477MPD2    H3 7102   0.399   0.181  11.357 -0.0180 -1.3006  0.8117
  477MPD2     N 7103   0.257   0.197  11.777 -0.2095  0.6674  0.2011
  477MPD2    H5 7104   0.172   0.203  11.833 -1.2031 -1.5720 -1.0836
  477MPD2    N1 7105   4.705   0.363  11.429 -0.6666 -0.3215  0.5112
  477MPD2    H7 7106   0.004   0.406  11.340 -1.3749  1.7373  1.3143
  478TMC3    C1 7107   4.509   0.480  11.434 -0.3677  0.4956 -0.1177
  478TMC3    C2 7108   4.465   0.581  11.524 -0.5066 -0.2244 -0.3322
  478TMC3    C3 7109   4.437   0.716  11.485  0.2874 -0.6108  0.7053
  478TMC3    C4 7110   4.526   0.523  11.303  0.1241 -0.6767  0.1918
  478TMC3    C5 7111   4.516   0.657  11.272 -0.5058  0.1066 -1.1143
  478TMC3    C6 7112   4.461   0.748  11.360 -0.2182  0.3379  0.3983
  478TMC3     C 7113   4.585   0.376  11.489 -0.2850  0.3986  0.1394
  478TMC3     O 7114   4.549   0.333  11.598  0.2394  0.5609 -0.2296
  478TMC3     H 7115   4.455   0.553  11.629 -1.2650  0.7601 -0.1397
  478TMC3    H1 7116   4.537   0.447  11.227  1.2656 -0.4712  0.1562
  478TMC3    H2 7117   4.439   0.846  11.321  0.1128 -0.1724 -1.0760
  478TMC3    C7 7118   4.498   0.673  11.121 -0.0373  0.2734 -0.4139
  478TMC3    C8 7119   4.457   0.810  11.594  0.2851 -0.3584  0.3012
  478TMC3    O1 7120   4.515   0.584  11.044  0.2461 -0.6990  0.0263
  478TMC3    O2 7121   4.406   0.779  11.700 -0.3247 -0.0836  0.3313
  479MPD2     C 7122   3.977   3.010  15.059  0.4274  0.6837 -0.1267
  479MPD2    C1 7123   3.935   2.997  15.186 -0.0621  0.4128  0.0952
  479MPD2    C2 7124   4.037   2.997  15.286  0.5230  0.1656  0.2445
  479MPD2    C3 7125   4.167   3.035  15.260 -0.2938 -0.3077 -0.5634
  479MPD2    C4 7126   4.209   3.045  15.130  0.3304 -0.0711  0.1940
  479MPD2    C5 7127   4.114   3.041  15.034 -0.1739  0.6801 -0.1579
  479MPD2     H 7128   4.005   2.988  15.389 -1.3896  0.5765 -0.3102
  479MPD2    H1 7129   4.314   3.063  15.111  0.0760  0.2366 -0.9518
  479MPD2    H2 7130   3.909   2.988  14.978  1.9421  0.2334 -1.2519
  479MPD2    H3 7131   4.145   3.051  14.931 -0.5868 -2.0901 -0.5482
  479MPD2     N 7132   4.269   3.039  15.364 -0.0050  0.1290  0.4353
  479MPD2    H5 7133   4.365   3.036  15.332  0.9440  1.9263  3.1209
  479MPD2    N1 7134   3.806   2.964  15.209  0.8543 -0.8371 -0.3273
  479MPD2    H7 7135   3.738   2.993  15.139 -1.3997 -3.2731  0.8562
  480TMC3    C1 7136   4.001   3.122  15.738  0.0195 -0.1078 -0.2211
  480TMC3    C2 7137   3.927   3.216  15.669  1.0964  1.2820 -0.1813
  480TMC3    C3 7138   3.978   3.268  15.552  0.5538 -0.8263  0.3632
  480TMC3    C4 7139   4.111   3.060  15.685 -0.0627 -0.1505 -0.5988
  480TMC3    C5 7140   4.144   3.111  15.558  0.3304 -0.3076 -0.2725
  480TMC3    C6 7141   4.088   3.213  15.494 -0.0564  0.0153  0.0652
  480TMC3     C 7142   3.956   3.057  15.862 -0.9626 -0.2403 -0.4050
  480TMC3     O 7143   4.037   2.988  15.922 -0.1788  0.0108 -0.3248
  480TMC3     H 7144   3.857   3.271  15.730  2.0642  1.4066  0.8330
  480TMC3    H1 7145   4.157   2.971  15.727  3.5317  3.4161  2.9101
  480TMC3    H2 7146   4.137   3.251  15.405  0.0245 -1.3367 -0.4771
  480TMC3    C7 7147   4.260   3.050  15.500 -0.7222  0.2131  0.1266
  480TMC3    C8 7148   3.874   3.320  15.462  0.0582  0.3995  0.0180
  480TMC3    O1 7149   4.351   3.036  15.578  0.4190  0.1842  0.0430
  480TMC3    O2 7150   3.763   3.325  15.499 -0.0274 -0.0361  0.0076
  481MPD2     C 7151   1.269   2.570  14.270  0.1211 -0.0855 -0.0673
  481MPD2    C1 7152   1.140   2.535  14.289  0.4633  0.0326  0.7110
  481MPD2    C2 7153   1.099   2.466  14.401  0.8206  0.1031  1.1381
  481MPD2    C3 7154   1.190   2.434  14.496 -0.0709 -1.2545  0.4103
  481MPD2    C4 7155   1.320   2.476  14.482  0.0802  0.9727  0.0479
  481MPD2    C5 7156   1.361   2.534  14.367  0.1348  0.0363  0.2870
  481MPD2     H 7157   1.000   2.422  14.405  1.1705 -1.0423 -2.4149
  481MPD2    H1 7158   1.383   2.465  14.569 -1.2859  2.5231  1.2339
  481MPD2    H2 7159   1.300   2.611  14.175  2.6417 -2.1346 -0.1509
  481MPD2    H3 7160   1.466   2.557  14.351  0.9368 -2.0510  2.5732
  481MPD2     N 7161   1.156   2.356  14.604  0.2210 -0.4767  0.4181
  481MPD2    H5 7162   1.222   2.330  14.676  1.1604  0.0593 -0.2451
  481MPD2    N1 7163   1.051   2.574  14.186 -0.0886  0.1111 -0.4229
  481MPD2    H7 7164   1.090   2.621  14.105 -1.1736  1.6407 -0.0769
  482TMC3    C1 7165   0.842   2.600  14.075  0.2987 -0.1066 -0.0339
  482TMC3    C2 7166   0.706   2.606  14.077  0.2702 -0.9648 -0.1426
  482TMC3    C3 7167   0.635   2.666  13.975  0.5864  0.1897  0.0670
  482TMC3    C4 7168   0.906   2.647  13.964 -0.0653 -0.3074  0.4231
  482TMC3    C5 7169   0.841   2.727  13.872  0.5210 -0.2675  0.3419
  482TMC3    C6 7170   0.701   2.736  13.869  0.7780  0.0640 -0.5779
  482TMC3     C 7171   0.916   2.557  14.190 -0.2111  0.0077 -0.3519
  482TMC3     O 7172   0.839   2.526  14.283 -0.0709 -0.3271 -0.1067
  482TMC3     H 7173   0.646   2.565  14.158 -1.7941 -1.4067 -1.8913
  482TMC3    H1 7174   1.011   2.626  13.949  0.4179  0.4961  2.6468
  482TMC3    H2 7175   0.652   2.794  13.792 -1.0174 -0.5116  0.1337
  482TMC3    C7 7176   0.897   2.740  13.742  0.0700 -0.1418 -0.1379
  482TMC3    C8 7177   0.502   2.601  13.948  0.2966 -0.4381 -0.0412
  482TMC3    O1 7178   0.832   2.808  13.663  0.5192  0.5298  0.6317
  482TMC3    O2 7179   0.472   2.506  14.022  0.5874  0.3569  0.8417
  483TMC3    C1 7180   3.241   1.277   0.990 -0.2099 -0.2265  0.6030
  483TMC3    C2 7181   3.301   1.374   0.911  0.9246  0.5524  0.5658
  483TMC3    C3 7182   3.422   1.419   0.942  0.2769 -0.2010  0.0777
  483TMC3    C4 7183   3.295   1.240   1.110 -0.1716  0.2972  0.4805
  483TMC3    C5 7184   3.416   1.293   1.146  0.3495  0.1001  0.1628
  483TMC3    C6 7185   3.486   1.371   1.056  0.2000  0.1272 -0.0427
  483TMC3     C 7186   3.141   1.193   0.942 -0.8576  0.1249 -0.1515
  483TMC3     O 7187   3.074   1.239   0.850 -0.6873 -0.3030 -0.2629
  483TMC3     H 7188   3.266   1.390   0.810  2.3417 -2.4648 -0.4125
  483TMC3    H1 7189   3.237   1.178   1.178 -0.1031 -0.1722  0.1067
  483TMC3    H2 7190   3.581   1.415   1.086  0.2804  1.4850 -2.2673
  483TMC3    C7 7191   3.495   1.234   1.251 -0.5836 -0.4699 -0.6976
  483TMC3    C8 7192   3.495   1.459   0.822 -0.2675 -0.4224  0.1083
  483TMC3    O1 7193   3.614   1.223   1.234 -0.2664  0.0173  0.0507
  483TMC3    O2 7194   3.478   1.398   0.720  0.0812 -0.1709 -0.1204
  484MPD2     C 7195   1.862   4.289  12.970  0.8420  0.7560  0.1367
  484MPD2    C1 7196   1.839   4.233  12.844 -0.0466 -0.0125  0.0223
  484MPD2    C2 7197   1.929   4.254  12.740  0.1152 -0.6300  0.3853
  484MPD2    C3 7198   2.035   4.339  12.762  0.6510 -0.2787 -0.1897
  484MPD2    C4 7199   2.062   4.393  12.892 -0.2716 -0.2101  0.0796
  484MPD2    C5 7200   1.975   4.368  12.991  0.0853  0.9830  0.3372
  484MPD2     H 7201   1.922   4.202  12.645  0.3664  1.4996 -0.7805
  484MPD2    H1 7202   2.134   4.470  12.915 -0.4334  0.3464 -1.2840
  484MPD2    H2 7203   1.793   4.262  13.049  0.7079 -1.6222 -0.8144
  484MPD2    H3 7204   2.000   4.418  13.084  0.1744 -0.0255  0.8563
  484MPD2     N 7205   2.129   4.373  12.666 -0.0106  0.2630  0.4777
  484MPD2    H5 7206   2.213   4.420  12.699 -1.1619  2.2513  0.6093
  484MPD2    N1 7207   1.715   4.157  12.829 -0.2421 -0.0913  0.4489
  484MPD2    H7 7208   1.664   4.145  12.916  2.1233 -1.2811  1.6562
  485TMC3    C1 7209   2.230   4.376  12.459  0.2422 -0.4068  0.6094
  485TMC3    C2 7210   2.349   4.307  12.501  0.0998  0.6129  0.3390
  485TMC3    C3 7211   2.447   4.299  12.410 -0.0704  0.5692  0.2526
  485TMC3    C4 7212   2.223   4.432  12.335  0.1481  0.3732  0.5853
  485TMC3    C5 7213   2.324   4.419  12.248  0.1014 -0.4649  0.0348
  485TMC3    C6 7214   2.434   4.353  12.290 -0.3205 -0.8311 -0.1186
  485TMC3     C 7215   2.108   4.359  12.538 -0.6469  0.6699 -0.6009
  485TMC3     O 7216   2.003   4.345  12.478 -0.5901 -0.3000  0.0664
  485TMC3     H 7217   2.347   4.246  12.591  0.0562  0.2989  0.1226
  485TMC3    H1 7218   2.129   4.471  12.298 -0.0697 -0.6792  0.0142
  485TMC3    H2 7219   2.517   4.350  12.220 -1.1061  1.4844 -1.1527
  485TMC3    C7 7220   2.280   4.379  12.114  0.0248 -0.8836  0.6604
  485TMC3    C8 7221   2.512   4.173  12.401 -0.0631  0.2573 -0.1925
  485TMC3    O1 7222   2.183   4.431  12.060 -0.0229  0.9195  0.3064
  485TMC3    O2 7223   2.530   4.136  12.289 -0.1580  0.0620 -0.2943
  486MPD2     C 7224   3.827   3.493  12.645  0.8853  0.4873  0.0416
  486MPD2    C1 7225   3.712   3.422  12.609  0.6378  0.2075 -0.7893
  486MPD2    C2 7226   3.600   3.487  12.555  0.0491 -0.0548 -0.6849
  486MPD2    C3 7227   3.611   3.627  12.550  1.0738  0.7217  0.0919
  486MPD2    C4 7228   3.726   3.692  12.594 -0.0282  0.3405 -0.4582
  486MPD2    C5 7229   3.830   3.628  12.640 -0.1903  0.4985  0.2776
  486MPD2     H 7230   3.510   3.437  12.521 -1.4649  0.7734  2.1504
  486MPD2    H1 7231   3.728   3.801  12.588  0.7279  0.5468  3.3221
  486MPD2    H2 7232   3.907   3.435  12.690  0.5208  2.0116  2.6636
  486MPD2    H3 7233   3.917   3.687  12.668  0.6457  0.3630 -2.0070
  486MPD2     N 7234   3.506   3.702  12.494  0.3759 -0.3128  0.1477
  486MPD2    H5 7235   3.428   3.652  12.453 -1.5365  0.3038  3.0101
  486MPD2    N1 7236   3.721   3.284  12.631  0.0715 -0.0562 -0.1422
  486MPD2    H7 7237   3.811   3.249  12.660 -0.9627 -0.1659  2.9318
  487TMC3    C1 7238   3.655   3.062  12.673 -0.3824  0.4630  0.0685
  487TMC3    C2 7239   3.551   2.968  12.661 -0.4003  0.0147 -0.3082
  487TMC3    C3 7240   3.562   2.850  12.726 -0.4197 -0.6532  0.2382
  487TMC3    C4 7241   3.772   3.038  12.741  0.6467 -0.5571 -0.5303
  487TMC3    C5 7242   3.778   2.900  12.783 -0.2343  0.2564  0.5272
  487TMC3    C6 7243   3.688   2.803  12.767 -0.8052  0.7012 -0.7332
  487TMC3     C 7244   3.617   3.197  12.628 -0.1274 -0.5114  1.0481
  487TMC3     O 7245   3.500   3.224  12.596  0.4496 -0.4266 -0.0083
  487TMC3     H 7246   3.449   2.999  12.644 -0.4172 -1.5407 -2.9999
  487TMC3    H1 7247   3.849   3.110  12.766 -2.0651  2.2675 -0.3296
  487TMC3    H2 7248   3.695   2.715  12.830  2.8700  2.4905  1.4043
  487TMC3    C7 7249   3.889   2.863  12.859  0.2625  0.0758  0.3126
  487TMC3    C8 7250   3.443   2.788  12.788 -0.7799 -0.4089 -1.1143
  487TMC3    O1 7251   3.900   2.931  12.959  0.3566  0.4094  0.2288
  487TMC3    O2 7252   3.347   2.861  12.797 -0.0300  0.0081 -0.5664
  488MPD2     C 7253   3.794   4.628  16.372 -0.1819 -0.1421 -0.4234
  488MPD2    C1 7254   3.854   0.025  16.404 -0.7320  0.8131  0.1557
  488MPD2    C2 7255   3.837   0.064  16.541 -0.6262 -0.4300  0.0929
  488MPD2    C3 7256   3.781   4.708  16.636  0.1967 -0.3719 -0.0807
  488MPD2    C4 7257   3.728   4.589  16.607  0.3965 -0.2149  0.8076
  488MPD2    C5 7258   3.737   4.557  16.473  0.1501 -0.2985  0.3202
  488MPD2     H 7259   3.874   0.163  16.566 -1.0178  0.0325 -1.1393
  488MPD2    H1 7260   3.672   4.530  16.679  0.0921 -4.1131 -2.6012
  488MPD2    H2 7261   3.784   4.590  16.271 -3.8804 -0.3178 -0.0046
  488MPD2    H3 7262   3.694   4.465  16.436 -2.5397  1.1085 -0.0842
  488MPD2     N 7263   3.773   0.038  16.769 -0.2059 -0.5881  0.7114
  488MPD2    H5 7264   3.806   0.134  16.782 -2.3641 -0.0113  1.9786
  488MPD2    N1 7265   3.875   0.126  16.307  0.7294  0.3672 -0.1578
  488MPD2    H7 7266   3.878   0.221  16.342 -4.6341 -0.3704  2.2964
  489TMC3    C1 7267   3.683   0.087  16.983  0.3352  0.0165  0.9833
  489TMC3    C2 7268   3.661   0.215  16.944  0.3496 -0.3023 -0.6908
  489TMC3    C3 7269   3.630   0.304  17.043  0.7178 -0.5226 -0.7898
  489TMC3    C4 7270   3.699   0.047  17.116  0.4239  0.5140  0.2628
  489TMC3    C5 7271   3.675   0.145  17.212  0.9876 -0.5024 -0.9944
  489TMC3    C6 7272   3.650   0.276  17.173  0.5923  0.2442  0.2612
  489TMC3     C 7273   3.701   4.709  16.880 -0.1905 -0.1032 -0.0612
  489TMC3     O 7274   3.664   4.594  16.907  0.3268  0.1850  0.0588
  489TMC3     H 7275   3.634   0.236  16.841  1.2846  0.1191 -0.8544
  489TMC3    H1 7276   3.724   4.667  17.134  1.2261  0.7405  0.4434
  489TMC3    H2 7277   3.626   0.351  17.248 -1.6779 -0.1450 -0.0734
  489TMC3    C7 7278   3.688   0.123  17.351  0.2841  0.2402 -1.0347
  489TMC3    C8 7279   3.629   0.441  16.999 -0.0719 -0.7030  0.1950
  489TMC3    O1 7280   3.675   0.214  17.431  0.1654  0.1132  0.0217
  489TMC3    O2 7281   3.679   0.452  16.889  0.8516  0.5675  0.2201
  490MPD2     C 7282   4.607   4.134  17.265 -0.1752 -0.5853  0.1349
  490MPD2    C1 7283   4.575   4.050  17.371 -0.2804  0.3428 -0.0815
  490MPD2    C2 7284   4.677   4.011  17.459  0.8626 -0.4354  0.1294
  490MPD2    C3 7285   0.082   4.039  17.435 -0.5111  0.9150  0.0929
  490MPD2    C4 7286   0.113   4.117  17.331 -0.6467  1.2115  0.0990
  490MPD2    C5 7287   0.016   4.155  17.244 -0.2820  0.1921  0.8860
  490MPD2     H 7288   4.648   3.949  17.543  1.2556  0.1641  0.7064
  490MPD2    H1 7289   0.216   4.148  17.319  0.0492 -0.7073  1.1434
  490MPD2    H2 7290   4.538   4.174  17.192  0.3966 -0.2595 -0.2300
  490MPD2    H3 7291   0.044   4.221  17.162 -0.3527 -1.3588 -0.3975
  490MPD2     N 7292   0.184   3.993  17.515  0.4023  0.1573  0.3948
  490MPD2    H5 7293   0.275   4.016  17.476  0.0676  0.2825 -0.3024
  490MPD2    N1 7294   4.437   4.018  17.397 -0.0637  0.3527  0.0391
  490MPD2    H7 7295   4.417   3.965  17.481  2.1795  0.3627  0.5834
  491TMC3    C1 7296   4.211   3.989  17.361 -0.2557 -0.1007  0.8656
  491TMC3    C2 7297   4.188   3.960  17.498  0.1422 -0.4095  0.3275
  491TMC3    C3 7298   4.093   3.858  17.511 -0.7376  0.2576  0.2552
  491TMC3    C4 7299   4.139   3.946  17.257 -0.0687 -0.1115 -0.9030
  491TMC3    C5 7300   4.035   3.858  17.281 -0.0318  0.3019  0.2425
  491TMC3    C6 7301   4.019   3.804  17.404  0.2526 -0.9576  0.2980
  491TMC3     C 7302   4.330   4.061  17.323 -0.3299 -0.4199  0.2447
  491TMC3     O 7303   4.318   4.101  17.207 -0.6671 -0.3113  0.1221
  491TMC3     H 7304   4.246   4.019  17.568 -1.9489  0.8432  1.0071
  491TMC3    H1 7305   4.179   3.942  17.157  1.0271  2.2577 -0.5606
  491TMC3    H2 7306   3.935   3.738  17.415 -1.8133  1.2861 -1.8003
  491TMC3    C7 7307   3.933   3.844  17.179  0.3379  0.4621 -0.7458
  491TMC3    C8 7308   4.058   3.821  17.646 -0.4099  0.7408  0.1842
  491TMC3    O1 7309   3.850   3.756  17.173  0.0499  0.0669 -0.1418
  491TMC3    O2 7310   3.944   3.776  17.654 -0.0177  0.5857 -0.4314
  492MPD2     C 7311   0.044   4.109  10.971  0.3333 -0.6395 -1.2116
  492MPD2    C1 7312   4.668   4.030  10.930 -0.2844  0.4459  0.4114
  492MPD2    C2 7313   4.577   3.987  11.023  0.0774 -0.0168  0.1374
  492MPD2    C3 7314   4.590   4.010  11.159 -0.0281 -0.1302 -0.5270
  492MPD2    C4 7315   4.701   4.084  11.201 -0.2050  0.1463  1.0198
  492MPD2    C5 7316   0.060   4.132  11.106  0.2481  0.3158 -0.4350
  492MPD2     H 7317   4.495   3.926  10.989  1.5595 -0.5573 -2.4973
  492MPD2    H1 7318   4.718   4.107  11.306 -1.6045 -0.9757  1.4992
  492MPD2    H2 7319   0.119   4.151  10.904 -0.3627  0.1168 -1.5234
  492MPD2    H3 7320   0.147   4.188  11.138  0.6385  0.6821 -2.1750
  492MPD2     N 7321   4.494   3.968  11.257  0.0359  0.2759  0.0254
  492MPD2    H5 7322   4.524   3.970  11.353 -1.3017 -3.6678  0.5134
  492MPD2    N1 7323   4.663   4.000  10.792  0.0453  0.4730 -0.2268
  492MPD2    H7 7324   0.002   4.048  10.729  0.2883  1.3535  0.6778
  493TMC3    C1 7325   4.564   3.924  10.596 -0.7776 -0.2402 -0.3285
  493TMC3    C2 7326   4.542   4.051  10.540 -0.0867 -0.8125 -0.7490
  493TMC3    C3 7327   4.454   4.052  10.433 -0.0611  0.0099 -0.4517
  493TMC3    C4 7328   4.503   3.814  10.550 -0.3888  0.2133 -0.0250
  493TMC3    C5 7329   4.431   3.816  10.435  0.3907 -0.0340 -0.2972
  493TMC3    C6 7330   4.400   3.939  10.384 -0.2485  0.3251  0.4308
  493TMC3     C 7331   4.571   3.914  10.738  0.2657  0.2021  0.7057
  493TMC3     O 7332   4.490   3.835  10.781 -0.2460  0.4178 -0.0743
  493TMC3     H 7333   4.569   4.141  10.593 -4.5614 -0.4067  0.8387
  493TMC3    H1 7334   4.532   3.719  10.592 -0.4068  0.0299 -0.4284
  493TMC3    H2 7335   4.319   3.947  10.312 -1.3497  0.8841  1.7157
  493TMC3    C7 7336   4.321   3.719  10.438  0.2572 -0.2297 -0.9412
  493TMC3    C8 7337   4.382   4.173  10.407 -0.9349  0.3821 -0.2857
  493TMC3    O1 7338   4.258   3.702  10.335 -0.7308 -0.3708  0.3909
  493TMC3    O2 7339   4.263   4.163  10.380 -0.8115  0.1419  0.2873
  494TMC3    C1 7340   0.368   1.088   0.526 -0.1140  0.5717 -0.6991
  494TMC3    C2 7341   0.501   1.097   0.579  0.2840 -0.3186 -0.0047
  494TMC3    C3 7342   0.593   1.165   0.504 -0.3833 -0.2649  0.1938
  494TMC3    C4 7343   0.333   1.146   0.407 -0.3269 -0.2686  0.6287
  494TMC3    C5 7344   0.426   1.222   0.346  0.0201  0.7047 -0.1132
  494TMC3    C6 7345   0.552   1.230   0.395  0.5306 -0.2360  0.3559
  494TMC3     C 7346   0.274   1.012   0.601 -0.3732  0.0435  0.2308
  494TMC3     O 7347   0.313   0.984   0.709  0.4356 -0.6201 -0.4984
  494TMC3     H 7348   0.529   1.031   0.660  3.1785  0.6029 -0.2531
  494TMC3    H1 7349   0.234   1.149   0.365  0.0980  2.4740 -0.2233
  494TMC3    H2 7350   0.627   1.289   0.345  1.5213 -0.2866  1.7918
  494TMC3    C7 7351   0.414   1.279   0.210 -0.1726  0.3352 -0.4861
  494TMC3    C8 7352   0.735   1.181   0.541  0.3124 -0.3437 -0.6130
  494TMC3    O1 7353   0.521   1.292   0.156 -0.0526  0.2491  0.0662
  494TMC3    O2 7354   0.809   1.241   0.467 -0.2866 -0.3020 -0.3613
  495TMC3    C1 7355   4.120   3.414  14.489  0.1545  0.6499  0.3189
  495TMC3    C2 7356   4.025   3.380  14.398 -0.7976 -0.3965  0.0053
  495TMC3    C3 7357   3.911   3.321  14.441 -0.4505 -1.1113 -0.5844
  495TMC3    C4 7358   4.112   3.375  14.621  0.1637 -0.3122  0.2251
  495TMC3    C5 7359   3.997   3.321  14.657  0.3801 -0.3609  0.0339
  495TMC3    C6 7360   3.894   3.302  14.575 -0.1017 -0.3521 -0.1819
  495TMC3     C 7361   4.255   3.437  14.441  0.6714 -0.3296 -0.5852
  495TMC3     O 7362   4.274   3.396  14.326 -0.7652 -0.7294 -0.3274
  495TMC3     H 7363   4.035   3.412  14.295  0.7669  0.5836  0.4695
  495TMC3    H1 7364   4.201   3.385  14.682  0.0041 -0.1506  0.4281
  495TMC3    H2 7365   3.797   3.279  14.618 -0.0997  2.6120  1.4200
  495TMC3    C7 7366   3.975   3.326  14.804 -0.4965  0.4012  0.3760
  495TMC3    C8 7367   3.804   3.284  14.350  0.8670  0.1461 -0.4118
  495TMC3    O1 7368   4.074   3.355  14.871 -0.5094  0.0321  0.4444
  495TMC3    O2 7369   3.694   3.274  14.400  0.2039  0.3378 -0.1868
  496MPD2     C 7370   1.529   3.077  15.045  0.1926 -0.8884  0.3991
  496MPD2    C1 7371   1.575   3.008  15.161  0.2164 -0.0433 -0.4185
  496MPD2    C2 7372   1.484   2.997  15.265 -0.1275  0.6107 -0.2348
  496MPD2    C3 7373   1.357   3.049  15.270  0.4841 -0.3196 -0.1405
  496MPD2    C4 7374   1.333   3.135  15.169 -0.5312  0.1967  0.3882
  496MPD2    C5 7375   1.413   3.149  15.061  0.4869 -0.3082  0.2713
  496MPD2     H 7376   1.510   2.928  15.344 -1.4383 -0.1838 -0.5135
  496MPD2    H1 7377   1.237   3.184  15.159 -0.8708 -0.3871  0.7481
  496MPD2    H2 7378   1.581   3.082  14.950  0.6517  1.6878  0.7711
  496MPD2    H3 7379   1.389   3.213  14.976  0.0516  2.3288  2.3876
  496MPD2     N 7380   1.260   3.013  15.367 -0.1926 -0.1490  0.0961
  496MPD2    H5 7381   1.165   3.040  15.344 -0.4480 -0.8681  0.3093
  496MPD2    N1 7382   1.709   2.969  15.164 -0.1354 -0.3858  0.8537
  496MPD2    H7 7383   1.765   2.977  15.079 -0.2125 -1.5047  0.6958
  497TMC3    C1 7384   1.170   2.882  15.545 -0.0235 -0.1874 -0.3936
  497TMC3    C2 7385   1.056   2.867  15.466 -0.6888 -0.3727  0.4898
  497TMC3    C3 7386   0.950   2.806  15.519  0.3932  0.3533  0.8323
  497TMC3    C4 7387   1.178   2.835  15.674 -0.3813  0.0689 -0.3195
  497TMC3    C5 7388   1.060   2.779  15.723  0.5006  0.5355 -0.7182
  497TMC3    C6 7389   0.959   2.749  15.642 -0.0376  0.4034 -0.2798
  497TMC3     C 7390   1.286   2.942  15.478 -0.3494  0.1174 -0.3492
  497TMC3     O 7391   1.388   2.952  15.544 -0.3627 -0.2284  0.4786
  497TMC3     H 7392   1.061   2.886  15.359 -0.6750 -1.5352  0.2775
  497TMC3    H1 7393   1.261   2.859  15.738  0.0613 -0.1919 -0.7944
  497TMC3    H2 7394   0.872   2.693  15.677 -0.2791  1.7109  1.2186
  497TMC3    C7 7395   1.039   2.745  15.860 -0.3618  0.3779  0.2619
  497TMC3    C8 7396   0.845   2.750  15.432 -0.4173  0.2340  0.9342
  497TMC3    O1 7397   0.958   2.657  15.886 -0.3693 -0.1866  0.3772
  497TMC3    O2 7398   0.767   2.673  15.487  0.0212 -0.2847  0.1038
  498MPD2     C 7399   1.832   4.229   9.849 -0.3577  0.3707 -0.3944
  498MPD2    C1 7400   1.842   4.093   9.882  0.0828  0.0266 -0.2132
  498MPD2    C2 7401   1.743   4.030   9.948 -0.2097  0.0317 -0.4042
  498MPD2    C3 7402   1.620   4.085   9.958  0.0712  0.2578  0.8075
  498MPD2    C4 7403   1.607   4.222   9.926  0.2172 -0.1508  0.7273
  498MPD2    C5 7404   1.709   4.292   9.871  0.5452 -0.1500 -0.0149
  498MPD2     H 7405   1.761   3.925   9.968  2.1647  0.9300  2.0991
  498MPD2    H1 7406   1.523   4.290   9.936 -0.8185 -1.3281 -0.0222
  498MPD2    H2 7407   1.918   4.284   9.811 -1.2533  0.5411 -2.1286
  498MPD2    H3 7408   1.703   4.397   9.843 -0.3147 -0.3441 -0.5618
  498MPD2     N 7409   1.515   4.013  10.014  0.2236 -0.1069 -0.3422
  498MPD2    H5 7410   1.545   3.926  10.056  0.1677 -0.1249 -0.3396
  498MPD2    N1 7411   1.955   4.016   9.865  0.1143  0.0490 -0.6180
  498MPD2    H7 7412   1.939   3.916   9.856 -0.6630  0.1638 -0.4499
  499TMC3    C1 7413   2.174   3.966   9.798 -0.5327 -0.0391  0.5099
  499TMC3    C2 7414   2.139   3.834   9.798  0.2132 -0.2568 -0.5210
  499TMC3    C3 7415   2.223   3.749   9.721 -0.0895 -0.2799  0.4807
  499TMC3    C4 7416   2.292   4.013   9.737 -0.5087  0.0611 -0.4441
  499TMC3    C5 7417   2.372   3.923   9.670 -0.3988 -0.1848 -0.2577
  499TMC3    C6 7418   2.338   3.794   9.665 -0.0160  0.3994 -0.0945
  499TMC3     C 7419   2.073   4.069   9.819  0.7649  0.7957 -0.1985
  499TMC3     O 7420   2.119   4.183   9.829  0.3165  0.3668  0.2356
  499TMC3     H 7421   2.060   3.781   9.850 -0.2339  1.0807  0.1449
  499TMC3    H1 7422   2.333   4.111   9.761 -1.8231  0.3213  0.7564
  499TMC3    H2 7423   2.393   3.724   9.603 -1.5093  0.7232 -1.7769
  499TMC3    C7 7424   2.497   3.966   9.608 -0.0958  0.8042  0.3364
  499TMC3    C8 7425   2.226   3.601   9.731 -0.8402 -0.1550 -0.3508
  499TMC3    O1 7426   2.587   3.887   9.640  0.0003  0.1277  0.3070
  499TMC3    O2 7427   2.318   3.540   9.678 -0.6220 -0.3784 -0.3312
  500MPD2     C 7428   4.322   0.662   9.345 -0.3720  0.1300 -0.1790
  500MPD2    C1 7429   4.251   0.634   9.454  0.4738 -0.4053 -0.0110
  500MPD2    C2 7430   4.174   0.524   9.451  0.0158  0.1683 -0.0977
  500MPD2    C3 7431   4.145   0.446   9.339 -0.0424  0.3370 -0.3503
  500MPD2    C4 7432   4.209   0.483   9.228  0.4049  0.0059  0.0398
  500MPD2    C5 7433   4.292   0.597   9.224  0.0370  0.0511  0.2815
  500MPD2     H 7434   4.117   0.493   9.538  1.2006  0.4972  0.7875
  500MPD2    H1 7435   4.193   0.427   9.136 -0.8686 -0.5730  0.6087
  500MPD2    H2 7436   4.385   0.751   9.340  0.0820 -0.2288 -0.9098
  500MPD2    H3 7437   4.351   0.623   9.137  1.1693 -1.9351  0.4576
  500MPD2     N 7438   4.041   0.352   9.318 -0.0889 -0.2020 -0.5260
  500MPD2    H5 7439   4.056   0.286   9.242 -1.2512 -2.6721  1.3698
  500MPD2    N1 7440   4.249   0.712   9.571  0.1636  0.1250 -0.2527
  500MPD2    H7 7441   4.177   0.677   9.633  0.8791 -0.2563  0.3626
  501TMC3    C1 7442   4.314   0.838   9.747 -0.1742 -0.2871 -0.1446
  501TMC3    C2 7443   4.291   0.963   9.788  0.0919 -0.2892  0.2017
  501TMC3    C3 7444   4.239   0.988   9.917 -0.4842 -0.1284  0.1387
  501TMC3    C4 7445   4.290   0.732   9.826  0.1243  0.1273 -0.2259
  501TMC3    C5 7446   4.238   0.756   9.951 -0.3764  0.0913 -0.0207
  501TMC3    C6 7447   4.194   0.876   9.987 -0.2160  0.3349 -0.0084
  501TMC3     C 7448   4.328   0.819   9.605  0.4500  0.1120 -0.3580
  501TMC3     O 7449   4.399   0.891   9.538 -0.1357  0.0609  0.8676
  501TMC3     H 7450   4.347   1.034   9.728 -0.4106 -0.2860 -0.2551
  501TMC3    H1 7451   4.354   0.651   9.796 -0.4007 -0.6036  0.6275
  501TMC3    H2 7452   4.153   0.891  10.086 -1.4667  1.1959 -0.6512
  501TMC3    C7 7453   4.289   0.676  10.064  0.5481 -0.5544 -0.0116
  501TMC3    C8 7454   4.291   1.090  10.008 -0.4189  0.3632  0.8120
  501TMC3    O1 7455   4.325   0.563  10.024 -0.0106  0.5046  0.1559
  501TMC3    O2 7456   4.310   1.047  10.120 -0.0366  0.1527 -0.3132
  502TMC3    C1 7457   3.527   4.061  14.603  0.0681 -0.4005  0.6239
  502TMC3    C2 7458   3.481   4.189  14.578  0.5010 -0.4631 -0.5271
  502TMC3    C3 7459   3.348   4.214  14.575 -0.5340  0.2003 -0.3916
  502TMC3    C4 7460   3.426   3.964  14.629 -0.4291 -0.0047  0.5834
  502TMC3    C5 7461   3.296   3.995  14.642 -0.3001  0.0899  0.0624
  502TMC3    C6 7462   3.255   4.121  14.604 -0.0775 -0.0371  0.7450
  502TMC3     C 7463   3.632   4.064  14.703 -0.1227 -0.1644  0.6229
  502TMC3     O 7464   3.741   4.010  14.684  0.1240 -0.2292  0.0287
  502TMC3     H 7465   3.551   4.268  14.555 -1.0157  0.9104 -0.4000
  502TMC3    H1 7466   3.466   3.870  14.666  0.1279 -0.9625 -2.4105
  502TMC3    H2 7467   3.153   4.148  14.580  0.6435 -0.4898 -2.8924
  502TMC3    C7 7468   3.206   3.916  14.721 -0.6374  0.5152 -0.0473
  502TMC3    C8 7469   3.311   4.353  14.545  1.0213 -0.3613  0.6523
  502TMC3    O1 7470   3.233   3.794  14.717  0.1100 -0.0285 -0.6527
  502TMC3    O2 7471   3.405   4.417  14.502 -0.2210 -0.3073  0.3709
  503MPD2     C 7472   0.645   4.664  17.357  0.0891  0.6287  0.4960
  503MPD2    C1 7473   0.685   4.699  17.484  0.3591 -0.0215 -0.0504
  503MPD2    C2 7474   0.811   4.677  17.520  0.7156 -0.4109 -0.1750
  503MPD2    C3 7475   0.906   4.630  17.433  0.4055  0.6503  0.0477
  503MPD2    C4 7476   0.867   4.595  17.306 -0.2342 -1.5469  0.3267
  503MPD2    C5 7477   0.739   4.612  17.271  0.0587 -0.4046  0.5376
  503MPD2     H 7478   0.847   4.702  17.619 -1.0303  0.8607  0.1344
  503MPD2    H1 7479   0.942   4.557  17.237 -0.0284  1.3702 -1.0572
  503MPD2    H2 7480   0.546   4.678  17.315 -0.7515 -1.3576  1.8227
  503MPD2    H3 7481   0.713   4.596  17.167 -1.0120  1.1679  0.5687
  503MPD2     N 7482   1.036   4.621  17.483 -0.6070 -0.3603 -0.1788
  503MPD2    H5 7483   1.051   4.649  17.580 -0.3264 -1.1322 -0.0017
  503MPD2    N1 7484   0.605   0.040  17.582  1.0250 -0.6473 -0.0753
  503MPD2    H7 7485   0.651   0.067  17.669 -1.6126  0.3204  1.0124
  504TMC3    C1 7486   1.233   4.507  17.465  0.6345 -0.3476 -0.3179
  504TMC3    C2 7487   1.215   4.461  17.595 -0.1432 -0.2235  0.3589
  504TMC3    C3 7488   1.280   4.347  17.625  0.9124 -0.0852 -0.5317
  504TMC3    C4 7489   1.312   4.433  17.378  0.2450  0.6743  0.3622
  504TMC3    C5 7490   1.367   4.316  17.415  0.6628 -0.5028  0.1429
  504TMC3    C6 7491   1.359   4.268  17.539 -0.2948  0.1981 -0.1523
  504TMC3     C 7492   1.139   4.592  17.403 -0.4182  0.4343 -0.1180
  504TMC3     O 7493   1.148   4.604  17.281  0.1395 -0.1733 -0.1124
  504TMC3     H 7494   1.152   4.508  17.669 -0.2619 -0.0694  0.1615
  504TMC3    H1 7495   1.321   4.452  17.272 -0.8854 -1.6851 -0.1624
  504TMC3    H2 7496   1.389   4.166  17.563 -3.9234 -0.7391  0.4952
  504TMC3    C7 7497   1.421   4.237  17.305 -0.5226  0.4181  0.4809
  504TMC3    C8 7498   1.230   4.285   0.041  0.1311 -0.3269  0.2432
  504TMC3    O1 7499   1.378   4.253  17.192 -0.1169 -0.0983  0.1848
  504TMC3    O2 7500   1.109   4.290   0.054 -0.0694  0.5327 -0.0358
  505MPD2     C 7501   0.777   3.211  10.771  0.0265  0.3614  0.1675
  505MPD2    C1 7502   0.851   3.106  10.717 -0.0978  0.1187 -0.1774
  505MPD2    C2 7503   0.984   3.093  10.748 -1.4054  0.2605  0.5362
  505MPD2    C3 7504   1.048   3.179  10.844  0.2232  0.8653  0.1349
  505MPD2    C4 7505   0.974   3.277  10.902  0.3877  0.9364  0.0085
  505MPD2    C5 7506   0.838   3.292  10.858 -0.1774 -0.3610 -0.1926
  505MPD2     H 7507   1.049   3.022  10.698 -0.9308 -0.7158  2.5134
  505MPD2    H1 7508   1.011   3.342  10.980  1.9686 -1.1696  1.0104
  505MPD2    H2 7509   0.675   3.230  10.740 -0.1934 -1.2601 -0.1151
  505MPD2    H3 7510   0.791   3.381  10.899 -0.7576 -1.5497  1.7449
  505MPD2     N 7511   1.184   3.170  10.884 -0.1726  0.6771 -0.1541
  505MPD2    H5 7512   1.213   3.239  10.953  0.0436 -0.1317  0.5723
  505MPD2    N1 7513   0.794   3.026  10.614 -0.2052  0.3231  0.0384
  505MPD2    H7 7514   0.703   3.059  10.585 -0.3823 -2.1358 -2.2057
  506TMC3    C1 7515   0.804   2.899  10.413  0.4036  0.1092 -0.2188
  506TMC3    C2 7516   0.776   3.005  10.336  0.2507 -0.8124 -0.6078
  506TMC3    C3 7517   0.812   2.984  10.207  0.7425 -0.2595 -0.2027
  506TMC3    C4 7518   0.863   2.785  10.369 -0.3463 -0.1964  0.0059
  506TMC3    C5 7519   0.899   2.773  10.239 -0.0345  0.5811 -0.3653
  506TMC3    C6 7520   0.862   2.871  10.152  0.1766  0.6387  0.2038
  506TMC3     C 7521   0.859   2.929  10.541  0.9586 -0.7509 -0.7186
  506TMC3     O 7522   0.970   2.878  10.557  0.3180 -0.4807  0.5314
  506TMC3     H 7523   0.746   3.102  10.374  1.2943 -0.8552  0.3570
  506TMC3    H1 7524   0.874   2.708  10.444 -1.1950 -0.4925 -0.1765
  506TMC3    H2 7525   0.911   2.869  10.055  2.0522 -1.4200  1.1600
  506TMC3    C7 7526   1.042   2.734  10.227 -0.2676 -0.2693  0.1727
  506TMC3    C8 7527   0.792   3.086  10.108 -0.1356  0.2101  0.1943
  506TMC3    O1 7528   1.103   2.750  10.121  0.3445  0.6738 -0.1839
  506TMC3    O2 7529   0.762   3.044   9.994  0.0065  0.4537  0.3476
  507TMC3    C1 7530   1.984   4.069  14.330 -0.0538 -0.2780 -0.9561
  507TMC3    C2 7531   1.928   4.059  14.205 -0.0545 -1.0719 -0.6030
  507TMC3    C3 7532   2.014   4.069  14.101 -0.3417 -0.5497  0.4258
  507TMC3    C4 7533   2.117   4.076  14.355  0.0533 -0.1116 -0.7849
  507TMC3    C5 7534   2.199   4.095  14.250 -0.9571  0.0910  0.0962
  507TMC3    C6 7535   2.152   4.087  14.125  0.2392  0.5595  0.2863
  507TMC3     C 7536   1.901   4.061  14.451  0.2522  0.4328 -0.3456
  507TMC3     O 7537   1.942   3.996  14.543 -0.0466 -0.4063  0.0592
  507TMC3     H 7538   1.821   4.047  14.191 -0.4841  1.1038  0.8367
  507TMC3    H1 7539   2.143   4.089  14.459 -0.5830 -1.8286 -0.4128
  507TMC3    H2 7540   2.216   4.084  14.038 -1.1704  0.4334 -0.7372
  507TMC3    C7 7541   2.265   4.224  14.267  0.1076  0.4872 -0.6225
  507TMC3    C8 7542   1.981   4.168  13.999 -0.7857 -0.1746 -0.0211
  507TMC3    O1 7543   2.318   4.239  14.375  0.0252 -0.3591  0.3456
  507TMC3    O2 7544   2.074   4.231  13.951 -0.2101 -0.2643 -0.1868
  508MPD2     C 7545   2.740   1.760  15.868  0.4680 -0.5384 -0.0355
  508MPD2    C1 7546   2.838   1.843  15.919  0.3229 -0.4917 -0.4904
  508MPD2    C2 7547   2.923   1.901  15.832  0.1746 -1.5971 -0.0963
  508MPD2    C3 7548   2.913   1.890  15.694  0.6103  0.4868  0.1305
  508MPD2    C4 7549   2.828   1.795  15.645  0.0782 -0.1367  0.1119
  508MPD2    C5 7550   2.755   1.726  15.739  0.8945 -0.2473  0.0879
  508MPD2     H 7551   2.980   1.986  15.868  0.5291 -1.5877 -0.6903
  508MPD2    H1 7552   2.809   1.762  15.544 -1.0655  0.5839  0.0898
  508MPD2    H2 7553   2.664   1.719  15.934  0.5504  0.0435  0.4187
  508MPD2    H3 7554   2.693   1.648  15.697  1.6433  0.2076 -1.8918
  508MPD2     N 7555   2.999   1.963  15.614 -0.3886 -0.1475 -0.2685
  508MPD2    H5 7556   3.050   2.031  15.671 -1.0561  1.7422 -1.9273
  508MPD2    N1 7557   2.848   1.850  16.060 -0.6514 -0.1441 -0.0263
  508MPD2    H7 7558   2.761   1.818  16.102 -1.5810  1.7054 -0.5590
  509TMC3    C1 7559   3.082   2.210  15.233 -0.7185  0.1049  0.6677
  509TMC3    C2 7560   3.135   2.312  15.306 -0.4300 -0.8142  0.1384
  509TMC3    C3 7561   3.170   2.285  15.437 -0.4273  0.0476 -0.1225
  509TMC3    C4 7562   3.072   2.082  15.286 -0.4177  0.2701 -0.5838
  509TMC3    C5 7563   3.099   2.059  15.420  0.6757 -0.0188 -0.3179
  509TMC3    C6 7564   3.148   2.162  15.501 -0.2427  0.4410  0.7843
  509TMC3     C 7565   2.991   2.240  15.130 -0.0723  0.1366 -0.2921
  509TMC3     O 7566   2.984   2.159  15.039 -0.4920  0.5593 -0.1634
  509TMC3     H 7567   3.147   2.413  15.270 -2.2231 -0.4563  0.5646
  509TMC3    H1 7568   3.023   2.005  15.228 -0.5597  1.6642 -2.3100
  509TMC3    H2 7569   3.185   2.148  15.601  1.4019 -2.9183 -0.2763
  509TMC3    C7 7570   3.005   1.960  15.476 -0.8666  0.1265 -0.0238
  509TMC3    C8 7571   3.247   2.385  15.514 -0.8052  0.5852 -0.9318
  509TMC3    O1 7572   2.943   1.886  15.401 -0.3052 -0.0982  0.1115
  509TMC3    O2 7573   3.334   2.346  15.592 -0.6157 -0.3157  0.0283
  510MPD2     C 7574   0.673   3.151  14.431  0.1636 -0.2438 -0.1435
  510MPD2    C1 7575   0.762   3.141  14.535 -0.1122 -0.0352 -0.2219
  510MPD2    C2 7576   0.890   3.197  14.523  0.4862  0.0415  0.1807
  510MPD2    C3 7577   0.930   3.251  14.399  0.1009 -0.1182 -0.4118
  510MPD2    C4 7578   0.835   3.257  14.296  0.3785 -0.5554 -0.3690
  510MPD2    C5 7579   0.712   3.202  14.307  0.3498 -0.3249 -0.6444
  510MPD2     H 7580   0.958   3.197  14.607  1.0811  2.1419 -0.3096
  510MPD2    H1 7581   0.860   3.276  14.192 -1.7366 -0.2174 -0.8154
  510MPD2    H2 7582   0.588   3.083  14.433 -1.9340  2.3823  0.0932
  510MPD2    H3 7583   0.642   3.176  14.228 -1.9446  0.6192  1.0712
  510MPD2     N 7584   1.062   3.281  14.385  0.8087 -0.2411  0.5025
  510MPD2    H5 7585   1.117   3.252  14.465  0.3802  0.8557  1.1996
  510MPD2    N1 7586   0.717   3.101  14.660  0.6358  0.7609 -0.0456
  510MPD2    H7 7587   0.632   3.047  14.665  0.4089  1.3353  2.2538
  511TMC3    C1 7588   0.722   3.040  14.890 -0.1875  0.1088 -0.0028
  511TMC3    C2 7589   0.702   3.089  15.018  0.2211 -0.2163 -0.0159
  511TMC3    C3 7590   0.625   3.012  15.108  0.1447  0.6049 -0.2660
  511TMC3    C4 7591   0.660   2.926  14.851  0.4128  0.0339 -0.5441
  511TMC3    C5 7592   0.570   2.861  14.931  0.3393  0.1792  0.0702
  511TMC3    C6 7593   0.564   2.896  15.064 -0.0825 -0.0345  0.1388
  511TMC3     C 7594   0.779   3.124  14.784 -0.8378 -0.8726  0.5491
  511TMC3     O 7595   0.875   3.196  14.816 -0.4405 -0.3011 -0.2949
  511TMC3     H 7596   0.742   3.187  15.042  1.2863 -0.3509 -1.2519
  511TMC3    H1 7597   0.670   2.881  14.753 -2.7618 -1.3525 -0.2154
  511TMC3    H2 7598   0.503   2.844  15.137  0.9349 -0.0960  0.9660
  511TMC3    C7 7599   0.495   2.748  14.883  0.2855  0.2795 -0.0676
  511TMC3    C8 7600   0.595   3.076  15.234  0.1449  0.0108  0.2815
  511TMC3    O1 7601   0.496   2.733  14.762 -0.0917 -0.0287  0.2192
  511TMC3    O2 7602   0.616   3.196  15.238  0.4840 -0.0491 -0.1459
  512TMC3    C1 7603   4.270   3.080  12.937  0.7534 -0.2462 -0.4085
  512TMC3    C2 7604   4.367   3.092  13.039 -0.5962  0.4041 -0.3978
  512TMC3    C3 7605   4.465   2.990  13.025 -0.1478 -0.0216  0.3354
  512TMC3    C4 7606   4.264   2.988  12.843 -0.2086  0.0314  0.4942
  512TMC3    C5 7607   4.340   2.873  12.853  0.4090 -0.2790 -0.4592
  512TMC3    C6 7608   4.449   2.887  12.931  0.1276 -0.0745  0.9010
  512TMC3     C 7609   4.156   3.169  12.939  0.1227  0.7056 -0.6290
  512TMC3     O 7610   4.078   3.168  12.843 -0.6501 -0.3508  0.4113
  512TMC3     H 7611   4.361   3.166  13.118 -1.2313  0.5372 -0.5688
  512TMC3    H1 7612   4.182   2.981  12.774  0.0549 -0.6678  0.2494
  512TMC3    H2 7613   4.533   2.820  12.919 -0.9365 -1.3247  0.4790
  512TMC3    C7 7614   4.339   2.781  12.741 -0.2522  0.2089 -0.4649
  512TMC3    C8 7615   4.561   2.971  13.133 -0.0155 -0.6831 -0.1904
  512TMC3    O1 7616   4.295   2.827  12.635 -0.1266 -0.3808 -0.1763
  512TMC3    O2 7617   4.584   2.856  13.157 -0.5393 -0.1509  0.3160
  513MPD2     C 7618   1.558   2.213  13.431 -0.6981  0.0571  0.1752
  513MPD2    C1 7619   1.656   2.304  13.395 -0.3564 -0.2100  0.0067
  513MPD2    C2 7620   1.665   2.424  13.466 -0.0331  0.1843 -0.1975
  513MPD2    C3 7621   1.582   2.448  13.572 -0.3709 -0.4427  0.0185
  513MPD2    C4 7622   1.491   2.353  13.617 -0.0544 -0.0191 -0.7045
  513MPD2    C5 7623   1.479   2.241  13.543 -0.2168 -0.6907 -0.2766
  513MPD2     H 7624   1.740   2.497  13.437  0.0861  0.7386  1.4650
  513MPD2    H1 7625   1.414   2.362  13.693  0.6698  0.7846 -0.0727
  513MPD2    H2 7626   1.539   2.115  13.387  0.1542 -0.3879  0.8062
  513MPD2    H3 7627   1.408   2.166  13.574  0.1167 -0.7883  0.2558
  513MPD2     N 7628   1.591   2.576  13.632  0.2938  0.7533  0.4944
  513MPD2    H5 7629   1.660   2.636  13.589  1.9781 -2.2356 -1.0022
  513MPD2    N1 7630   1.736   2.279  13.283 -0.8504  0.1417  0.2187
  513MPD2    H7 7631   1.709   2.191  13.241 -1.1050  1.2170 -1.8439
  514TMC3    C1 7632   1.892   2.337  13.121  0.4080  0.0179  0.6287
  514TMC3    C2 7633   1.790   2.344  13.029  1.1619  0.3917 -0.4828
  514TMC3    C3 7634   1.814   2.416  12.917  0.6470  0.1729 -0.1056
  514TMC3    C4 7635   2.013   2.390  13.098 -0.4253 -0.2503 -0.5932
  514TMC3    C5 7636   2.039   2.460  12.985  0.7354  0.2749  0.2086
  514TMC3    C6 7637   1.937   2.477  12.887 -0.5603  0.0996  0.7964
  514TMC3     C 7638   1.852   2.352  13.255 -0.3597 -0.4797  0.3356
  514TMC3     O 7639   1.915   2.443  13.314  0.0433  0.1198  0.6607
  514TMC3     H 7640   1.691   2.306  13.049  1.1718  0.8520  0.4814
  514TMC3    H1 7641   2.088   2.368  13.173  0.1037 -0.1875 -1.0978
  514TMC3    H2 7642   1.961   2.535  12.799 -1.2354 -2.7498 -1.2510
  514TMC3    C7 7643   2.109   2.582  13.015  0.2544 -0.1136  0.5037
  514TMC3    C8 7644   1.703   2.419  12.821 -0.5087 -0.1548  0.4777
  514TMC3    O1 7645   2.153   2.653  12.922  0.0287  0.0401 -0.0905
  514TMC3    O2 7646   1.605   2.349  12.850  0.3462  0.2170 -0.6600
  515MPD2     C 7647   4.090   0.238  14.521 -0.3741  0.3689 -0.0780
  515MPD2    C1 7648   4.104   0.103  14.536  0.5068 -0.0079  0.4335
  515MPD2    C2 7649   4.197   0.064  14.634  0.0752  0.6969  0.2435
  515MPD2    C3 7650   4.279   0.154  14.699 -0.0967  0.2152 -0.7360
  515MPD2    C4 7651   4.265   0.290  14.672 -0.0271  0.2263  0.0604
  515MPD2    C5 7652   4.170   0.323  14.586 -0.0764 -0.2850  0.1320
  515MPD2     H 7653   4.203   4.684  14.661  0.6403  0.3335 -1.2474
  515MPD2    H1 7654   4.327   0.365  14.720  0.7947 -0.6569  0.3713
  515MPD2    H2 7655   4.016   0.280  14.453 -2.3808 -0.8822  1.3394
  515MPD2    H3 7656   4.172   0.428  14.559 -0.9932 -0.6901 -1.5186
  515MPD2     N 7657   4.374   0.114  14.797 -0.7761 -0.5657 -0.3954
  515MPD2    H5 7658   4.430   0.189  14.835 -2.3964  1.4848 -2.0603
  515MPD2    N1 7659   4.034   0.008  14.458 -0.1768  0.2142  0.0688
  515MPD2    H7 7660   4.050   4.633  14.470  1.0428  0.2365 -1.5157
  516TMC3    C1 7661   3.909   4.649  14.279 -0.6921 -0.3704  0.0602
  516TMC3    C2 7662   3.909   4.654  14.145 -0.0046 -0.7777 -0.6357
  516TMC3    C3 7663   3.905   4.537  14.078 -0.0831 -0.0758 -0.2293
  516TMC3    C4 7664   3.881   4.538  14.347  0.5325 -0.6924 -0.1541
  516TMC3    C5 7665   3.884   4.424  14.274  1.4076 -0.3326 -0.3723
  516TMC3    C6 7666   3.896   4.415  14.140 -0.5515 -0.4539  0.2133
  516TMC3     C 7667   3.944   0.036  14.365 -0.1683  0.2415  0.7057
  516TMC3     O 7668   3.895   0.134  14.315 -0.5884 -0.1866 -0.5877
  516TMC3     H 7669   3.934   0.023  14.095  2.3920 -1.7975 -1.3641
  516TMC3    H1 7670   3.884   4.532  14.455 -1.3601  1.7094  0.0515
  516TMC3    H2 7671   3.910   4.329  14.076  0.8708  1.0074 -1.4291
  516TMC3    C7 7672   3.903   4.300  14.344  0.7672 -0.4623 -0.0805
  516TMC3    C8 7673   3.944   4.546  13.941 -0.2220  0.7305  0.1291
  516TMC3    O1 7674   3.826   4.281  14.438  0.5655 -0.3609 -0.1760
  516TMC3    O2 7675   3.862   4.499  13.865  0.3885  0.5439  0.3059
  517MPD2     C 7676   3.757   1.188  17.178  0.9124 -0.1846  0.0282
  517MPD2    C1 7677   3.752   1.158  17.311 -0.0370 -0.4441  0.2698
  517MPD2    C2 7678   3.712   1.251  17.402 -0.4600  0.0907 -0.3869
  517MPD2    C3 7679   3.678   1.378  17.364  0.2441 -0.3728  0.3289
  517MPD2    C4 7680   3.680   1.413  17.229 -0.1458  0.2759  0.3020
  517MPD2    C5 7681   3.711   1.313  17.139 -0.5023 -0.1334 -0.3318
  517MPD2     H 7682   3.727   1.225  17.506 -0.4618 -0.5550 -0.5479
  517MPD2    H1 7683   3.650   1.507  17.185 -2.9737 -1.2267 -0.9573
  517MPD2    H2 7684   3.762   1.112  17.102 -2.8802 -1.6827  1.2784
  517MPD2    H3 7685   3.703   1.334  17.033  0.7963  0.7072 -0.2581
  517MPD2     N 7686   3.648   1.477  17.460  0.4393 -0.9054  0.1154
  517MPD2    H5 7687   3.627   1.569  17.422  1.7015 -0.7464 -0.2079
  517MPD2    N1 7688   3.792   1.039  17.361  0.0706 -0.4903 -0.2584
  517MPD2    H7 7689   3.757   1.019  17.455  1.5554  0.4352  0.4941
  518TMC3    C1 7690   3.900   0.833  17.379  0.2531 -0.1077  0.1506
  518TMC3    C2 7691   3.884   0.710  17.314  0.7195  0.5725  0.1939
  518TMC3    C3 7692   3.936   0.596  17.373 -0.3064 -0.4514  0.3819
  518TMC3    C4 7693   3.967   0.854  17.493 -0.0355  0.3208  0.1360
  518TMC3    C5 7694   4.017   0.739  17.539  0.1114  0.1610  0.4182
  518TMC3    C6 7695   4.002   0.612  17.493 -0.6887 -0.1892 -0.4167
  518TMC3     C 7696   3.876   0.951  17.297  0.2106 -0.4481 -0.5772
  518TMC3     O 7697   3.935   0.959  17.185 -0.5026 -0.1413 -0.4224
  518TMC3     H 7698   3.817   0.693  17.230  1.6487  1.1518 -0.6593
  518TMC3    H1 7699   3.995   0.945  17.545  0.8007  0.8829 -1.3066
  518TMC3    H2 7700   4.031   0.525  17.551 -4.5965 -0.9420  0.4037
  518TMC3    C7 7701   4.129   0.761  17.636 -0.0623  0.2895 -0.2871
  518TMC3    C8 7702   3.960   0.480  17.293  0.3062  0.1307 -0.0767
  518TMC3    O1 7703   4.104   0.835   0.027  0.1719 -0.2781 -0.5751
  518TMC3    O2 7704   3.949   0.370  17.348  0.0304  0.5570  0.4318
  519MPD2     C 7705   0.739   4.239  14.452 -0.6030  0.2588 -0.4068
  519MPD2    C1 7706   0.746   4.274  14.319  0.6146  0.4542  0.8985
  519MPD2    C2 7707   0.788   4.177  14.229 -0.0133  0.3597  0.0285
  519MPD2    C3 7708   0.840   4.060  14.277  0.8800  0.2724  0.8157
  519MPD2    C4 7709   0.852   4.040  14.409  0.5396  0.3342  0.3217
  519MPD2    C5 7710   0.796   4.120  14.497 -0.1424 -0.4728  0.5311
  519MPD2     H 7711   0.764   4.184  14.123 -0.4696 -0.9542  0.0393
  519MPD2    H1 7712   0.898   3.952  14.452 -0.0015  0.1824  0.5856
  519MPD2    H2 7713   0.704   4.305  14.530  0.5304 -0.1737  0.4627
  519MPD2    H3 7714   0.797   4.093  14.602  1.3094 -0.7119  0.4478
  519MPD2     N 7715   0.895   3.961  14.186  0.1905 -0.3557  0.8095
  519MPD2    H5 7716   0.969   3.903  14.224 -0.3702  0.3794  2.9682
  519MPD2    N1 7717   0.689   4.400  14.285 -0.3781 -0.2304  0.6217
  519MPD2    H7 7718   0.650   4.451  14.364 -0.7705  2.8859 -1.5929
  520TMC3    C1 7719   0.975   3.874  13.972  0.5916  0.1710  1.1435
  520TMC3    C2 7720   0.944   3.874  13.843  0.1870 -0.7139 -0.0986
  520TMC3    C3 7721   1.042   3.920  13.752 -0.0285 -0.0361  0.4574
  520TMC3    C4 7722   1.101   3.898  14.013  1.0554 -0.2067 -0.4948
  520TMC3    C5 7723   1.197   3.937  13.923 -0.3533 -0.3781  0.1589
  520TMC3    C6 7724   1.169   3.947  13.789 -0.4262 -0.5073 -0.7505
  520TMC3     C 7725   0.878   3.955  14.052  0.0592  0.1274  0.6889
  520TMC3     O 7726   0.787   4.010  13.989 -0.1025 -0.0139 -0.5980
  520TMC3     H 7727   0.845   3.841  13.815  0.5099  0.0209 -2.0668
  520TMC3    H1 7728   1.132   3.882  14.115  0.7335 -1.1294 -0.5411
  520TMC3    H2 7729   1.236   3.967  13.706  0.0280  1.1338  0.0080
  520TMC3    C7 7730   1.330   3.915  13.970 -0.5008 -0.7558  0.9743
  520TMC3    C8 7731   1.001   3.990  13.629  0.1079 -0.6915 -0.7247
  520TMC3    O1 7732   1.355   3.907  14.090 -0.0684 -0.3814  0.2152
  520TMC3    O2 7733   1.082   4.054  13.564  0.1954  0.0339  0.0320
  521MPD2     C 7734   1.887   2.207  17.464 -0.1547 -0.5646 -0.3813
  521MPD2    C1 7735   1.779   2.118  17.431  0.5127  0.2522 -0.4529
  521MPD2    C2 7736   1.802   2.020  17.336 -0.7808  0.4365  0.0496
  521MPD2    C3 7737   1.934   2.007  17.285  0.8441 -0.3988 -0.4607
  521MPD2    C4 7738   2.038   2.088  17.317  0.2771 -0.2018 -0.5415
  521MPD2    C5 7739   2.006   2.188  17.405  0.2680  0.0683 -1.0481
  521MPD2     H 7740   1.723   1.947  17.320 -1.9002  1.3531  1.2896
  521MPD2    H1 7741   2.137   2.090  17.272 -0.5810  1.6062 -2.3554
  521MPD2    H2 7742   1.878   2.288  17.535  1.0207  0.7359 -1.7125
  521MPD2    H3 7743   2.095   2.244  17.432 -0.7877  1.1986  0.1167
  521MPD2     N 7744   1.952   1.894  17.195  0.1065 -0.8084  0.5102
  521MPD2    H5 7745   1.877   1.829  17.172 -1.3125  0.2993  2.0521
  521MPD2    N1 7746   1.652   2.126  17.494  0.0865  0.2634 -0.8674
  521MPD2    H7 7747   1.650   2.192  17.571  2.4417 -0.0038 -0.5757
  522TMC3    C1 7748   2.074   1.744  17.064 -0.3117  0.5764 -0.4464
  522TMC3    C2 7749   2.189   1.665  17.071 -0.2403 -0.2314  0.1842
  522TMC3    C3 7750   2.236   1.605  16.961 -0.6950  0.4362 -0.0220
  522TMC3    C4 7751   2.021   1.773  16.940 -0.1027  0.3190 -0.1290
  522TMC3    C5 7752   2.087   1.727  16.830 -0.0142  0.1440  0.5679
  522TMC3    C6 7753   2.184   1.633  16.837  0.0121 -0.5236  0.5776
  522TMC3     C 7754   2.074   1.841  17.170 -0.3594 -0.2429  0.3831
  522TMC3     O 7755   2.184   1.882  17.201 -0.4711 -0.2085 -0.2831
  522TMC3     H 7756   2.237   1.647  17.166  0.4923 -0.2526 -0.1900
  522TMC3    H1 7757   1.952   1.855  16.929  1.0582  1.2376 -0.4685
  522TMC3    H2 7758   2.225   1.594  16.745 -1.4879 -0.0469 -0.3015
  522TMC3    C7 7759   2.014   1.726  16.708  0.0751 -0.3285 -0.0253
  522TMC3    C8 7760   2.370   1.542  16.967  0.5079  0.4381 -0.6099
  522TMC3    O1 7761   2.036   1.635  16.632 -0.3214  0.0146 -0.7256
  522TMC3    O2 7762   2.389   1.465  17.059  0.3702 -0.3286  0.3605
  523MPD2     C 7763   0.138   1.942  10.404 -0.8381 -0.3426 -0.0411
  523MPD2    C1 7764   0.131   1.927  10.270 -0.1515  0.1568  0.1433
  523MPD2    C2 7765   0.102   2.030  10.185  0.0962 -0.5373  0.6480
  523MPD2    C3 7766   0.083   2.158  10.239  0.1811  0.1581 -0.2788
  523MPD2    C4 7767   0.102   2.171  10.374  0.1589 -0.0228 -0.3154
  523MPD2    C5 7768   0.131   2.063  10.454  0.4036 -0.6684  0.2125
  523MPD2     H 7769   0.093   2.022  10.078 -0.2804  1.9641  0.4816
  523MPD2    H1 7770   0.101   2.266  10.426  1.9382 -0.2395  0.1186
  523MPD2    H2 7771   0.165   1.854  10.463 -0.7971  0.8975  1.7807
  523MPD2    H3 7772   0.137   2.083  10.560 -2.6337 -0.3498  0.3066
  523MPD2     N 7773   0.051   2.280  10.170 -1.0526  0.8112  0.2923
  523MPD2    H5 7774   0.014   2.354  10.228 -2.5972  1.2525 -1.2548
  523MPD2    N1 7775   0.137   1.795  10.220  1.0286  0.1745  0.3029
  523MPD2    H7 7776   0.178   1.725  10.282  4.7218  1.2643 -0.9073
  524TMC3    C1 7777   0.044   2.413   9.974  0.6597  0.1121 -0.1561
  524TMC3    C2 7778   0.124   2.469   9.879  0.0015 -0.0646 -0.0436
  524TMC3    C3 7779   0.064   2.574   9.804 -0.4589 -0.0140 -0.4531
  524TMC3    C4 7780   4.633   2.436   9.981 -0.4807 -0.5008  0.1275
  524TMC3    C5 7781   4.580   2.539   9.902 -0.7938  0.2203 -0.0734
  524TMC3    C6 7782   4.657   2.601   9.807 -0.5471 -0.8776  0.0083
  524TMC3     C 7783   0.085   2.294  10.042 -0.2074  0.6962  0.5179
  524TMC3     O 7784   0.163   2.223   9.974 -0.5934 -0.3495 -0.5148
  524TMC3     H 7785   0.228   2.437   9.874 -0.2304 -1.2765  3.0700
  524TMC3    H1 7786   4.580   2.377  10.055  0.1352 -0.6023  0.4895
  524TMC3    H2 7787   4.621   2.693   9.762  0.0757  0.0916  1.4852
  524TMC3    C7 7788   4.437   2.552   9.904  0.2046  0.1648  0.2933
  524TMC3    C8 7789   0.144   2.683   9.756 -0.0524 -0.2807  0.4502
  524TMC3    O1 7790   4.376   2.471   9.975 -0.3943 -0.3670 -0.4863
  524TMC3    O2 7791   0.236   2.724   9.827  0.6964 -0.2620 -0.4128
  525MPD2     C 7792   2.723   3.761  14.246 -0.4732 -0.1778  0.6831
  525MPD2    C1 7793   2.671   3.827  14.352 -0.3836 -0.2137  0.4028
  525MPD2    C2 7794   2.656   3.962  14.346 -0.2199 -0.3498  0.6312
  525MPD2    C3 7795   2.684   4.025  14.231 -0.2962  0.2047  0.3140
  525MPD2    C4 7796   2.742   3.956  14.128  0.1832  0.3563  0.1095
  525MPD2    C5 7797   2.771   3.824  14.135  0.5189  0.4557  0.0536
  525MPD2     H 7798   2.614   4.023  14.425 -0.7856 -0.9185  0.7766
  525MPD2    H1 7799   2.773   4.004  14.035 -0.2642 -0.0848 -0.2674
  525MPD2    H2 7800   2.736   3.653  14.247 -2.8623 -0.4750 -0.4766
  525MPD2    H3 7801   2.803   3.776  14.044 -2.3603 -1.1734 -0.1065
  525MPD2     N 7802   2.674   4.169  14.231 -0.7464 -0.2121 -0.8164
  525MPD2    H5 7803   2.635   4.220  14.309 -0.5097  0.0960 -0.8965
  525MPD2    N1 7804   2.642   3.757  14.474  0.3266  0.4668  0.1331
  525MPD2    H7 7805   2.665   3.658  14.468  0.2415  0.4212  0.5549
  526TMC3    C1 7806   2.566   3.714  14.692 -0.0855 -0.1337 -0.3929
  526TMC3    C2 7807   2.454   3.714  14.777 -0.6782  0.0374 -0.5506
  526TMC3    C3 7808   2.438   3.612  14.857  0.1829  0.0856  0.0477
  526TMC3    C4 7809   2.666   3.625  14.713  0.6636  0.0921  0.1200
  526TMC3    C5 7810   2.639   3.513  14.796 -0.3365 -0.1833 -0.1988
  526TMC3    C6 7811   2.530   3.508  14.877  0.1881  0.2136 -0.1826
  526TMC3     C 7812   2.577   3.809  14.584 -1.0741 -0.4111 -0.2221
  526TMC3     O 7813   2.512   3.911  14.594  1.0549  0.1751 -0.2730
  526TMC3     H 7814   2.379   3.791  14.768 -0.7814  0.1547  1.2742
  526TMC3    H1 7815   2.756   3.633  14.654  0.0428 -2.8352 -1.2156
  526TMC3    H2 7816   2.516   3.431  14.952  2.5864 -0.4819 -0.4519
  526TMC3    C7 7817   2.752   3.420  14.825  0.4764  0.5069  0.4886
  526TMC3    C8 7818   2.355   3.631  14.972 -0.3119  0.2888 -0.4798
  526TMC3    O1 7819   2.747   3.364  14.935 -0.5903  0.1996 -0.0167
  526TMC3    O2 7820   2.337   3.746  15.001 -0.0970  0.5632 -0.0558
  527MPD2     C 7821   0.036   1.280   0.883  0.4463 -0.1699 -0.3791
  527MPD2    C1 7822   0.088   1.338   0.997  0.0719  0.0110 -0.1160
  527MPD2    C2 7823   0.213   1.389   0.996 -0.7122 -0.0228  0.4466
  527MPD2    C3 7824   0.294   1.385   0.887  0.1525 -1.3728  0.4715
  527MPD2    C4 7825   0.238   1.338   0.766  0.1893  0.3302  0.1699
  527MPD2    C5 7826   0.115   1.283   0.771  0.1670 -0.3959  0.2607
  527MPD2     H 7827   0.251   1.429   1.089  0.4772 -2.1382  0.8691
  527MPD2    H1 7828   0.295   1.309   0.679 -2.7114  2.1158 -2.3356
  527MPD2    H2 7829   4.661   1.237   0.870 -0.3373  1.1162  1.2861
  527MPD2    H3 7830   0.080   1.244   0.676  1.4666  0.8110 -0.6997
  527MPD2     N 7831   0.426   1.432   0.904 -0.1313  0.2410 -0.1248
  527MPD2    H5 7832   0.453   1.453   0.999  2.0109 -1.0131 -0.4661
  527MPD2    N1 7833   0.022   1.336   1.128  0.1674 -0.0522  0.0145
  527MPD2    H7 7834   0.076   1.370   1.207  0.7104 -2.3968  0.6577
  528TMC3    C1 7835   4.569   1.302   1.280  0.5290 -0.2678  0.7770
  528TMC3    C2 7836   4.652   1.313   1.388  0.1940 -0.6625 -0.8899
  528TMC3    C3 7837   4.605   1.318   1.513 -0.0777  0.6241 -0.1123
  528TMC3    C4 7838   4.431   1.302   1.297 -0.2819  0.0303 -0.0022
  528TMC3    C5 7839   4.388   1.298   1.426  0.3710 -0.0824  0.6558
  528TMC3    C6 7840   4.472   1.305   1.533  0.6482 -0.1315 -0.1259
  528TMC3     C 7841   4.619   1.294   1.145  0.2613 -0.2640 -0.1991
  528TMC3     O 7842   4.537   1.256   1.061  0.0027 -0.2471 -0.0064
  528TMC3     H 7843   0.033   1.298   1.368  0.5844 -0.5395  1.1099
  528TMC3    H1 7844   4.366   1.280   1.212 -2.4094 -0.5626  1.7621
  528TMC3    H2 7845   4.435   1.331   1.631 -0.1510  0.5736 -0.6170
  528TMC3    C7 7846   4.242   1.297   1.446 -0.4601  0.2671 -0.2062
  528TMC3    C8 7847   4.689   1.337   1.631 -0.3680  0.6798 -0.9456
  528TMC3    O1 7848   4.171   1.319   1.346  0.9163 -0.3711  0.0522
  528TMC3    O2 7849   4.637   1.312   1.741 -0.3218  0.4179 -0.1182
  529MPD2     C 7850   2.916   4.598   0.176  0.6873  0.4993 -0.0414
  529MPD2    C1 7851   2.870   4.686   0.272 -0.6096 -0.0120  0.1715
  529MPD2    C2 7852   2.868   0.099   0.245  0.6530 -0.2880 -0.6395
  529MPD2    C3 7853   2.920   0.145   0.122 -0.7753 -0.1247  0.0266
  529MPD2    C4 7854   2.969   0.047   0.038  0.0513 -1.0144 -0.7357
  529MPD2    C5 7855   2.966   4.637   0.063  0.2161 -0.2499  0.2635
  529MPD2     H 7856   2.822   0.165   0.318 -0.0934 -0.7788 -0.6646
  529MPD2    H1 7857   3.030   0.075  17.653 -0.5638  1.3940 -0.3706
  529MPD2    H2 7858   2.917   4.491   0.197 -2.0154  0.7481  1.2945
  529MPD2    H3 7859   3.025   4.579  17.692 -1.0174  1.4879 -2.2115
  529MPD2     N 7860   2.912   0.287   0.091 -0.1966 -0.2061 -0.2218
  529MPD2    H5 7861   2.957   0.314   0.004  0.7616  0.9984  0.6241
  529MPD2    N1 7862   2.816   4.642   0.395  0.0789 -0.4059 -0.2969
  529MPD2    H7 7863   2.818   4.710   0.471  1.1436 -0.2204 -0.4976
  530TMC3    C1 7864   2.688   4.514   0.533 -0.3017  0.7679 -0.2631
  530TMC3    C2 7865   2.772   4.531   0.636  0.1081  0.2089  0.0001
  530TMC3    C3 7866   2.715   4.493   0.755  1.2440  0.4086 -0.3915
  530TMC3    C4 7867   2.562   4.459   0.541 -0.9116  0.0334 -0.2430
  530TMC3    C5 7868   2.505   4.433   0.663 -0.4906 -0.3494 -0.1084
  530TMC3    C6 7869   2.589   4.437   0.773  0.5169 -0.1043 -0.2005
  530TMC3     C 7870   2.746   4.525   0.402 -0.7750 -0.4400  0.1360
  530TMC3     O 7871   2.686   4.477   0.304 -0.3824  0.6143 -0.3024
  530TMC3     H 7872   2.875   4.566   0.635  1.0784 -2.6488 -0.7055
  530TMC3    H1 7873   2.502   4.448   0.451 -1.7371  1.3057  0.1621
  530TMC3    H2 7874   2.551   4.403   0.869 -0.3892  0.5409 -0.3387
  530TMC3    C7 7875   2.410   4.318   0.667 -0.3774 -0.7819 -0.3587
  530TMC3    C8 7876   2.785   4.504   0.875 -0.0437 -0.4045  0.0484
  530TMC3    O1 7877   2.462   4.212   0.701  0.3084  0.2471 -0.1740
  530TMC3    O2 7878   2.716   4.503   0.974  0.0480 -0.1764 -0.2239
  531MPD2     C 7879   2.036   3.010  13.300 -0.3381  0.2767  0.3657
  531MPD2    C1 7880   1.992   2.897  13.369 -0.2927 -0.8873  0.3498
  531MPD2    C2 7881   2.008   2.774  13.316 -0.9347  0.1276 -0.2286
  531MPD2    C3 7882   2.060   2.755  13.188 -0.2828  1.1688  1.2426
  531MPD2    C4 7883   2.118   2.864  13.129  0.2217 -0.1359  0.1172
  531MPD2    C5 7884   2.099   2.992  13.178 -0.2723  0.2024 -0.4208
  531MPD2     H 7885   1.975   2.687  13.371 -0.2870  1.4898  2.2778
  531MPD2    H1 7886   2.183   2.854  13.043 -1.3782  0.2964 -1.1194
  531MPD2    H2 7887   2.025   3.109  13.344  1.2756  0.2723  0.7755
  531MPD2    H3 7888   2.126   3.078  13.118  1.4559 -0.7039 -0.9253
  531MPD2     N 7889   2.060   2.626  13.139  0.0950 -0.4096  0.3596
  531MPD2    H5 7890   2.007   2.556  13.189 -1.5399  0.4209 -0.2373
  531MPD2    N1 7891   1.927   2.917  13.486 -0.0405  0.3635 -0.1466
  531MPD2    H7 7892   1.923   3.013  13.518 -1.7305 -0.7632  3.0248
  532TMC3    C1 7893   1.770   2.859  13.665 -0.1791 -0.0881 -0.0369
  532TMC3    C2 7894   1.647   2.799  13.660  0.5891  0.3174  0.2441
  532TMC3    C3 7895   1.588   2.751  13.776  0.0508 -0.5952  0.6393
  532TMC3    C4 7896   1.838   2.866  13.784 -0.2893  0.0732 -0.7703
  532TMC3    C5 7897   1.775   2.820  13.901  0.4909 -0.0140  0.5197
  532TMC3    C6 7898   1.654   2.761  13.895 -0.0748  0.0955 -0.3403
  532TMC3     C 7899   1.833   2.828  13.535 -0.0154  0.1376  0.3534
  532TMC3     O 7900   1.783   2.726  13.491  0.0536 -0.1502  0.7111
  532TMC3     H 7901   1.589   2.809  13.569  0.9104  0.0729  0.0121
  532TMC3    H1 7902   1.942   2.897  13.786 -0.6384  1.3441 -2.1784
  532TMC3    H2 7903   1.616   2.715  13.986  0.8264  1.4421  0.7238
  532TMC3    C7 7904   1.852   2.796  14.027 -0.2416  0.3465 -0.2496
  532TMC3    C8 7905   1.531   2.620  13.745  0.1794 -1.3752  0.0536
  532TMC3    O1 7906   1.794   2.732  14.116  0.8125 -0.1593 -0.3787
  532TMC3    O2 7907   1.494   2.555  13.842 -0.0049  0.0292 -0.9119
  533TMC3    C1 7908   2.701   4.391  14.155  0.3712 -0.6027  0.9322
  533TMC3    C2 7909   2.796   4.476  14.106  0.0722 -0.5462  0.2953
  533TMC3    C3 7910   2.793   4.606  14.154  0.0734 -0.1893  0.2060
  533TMC3    C4 7911   2.614   4.431  14.248 -0.0754 -0.5255 -1.0815
  533TMC3    C5 7912   2.629   4.547  14.305 -0.0289  0.5826  0.9358
  533TMC3    C6 7913   2.710   4.646  14.258  0.0328 -0.4433 -0.1363
  533TMC3     C 7914   2.734   4.253  14.137 -0.4351 -0.2613  0.3618
  533TMC3     O 7915   2.811   4.224  14.042 -0.0119  0.4999 -0.0337
  533TMC3     H 7916   2.872   4.443  14.036  0.4506  0.1441  0.3782
  533TMC3    H1 7917   2.542   4.359  14.285 -1.2981  2.0131  1.5384
  533TMC3    H2 7918   2.730   0.010  14.318 -0.8751 -1.0334  1.0496
  533TMC3    C7 7919   2.612   4.528  14.444 -0.6240  0.3785 -0.6597
  533TMC3    C8 7920   2.909   4.684  14.137 -0.3134  0.4717 -0.3906
  533TMC3    O1 7921   2.632   4.413  14.484  0.0170 -0.2918  0.3051
  533TMC3    O2 7922   2.919   0.071  14.193 -0.3418  0.2483 -0.3897
  534MPD2     C 7923   1.051   0.171   1.482 -0.5392 -0.0894  0.4617
  534MPD2    C1 7924   0.933   0.198   1.549  0.6537  0.0722  0.2223
  534MPD2    C2 7925   0.836   0.101   1.559  0.0439  0.5250  0.0418
  534MPD2    C3 7926   0.852   4.705   1.486  0.8417  0.0726 -0.6392
  534MPD2    C4 7927   0.977   4.680   1.428 -0.2076 -0.5668  0.1901
  534MPD2    C5 7928   1.069   0.054   1.418 -0.1660 -0.2864 -0.3289
  534MPD2     H 7929   0.743   0.117   1.611  1.0554 -0.3419  2.0956
  534MPD2    H1 7930   0.994   4.585   1.380 -1.2074 -1.3407  1.3512
  534MPD2    H2 7931   1.132   0.242   1.469 -2.4267  1.9942  0.1862
  534MPD2    H3 7932   1.170   0.046   1.378  0.2853 -1.3871  1.0609
  534MPD2     N 7933   0.747   4.611   1.467  0.2297  0.0449 -0.2490
  534MPD2    H5 7934   0.769   4.534   1.405 -0.6545 -0.6448  0.2924
  534MPD2    N1 7935   0.908   0.327   1.610 -0.5835 -0.1851  0.6666
  534MPD2    H7 7936   0.824   0.335   1.667 -0.1515 -1.4952  1.4722
  535TMC3    C1 7937   0.539   4.524   1.459  0.3970 -0.1907  0.2243
  535TMC3    C2 7938   0.425   4.499   1.536 -0.1283  0.5038 -1.1182
  535TMC3    C3 7939   0.321   4.426   1.478  0.5746  0.3548  0.4017
  535TMC3    C4 7940   0.538   4.497   1.323  0.3795 -0.1766 -0.5147
  535TMC3    C5 7941   0.426   4.444   1.272 -0.0359  0.0535  0.3522
  535TMC3    C6 7942   0.328   4.395   1.344 -0.5772  0.1520 -0.2287
  535TMC3     C 7943   0.625   4.623   1.520  0.4572  0.0018 -0.4550
  535TMC3     O 7944   0.579   4.695   1.607  0.0803  0.5602  0.2718
  535TMC3     H 7945   0.421   4.542   1.635  2.2565 -2.3954  0.2483
  535TMC3    H1 7946   0.616   4.518   1.252  0.6861 -1.5095 -0.5692
  535TMC3    H2 7947   0.237   4.360   1.296 -0.6826  0.7652 -0.4758
  535TMC3    C7 7948   0.390   4.529   1.159  0.7296 -0.4131  0.9817
  535TMC3    C8 7949   0.187   4.467   1.512 -0.1491  0.3892  0.6612
  535TMC3    O1 7950   0.463   4.550   1.069  0.1878  0.1453 -0.1733
  535TMC3    O2 7951   0.114   4.505   1.423 -0.4709  0.2033  0.2972
  536MPD2     C 7952   3.897   3.851  16.105  0.7365 -0.0451  0.1437
  536MPD2    C1 7953   3.783   3.777  16.107  0.1288 -0.3177 -0.5927
  536MPD2    C2 7954   3.702   3.778  15.996 -0.2482 -0.0435 -0.1108
  536MPD2    C3 7955   3.748   3.842  15.882 -0.1060 -0.0933  0.3621
  536MPD2    C4 7956   3.870   3.907  15.878 -0.1000 -1.0471 -0.2422
  536MPD2    C5 7957   3.946   3.914  15.993  0.3824 -0.2320 -0.3119
  536MPD2     H 7958   3.600   3.741  16.006 -0.3193  0.7723  2.2858
  536MPD2    H1 7959   3.912   3.966  15.797 -0.6190  2.3626  1.9433
  536MPD2    H2 7960   3.951   3.859  16.199 -1.5778  0.8566  1.4084
  536MPD2    H3 7961   4.040   3.968  15.999 -0.3388  0.8840  0.9744
  536MPD2     N 7962   3.679   3.847  15.764 -0.3825 -0.9996 -0.4526
  536MPD2    H5 7963   3.717   3.898  15.685  2.1916  0.4986  1.7208
  536MPD2    N1 7964   3.745   3.707  16.226 -0.3760 -0.2890  0.4381
  536MPD2    H7 7965   3.815   3.704  16.299  1.6806 -0.3554 -1.5221
  537TMC3    C1 7966   3.624   3.577  16.378  0.5730  0.4296 -0.3124
  537TMC3    C2 7967   3.673   3.657  16.479  0.1298  0.6335 -0.3611
  537TMC3    C3 7968   3.651   3.615  16.609 -0.6557 -0.8596 -0.7261
  537TMC3    C4 7969   3.557   3.462  16.396  0.3470  0.4225 -0.1568
  537TMC3    C5 7970   3.529   3.434  16.525  0.2035  0.1739  0.4595
  537TMC3    C6 7971   3.572   3.508  16.633  0.1228 -0.4051 -0.3877
  537TMC3     C 7972   3.633   3.625  16.246 -0.1803  0.4781  0.1882
  537TMC3     O 7973   3.532   3.603  16.177  0.4789 -0.2738 -0.3549
  537TMC3     H 7974   3.732   3.744  16.454  1.5487 -0.1321  0.3177
  537TMC3    H1 7975   3.533   3.408  16.305 -0.6031 -0.6195  0.7156
  537TMC3    H2 7976   3.536   3.489  16.733 -0.8861 -2.1526 -1.0749
  537TMC3    C7 7977   3.457   3.309  16.542  0.5536 -0.2601 -0.7698
  537TMC3    C8 7978   3.673   3.712  16.720  0.7961 -0.8295 -0.5346
  537TMC3    O1 7979   3.427   3.238  16.445 -1.1113 -0.9139 -0.0007
  537TMC3    O2 7980   3.636   3.672  16.829  0.4612  0.0796  0.0087
  538TMC3    C1 7981   0.800   1.658  11.489  0.9536  0.5026  0.3297
  538TMC3    C2 7982   0.879   1.620  11.382  0.4114 -0.0992 -0.2348
  538TMC3    C3 7983   0.829   1.648  11.260 -0.1346  0.0697  0.3824
  538TMC3    C4 7984   0.686   1.727  11.480 -0.0112  0.4732 -0.3065
  538TMC3    C5 7985   0.649   1.765  11.350  0.3370 -0.1406  0.3208
  538TMC3    C6 7986   0.718   1.717  11.239  0.3378 -0.0373 -0.6153
  538TMC3     C 7987   0.885   1.691  11.597  0.5686 -0.6000  0.5097
  538TMC3     O 7988   0.830   1.681  11.704 -0.5352 -0.6209 -0.1010
  538TMC3     H 7989   0.973   1.567  11.383 -0.2432 -1.2391  1.0233
  538TMC3    H1 7990   0.641   1.762  11.572  0.1614  2.3349 -0.9338
  538TMC3    H2 7991   0.677   1.741  11.141 -0.4191  0.7004 -0.1179
  538TMC3    C7 7992   0.550   1.872  11.328 -0.3300 -0.5207  0.6050
  538TMC3    C8 7993   0.921   1.613  11.153 -0.4443 -0.2677 -0.4672
  538TMC3    O1 7994   0.498   1.885  11.213  0.0347 -0.2301  0.3328
  538TMC3    O2 7995   0.983   1.509  11.167 -0.1255 -0.0610 -0.6202
  539MPD2     C 7996   4.607   0.951  11.790  0.2942 -0.4411  0.0973
  539MPD2    C1 7997   4.573   1.001  11.666  0.5030  0.0414  0.5085
  539MPD2    C2 7998   4.588   1.131  11.638 -1.0320  0.2768  1.0202
  539MPD2    C3 7999   4.638   1.216  11.725 -0.3275  0.2597 -0.1105
  539MPD2    C4 8000   4.686   1.170  11.852 -0.3247 -0.1832  0.7474
  539MPD2    C5 8001   4.666   1.033  11.882 -0.3940 -0.4319  0.8800
  539MPD2     H 8002   4.551   1.162  11.541  0.6758  0.3931  0.3999
  539MPD2    H1 8003   0.002   1.229  11.933  1.0112  0.4123 -0.3620
  539MPD2    H2 8004   4.595   0.849  11.822 -0.5175 -0.1996  0.5834
  539MPD2    H3 8005   4.686   0.991  11.980  1.4412  1.3059  1.2391
  539MPD2     N 8006   4.632   1.354  11.703 -0.4090 -0.0311 -0.1293
  539MPD2    H5 8007   4.617   1.395  11.612  2.2539  1.5789  0.1550
  539MPD2    N1 8008   4.518   0.923  11.565 -0.4003  0.3505 -0.4071
  539MPD2    H7 8009   4.540   0.943  11.468 -3.0358  0.6832 -0.9256
  540TMC3    C1 8010   4.621   1.582  11.770  0.2811  0.1473  0.2993
  540TMC3    C2 8011   4.673   1.624  11.651  0.4208  0.6798  0.1418
  540TMC3    C3 8012   4.639   1.740  11.597 -0.6316  0.9369 -0.3044
  540TMC3    C4 8013   4.557   1.667  11.848  0.3886  1.0372  0.0282
  540TMC3    C5 8014   4.526   1.789  11.797 -0.4149  0.1021  0.2392
  540TMC3    C6 8015   4.559   1.825  11.668  0.3273 -0.7840  0.2267
  540TMC3     C 8016   4.626   1.441  11.812  0.4816 -0.2044  0.4583
  540TMC3     O 8017   4.599   1.420  11.932  0.3914  0.0105 -0.1320
  540TMC3     H 8018   0.015   1.555  11.601  1.3495  0.3474  1.8794
  540TMC3    H1 8019   4.540   1.647  11.953  1.6394  1.8914  0.3836
  540TMC3    H2 8020   4.526   1.912  11.612  0.1176 -0.5205  0.7602
  540TMC3    C7 8021   4.425   1.858  11.868  0.3327 -0.2415  0.7530
  540TMC3    C8 8022   4.702   1.786  11.473  0.3863  0.8196  0.5977
  540TMC3    O1 8023   4.343   1.795  11.928 -0.0951  0.2392 -0.2391
  540TMC3    O2 8024   0.098   1.754  11.477  0.1472 -0.8007 -0.2219
  541MPD2     C 8025   3.432   3.016  13.135  0.5824 -0.5757 -0.1398
  541MPD2    C1 8026   3.298   3.041  13.136 -0.2308  0.3227 -0.2742
  541MPD2    C2 8027   3.237   3.118  13.032 -0.1871  0.2209 -0.8432
  541MPD2    C3 8028   3.329   3.168  12.930  0.1152  0.3474  0.8268
  541MPD2    C4 8029   3.467   3.157  12.943  0.5401 -0.0215 -0.6204
  541MPD2    C5 8030   3.515   3.068  13.039  0.5153  0.0842  0.3852
  541MPD2     H 8031   3.130   3.134  13.033  0.0400  1.8102 -1.2845
  541MPD2    H1 8032   3.532   3.199  12.867  2.3204 -0.8330  0.4537
  541MPD2    H2 8033   3.482   2.963  13.216 -0.6871  0.1149  1.1020
  541MPD2    H3 8034   3.621   3.048  13.047  0.0155 -3.1520 -1.2815
  541MPD2     N 8035   3.287   3.240  12.812 -0.3028  0.1425  0.3447
  541MPD2    H5 8036   3.361   3.277  12.753 -0.4837  1.4340  0.9300
  541MPD2    N1 8037   3.221   2.989  13.244  0.0524 -0.8286 -0.1377
  541MPD2    H7 8038   3.267   2.914  13.294  0.4666 -0.6670 -0.2702
  542TMC3    C1 8039   3.137   3.332  12.654  0.3420  0.7840 -0.3667
  542TMC3    C2 8040   3.216   3.305  12.549  0.0920 -0.5170  0.5198
  542TMC3    C3 8041   3.207   3.378  12.438  0.0086 -0.8297 -0.2236
  542TMC3    C4 8042   3.042   3.436  12.638  0.2545 -0.5724 -0.5415
  542TMC3    C5 8043   3.039   3.509  12.521 -0.1886 -0.1439 -0.2784
  542TMC3    C6 8044   3.124   3.483  12.421 -0.8466 -0.1343  0.1320
  542TMC3     C 8045   3.153   3.251  12.779  0.4477  0.3897 -0.4343
  542TMC3     O 8046   3.049   3.227  12.841  0.9015  0.9428  0.2436
  542TMC3     H 8047   3.262   3.208  12.557  0.7642 -0.2674 -0.2605
  542TMC3    H1 8048   2.968   3.456  12.715 -0.6858 -1.5017 -1.2026
  542TMC3    H2 8049   3.114   3.533  12.326 -0.6568  1.7458  1.1038
  542TMC3    C7 8050   2.988   3.644  12.525 -0.0185  0.4606  0.3333
  542TMC3    C8 8051   3.249   3.309  12.315  0.0446  0.1460  0.0103
  542TMC3    O1 8052   2.967   3.718  12.434  0.2504 -0.8435  0.1973
  542TMC3    O2 8053   3.191   3.339  12.213 -0.1019  0.0769  0.2523
  543TMC3    C1 8054   2.173   3.833  17.023 -0.3755 -0.0674 -0.3755
  543TMC3    C2 8055   2.201   3.701  17.036 -0.2026  0.0962 -0.2629
  543TMC3    C3 8056   2.216   3.643  17.164  0.1793 -0.0257 -0.2760
  543TMC3    C4 8057   2.167   3.914  17.131 -0.4765 -0.1602 -1.0683
  543TMC3    C5 8058   2.189   3.855  17.258  0.0651  0.0696 -0.2134
  543TMC3    C6 8059   2.213   3.724  17.279 -0.3330 -0.0025  0.5621
  543TMC3     C 8060   2.205   3.880  16.899  0.6400 -0.0960 -0.5258
  543TMC3     O 8061   2.282   3.819  16.826  0.3863 -0.1839  0.1573
  543TMC3     H 8062   2.219   3.643  16.946 -0.2902 -2.6170  1.4809
  543TMC3    H1 8063   2.173   4.021  17.119  0.8903 -0.0900  0.2692
  543TMC3    H2 8064   2.247   3.696  17.377 -0.0716 -3.0426 -0.3865
  543TMC3    C7 8065   2.149   3.934  17.372  0.7248  0.0650 -0.0869
  543TMC3    C8 8066   2.217   3.495  17.178  0.1273  0.5583  0.2945
  543TMC3    O1 8067   2.154   3.885  17.480 -0.7899  0.2618 -0.4339
  543TMC3    O2 8068   2.237   3.427  17.079 -0.0419  0.1156  0.1134
  544MPD2     C 8069   2.208   3.068  17.463  0.3616  0.3924 -0.6660
  544MPD2    C1 8070   2.180   3.082  17.330  0.2887  0.3338 -0.1413
  544MPD2    C2 8071   2.177   3.210  17.278 -0.2328  0.1783  0.6176
  544MPD2    C3 8072   2.204   3.321  17.360 -0.9060 -0.2717  0.8002
  544MPD2    C4 8073   2.230   3.304  17.488  0.5023 -0.0331  0.8177
  544MPD2    C5 8074   2.244   3.179  17.543 -0.5021 -0.5305 -0.1110
  544MPD2     H 8075   2.167   3.218  17.170 -1.1804 -0.2691  0.6655
  544MPD2    H1 8076   2.246   3.395  17.544 -1.3742  0.1421  1.0530
  544MPD2    H2 8077   2.216   2.968  17.504 -1.1508  0.4833 -0.1585
  544MPD2    H3 8078   2.281   3.168  17.644  2.5182  0.6431 -1.0883
  544MPD2     N 8079   2.208   3.459  17.309  0.1173  0.0285 -0.5622
  544MPD2    H5 8080   2.206   3.529  17.382 -1.6513  0.0228 -0.5972
  544MPD2    N1 8081   2.165   2.958  17.257 -0.4844 -0.3310  0.2837
  544MPD2    H7 8082   2.177   2.873  17.311 -1.1210  0.4722  1.6837
  545TMC3    C1 8083   2.130   2.801  17.089 -0.3256  0.4370  0.4372
  545TMC3    C2 8084   2.064   2.768  16.972  0.3237 -1.0515  0.8769
  545TMC3    C3 8085   2.082   2.643  16.925 -0.0790 -0.1407  0.5554
  545TMC3    C4 8086   2.182   2.702  17.171 -0.3002 -0.7124 -0.1320
  545TMC3    C5 8087   2.205   2.581  17.113  0.2579 -0.4025  0.4491
  545TMC3    C6 8088   2.146   2.542  16.994 -0.4961  0.0589  0.3434
  545TMC3     C 8089   2.145   2.941  17.120  0.5570  0.4229 -0.2043
  545TMC3     O 8090   2.098   3.020  17.038 -0.7015  0.6598  0.3775
  545TMC3     H 8091   2.013   2.845  16.915  1.2277  0.1648  1.7118
  545TMC3    H1 8092   2.238   2.725  17.261 -2.3063  2.4855  0.2643
  545TMC3    H2 8093   2.159   2.444  16.951 -0.3795  0.5464 -0.7356
  545TMC3    C7 8094   2.272   2.477  17.183  0.0340 -0.1650  0.1432
  545TMC3    C8 8095   2.063   2.622  16.782  0.2046 -0.4533 -0.7220
  545TMC3    O1 8096   2.238   2.367  17.148  0.0362  0.2413 -0.4543
  545TMC3    O2 8097   1.983   2.691  16.726 -0.0448  0.1768  0.0141
  546MPD2     C 8098   3.738   3.977  17.482 -0.2194 -0.0758  0.3796
  546MPD2    C1 8099   3.704   4.040  17.369 -0.5465  0.0753 -0.6806
  546MPD2    C2 8100   3.764   4.157  17.334 -0.6958 -0.0202  0.1063
  546MPD2    C3 8101   3.871   4.213  17.401  0.5298 -0.2735  0.3461
  546MPD2    C4 8102   3.898   4.147  17.519  0.4385 -0.1909 -0.1482
  546MPD2    C5 8103   3.820   4.040  17.566  0.1033  0.1509  0.5831
  546MPD2     H 8104   3.738   4.197  17.237  1.6061 -0.8368 -0.8634
  546MPD2    H1 8105   3.984   4.181  17.576  0.8459  0.1866 -0.9906
  546MPD2    H2 8106   3.691   3.884  17.511  0.9871 -0.5349  0.8239
  546MPD2    H3 8107   3.867   3.998  17.654  0.2330 -0.8246  0.0506
  546MPD2     N 8108   3.967   4.302  17.347  0.2134 -0.2250 -0.1840
  546MPD2    H5 8109   4.051   4.320  17.402  0.3954 -1.2876 -0.1292
  546MPD2    N1 8110   3.604   3.980  17.290  0.5855 -0.4628  0.0001
  546MPD2    H7 8111   3.570   3.887  17.313  0.9505 -0.7012 -0.4287
  547TMC3    C1 8112   3.451   3.946  17.115 -0.3108  0.2093  0.1524
  547TMC3    C2 8113   3.409   3.983  16.994 -0.1816  0.4220 -0.2530
  547TMC3    C3 8114   3.344   3.886  16.926 -0.4028 -0.3333 -0.5097
  547TMC3    C4 8115   3.427   3.820  17.174 -0.5977  0.4710 -0.3129
  547TMC3    C5 8116   3.353   3.736  17.095 -0.5536 -0.5676  0.0634
  547TMC3    C6 8117   3.300   3.761  16.977 -0.1970 -0.1888 -0.2793
  547TMC3     C 8118   3.551   4.027  17.174 -0.4035  0.8541 -0.0575
  547TMC3     O 8119   3.555   4.141  17.128 -0.2515 -0.4008  0.2275
  547TMC3     H 8120   3.444   4.075  16.949 -1.0760  0.8458 -0.0852
  547TMC3    H1 8121   3.472   3.780  17.264 -0.3736 -1.2545 -1.1989
  547TMC3    H2 8122   3.245   3.697  16.909 -1.6573  0.6655  0.1105
  547TMC3    C7 8123   3.308   3.614  17.160 -0.6499 -0.9970 -0.0903
  547TMC3    C8 8124   3.288   3.919  16.791  0.0465  0.9355  0.5482
  547TMC3    O1 8125   3.315   3.617  17.284  0.0515 -0.0297 -0.2157
  547TMC3    O2 8126   3.198   3.851  16.744  0.3013 -0.1572  0.0417
  548MPD2     C 8127   3.774   0.385  12.136  0.0801 -0.0246  0.5852
  548MPD2    C1 8128   3.684   0.277  12.138 -0.4220 -0.1483 -0.5836
  548MPD2    C2 8129   3.732   0.161  12.068  0.4390  0.3615  0.2176
  548MPD2    C3 8130   3.860   0.165  12.004 -0.1864  0.0379 -0.6820
  548MPD2    C4 8131   3.942   0.272  12.017  0.5056  0.0829 -0.6079
  548MPD2    C5 8132   3.896   0.384  12.075  0.1283  0.1465  0.2095
  548MPD2     H 8133   3.664   0.078  12.056  0.5586  0.2256  0.4958
  548MPD2    H1 8134   4.042   0.272  11.974  1.4712  1.6433  1.6551
  548MPD2    H2 8135   3.759   0.472  12.199  0.3757  0.7825 -0.4606
  548MPD2    H3 8136   3.971   0.458  12.099 -1.1494  1.1347  1.1233
  548MPD2     N 8137   3.902   0.061  11.917  0.2180 -0.0442 -0.0182
  548MPD2    H5 8138   4.000   0.071  11.892 -0.3445 -0.2345 -2.2748
  548MPD2    N1 8139   3.569   0.296  12.210  0.4141  0.4097 -0.0844
  548MPD2    H7 8140   3.554   0.379  12.267  0.2081  0.6837 -0.5376
  549TMC3    C1 8141   3.373   0.236  12.320  0.2310  0.5842  0.3049
  549TMC3    C2 8142   3.366   0.367  12.360  0.1009  0.1579 -0.8076
  549TMC3    C3 8143   3.245   0.405  12.408  0.5036 -0.7498  0.9980
  549TMC3    C4 8144   3.268   0.146  12.338  0.2661  0.0026 -0.2423
  549TMC3    C5 8145   3.154   0.190  12.384 -0.3362 -0.0467 -0.3013
  549TMC3    C6 8146   3.137   0.322  12.416  0.1264 -0.2060 -0.1956
  549TMC3     C 8147   3.472   0.202  12.223 -0.3229 -0.0840  0.1759
  549TMC3     O 8148   3.477   0.085  12.181 -0.2168  0.4993 -0.1503
  549TMC3     H 8149   3.446   0.441  12.353 -0.5273  0.7752 -1.5114
  549TMC3    H1 8150   3.280   0.046  12.299  0.5305  0.2409 -0.7786
  549TMC3    H2 8151   3.049   0.359  12.467 -1.4323 -1.9646 -1.6323
  549TMC3    C7 8152   3.040   0.098  12.410  0.0101  0.1916  0.5051
  549TMC3    C8 8153   3.216   0.549  12.418  0.6257  0.3229 -0.0940
  549TMC3    O1 8154   2.924   0.136  12.434  0.7581  0.6233 -0.0903
  549TMC3    O2 8155   3.109   0.578  12.371  0.4773 -0.0671 -0.4513
  550TMC3    C1 8156   2.610   2.668  12.659  0.2540  0.0572 -0.0905
  550TMC3    C2 8157   2.608   2.792  12.725 -0.3461  0.1628 -0.0331
  550TMC3    C3 8158   2.622   2.908  12.649  0.7908  0.1679 -0.4374
  550TMC3    C4 8159   2.605   2.664  12.517  0.0627 -0.9840 -0.0249
  550TMC3    C5 8160   2.633   2.787  12.452  0.9003 -0.1279 -0.0236
  550TMC3    C6 8161   2.658   2.904  12.516  0.6049 -0.0226  0.5746
  550TMC3     C 8162   2.523   2.568  12.715  0.4669 -0.4841  0.3107
  550TMC3     O 8163   2.537   2.544  12.836  0.2820 -0.1133  0.0476
  550TMC3     H 8164   2.632   2.795  12.831 -0.4539 -1.1423  0.0239
  550TMC3    H1 8165   2.593   2.575  12.456 -1.5047 -0.4772 -0.4388
  550TMC3    H2 8166   2.672   2.998  12.464 -0.9484 -0.4824 -0.6533
  550TMC3    C7 8167   2.531   2.805  12.352  0.4313 -0.3870  0.3498
  550TMC3    C8 8168   2.570   3.028  12.706  0.2003 -1.0759 -0.5852
  550TMC3    O1 8169   2.432   2.741  12.372 -0.0936 -0.5881  0.1862
  550TMC3    O2 8170   2.589   3.132  12.647  0.0143  0.0683  0.5498
  551TMC3    C1 8171   0.207   0.352  12.890 -0.3539 -0.0866  0.2531
  551TMC3    C2 8172   0.319   0.363  12.808 -0.7253 -0.6024 -0.2659
  551TMC3    C3 8173   0.390   0.476  12.840  0.8433 -0.0972 -0.2402
  551TMC3    C4 8174   0.173   0.440  12.987 -0.7514  0.0983 -0.2334
  551TMC3    C5 8175   0.255   0.545  13.014  0.2631  0.5036  0.0357
  551TMC3    C6 8176   0.366   0.568  12.942 -0.5389  0.0120 -0.1116
  551TMC3     C 8177   0.118   0.250  12.848 -0.0916  0.4157  0.8835
  551TMC3     O 8178   0.130   0.183  12.746  0.0390 -0.3763 -0.4135
  551TMC3     H 8179   0.334   0.296  12.725  1.9123  0.2004 -0.4273
  551TMC3    H1 8180   0.089   0.437  13.055 -2.2370  1.6626 -2.0301
  551TMC3    H2 8181   0.445   0.629  12.984 -3.0336  2.6195  0.8254
  551TMC3    C7 8182   0.232   0.616  13.131 -0.7571  0.0730 -0.2708
  551TMC3    C8 8183   0.506   0.502  12.747 -0.3032  0.8298  0.0911
  551TMC3    O1 8184   0.177   0.565  13.229  0.1703 -0.3256  0.4482
  551TMC3    O2 8185   0.558   0.412  12.683 -0.1510 -0.7830  0.0354
  552MPD2     C 8186   1.749   2.408  14.396 -0.1700  0.5508  0.2942
  552MPD2    C1 8187   1.842   2.383  14.298  0.1615  0.0739  0.3171
  552MPD2    C2 8188   1.971   2.362  14.330  0.0249 -0.3249 -0.5734
  552MPD2    C3 8189   2.003   2.358  14.463 -0.3297 -0.1842 -1.3686
  552MPD2    C4 8190   1.916   2.376  14.565  0.0690  0.5916 -0.4788
  552MPD2    C5 8191   1.784   2.405  14.533 -0.5030 -0.3012 -0.5180
  552MPD2     H 8192   2.038   2.371  14.245  1.1882 -0.6374  0.3099
  552MPD2    H1 8193   1.951   2.370  14.668 -0.0237 -1.3304 -0.5554
  552MPD2    H2 8194   1.641   2.415  14.386 -0.1631 -1.5047 -1.2498
  552MPD2    H3 8195   1.708   2.423  14.608  0.4281 -0.2108  0.4002
  552MPD2     N 8196   2.134   2.316  14.500  0.0493 -0.2592 -0.4292
  552MPD2    H5 8197   2.139   2.291  14.598  1.3855  0.5034 -0.2928
  552MPD2    N1 8198   1.811   2.382  14.156 -0.2661  0.1179 -0.5124
  552MPD2    H7 8199   1.882   2.355  14.089  1.0369 -0.3614  1.0642
  553TMC3    C1 8200   1.649   2.329  13.989  0.1337  0.3988 -0.1530
  553TMC3    C2 8201   1.734   2.346  13.884 -0.0095 -0.0450  0.2482
  553TMC3    C3 8202   1.783   2.228  13.815  0.5114 -0.5211 -0.6711
  553TMC3    C4 8203   1.629   2.201  14.035  0.0343  0.5978 -0.2548
  553TMC3    C5 8204   1.686   2.091  13.980 -0.5373  0.2743 -0.2595
  553TMC3    C6 8205   1.761   2.106  13.866 -0.3759 -0.2579  0.1778
  553TMC3     C 8206   1.684   2.405  14.107 -0.6912  0.0422 -0.3702
  553TMC3     O 8207   1.594   2.469  14.158  0.4660  0.3218  0.3557
  553TMC3     H 8208   1.737   2.444  13.839  1.1423 -0.0778  0.2398
  553TMC3    H1 8209   1.572   2.177  14.125 -0.3034  1.6922 -0.1763
  553TMC3    H2 8210   1.815   2.015  13.839 -2.1910 -1.7975  1.7227
  553TMC3    C7 8211   1.748   2.010  14.087 -0.2242 -0.3725  0.0073
  553TMC3    C8 8212   1.877   2.239  13.710 -0.2407  0.2952 -0.5187
  553TMC3    O1 8213   1.673   1.969  14.178  0.5228  0.1810 -0.3845
  553TMC3    O2 8214   1.923   2.349  13.693 -0.2068  0.2206 -0.0344
  554TMC3    C1 8215   3.754   1.721  11.802 -0.3123  0.0929  0.0184
  554TMC3    C2 8216   3.721   1.685  11.675 -0.0852  0.2424  0.1326
  554TMC3    C3 8217   3.755   1.763  11.565  0.7459 -0.8766  0.5787
  554TMC3    C4 8218   3.829   1.836  11.826  0.1474 -0.9308 -0.2862
  554TMC3    C5 8219   3.861   1.913  11.720  0.4162  0.2739  0.3283
  554TMC3    C6 8220   3.835   1.876  11.589 -0.3632  0.5114  0.1878
  554TMC3     C 8221   3.721   1.621  11.903 -0.4943 -0.4470  0.5266
  554TMC3     O 8222   3.618   1.562  11.912  0.2046 -0.1284 -0.5941
  554TMC3     H 8223   3.674   1.588  11.674 -0.6526  0.5150  1.8027
  554TMC3    H1 8224   3.851   1.878  11.923  1.3296 -0.7058 -0.6516
  554TMC3    H2 8225   3.853   1.953  11.514  0.5954 -1.4229 -1.5737
  554TMC3    C7 8226   3.931   2.041  11.749  0.2040  0.2792  0.5217
  554TMC3    C8 8227   3.745   1.711  11.434 -0.5045 -0.5636  0.3714
  554TMC3    O1 8228   3.905   2.092  11.857  0.0113 -0.4953  0.0344
  554TMC3    O2 8229   3.817   1.774  11.358 -0.0698  0.0573  0.1309
  555TMC3    C1 8230   2.798   1.153  14.880 -1.0409  0.1334 -0.3222
  555TMC3    C2 8231   2.743   1.200  14.998  0.3921 -1.1220  0.0463
  555TMC3    C3 8232   2.688   1.114  15.087  0.2909  0.1687  0.5253
  555TMC3    C4 8233   2.783   1.018  14.837 -0.0254 -0.3006 -0.7218
  555TMC3    C5 8234   2.713   0.938  14.924  0.4010  0.0470  0.7776
  555TMC3    C6 8235   2.659   0.987  15.045  0.1011  0.1919 -0.2140
  555TMC3     C 8236   2.815   1.254  14.783 -0.1939 -0.9919 -0.6331
  555TMC3     O 8237   2.907   1.229  14.706 -0.4976 -0.2599  0.0804
  555TMC3     H 8238   2.745   1.307  15.013  3.6651 -1.2707  0.7217
  555TMC3    H1 8239   2.827   0.981  14.745  0.5864 -1.6416  0.1077
  555TMC3    H2 8240   2.597   0.919  15.102 -1.5433  0.9443 -1.0993
  555TMC3    C7 8241   2.673   0.803  14.884 -0.0067 -0.0677  0.3965
  555TMC3    C8 8242   2.682   1.138  15.228 -0.5356 -0.0901 -0.8067
  555TMC3    O1 8243   2.568   0.768  14.937  0.3678  0.9920 -0.1682
  555TMC3    O2 8244   2.604   1.069  15.287 -0.2467 -0.1223 -0.6415
  556MPD2     C 8245   0.560   2.808  10.698 -0.4235 -0.8110  0.3438
  556MPD2    C1 8246   0.672   2.767  10.767  0.2692  0.0071 -0.0761
  556MPD2    C2 8247   0.747   2.660  10.722  0.6725 -0.3795 -0.5000
  556MPD2    C3 8248   0.705   2.587  10.613 -0.3039  0.5588 -0.4983
  556MPD2    C4 8249   0.592   2.622  10.546  0.3384 -0.1871 -0.2933
  556MPD2    C5 8250   0.521   2.734  10.592 -0.0096 -0.3342 -0.1327
  556MPD2     H 8251   0.839   2.628  10.770  0.3577 -1.5249 -0.6636
  556MPD2    H1 8252   0.554   2.571  10.458  1.5669 -1.5959  0.0073
  556MPD2    H2 8253   0.502   2.896  10.724  1.8470  1.3487 -1.9114
  556MPD2    H3 8254   0.441   2.770  10.527 -0.1228 -2.1554 -1.0328
  556MPD2     N 8255   0.784   2.479  10.582  0.5536  0.0028 -0.2686
  556MPD2    H5 8256   0.840   2.435  10.654 -2.4465 -2.7866  0.3698
  556MPD2    N1 8257   0.723   2.832  10.884 -0.6096  0.1345  0.3172
  556MPD2    H7 8258   0.809   2.793  10.922 -1.7712 -1.4467  1.3207
  557TMC3    C1 8259   0.885   2.298  10.457  0.1749  0.1146 -0.3932
  557TMC3    C2 8260   0.882   2.215  10.350  0.5643  0.3275  0.0883
  557TMC3    C3 8261   0.917   2.082  10.367  0.4840 -0.2145 -0.8242
  557TMC3    C4 8262   0.952   2.253  10.567 -0.0068  0.4356  0.7275
  557TMC3    C5 8263   1.012   2.130  10.572  0.2649  0.0322 -0.0501
  557TMC3    C6 8264   0.994   2.038  10.473 -0.1525 -0.6358 -0.7090
  557TMC3     C 8265   0.798   2.416  10.458  0.3384  0.3869 -0.2885
  557TMC3     O 8266   0.750   2.452  10.346  0.0742 -0.3824 -1.0703
  557TMC3     H 8267   0.828   2.246  10.261 -0.7690  0.5505  0.9700
  557TMC3    H1 8268   0.986   2.331  10.634 -0.7034 -0.5641  2.2501
  557TMC3    H2 8269   1.034   1.937  10.467  0.4741 -0.5182  1.4548
  557TMC3    C7 8270   1.036   2.071  10.704 -0.4129  0.7667 -0.3475
  557TMC3    C8 8271   0.935   2.002  10.247  0.4930  0.1354  0.5849
  557TMC3    O1 8272   0.956   2.106  10.791 -0.8022 -0.1080 -0.0373
  557TMC3    O2 8273   0.916   2.057  10.143 -0.2628  0.5368 -0.0979
  558TMC3    C1 8274   3.827   0.259   9.362  0.0164 -0.0524  0.0320
  558TMC3    C2 8275   3.706   0.276   9.431  0.5397 -0.5939 -0.2886
  558TMC3    C3 8276   3.601   0.205   9.384  0.1729  0.4837  0.2010
  558TMC3    C4 8277   3.832   0.193   9.240 -0.0462  0.1482  0.3746
  558TMC3    C5 8278   3.724   0.133   9.201  1.0474 -0.1149  0.4420
  558TMC3    C6 8279   3.608   0.124   9.274 -0.5066 -0.4873  0.4618
  558TMC3     C 8280   3.928   0.355   9.395 -0.7743  0.3621  0.2948
  558TMC3     O 8281   3.905   0.419   9.498 -0.4946 -0.0442 -0.2191
  558TMC3     H 8282   3.705   0.332   9.523  1.7089 -0.3915 -0.3994
  558TMC3    H1 8283   3.919   0.176   9.178 -0.9057  1.2215 -1.1243
  558TMC3    H2 8284   3.522   0.069   9.236  0.7487  0.0025 -3.0885
  558TMC3    C7 8285   3.756   0.014   9.120  0.0384  0.5029  0.4987
  558TMC3    C8 8286   3.468   0.196   9.450 -0.3752  0.5625 -0.4306
  558TMC3    O1 8287   3.850   0.015   9.041 -0.0931  0.0862 -0.0962
  558TMC3    O2 8288   3.380   0.157   9.377 -0.6541  0.2102  0.3457
  559MPD2     C 8289   3.495   1.026  10.400  0.5544 -0.2589 -0.2789
  559MPD2    C1 8290   3.468   0.934  10.504 -0.1861 -0.1203 -1.0512
  559MPD2    C2 8291   3.578   0.880  10.572 -0.1551  0.0135 -0.8753
  559MPD2    C3 8292   3.701   0.935  10.562 -0.9429 -0.0257 -0.3399
  559MPD2    C4 8293   3.721   1.029  10.469 -0.2147  0.5297 -0.1243
  559MPD2    C5 8294   3.624   1.074  10.385  0.6238  0.4403 -0.0531
  559MPD2     H 8295   3.558   0.806  10.648  3.0218 -0.3673 -0.4107
  559MPD2    H1 8296   3.823   1.065  10.456 -0.1376  0.9579  1.7254
  559MPD2    H2 8297   3.421   1.057  10.327  0.5128  0.6422  0.1431
  559MPD2    H3 8298   3.646   1.146  10.307  2.0742  1.3749  1.2120
  559MPD2     N 8299   3.811   0.886  10.638 -0.9045  0.3914  0.2011
  559MPD2    H5 8300   3.790   0.815  10.708 -1.1876  0.0833 -0.1966
  559MPD2    N1 8301   3.336   0.890  10.515 -0.2138  0.6617  0.1751
  559MPD2    H7 8302   3.260   0.948  10.480  0.8443  2.3414  0.6899
  560TMC3    C1 8303   4.000   0.882  10.762  0.5241  0.4367 -0.4630
  560TMC3    C2 8304   3.992   0.747  10.754 -0.0061 -0.1193  0.6309
  560TMC3    C3 8305   3.982   0.675  10.875 -0.0313  0.2314 -0.2436
  560TMC3    C4 8306   4.026   0.950  10.883  0.1818  0.7824 -0.0569
  560TMC3    C5 8307   4.005   0.876  10.999  0.3780  0.9446 -0.3380
  560TMC3    C6 8308   3.985   0.738  10.999  0.0218  0.0913  0.2190
  560TMC3     C 8309   3.926   0.958  10.662  0.2850  0.2294 -0.3909
  560TMC3     O 8310   3.954   1.076  10.647 -0.5639  0.0277  0.2031
  560TMC3     H 8311   3.965   0.700  10.660 -0.3915  1.0281  0.1688
  560TMC3    H1 8312   4.033   1.058  10.882 -1.7571  0.9178  1.3980
  560TMC3    H2 8313   3.972   0.688  11.095 -0.2768 -2.3985 -1.1243
  560TMC3    C7 8314   4.040   0.934  11.128  0.6076  0.7691 -0.3683
  560TMC3    C8 8315   3.904   0.555  10.852  0.6059 -0.9284 -0.6325
  560TMC3    O1 8316   4.023   0.869  11.233 -0.0594 -0.1352 -0.1958
  560TMC3    O2 8317   3.919   0.496  10.745  0.3846 -0.4773 -0.1086
  561TMC3    C1 8318   1.543   0.010  11.773 -0.1274 -0.4611  0.3816
  561TMC3    C2 8319   1.451   4.714  11.876 -0.4807  0.3714  0.6540
  561TMC3    C3 8320   1.385   0.096  11.932  0.1389 -0.7524 -0.7640
  561TMC3    C4 8321   1.566   0.140  11.727 -0.5602  0.4848  0.1838
  561TMC3    C5 8322   1.502   0.241  11.796 -0.0415 -0.4718 -0.8213
  561TMC3    C6 8323   1.410   0.222  11.899 -0.6429 -0.0043  0.5626
  561TMC3     C 8324   1.595   4.636  11.695 -0.2029  0.1054 -0.1140
  561TMC3     O 8325   1.705   4.662  11.646 -0.7847  0.5495  0.4615
  561TMC3     H 8326   1.421   4.616  11.911  1.8211 -1.2643 -1.9352
  561TMC3    H1 8327   1.637   0.149  11.646  2.6048 -0.4682  2.8806
  561TMC3    H2 8328   1.352   0.304  11.940  1.5004  1.7253  0.1709
  561TMC3    C7 8329   1.556   0.372  11.781 -0.0586  0.1435  0.4907
  561TMC3    C8 8330   1.306   0.070  12.050 -0.1694 -0.1382 -0.1717
  561TMC3    O1 8331   1.536   0.438  11.883  0.1554 -0.5029  0.1109
  561TMC3    O2 8332   1.359   4.716  12.123  0.5487  0.6536  0.7112
  562TMC3    C1 8333   2.870   1.090  16.191 -0.6983 -0.3994  0.1498
  562TMC3    C2 8334   2.733   1.112  16.189  0.2603  0.2466  0.2237
  562TMC3    C3 8335   2.661   1.117  16.074  0.0169  0.0525 -0.7160
  562TMC3    C4 8336   2.931   1.055  16.072  0.0464  0.4174  0.2721
  562TMC3    C5 8337   2.855   1.047  15.959  0.8233 -0.0212  0.7405
  562TMC3    C6 8338   2.716   1.072  15.956 -0.0525  0.9072  0.0972
  562TMC3     C 8339   2.931   1.054  16.315  0.1329 -0.0867  0.1273
  562TMC3     O 8340   2.859   1.031  16.407  0.2580  0.7445 -0.5010
  562TMC3     H 8341   2.682   1.132  16.283  2.6517  1.5402  1.2445
  562TMC3    H1 8342   3.032   1.015  16.073 -0.4074 -0.7320 -0.1738
  562TMC3    H2 8343   2.660   1.082  15.864 -1.1686 -0.5218  0.6195
  562TMC3    C7 8344   2.910   1.010  15.827 -0.1214  0.2552  0.2697
  562TMC3    C8 8345   2.548   1.212  16.070  0.3953  0.4609 -0.0009
  562TMC3    O1 8346   2.834   0.970  15.737 -0.5965  0.2248 -0.4835
  562TMC3    O2 8347   2.550   1.299  16.157 -0.2725  0.8230  0.2919
  563MPD2     C 8348   4.724   2.617  15.612  0.2453 -0.2368  0.1020
  563MPD2    C1 8349   0.061   2.640  15.736  0.2648  0.6678  0.4631
  563MPD2    C2 8350   0.192   2.603  15.747 -0.4931 -0.7732  1.2678
  563MPD2    C3 8351   0.259   2.549  15.642 -0.1799  0.5235  0.0488
  563MPD2    C4 8352   0.201   2.541  15.518  0.5561  0.0982 -0.2365
  563MPD2    C5 8353   0.069   2.567  15.504  0.7881 -0.1195 -0.2346
  563MPD2     H 8354   0.243   2.626  15.840 -0.0547  0.1360  0.8032
  563MPD2    H1 8355   0.247   2.474  15.447 -0.0483  0.9900 -1.4595
  563MPD2    H2 8356   4.622   2.651  15.597  0.9351  1.6641 -0.2797
  563MPD2    H3 8357   0.017   2.546  15.411 -0.4722  0.8788  0.2462
  563MPD2     N 8358   0.391   2.506  15.668 -0.0561 -0.4180 -0.5516
  563MPD2    H5 8359   0.419   2.516  15.765  0.5550 -3.3313 -0.4251
  563MPD2    N1 8360   4.711   2.697  15.841  0.0359  0.2381  0.5327
  563MPD2    H7 8361   4.612   2.711  15.821  0.7347  2.3655 -1.3648
  564TMC3    C1 8362   4.640   2.745  16.057 -0.2074  0.2983 -0.5365
  564TMC3    C2 8363   4.527   2.682  16.032 -0.2211  0.4348  0.7170
  564TMC3    C3 8364   4.445   2.654  16.141  0.3818  0.1017 -0.1128
  564TMC3    C4 8365   4.682   2.759  16.186 -0.7691 -0.0062  0.2796
  564TMC3    C5 8366   4.602   2.716  16.286  0.8102  0.1231  0.4937
  564TMC3    C6 8367   4.478   2.669  16.266  0.3111  1.0285 -0.1010
  564TMC3     C 8368   0.027   2.737  15.962 -0.2577  0.4078  0.0267
  564TMC3     O 8369   0.139   2.737  16.011 -0.2827 -0.5487  0.1199
  564TMC3     H 8370   4.485   2.679  15.932 -1.8154 -0.5645  1.4161
  564TMC3    H1 8371   0.056   2.798  16.211 -0.4315  0.1844 -1.3444
  564TMC3    H2 8372   4.420   2.641  16.353  0.2217 -1.0338 -0.8242
  564TMC3    C7 8373   4.681   2.631  16.379 -0.6620 -0.5537  0.7061
  564TMC3    C8 8374   4.339   2.549  16.127 -0.2864  0.3307 -0.1279
  564TMC3    O1 8375   0.073   2.655  16.400 -0.9954 -0.5308  0.3244
  564TMC3    O2 8376   4.267   2.547  16.227  0.2967 -0.7035  0.0854
  565TMC3    C1 8377   0.129   3.892   9.665  0.4947  0.1210 -0.0087
  565TMC3    C2 8378   0.100   3.776   9.737 -1.0473  0.1587  0.5118
  565TMC3    C3 8379   0.016   3.687   9.670  0.7737  0.2256 -0.0997
  565TMC3    C4 8380   0.076   3.919   9.542  0.3996  0.1897  0.4674
  565TMC3    C5 8381   0.001   3.826   9.474  0.3382 -0.1054  0.1314
  565TMC3    C6 8382   4.690   3.714   9.540  0.2309  0.5537  0.0366
  565TMC3     C 8383   0.228   3.989   9.717  0.3726 -0.2687  0.0428
  565TMC3     O 8384   0.259   4.091   9.657 -0.0228 -0.7091 -0.3422
  565TMC3     H 8385   0.130   3.748   9.838  1.9438  2.0076  0.1336
  565TMC3    H1 8386   0.105   4.015   9.500  2.0445  0.0653  1.3317
  565TMC3    H2 8387   4.651   3.635   9.477  0.1206  0.7726 -0.1700
  565TMC3    C7 8388   4.696   3.836   9.334  0.3672  0.2376  0.1279
  565TMC3    C8 8389   4.696   3.565   9.741 -0.8588  0.4660  0.0169
  565TMC3    O1 8390   4.633   3.752   9.273 -0.1950  0.1333 -0.3579
  565TMC3    O2 8391   0.015   3.537   9.850 -0.0953 -0.3155 -0.3656
  566MPD2     C 8392   1.957   1.260  14.482  0.3783 -0.4106  0.3331
  566MPD2    C1 8393   2.070   1.184  14.462 -0.7212 -0.6926  0.2823
  566MPD2    C2 8394   2.071   1.085  14.361 -0.0985 -0.7886  0.2795
  566MPD2    C3 8395   1.955   1.077  14.284 -1.2901  0.9701 -0.5531
  566MPD2    C4 8396   1.842   1.145  14.313  0.5987 -0.5179 -0.2633
  566MPD2    C5 8397   1.841   1.239  14.416 -0.4436 -0.3901  0.6772
  566MPD2     H 8398   2.153   1.020  14.337  0.1971  0.5578 -2.3210
  566MPD2    H1 8399   1.755   1.127  14.250  0.8311  0.0354 -0.7405
  566MPD2    H2 8400   1.962   1.342  14.553  0.7446 -0.4996  0.4097
  566MPD2    H3 8401   1.749   1.291  14.440 -0.6982  0.7920 -2.8492
  566MPD2     N 8402   1.949   1.000  14.172  0.5931  0.9806 -0.4549
  566MPD2    H5 8403   1.869   1.013  14.111 -0.5901 -1.5077  0.5491
  566MPD2    N1 8404   2.189   1.221  14.528 -0.3123 -0.4355  0.3278
  566MPD2    H7 8405   2.183   1.316  14.564  0.5596  0.0600 -0.8555
  567TMC3    C1 8406   2.421   1.230  14.523  0.0327  0.4085 -0.0807
  567TMC3    C2 8407   2.422   1.311  14.408  0.7966  0.3393 -0.4311
  567TMC3    C3 8408   2.543   1.311  14.335 -0.1607 -0.4603  0.4218
  567TMC3    C4 8409   2.527   1.155  14.553  0.2360  0.2506 -0.1622
  567TMC3    C5 8410   2.634   1.150  14.470  0.0408 -0.7157 -0.1175
  567TMC3    C6 8411   2.651   1.234  14.363 -0.0317  0.3843 -0.1329
  567TMC3     C 8412   2.304   1.149  14.522 -0.0156  0.9384 -0.1190
  567TMC3     O 8413   2.327   1.027  14.495  0.4311  0.4371 -0.8060
  567TMC3     H 8414   2.332   1.362  14.376 -0.1546 -1.0784 -0.0213
  567TMC3    H1 8415   2.530   1.096  14.644 -1.6787 -0.9637 -0.8877
  567TMC3    H2 8416   2.735   1.211  14.298 -0.8439 -2.1092 -0.3211
  567TMC3    C7 8417   2.692   1.018  14.457 -0.0707 -0.2330 -0.5329
  567TMC3    C8 8418   2.541   1.401  14.221  0.3433 -0.0809 -0.4690
  567TMC3    O1 8419   2.792   1.000  14.391  0.2344 -0.4515  0.0319
  567TMC3    O2 8420   2.430   1.433  14.176 -0.3676 -0.0082  0.3072
  568MPD2     C 8421   0.085   1.450  16.832  0.4747  0.3816  0.4937
  568MPD2    C1 8422   4.678   1.413  16.848  0.0950  0.9128  0.5855
  568MPD2    C2 8423   4.587   1.515  16.824 -0.0148  0.4790  0.0391
  568MPD2    C3 8424   4.625   1.643  16.798  0.7490  0.2015 -0.4280
  568MPD2    C4 8425   0.033   1.674  16.787  0.1686 -0.4065 -0.2126
  568MPD2    C5 8426   0.125   1.575  16.807 -0.1001  0.1345 -1.2724
  568MPD2     H 8427   4.481   1.491  16.826  0.4704 -1.5795  2.0259
  568MPD2    H1 8428   0.067   1.775  16.768 -1.8694  0.8217  2.5673
  568MPD2    H2 8429   0.164   1.377  16.846  1.2830  0.9863 -0.8496
  568MPD2    H3 8430   0.230   1.601  16.802  0.1525 -1.0528 -2.1560
  568MPD2     N 8431   4.531   1.742  16.772  0.5267  0.3858  0.3171
  568MPD2    H5 8432   4.439   1.704  16.751  0.8749 -0.4928  0.3545
  568MPD2    N1 8433   4.640   1.277  16.886 -0.2056 -0.7038  0.0110
  568MPD2    H7 8434   4.710   1.214  16.922  1.1857  0.9123  0.0989
  569TMC3    C1 8435   4.431   1.945  16.708 -0.4600  0.0770 -0.1054
  569TMC3    C2 8436   4.414   2.082  16.746 -0.4972 -0.0376  0.0810
  569TMC3    C3 8437   4.304   2.144  16.694 -0.3469 -0.3302  0.4742
  569TMC3    C4 8438   4.363   1.880  16.605 -0.6150 -0.1743  0.1653
  569TMC3    C5 8439   4.260   1.955  16.548  0.3556 -0.5527 -0.1672
  569TMC3    C6 8440   4.227   2.077  16.601 -0.2342 -0.4338 -0.3299
  569TMC3     C 8441   4.551   1.878  16.758 -0.5065 -0.3800 -0.0725
  569TMC3     O 8442   4.630   1.954  16.817 -0.1668  0.3240 -0.1594
  569TMC3     H 8443   4.483   2.128  16.816  1.0555  1.5138 -2.4682
  569TMC3    H1 8444   4.391   1.782  16.569  2.5796 -0.4448  3.3394
  569TMC3    H2 8445   4.141   2.129  16.559 -1.1704 -0.1321  1.9380
  569TMC3    C7 8446   4.261   1.950  16.403 -0.4661 -0.8916 -0.3414
  569TMC3    C8 8447   4.300   2.284  16.681 -0.5064 -0.1410 -0.2616
  569TMC3    O1 8448   4.305   1.851  16.348 -0.3583 -0.4348  0.2913
  569TMC3    O2 8449   4.212   2.327  16.599 -1.0374 -0.5667 -0.0215
  570TMC3    C1 8450   3.876   0.234  16.097 -0.0626  0.6241  0.2610
  570TMC3    C2 8451   3.929   0.227  15.972 -0.1032  0.1219 -0.5623
  570TMC3    C3 8452   3.904   0.331  15.892  0.1569  0.2023  0.3183
  570TMC3    C4 8453   3.806   0.345  16.141  1.2187  0.2040 -0.0085
  570TMC3    C5 8454   3.787   0.445  16.055 -0.3663  0.3347 -0.5792
  570TMC3    C6 8455   3.841   0.450  15.930  0.5309  0.6698 -0.2091
  570TMC3     C 8456   3.874   0.108  16.172  1.0220 -0.1636  0.0596
  570TMC3     O 8457   3.885   0.007  16.104  0.1770 -1.0833 -0.1840
  570TMC3     H 8458   3.993   0.149  15.934 -0.5418 -0.4322 -0.1693
  570TMC3    H1 8459   3.752   0.351  16.235  3.2095 -0.1423  1.1336
  570TMC3    H2 8460   3.828   0.535  15.864 -1.0347  1.1384  0.6915
  570TMC3    C7 8461   3.746   0.572  16.109 -0.2994  0.4209  0.0942
  570TMC3    C8 8462   4.010   0.353  15.793  0.0878  0.0529 -0.3971
  570TMC3    O1 8463   3.788   0.592  16.222  0.3334 -0.0232 -0.1236
  570TMC3    O2 8464   4.049   0.470  15.784 -0.0105  0.0475 -0.4927
  571MPD2     C 8465   2.362   1.088  17.696  0.2019 -0.0626 -0.7428
  571MPD2    C1 8466   2.263   1.073  17.603  0.0160  0.2436 -0.7066
  571MPD2    C2 8467   2.162   1.159  17.592  0.0705  0.0331  0.3213
  571MPD2    C3 8468   2.164   1.276  17.660  0.5316 -0.4240 -0.2111
  571MPD2    C4 8469   2.274   1.299   0.045  0.0166  0.2893 -0.7569
  571MPD2    C5 8470   2.364   1.203   0.067 -0.5151  0.0927  0.3402
  571MPD2     H 8471   2.089   1.147  17.513  1.7568  0.9363 -1.3670
  571MPD2    H1 8472   2.286   1.396   0.093 -0.3473 -0.5926  1.1255
  571MPD2    H2 8473   2.445   1.021   0.013  0.1955  0.6946  2.1988
  571MPD2    H3 8474   2.440   1.224   0.141 -1.0043  2.1533  0.2473
  571MPD2     N 8475   2.078   1.383  17.638  0.4857  0.2096  0.3615
  571MPD2    H5 8476   2.105   1.473  17.675 -0.7894  0.7652 -0.0889
  571MPD2    N1 8477   2.270   0.953  17.529 -0.3384  0.1109 -0.3187
  571MPD2    H7 8478   2.346   0.889  17.553  0.0171  0.4416 -0.5557
  572TMC3    C1 8479   1.880   1.498  17.561  0.2638 -0.7889  0.0229
  572TMC3    C2 8480   1.750   1.497  17.512 -0.2601  0.2827 -0.3408
  572TMC3    C3 8481   1.689   1.615  17.509  0.7611  0.2763 -0.0218
  572TMC3    C4 8482   1.946   1.613  17.604  0.5679 -0.8605 -0.6040
  572TMC3    C5 8483   1.877   1.725  17.595 -0.9831  0.3621  0.0533
  572TMC3    C6 8484   1.748   1.730  17.549 -0.0939 -0.6616 -0.2436
  572TMC3     C 8485   1.953   1.372  17.579  0.0465  0.3642  0.2887
  572TMC3     O 8486   1.887   1.275  17.540  0.6576  0.0321  0.5192
  572TMC3     H 8487   1.689   1.410  17.489 -0.2384 -0.4534  2.4362
  572TMC3    H1 8488   2.045   1.610  17.646  1.5386  0.3822 -2.7649
  572TMC3    H2 8489   1.710   1.829  17.529 -1.4394 -1.1925 -0.2764
  572TMC3    C7 8490   1.917   1.840  17.678  0.6988  0.7185 -0.0538
  572TMC3    C8 8491   1.542   1.613  17.507 -0.2550  0.2966  0.2132
  572TMC3    O1 8492   1.829   1.894   0.039  0.8561  0.0283  0.3340
  572TMC3    O2 8493   1.488   1.521  17.446 -0.1719  0.1382 -0.4522
  573MPD2     C 8494   3.049   2.406   0.846  0.2086 -0.4486 -0.1299
  573MPD2    C1 8495   3.022   2.542   0.812 -0.2067 -0.3060  0.0863
  573MPD2    C2 8496   2.986   2.569   0.681 -0.2812 -0.0650 -0.5136
  573MPD2    C3 8497   2.964   2.466   0.588 -0.4524 -0.6857  0.0729
  573MPD2    C4 8498   2.982   2.333   0.635  0.1653  0.7315  0.0388
  573MPD2    C5 8499   3.022   2.307   0.759  0.9235  0.0008  0.0999
  573MPD2     H 8500   2.955   2.669   0.652 -2.2345 -0.4601  0.2184
  573MPD2    H1 8501   2.974   2.249   0.567  0.5815 -0.5154  1.5325
  573MPD2    H2 8502   3.076   2.379   0.947  1.7619 -0.8617 -0.6576
  573MPD2    H3 8503   3.030   2.203   0.788  1.1296 -0.3723 -1.3218
  573MPD2     N 8504   2.921   2.493   0.456 -0.0491 -0.3082  0.2610
  573MPD2    H5 8505   2.910   2.407   0.403  0.6215  0.1450 -0.6119
  573MPD2    N1 8506   3.037   2.636   0.914  0.5172  0.0550 -0.2526
  573MPD2    H7 8507   3.088   2.605   0.996  0.4796  0.7700  0.0432
  574TMC3    C1 8508   2.877   2.608   0.256 -0.6523 -0.4467 -0.2600
  574TMC3    C2 8509   2.874   2.489   0.191  0.0259  0.5498  0.6543
  574TMC3    C3 8510   2.892   2.488   0.052  0.0228 -0.1338 -0.4032
  574TMC3    C4 8511   2.890   2.725   0.191  0.3531  0.3333  0.1018
  574TMC3    C5 8512   2.902   2.722   0.056  0.1928  1.0521 -0.3524
  574TMC3    C6 8513   2.906   2.605  17.685 -0.4705  0.0997  0.9973
  574TMC3     C 8514   2.892   2.613   0.402  0.1997 -0.1076 -0.2207
  574TMC3     O 8515   2.903   2.724   0.453 -0.5124 -0.9977  0.2016
  574TMC3     H 8516   2.834   2.399   0.237 -1.2699  1.4282  1.2640
  574TMC3    H1 8517   2.895   2.818   0.245  1.1066  0.8561 -0.8646
  574TMC3    H2 8518   2.924   2.603  17.577 -2.1372 -4.0200  0.8124
  574TMC3    C7 8519   2.962   2.835  17.686 -0.0733  1.4518 -0.4641
  574TMC3    C8 8520   2.800   2.387  17.695 -0.5586 -0.0727  0.2798
  574TMC3    O1 8521   2.954   2.833  17.563  0.4794  1.0171 -0.1144
  574TMC3    O2 8522   2.793   2.274   0.042 -0.4266  0.1452  0.2120
  575TMC3    C1 8523   4.517   3.252  10.539 -0.3738 -0.5424  0.1083
  575TMC3    C2 8524   4.429   3.144  10.567  0.0920 -0.4242  0.2131
  575TMC3    C3 8525   4.381   3.081  10.452  0.1639  0.2155 -0.8551
  575TMC3    C4 8526   4.555   3.286  10.415  0.1176 -0.3395  0.2852
  575TMC3    C5 8527   4.489   3.228  10.311  0.2169  0.1441  0.3751
  575TMC3    C6 8528   4.404   3.122  10.322 -0.0266 -0.3377 -0.2017
  575TMC3     C 8529   4.530   3.359  10.640 -0.3265 -0.2715  0.1450
  575TMC3     O 8530   4.594   3.456  10.606 -0.6349 -0.4775 -0.6364
  575TMC3     H 8531   4.425   3.097  10.665  1.6704 -0.5597  0.2106
  575TMC3    H1 8532   4.633   3.360  10.402 -1.0372  0.5300 -1.6466
  575TMC3    H2 8533   4.342   3.078  10.245 -0.8523  2.1294 -0.9545
  575TMC3    C7 8534   4.510   3.289  10.179  0.0898 -0.4085 -0.1357
  575TMC3    C8 8535   4.290   2.972  10.476  0.1804 -0.5201  0.1356
  575TMC3    O1 8536   4.583   3.387  10.183  0.1652 -0.0367 -0.6740
  575TMC3    O2 8537   4.233   2.972  10.582  0.0828  0.2826  0.2035
  576MPD2     C 8538   0.007   0.407  12.517 -0.2877 -0.2083 -0.8707
  576MPD2    C1 8539   0.118   0.460  12.454 -0.4353 -0.7958  0.0021
  576MPD2    C2 8540   0.158   0.588  12.498  0.1548 -0.5682  0.0557
  576MPD2    C3 8541   0.105   0.644  12.610  0.4985 -0.0150  0.2396
  576MPD2    C4 8542   4.724   0.584  12.677 -0.3860 -0.1333 -0.4389
  576MPD2    C5 8543   4.671   0.465  12.630 -1.0263 -0.9331  0.1188
  576MPD2     H 8544   0.229   0.645  12.439 -1.0839  1.1258  0.2262
  576MPD2    H1 8545   4.669   0.626  12.761  0.9783 -0.2872  0.5187
  576MPD2    H2 8546   4.696   0.309  12.486 -1.7145  0.8109 -2.5066
  576MPD2    H3 8547   4.586   0.415  12.675 -0.8739 -0.5244  0.8646
  576MPD2     N 8548   0.142   0.776  12.637 -0.1668 -0.4491  0.3676
  576MPD2    H5 8549   0.202   0.813  12.564  1.3635 -0.1259  1.7783
  576MPD2    N1 8550   0.190   0.404  12.346  0.1632 -0.1465  0.4544
  576MPD2    H7 8551   0.280   0.445  12.326 -0.6158  0.9825 -0.7632
  577TMC3    C1 8552   0.283   0.274  12.190 -0.6445 -0.1125  1.1645
  577TMC3    C2 8553   0.398   0.276  12.258  0.4553 -0.1171 -0.4259
  577TMC3    C3 8554   0.501   0.230  12.185  0.2938  0.0761 -0.2474
  577TMC3    C4 8555   0.265   0.241  12.056  0.1617  0.7229 -0.0556
  577TMC3    C5 8556   0.372   0.198  11.986 -0.5835  0.1178 -0.0220
  577TMC3    C6 8557   0.494   0.194  12.049  0.4202  0.1736  0.2008
  577TMC3     C 8558   0.166   0.294  12.271 -0.8235  0.6622 -0.1607
  577TMC3     O 8559   0.056   0.250  12.244  0.4391 -0.3519 -0.3405
  577TMC3     H 8560   0.398   0.272  12.366  0.8240 -1.4228 -0.4691
  577TMC3    H1 8561   0.161   0.236  12.026  0.0822  0.3221  0.2862
  577TMC3    H2 8562   0.574   0.146  11.993  1.7240  2.8688 -0.2593
  577TMC3    C7 8563   0.383   0.180  11.838 -0.1815  0.5383 -0.1660
  577TMC3    C8 8564   0.609   0.176  12.260  0.0873  0.7412  0.6768
  577TMC3    O1 8565   0.493   0.185  11.789  0.4411 -0.1871  0.4557
  577TMC3    O2 8566   0.590   0.145  12.379  0.6785 -0.8712  0.1484
  578MPD2     C 8567   3.532   0.474   1.362 -0.2433 -0.0533 -0.2936
  578MPD2    C1 8568   3.599   0.408   1.263 -0.5177 -0.1822  0.1411
  578MPD2    C2 8569   3.707   0.321   1.288 -0.2045  0.0988 -0.6407
  578MPD2    C3 8570   3.761   0.300   1.413  0.2626 -0.1380  0.5683
  578MPD2    C4 8571   3.696   0.371   1.514  0.1035  0.0165  0.1417
  578MPD2    C5 8572   3.589   0.460   1.487 -0.3073 -0.9385  0.8160
  578MPD2     H 8573   3.750   0.255   1.213  2.1326  1.4716 -0.5084
  578MPD2    H1 8574   3.732   0.367   1.616  0.7053 -1.0639 -0.1168
  578MPD2    H2 8575   3.444   0.538   1.352 -0.0665  1.0817  5.7798
  578MPD2    H3 8576   3.544   0.513   1.571 -1.5441 -0.3284 -0.2357
  578MPD2     N 8577   3.860   0.204   1.434  0.1027  1.0586  0.4569
  578MPD2    H5 8578   3.897   0.169   1.347  2.1123  0.6491  1.4848
  578MPD2    N1 8579   3.555   0.422   1.126 -0.4882 -0.5230  0.5853
  578MPD2    H7 8580   3.476   0.484   1.110 -0.8564 -0.8583  1.1128
  579TMC3    C1 8581   4.016   0.063   1.535 -0.0893  0.6803  0.3109
  579TMC3    C2 8582   4.120   0.060   1.615 -0.5550  0.1808  0.0685
  579TMC3    C3 8583   4.217   4.692   1.580  0.6217  0.1146  0.2198
  579TMC3    C4 8584   4.003   4.714   1.420 -0.6568 -0.3083 -0.9201
  579TMC3    C5 8585   4.104   4.625   1.389  0.5701  0.2872  0.1889
  579TMC3    C6 8586   4.216   4.616   1.466  0.2042  0.1222 -0.3136
  579TMC3     C 8587   3.926   0.172   1.547 -0.1147  1.3255  0.3759
  579TMC3     O 8588   3.930   0.234   1.652  0.0954  0.1821 -0.9048
  579TMC3     H 8589   4.124   0.120   1.706  0.7749 -1.4788  1.0925
  579TMC3    H1 8590   3.914   4.709   1.358 -1.0453  0.1379 -0.3960
  579TMC3    H2 8591   4.292   4.543   1.438  1.1033  0.4080  1.4182
  579TMC3    C7 8592   4.123   4.564   1.256  0.5753  0.0517  0.9649
  579TMC3    C8 8593   4.314   4.660   1.687  0.1131  0.5504 -0.4129
  579TMC3    O1 8594   4.224   4.511   1.223  0.7927 -0.1444  0.6476
  579TMC3    O2 8595   4.279   4.700   1.793 -0.3973 -0.7850  0.3653
  580TMC3    C1 8596   2.547   4.464  11.759  0.5262  0.4937  0.9509
  580TMC3    C2 8597   2.493   4.436  11.642  0.4805 -0.3328 -0.2204
  580TMC3    C3 8598   2.487   4.301  11.608 -0.1837  0.0099  0.5931
  580TMC3    C4 8599   2.590   4.366  11.843  0.9756  0.6424  0.2263
  580TMC3    C5 8600   2.579   4.237  11.811 -0.5199 -0.4062  0.3660
  580TMC3    C6 8601   2.518   4.199  11.690 -0.1097 -0.4701 -0.2144
  580TMC3     C 8602   2.637   4.569  11.734 -0.2377  0.1872  0.3924
  580TMC3     O 8603   2.697   4.563  11.627  1.0733 -0.4942  0.3119
  580TMC3     H 8604   2.476   4.511  11.566 -2.1526 -2.5738 -1.8336
  580TMC3    H1 8605   2.647   4.401  11.929  1.2560 -0.0142  0.3063
  580TMC3    H2 8606   2.514   4.094  11.662  0.0465 -0.4997 -0.1274
  580TMC3    C7 8607   2.662   4.144  11.885  0.0896 -0.4660 -0.1586
  580TMC3    C8 8608   2.519   4.270  11.473  0.3439  0.4900 -0.0864
  580TMC3    O1 8609   2.718   4.185  11.989  0.6725  0.1412  0.1297
  580TMC3    O2 8610   2.479   4.162  11.430  0.2100  0.6817  0.4523
  581MPD2     C 8611   0.957   4.403  15.307 -0.3877  0.4873  0.0550
  581MPD2    C1 8612   0.977   4.335  15.187  0.4731  0.2061  0.3906
  581MPD2    C2 8613   0.876   4.328  15.091  0.1004  0.0316  0.4968
  581MPD2    C3 8614   0.754   4.395  15.118  0.0812 -0.3147  0.1527
  581MPD2    C4 8615   0.734   4.460  15.238  0.3767  0.1743  0.3511
  581MPD2    C5 8616   0.833   4.465  15.335  0.3495  0.1265  0.1744
  581MPD2     H 8617   0.886   4.279  14.995  0.4253 -1.9000  1.5018
  581MPD2    H1 8618   0.655   4.533  15.252  0.3887  0.2092  0.2359
  581MPD2    H2 8619   1.038   4.426  15.374 -1.9547  1.4803  1.6186
  581MPD2    H3 8620   0.815   4.530  15.420  0.0118 -1.2030  1.1229
  581MPD2     N 8621   0.653   4.395  15.011  0.6718 -0.1862  0.5554
  581MPD2    H5 8622   0.674   4.345  14.925 -0.7906  1.9850 -1.0464
  581MPD2    N1 8623   1.106   4.269  15.165 -0.3367  0.0428 -0.0279
  581MPD2    H7 8624   1.178   4.296  15.232 -0.8675 -0.1681  0.6350
  582TMC3    C1 8625   1.259   4.098  15.113  0.4554 -0.1060  0.1083
  582TMC3    C2 8626   1.295   4.113  15.244 -0.7047 -0.0258  0.6435
  582TMC3    C3 8627   1.370   4.009  15.294  0.0993 -0.5073  0.6989
  582TMC3    C4 8628   1.297   3.986  15.043 -0.2150 -0.4718 -0.6319
  582TMC3    C5 8629   1.376   3.892  15.096  0.0582 -0.1744  0.9431
  582TMC3    C6 8630   1.419   3.902  15.224 -0.3389 -0.6228  0.9108
  582TMC3     C 8631   1.133   4.172  15.070  0.4446 -0.2529 -0.3357
  582TMC3     O 8632   1.078   4.137  14.967 -0.8211 -0.6294  0.0107
  582TMC3     H 8633   1.277   4.193  15.315  3.6071  1.2909  0.2074
  582TMC3    H1 8634   1.266   3.990  14.939  0.3100 -1.7798 -0.8393
  582TMC3    H2 8635   1.478   3.821  15.266  1.6576 -0.7671 -2.1365
  582TMC3    C7 8636   1.328   3.761  15.057  0.0372  0.4302  0.8990
  582TMC3    C8 8637   1.390   4.004  15.437  0.1642 -0.2320 -0.6291
  582TMC3    O1 8638   1.403   3.669  15.037 -0.1552 -0.3350 -0.1915
  582TMC3    O2 8639   1.311   4.063  15.504 -0.1256  0.1563  0.1423
  583MPD2     C 8640   0.763   1.109  16.483  0.7376 -0.0352 -0.5919
  583MPD2    C1 8641   0.758   1.241  16.481 -0.1516 -0.3465  0.0734
  583MPD2    C2 8642   0.708   1.308  16.591  0.7164  0.5516 -0.0389
  583MPD2    C3 8643   0.642   1.246  16.693 -0.7619  0.1532 -0.0581
  583MPD2    C4 8644   0.626   1.114  16.687 -0.3786 -0.6389  0.4255
  583MPD2    C5 8645   0.696   1.046  16.587  0.4997 -0.0982  0.2967
  583MPD2     H 8646   0.714   1.415  16.583  1.1772  0.5542  0.3255
  583MPD2    H1 8647   0.582   1.049  16.761  0.1185 -1.2460  0.1871
  583MPD2    H2 8648   0.791   1.052  16.395 -0.0630  0.4149 -1.1380
  583MPD2    H3 8649   0.684   0.938  16.591 -0.2062 -0.1043 -1.6772
  583MPD2     N 8650   0.595   1.333  16.796  0.3019 -0.3694  0.0213
  583MPD2    H5 8651   0.628   1.427  16.780 -2.2743  0.6649  0.7460
  583MPD2    N1 8652   0.812   1.320  16.372  0.4878  0.2000  0.0191
  583MPD2    H7 8653   0.807   1.420  16.383 -0.0070  0.0217  1.4007
  584TMC3    C1 8654   0.524   1.401  17.017  0.0420  0.3673  0.0700
  584TMC3    C2 8655   0.578   1.522  16.989  0.2088 -0.1505 -0.4250
  584TMC3    C3 8656   0.615   1.599  17.096 -0.0649  0.0905 -0.0744
  584TMC3    C4 8657   0.503   1.352  17.140 -0.1777 -0.3212  0.8482
  584TMC3    C5 8658   0.545   1.431  17.248 -0.0315 -1.4352 -0.7390
  584TMC3    C6 8659   0.602   1.552  17.222 -0.1695 -0.1387  0.5369
  584TMC3     C 8660   0.530   1.294  16.914  0.5958  0.8969 -0.1813
  584TMC3     O 8661   0.480   1.186  16.941  0.2678  0.0675 -0.0435
  584TMC3     H 8662   0.596   1.566  16.891 -1.4220  2.7139  0.5683
  584TMC3    H1 8663   0.443   1.263  17.155  0.7787 -1.0221  0.5665
  584TMC3    H2 8664   0.622   1.615  17.308 -1.1292  2.1820 -0.9177
  584TMC3    C7 8665   0.492   1.417  17.384  0.2773 -0.6040  0.0045
  584TMC3    C8 8666   0.634   1.741  17.067 -0.5412 -0.0756 -0.0536
  584TMC3    O1 8667   0.544   1.479  17.480 -0.2822 -0.1960  0.1117
  584TMC3    O2 8668   0.560   1.797  16.986  0.1736  0.1300  0.0861
  585MPD2     C 8669   0.657   4.619   0.450 -0.6416 -0.1865 -0.8499
  585MPD2    C1 8670   0.540   4.601   0.386 -0.1581  0.0296  0.2928
  585MPD2    C2 8671   0.518   4.488   0.316 -0.4402  0.0070 -0.2450
  585MPD2    C3 8672   0.614   4.390   0.309 -0.4075 -0.5119  0.5501
  585MPD2    C4 8673   0.738   4.423   0.353  0.5338  0.1488 -0.4563
  585MPD2    C5 8674   0.756   4.525   0.444 -0.3222  0.0887  0.2251
  585MPD2     H 8675   0.423   4.471   0.266  0.5374  2.8020 -3.0554
  585MPD2    H1 8676   0.818   4.353   0.331 -0.2311 -0.6486 -0.7308
  585MPD2    H2 8677   0.674   4.713   0.502 -1.8361 -0.3185 -0.2152
  585MPD2    H3 8678   0.853   4.547   0.487 -0.4765  2.7271 -0.8226
  585MPD2     N 8679   0.592   4.267   0.239 -0.1245  0.0207 -0.0282
  585MPD2    H5 8680   0.674   4.220   0.200 -0.2035 -1.5181  1.6785
  585MPD2    N1 8681   0.447   4.703   0.397 -0.4231 -0.2122  0.6127
  585MPD2    H7 8682   0.448   0.046   0.473 -0.5158 -1.2950  1.5716
  586TMC3    C1 8683   0.461   4.103   0.133 -0.2967 -0.1723  1.0855
  586TMC3    C2 8684   0.566   4.077   0.046  0.5548 -0.0280 -0.3062
  586TMC3    C3 8685   0.536   3.993  17.643  0.3935  0.4939  0.6368
  586TMC3    C4 8686   0.331   4.058   0.113  0.3004  0.2745  0.3378
  586TMC3    C5 8687   0.311   3.970   0.009  0.1316 -0.6400 -0.1469
  586TMC3    C6 8688   0.414   3.938  17.621  0.2459  0.7553 -0.0636
  586TMC3     C 8689   0.463   4.215   0.218 -0.5045  0.0357  0.5839
  586TMC3     O 8690   0.361   4.230   0.281  0.1546  0.0035 -0.1258
  586TMC3     H 8691   0.666   4.103   0.080  1.2009  0.8228 -2.8628
  586TMC3    H1 8692   0.250   4.068   0.184 -0.7128 -1.1982 -0.5957
  586TMC3    H2 8693   0.396   3.871  17.538  0.2142 -0.5524  0.9927
  586TMC3    C7 8694   0.172   3.975  17.651 -0.4286 -0.2053  0.1487
  586TMC3    C8 8695   0.640   3.975  17.550  0.3305  0.3943 -0.1208
  586TMC3    O1 8696   0.074   3.982   0.025  0.4037  0.4879  0.3123
  586TMC3    O2 8697   0.616   3.881  17.466 -0.9845  0.5078  0.1091
  587TMC3    C1 8698   2.549   3.304  16.368  0.3393  0.0700  0.1912
  587TMC3    C2 8699   2.514   3.428  16.326  0.2485  0.2750 -0.0387
  587TMC3    C3 8700   2.577   3.472  16.209 -0.2622  0.2647  0.6531
  587TMC3    C4 8701   2.634   3.227  16.299 -0.6991  0.1521  0.4213
  587TMC3    C5 8702   2.706   3.281  16.196 -0.0288  0.2569  0.5205
  587TMC3    C6 8703   2.674   3.404  16.146  0.3241 -0.0588 -0.7493
  587TMC3     C 8704   2.474   3.245  16.480 -0.7336 -0.0484  1.0554
  587TMC3     O 8705   2.525   3.144  16.522  0.0263 -0.5006 -0.1059
  587TMC3     H 8706   2.459   3.493  16.393 -1.3432 -0.6931 -0.3933
  587TMC3    H1 8707   2.675   3.138  16.345  1.1763  3.4499  5.1253
  587TMC3    H2 8708   2.726   3.440  16.058  1.0987  0.9089  0.1018
  587TMC3    C7 8709   2.775   3.191  16.104 -0.2313 -0.4992 -0.8566
  587TMC3    C8 8710   2.555   3.605  16.156  0.1990 -0.3716 -0.3041
  587TMC3    O1 8711   2.725   3.081  16.076 -0.3778  0.1751 -0.1750
  587TMC3    O2 8712   2.636   3.672  16.100  0.7262 -0.0386 -0.0705
  588TMC3    C1 8713   0.520   1.091   9.706 -0.1429  0.4585 -0.5840
  588TMC3    C2 8714   0.430   0.994   9.653  0.1465 -0.1281  0.1216
  588TMC3    C3 8715   0.351   0.921   9.738 -0.0254  0.1744  0.4328
  588TMC3    C4 8716   0.541   1.099   9.844 -0.0146  0.8484  0.3598
  588TMC3    C5 8717   0.451   1.022   9.923  1.2259  0.3457 -0.2227
  588TMC3    C6 8718   0.354   0.943   9.871 -0.5535  0.5405 -0.4099
  588TMC3     C 8719   0.570   1.194   9.611 -0.3059 -0.3270  0.3671
  588TMC3     O 8720   0.535   1.185   9.494 -0.9680  0.7186 -0.1345
  588TMC3     H 8721   0.420   0.990   9.545 -1.9017  0.3926  0.2890
  588TMC3    H1 8722   0.623   1.158   9.882 -1.0580  2.2619  0.4205
  588TMC3    H2 8723   0.285   0.893   9.938  2.1952 -1.8567  0.6092
  588TMC3    C7 8724   0.421   1.078  10.053 -0.3339  0.4342  0.1941
  588TMC3    C8 8725   0.314   0.795   9.680  0.1646  0.2084 -0.2352
  588TMC3    O1 8726   0.396   1.001  10.140 -0.4128 -0.5615 -0.2679
  588TMC3    O2 8727   0.305   0.789   9.558  0.1355 -0.2010  0.2437
  589TMC3    C1 8728   3.618   3.529   1.069 -0.2953  0.0603 -0.4821
  589TMC3    C2 8729   3.755   3.553   1.084 -0.0775 -1.0599 -0.5622
  589TMC3    C3 8730   3.849   3.461   1.041  0.0661 -0.9484 -0.0385
  589TMC3    C4 8731   3.579   3.430   0.983  0.7084  0.4482 -0.7272
  589TMC3    C5 8732   3.673   3.346   0.939 -0.3111 -0.9047  0.1124
  589TMC3    C6 8733   3.810   3.360   0.957  0.5413  0.2122  0.1755
  589TMC3     C 8734   3.525   3.640   1.084  0.0568  0.2770  0.3949
  589TMC3     O 8735   3.446   3.653   0.996 -0.4454  0.0663  0.3346
  589TMC3     H 8736   3.786   3.634   1.149 -0.2785 -0.1648 -1.5866
  589TMC3    H1 8737   3.474   3.424   0.959  0.3035 -1.3433  1.5171
  589TMC3    H2 8738   3.877   3.278   0.930 -0.2382 -0.6722  0.9162
  589TMC3    C7 8739   3.636   3.251   0.843  0.9938  0.1808 -0.2814
  589TMC3    C8 8740   3.991   3.492   1.063  0.3397  0.1931  0.0582
  589TMC3    O1 8741   3.702   3.146   0.843 -0.6944 -0.0335  0.3925
  589TMC3    O2 8742   4.027   3.570   1.149 -0.3530 -0.2027 -0.3755
  590MPD2     C 8743   3.457   1.887  16.695 -0.0063  0.0191 -0.6513
  590MPD2    C1 8744   3.403   1.958  16.592  0.8811 -0.3183  0.6492
  590MPD2    C2 8745   3.481   2.031  16.509  0.1340 -0.1406  0.3429
  590MPD2    C3 8746   3.616   2.034  16.523  0.0317 -0.8318  0.4256
  590MPD2    C4 8747   3.679   1.968  16.626 -0.1173  0.4133 -0.7918
  590MPD2    C5 8748   3.599   1.886  16.706  0.2589 -0.3481  0.5414
  590MPD2     H 8749   3.445   2.090  16.426 -1.2411 -1.0261  0.2975
  590MPD2    H1 8750   3.786   1.975  16.641 -0.2591 -1.4034  1.2109
  590MPD2    H2 8751   3.402   1.818  16.759  0.0941  1.5923  1.1385
  590MPD2    H3 8752   3.640   1.829  16.788  0.1444 -2.6133 -0.9822
  590MPD2     N 8753   3.688   2.132  16.437 -0.3415 -0.3665  0.3068
  590MPD2    H5 8754   3.624   2.187  16.381 -2.3417 -1.6888  1.2863
  590MPD2    N1 8755   3.263   1.945  16.570 -0.4969 -0.0901 -0.0300
  590MPD2    H7 8756   3.209   1.880  16.626 -0.1604 -0.9117 -0.6553
  591TMC3    C1 8757   3.865   2.247  16.341 -0.2240 -0.5430 -0.2603
  591TMC3    C2 8758   3.947   2.213  16.236 -0.2480 -0.3593  0.0307
  591TMC3    C3 8759   3.950   2.281  16.122  0.2440  0.3070  0.5566
  591TMC3    C4 8760   3.779   2.353  16.327  0.3464  0.6553 -0.0718
  591TMC3    C5 8761   3.786   2.431  16.213  0.0067  0.1741 -0.1174
  591TMC3    C6 8762   3.868   2.397  16.112  0.2267 -0.7434 -0.0343
  591TMC3     C 8763   3.825   2.140  16.432 -0.7512 -0.1250 -0.3727
  591TMC3     O 8764   3.910   2.058  16.455  0.5362  0.3887 -0.1759
  591TMC3     H 8765   4.006   2.122  16.242  0.1164 -0.2050 -1.1795
  591TMC3    H1 8766   3.700   2.374  16.399 -0.2211  0.1109 -0.5325
  591TMC3    H2 8767   3.860   2.454  16.020  2.5120 -0.7682 -0.2391
  591TMC3    C7 8768   3.701   2.547  16.200  0.2376  0.0416 -0.4750
  591TMC3    C8 8769   4.024   2.223  16.010 -0.2472  0.2550 -0.1524
  591TMC3    O1 8770   3.584   2.540  16.243 -0.1307 -0.3165 -0.2862
  591TMC3    O2 8771   4.054   2.105  16.016  0.4203  0.0701 -0.3203
  592MPD2     C 8772   3.915   3.711  11.066 -0.4218 -0.3107  0.8191
  592MPD2    C1 8773   3.905   3.787  11.177 -0.0711  0.0458  0.6270
  592MPD2    C2 8774   3.824   3.742  11.288  0.4573  0.2603  0.2243
  592MPD2    C3 8775   3.762   3.620  11.285  0.0555 -0.1638  0.0890
  592MPD2    C4 8776   3.793   3.537  11.178  0.1535 -0.2565 -0.1180
  592MPD2    C5 8777   3.864   3.587  11.065 -0.4402  0.0900  0.0376
  592MPD2     H 8778   3.819   3.799  11.380  3.5424 -0.9961  1.1674
  592MPD2    H1 8779   3.769   3.431  11.173 -0.0928 -0.2105  0.0992
  592MPD2    H2 8780   3.974   3.750  10.984 -1.7715  2.2144  1.0672
  592MPD2    H3 8781   3.883   3.523  10.980 -0.9780 -0.8470  0.6127
  592MPD2     N 8782   3.683   3.585  11.399 -0.0198 -0.3718  0.9015
  592MPD2    H5 8783   3.670   3.662  11.462  1.3531  1.0623 -0.5597
  592MPD2    N1 8784   3.962   3.914  11.162  0.1263 -0.2849  0.2287
  592MPD2    H7 8785   4.009   3.937  11.075  0.9239  0.0338  0.7405
  593TMC3    C1 8786   4.065   4.122  11.248  0.3225 -0.0058 -0.6276
  593TMC3    C2 8787   4.074   4.209  11.352 -0.2863 -0.4196  0.3353
  593TMC3    C3 8788   4.160   4.309  11.336  0.3091 -0.5045 -0.1546
  593TMC3    C4 8789   4.142   4.142  11.133 -0.5759 -0.3227  0.2957
  593TMC3    C5 8790   4.232   4.239  11.126  0.0715 -0.5618 -0.1304
  593TMC3    C6 8791   4.238   4.329  11.227  0.4161 -0.3933  0.0717
  593TMC3     C 8792   3.977   4.002  11.269  0.3077 -0.5822  0.1371
  593TMC3     O 8793   3.932   3.998  11.380 -0.5928 -0.0218  0.0899
  593TMC3     H 8794   4.021   4.204  11.447  1.0144  0.1199  1.0816
  593TMC3    H1 8795   4.138   4.066  11.056 -2.7816 -1.1936  1.2666
  593TMC3    H2 8796   4.313   4.406  11.216 -2.1879  1.9590 -1.1587
  593TMC3    C7 8797   4.272   4.295  10.995 -0.3516  0.2118  0.6241
  593TMC3    C8 8798   4.160   4.412  11.436  0.1351 -0.7524 -0.0655
  593TMC3    O1 8799   4.388   4.334  10.983  0.0225 -0.7908 -0.4791
  593TMC3    O2 8800   4.056   4.423  11.504 -0.2960  0.2651  0.2796
  594MPD2     C 8801   3.057   2.219  14.460  0.1542 -0.7426 -0.6434
  594MPD2    C1 8802   2.942   2.298  14.455 -0.2109 -0.4978 -0.3152
  594MPD2    C2 8803   2.964   2.422  14.393  0.0793  0.9155  0.7880
  594MPD2    C3 8804   3.095   2.458  14.342  0.5686  0.9214  0.6223
  594MPD2    C4 8805   3.205   2.373  14.345  0.1119 -0.4610 -0.2122
  594MPD2    C5 8806   3.176   2.254  14.405 -0.5101  0.4247 -0.4347
  594MPD2     H 8807   2.879   2.488  14.380 -0.2691  0.1530 -0.7979
  594MPD2    H1 8808   3.305   2.389  14.305  0.0593  0.1195 -0.1022
  594MPD2    H2 8809   3.034   2.117  14.488  0.8464 -1.2952 -2.1162
  594MPD2    H3 8810   3.258   2.183  14.410 -1.7775 -1.0864 -1.0068
  594MPD2     N 8811   3.094   2.579  14.270  0.4483  0.0960  0.2228
  594MPD2    H5 8812   3.004   2.625  14.261 -0.6856 -2.4383 -1.4492
  594MPD2    N1 8813   2.820   2.244  14.507  0.7420  0.1708 -0.2515
  594MPD2    H7 8814   2.827   2.152  14.548 -0.8492 -0.8407 -2.2184
  595TMC3    C1 8815   3.240   2.983  14.083  0.5004 -0.0928  0.5586
  595TMC3    C2 8816   3.251   2.847  14.098  0.1833 -0.6716  0.7437
  595TMC3    C3 8817   3.165   2.777  14.178  1.0345 -0.8698  0.1510
  595TMC3    C4 8818   3.132   3.044  14.145 -0.2673  0.1835  0.0600
  595TMC3    C5 8819   3.057   2.969  14.231  0.0593 -0.0739  0.2811
  595TMC3    C6 8820   3.076   2.840  14.260 -0.4521 -0.1183  0.3591
  595TMC3     C 8821   3.368   3.055  14.104 -0.4513  0.2203 -0.4779
  595TMC3     O 8822   3.384   3.125  14.200  0.2633  0.3445 -0.2042
  595TMC3     H 8823   3.333   2.802  14.042 -0.2094 -2.4670  1.6126
  595TMC3    H1 8824   3.112   3.150  14.149  0.5609  0.3804 -1.0111
  595TMC3    H2 8825   3.011   2.787  14.329 -1.9100  1.2259  0.0183
  595TMC3    C7 8826   3.001   3.056  14.328 -1.0321 -0.1110  0.1037
  595TMC3    C8 8827   3.201   2.642  14.214  0.7863 -0.1871  0.0087
  595TMC3    O1 8828   2.935   3.152  14.291  0.4382  0.2828 -0.1751
  595TMC3    O2 8829   3.321   2.630  14.231 -0.1915 -0.2120 -0.2186
  596MPD2     C 8830   1.411   0.519  16.222 -0.1702 -0.0864  0.6892
  596MPD2    C1 8831   1.460   0.646  16.210  0.2925  0.6877 -0.5503
  596MPD2    C2 8832   1.485   0.700  16.085 -0.1372 -0.0711  0.1697
  596MPD2    C3 8833   1.471   0.633  15.967  0.7376 -0.5520  0.2370
  596MPD2    C4 8834   1.431   0.501  15.979 -0.4909 -0.4318 -0.6458
  596MPD2    C5 8835   1.405   0.453  16.102  0.0422  0.5645  0.0556
  596MPD2     H 8836   1.521   0.802  16.082  0.5220 -0.2550  1.8122
  596MPD2    H1 8837   1.415   0.431  15.897  1.7974 -3.5511  1.5466
  596MPD2    H2 8838   1.398   0.471  16.318 -0.9024 -0.6649  0.3003
  596MPD2    H3 8839   1.370   0.351  16.109  2.9594 -0.4187  0.0486
  596MPD2     N 8840   1.493   0.680  15.836  0.1545 -0.3661 -0.3889
  596MPD2    H5 8841   1.483   0.612  15.761 -2.6010 -1.4882  0.9872
  596MPD2    N1 8842   1.476   0.730  16.321 -0.9219  0.1091 -0.3115
  596MPD2    H7 8843   1.493   0.827  16.297  2.7086 -0.0487  1.5270
  597TMC3    C1 8844   1.486   0.816  16.533 -0.6415 -0.6484 -0.0127
  597TMC3    C2 8845   1.606   0.879  16.510  0.4085  0.2550 -0.1952
  597TMC3    C3 8846   1.640   0.984  16.591  0.4704 -0.0896 -0.2812
  597TMC3    C4 8847   1.414   0.848  16.648 -0.2847  0.6531 -0.1490
  597TMC3    C5 8848   1.454   0.953  16.719 -0.8104  0.2946  0.0201
  597TMC3    C6 8849   1.567   1.023  16.696  0.6862  0.1106  0.0978
  597TMC3     C 8850   1.447   0.710  16.451 -0.0683 -0.1988 -0.8745
  597TMC3     O 8851   1.407   0.613  16.511  0.3090  0.0271  0.1784
  597TMC3     H 8852   1.656   0.871  16.414  0.7685 -0.5534  0.0615
  597TMC3    H1 8853   1.329   0.785  16.671 -1.9418  2.1818 -2.0685
  597TMC3    H2 8854   1.602   1.106  16.757 -3.0463  1.9804 -0.2760
  597TMC3    C7 8855   1.368   1.016  16.820 -0.0008  0.4180 -0.3338
  597TMC3    C8 8856   1.724   1.087  16.539 -0.1187  0.1623 -0.1679
  597TMC3    O1 8857   1.279   0.947  16.871  0.2390 -0.3428  0.1082
  597TMC3    O2 8858   1.717   1.203  16.585 -0.2863  0.0641  0.2508
  598TMC3    C1 8859   4.538   2.267  15.362 -0.5288  0.0214  0.0395
  598TMC3    C2 8860   4.414   2.228  15.314  0.1029 -0.1372 -0.3506
  598TMC3    C3 8861   4.401   2.211  15.173 -0.1959  0.5810  0.4892
  598TMC3    C4 8862   4.651   2.293  15.285 -0.2731  0.3704 -0.4499
  598TMC3    C5 8863   4.632   2.266  15.152  0.7055 -0.6937  0.3750
  598TMC3    C6 8864   4.511   2.232  15.092 -0.2839  0.4472  0.1689
  598TMC3     C 8865   4.563   2.250  15.509 -0.0284  0.0630  0.5886
  598TMC3     O 8866   4.467   2.266  15.585 -0.1399  0.3401  0.7730
  598TMC3     H 8867   4.346   2.213  15.397 -1.6433 -2.2705 -2.1943
  598TMC3    H1 8868   0.018   2.333  15.328 -2.1572  1.5028  2.4552
  598TMC3    H2 8869   4.512   2.203  14.988 -0.9665  2.1350 -0.3010
  598TMC3    C7 8870   0.015   2.256  15.066  0.5712 -0.2003 -0.2938
  598TMC3    C8 8871   4.286   2.256  15.098  0.4688 -0.8533 -0.1038
  598TMC3    O1 8872   0.004   2.174  14.976  0.0613  0.4459 -0.4837
  598TMC3    O2 8873   4.317   2.331  15.005  0.0180 -0.2750 -0.2716
  599MPD2     C 8874   0.127   4.595  15.831 -0.0545  0.2079  0.4052
  599MPD2    C1 8875   0.149   4.568  15.964 -0.7739  0.2879  0.2335
  599MPD2    C2 8876   0.065   4.613  16.064  0.1570  0.5514 -0.4910
  599MPD2    C3 8877   4.678   4.686  16.021 -0.5074 -0.2676 -0.2761
  599MPD2    C4 8878   4.649   4.704  15.890 -0.3268 -0.2838 -0.1790
  599MPD2    C5 8879   0.015   4.666  15.795  0.3301 -0.7635  0.6457
  599MPD2     H 8880   0.090   4.595  16.168 -1.4198 -0.4084 -0.2703
  599MPD2    H1 8881   4.562   0.035  15.857 -1.2618 -1.9980 -0.5633
  599MPD2    H2 8882   0.194   4.578  15.748 -0.2208  0.0360  0.3082
  599MPD2    H3 8883   4.721   4.698  15.693  0.1543 -1.0431  0.5914
  599MPD2     N 8884   4.574   4.717  16.110  0.3081 -0.1122  0.1508
  599MPD2    H5 8885   4.487   0.027  16.069  1.6621  2.1030 -0.8953
  599MPD2    N1 8886   0.260   4.488  16.000 -0.4627  0.0366  0.2248
  599MPD2    H7 8887   0.279   4.481  16.100 -1.5107  1.9875  0.5606
  600TMC3    C1 8888   4.462   0.046  16.307 -0.7194 -1.0398 -0.8466
  600TMC3    C2 8889   4.365   4.675  16.293  0.0889 -0.0556  0.1341
  600TMC3    C3 8890   4.258   4.677  16.375  0.0404 -0.2636 -0.3361
  600TMC3    C4 8891   4.458   0.133  16.410 -0.1035 -0.4861 -0.0490
  600TMC3    C5 8892   4.345   0.140  16.490  0.8912  0.0317 -0.5329
  600TMC3    C6 8893   4.247   0.047  16.473  0.1438 -0.1192 -1.0052
  600TMC3     C 8894   4.589   0.010  16.246 -0.0593  0.0856 -0.0934
  600TMC3     O 8895   4.691   0.015  16.310 -0.8763  0.0691  0.3205
  600TMC3     H 8896   4.390   4.592  16.227 -1.0897 -0.6491  0.4453
  600TMC3    H1 8897   4.531   0.212  16.422 -0.6638  0.4211 -2.6180
  600TMC3    H2 8898   4.160   0.046  16.538  0.2471  1.0641 -0.8466
  600TMC3    C7 8899   4.296   0.266  16.540  0.0987 -0.7636 -0.0515
  600TMC3    C8 8900   4.195   4.546  16.401  0.1682 -1.2841  1.0271
  600TMC3    O1 8901   4.176   0.282  16.529  0.4558 -0.1966 -0.1617
  600TMC3    O2 8902   4.190   4.506  16.517 -0.2692  0.2448 -0.0189
  601MPD2     C 8903   2.230   2.227   0.042 -0.3243 -0.0935 -0.7453
  601MPD2    C1 8904   2.108   2.199   0.100  0.3333 -0.0727  0.2084
  601MPD2    C2 8905   2.053   2.085   0.072 -0.5187 -0.1112 -0.2733
  601MPD2    C3 8906   2.114   1.992  17.697 -0.5804 -0.3405 -0.4502
  601MPD2    C4 8907   2.235   2.013  17.643  0.0352  0.3394  0.1412
  601MPD2    C5 8908   2.295   2.133  17.669 -0.2740 -0.5041 -0.2899
  601MPD2     H 8909   1.954   2.063   0.111 -0.1482 -2.3949 -0.6009
  601MPD2    H1 8910   2.287   1.944  17.578 -0.0470 -0.7456  1.2245
  601MPD2    H2 8911   2.270   2.325   0.064  0.5591 -0.4831 -0.6014
  601MPD2    H3 8912   2.397   2.159  17.643 -0.8682  2.0796 -0.1294
  601MPD2     N 8913   2.051   1.874  17.658 -0.0217  0.5660  0.2306
  601MPD2    H5 8914   2.114   1.813  17.606 -0.1577  0.8117 -0.2265
  601MPD2    N1 8915   2.037   2.281   0.186  0.0818  0.5513 -0.3334
  601MPD2    H7 8916   1.949   2.244   0.222 -0.4307  2.2600  0.1958
  602TMC3    C1 8917   1.921   2.489   0.244  0.0921  0.0801  0.4614
  602TMC3    C2 8918   1.941   2.622   0.266 -0.4770 -0.5453 -0.3919
  602TMC3    C3 8919   1.855   2.710   0.208 -0.8140  0.2956 -0.5645
  602TMC3    C4 8920   1.817   2.444   0.170  0.2127 -0.5107  1.3717
  602TMC3    C5 8921   1.732   2.539   0.119 -0.0263  0.3439  0.0117
  602TMC3    C6 8922   1.753   2.674   0.130 -0.5801  0.1661  0.1761
  602TMC3     C 8923   2.049   2.418   0.201 -0.5767 -0.4512 -0.1654
  602TMC3     O 8924   2.137   2.494   0.174  0.4609 -0.2795  0.0994
  602TMC3     H 8925   2.026   2.665   0.318  1.0467 -2.1268 -1.5342
  602TMC3    H1 8926   1.804   2.341   0.138  3.8089 -1.2574  2.2565
  602TMC3    H2 8927   1.699   2.744   0.068 -0.8433  0.0998  0.3324
  602TMC3    C7 8928   1.649   2.498   0.004  0.2564  0.6051  0.6202
  602TMC3    C8 8929   1.881   2.853   0.204 -0.4368 -1.1274 -0.1247
  602TMC3    O1 8930   1.673   2.395  17.646  0.3902 -0.2955  0.6713
  602TMC3    O2 8931   1.998   2.893   0.230  0.0596 -0.2230  0.9743
  603TMC3    C1 8932   0.117   3.296  10.886  0.3005 -0.2364 -0.2334
  603TMC3    C2 8933   0.120   3.316  11.024 -0.6099  0.2442  0.2250
  603TMC3    C3 8934   0.138   3.446  11.069  0.3415 -0.6977 -1.1343
  603TMC3    C4 8935   0.127   3.396  10.794 -0.0002 -0.0002  0.6489
  603TMC3    C5 8936   0.150   3.519  10.845  0.2215 -0.1680  0.3286
  603TMC3    C6 8937   0.158   3.543  10.979 -0.5281  0.9000  0.6116
  603TMC3     C 8938   0.058   3.177  10.848  0.0771 -0.1226  0.2866
  603TMC3     O 8939   0.090   3.143  10.733 -0.8133 -0.4498 -0.0394
  603TMC3     H 8940   0.145   3.233  11.089 -1.8851 -0.9031 -0.7363
  603TMC3    H1 8941   0.139   3.368  10.690 -2.0428  3.5699 -0.5502
  603TMC3    H2 8942   0.155   3.648  11.006  2.3600  1.2276 -0.3436
  603TMC3    C7 8943   0.166   3.633  10.759  0.2527 -0.5003 -0.4980
  603TMC3    C8 8944   0.137   3.483  11.210  0.4466 -0.9238  0.0663
  603TMC3    O1 8945   0.208   3.738  10.802  0.0053  0.4988 -0.0563
  603TMC3    O2 8946   0.117   3.386  11.282  0.4763  0.4720  0.1639
  604MPD2     C 8947   1.011   2.166  16.047 -0.0035 -0.2535  0.1373
  604MPD2    C1 8948   0.892   2.096  16.030 -0.3555  0.2071  0.0142
  604MPD2    C2 8949   0.870   2.041  15.904 -0.6745  0.7010 -0.9962
  604MPD2    C3 8950   0.962   2.060  15.799  0.9347  0.4422 -0.1833
  604MPD2    C4 8951   1.084   2.119  15.827 -0.2404  0.1859 -0.5854
  604MPD2    C5 8952   1.105   2.172  15.952  0.3133  0.5944 -0.2124
  604MPD2     H 8953   0.781   1.982  15.883  0.4339 -0.9697 -0.9984
  604MPD2    H1 8954   1.159   2.138  15.751 -0.1068 -0.0241 -0.5067
  604MPD2    H2 8955   1.050   2.207  16.139  0.3698  0.6001 -0.3883
  604MPD2    H3 8956   1.197   2.223  15.980  1.1864 -0.2316 -1.5539
  604MPD2     N 8957   0.932   2.007  15.669  0.1675  0.4045 -0.5109
  604MPD2    H5 8958   0.843   1.957  15.675  0.7530 -0.2504  2.8269
  604MPD2    N1 8959   0.803   2.085  16.137  0.0756 -0.4960  0.4309
  604MPD2    H7 8960   0.828   2.120  16.229  1.0670 -1.6067  0.5797
  605TMC3    C1 8961   0.622   2.036  16.267 -0.6456  0.1553 -0.2273
  605TMC3    C2 8962   0.719   2.039  16.363  0.3244  0.1484 -0.4949
  605TMC3    C3 8963   0.711   2.135  16.457  0.3179 -0.0119 -0.1043
  605TMC3    C4 8964   0.505   2.109  16.285  0.3115 -0.5761 -0.1414
  605TMC3    C5 8965   0.503   2.190  16.391  0.4110 -0.1251 -0.3362
  605TMC3    C6 8966   0.608   2.220  16.473  0.2136  0.4277  0.2712
  605TMC3     C 8967   0.677   2.029  16.133 -0.2965  0.7575 -0.0907
  605TMC3     O 8968   0.608   1.980  16.047 -0.0985  0.3407  0.4526
  605TMC3     H 8969   0.806   1.974  16.362  1.4458  1.6453 -1.0519
  605TMC3    H1 8970   0.427   2.104  16.210  0.2619 -5.6439  0.2650
  605TMC3    H2 8971   0.601   2.307  16.537 -0.0198 -0.2628  1.1979
  605TMC3    C7 8972   0.380   2.253  16.419  0.1771  0.7568  0.5994
  605TMC3    C8 8973   0.837   2.205  16.470  0.1248  0.2570 -0.1970
  605TMC3    O1 8974   0.380   2.353  16.490 -0.2490 -0.4742 -0.0554
  605TMC3    O2 8975   0.912   2.187  16.375 -0.2981 -0.4446 -0.3259
  606TMC3    C1 8976   1.758   1.035   0.008 -0.0621  0.0565 -0.0555
  606TMC3    C2 8977   1.874   1.014   0.071  0.3981  0.4041  0.5194
  606TMC3    C3 8978   1.948   0.909   0.016 -0.5470 -0.2688 -0.5856
  606TMC3    C4 8979   1.701   0.953  17.618 -0.0292 -0.1425  0.4671
  606TMC3    C5 8980   1.764   0.835  17.583  0.8430 -0.1250 -0.6527
  606TMC3    C6 8981   1.895   0.818  17.630  0.1576 -0.2311 -0.4476
  606TMC3     C 8982   1.680   1.158   0.049 -0.1557 -0.5613 -0.0401
  606TMC3     O 8983   1.577   1.178  17.686 -0.5774 -0.0111  0.3858
  606TMC3     H 8984   1.919   1.078   0.146 -0.3066  0.3675  0.9663
  606TMC3    H1 8985   1.596   0.972  17.601 -0.2047  1.0414  2.8660
  606TMC3    H2 8986   1.940   0.724  17.598 -1.2238 -1.1057  0.1918
  606TMC3    C7 8987   1.710   0.733  17.500  0.5358 -0.7438  0.4252
  606TMC3    C8 8988   2.075   0.870   0.073 -0.8573  0.6165 -0.3876
  606TMC3    O1 8989   1.793   0.656  17.458  0.5013  0.2395 -0.1427
  606TMC3    O2 8990   2.130   0.767   0.036 -0.2536  0.2068  1.0801
  607MPD2     C 8991   3.949   3.371  11.632  0.2110  0.1789 -0.3440
  607MPD2    C1 8992   3.967   3.499  11.677 -0.4316  0.7609  0.2090
  607MPD2    C2 8993   3.923   3.521  11.806 -0.7130  0.1625  0.5305
  607MPD2    C3 8994   3.893   3.422  11.891  0.1412  0.1492  0.7555
  607MPD2    C4 8995   3.888   3.291  11.847 -0.3505 -0.5800  0.2881
  607MPD2    C5 8996   3.912   3.273  11.716  0.1657  0.2323  0.1343
  607MPD2     H 8997   3.923   3.626  11.832  0.0007  0.2710  0.0907
  607MPD2    H1 8998   3.873   3.201  11.906 -1.6116 -0.3799  0.2700
  607MPD2    H2 8999   3.964   3.356  11.526  1.2183  1.5664 -0.3866
  607MPD2    H3 9000   3.905   3.169  11.687  1.6764  0.5158 -1.2671
  607MPD2     N 9001   3.858   3.460  12.024  0.3915 -0.6073  0.7174
  607MPD2    H5 9002   3.858   3.560  12.041 -0.5410 -0.5153  0.1714
  607MPD2    N1 9003   4.019   3.612  11.607  0.1779 -0.4527  0.4584
  607MPD2    H7 9004   4.015   3.704  11.648 -0.6029 -1.2502  2.1479
  608TMC3    C1 9005   4.170   3.731  11.480 -0.6917 -0.1713  0.3685
  608TMC3    C2 9006   4.205   3.799  11.593 -0.5930 -0.4740 -0.5245
  608TMC3    C3 9007   4.285   3.902  11.584 -0.0668 -0.2148  0.4899
  608TMC3    C4 9008   4.216   3.773  11.359 -0.6720  0.1014 -0.1649
  608TMC3    C5 9009   4.300   3.876  11.359  0.1164  0.4478 -0.5766
  608TMC3    C6 9010   4.331   3.956  11.469  0.5732 -0.2007  0.1375
  608TMC3     C 9011   4.088   3.613  11.490  0.1972 -0.3982 -0.6952
  608TMC3     O 9012   4.107   3.518  11.412  0.1341 -0.0821  0.2952
  608TMC3     H 9013   4.205   3.740  11.684 -0.0020 -0.2098 -0.3505
  608TMC3    H1 9014   4.196   3.717  11.268 -0.2071  2.0671 -1.4639
  608TMC3    H2 9015   4.387   4.049  11.470 -0.9955  0.7378  0.8702
  608TMC3    C7 9016   4.373   3.900  11.232  0.2484 -0.1072  0.1756
  608TMC3    C8 9017   4.306   3.983  11.701  0.0539 -0.6358 -0.9580
  608TMC3    O1 9018   4.341   3.841  11.129  0.4790  0.0847 -0.0540
  608TMC3    O2 9019   4.399   4.061  11.697 -0.1325 -0.0324 -0.0327
  609TMC3    C1 9020   3.186   2.897   9.440 -0.6667  0.7562 -0.2947
  609TMC3    C2 9021   3.213   3.024   9.409  0.5489 -0.0516 -0.2376
  609TMC3    C3 9022   3.342   3.062   9.378  0.2793  0.4076  0.2802
  609TMC3    C4 9023   3.279   2.799   9.462  0.8169 -0.3810  0.1061
  609TMC3    C5 9024   3.405   2.831   9.423 -0.0583  0.0228  0.2995
  609TMC3    C6 9025   3.434   2.960   9.387  0.5205  0.1645  0.3204
  609TMC3     C 9026   3.046   2.868   9.470  0.9075 -0.4690  0.0842
  609TMC3     O 9027   3.025   2.748   9.490 -0.4239  0.0995  0.1113
  609TMC3     H 9028   3.134   3.090   9.378 -0.3665 -0.0734  2.0900
  609TMC3    H1 9029   3.256   2.702   9.504  1.1751 -1.0734 -1.3278
  609TMC3    H2 9030   3.535   2.998   9.375  1.1137 -1.8430 -1.1191
  609TMC3    C7 9031   3.509   2.741   9.468  0.0800  0.7182 -0.6888
  609TMC3    C8 9032   3.374   3.183   9.302 -0.0376 -0.3340 -0.3882
  609TMC3    O1 9033   3.476   2.632   9.516 -0.5023  0.0920 -0.0931
  609TMC3    O2 9034   3.478   3.197   9.237  0.0436 -0.0569 -0.3844
  610TMC3    C1 9035   0.033   3.601  12.616  0.7059 -0.1681 -0.4271
  610TMC3    C2 9036   0.087   3.668  12.513  0.2457 -0.0332 -0.5054
  610TMC3    C3 9037   0.223   3.644  12.477 -0.3274  0.5484 -0.0760
  610TMC3    C4 9038   0.100   3.501  12.678 -0.3557 -0.6645 -0.1936
  610TMC3    C5 9039   0.232   3.485  12.649 -0.0929 -0.5046  0.0312
  610TMC3    C6 9040   0.298   3.551  12.547 -0.5470  0.3088  0.1241
  610TMC3     C 9041   4.614   3.589  12.615  0.0872 -0.0556  0.2263
  610TMC3     O 9042   4.557   3.603  12.509 -0.0575 -0.1685  0.5046
  610TMC3     H 9043   0.029   3.735  12.451  1.9195  1.4779 -0.4405
  610TMC3    H1 9044   0.061   3.448  12.764 -3.4527  0.8580 -0.6814
  610TMC3    H2 9045   0.394   3.506  12.520 -2.4047 -0.7586 -4.7213
  610TMC3    C7 9046   0.308   3.402  12.736 -0.0778 -0.6773 -0.0024
  610TMC3    C8 9047   0.263   3.708  12.354  0.4100  0.6565 -0.4921
  610TMC3    O1 9048   0.251   3.306  12.793 -0.2887 -0.0625  0.0007
  610TMC3    O2 9049   0.178   3.755  12.281 -0.1528  0.1421  0.3006
  611MPD2     C 9050   4.000   3.250  10.358  0.0865  0.0284 -0.4601
  611MPD2    C1 9051   3.958   3.283  10.228  0.2485  1.2253  0.0439
  611MPD2    C2 9052   4.039   3.358  10.137 -1.0474  0.6156  0.8763
  611MPD2    C3 9053   4.150   3.420  10.196 -0.4925 -0.4781  0.0272
  611MPD2    C4 9054   4.181   3.401  10.331  0.3572  1.0315  0.5621
  611MPD2    C5 9055   4.103   3.321  10.406 -0.1231  0.0440  0.6953
  611MPD2     H 9056   4.012   3.369  10.033  0.0251  1.1165  0.6593
  611MPD2    H1 9057   4.266   3.453  10.375  0.9889  0.4375  0.0367
  611MPD2    H2 9058   3.940   3.192  10.426  2.2576 -2.2174 -0.4487
  611MPD2    H3 9059   4.127   3.311  10.512 -0.6420 -0.1554  0.7909
  611MPD2     N 9060   4.235   3.511  10.126 -0.3688  0.6169 -0.6230
  611MPD2    H5 9061   4.293   3.569  10.186  0.6824 -0.5542 -0.4957
  611MPD2    N1 9062   3.836   3.229  10.188 -0.2843  0.3553  0.1063
  611MPD2    H7 9063   3.787   3.168  10.253  2.7607 -0.3277  1.7393
  612TMC3    C1 9064   4.345   3.634   9.962 -0.0985  0.1278  0.2044
  612TMC3    C2 9065   4.453   3.646  10.042 -0.0952  0.1068  0.5286
  612TMC3    C3 9066   4.538   3.741   9.999 -0.5580 -0.4413 -0.3692
  612TMC3    C4 9067   4.320   3.707   9.847  0.2527  0.1941  0.9873
  612TMC3    C5 9068   4.403   3.812   9.823  0.8260 -0.1297  0.2759
  612TMC3    C6 9069   4.520   3.826   9.890  0.0543  0.4614  1.2868
  612TMC3     C 9070   4.239   3.535   9.997 -0.5942  0.0420  0.4290
  612TMC3     O 9071   4.167   3.501   9.904  0.1195 -0.3205 -0.1002
  612TMC3     H 9072   4.470   3.586  10.131  0.9684 -0.3280  0.0266
  612TMC3    H1 9073   4.226   3.690   9.796  0.3329  1.1493  0.5199
  612TMC3    H2 9074   4.589   3.910   9.883 -2.1963  2.2868  0.8476
  612TMC3    C7 9075   4.386   3.872   9.694 -0.3773 -0.0074 -0.2142
  612TMC3    C8 9076   4.665   3.766  10.074  0.1865 -0.1955  0.6017
  612TMC3    O1 9077   4.328   3.802   9.612 -0.5164 -0.3463  0.2298
  612TMC3    O2 9078   0.019   3.845  10.029  0.7520  0.3941  0.1491
  613MPD2     C 9079   3.761   1.946  15.815  0.2177 -0.2666  0.0020
  613MPD2    C1 9080   3.665   1.847  15.824 -0.2503 -0.2077 -0.5544
  613MPD2    C2 9081   3.698   1.713  15.812 -0.2471 -0.8978 -0.5302
  613MPD2    C3 9082   3.825   1.675  15.786 -1.3674 -0.2893 -0.1424
  613MPD2    C4 9083   3.923   1.771  15.775 -0.0141  0.5149  0.6484
  613MPD2    C5 9084   3.887   1.900  15.788 -0.2453  0.1229 -0.0254
  613MPD2     H 9085   3.623   1.637  15.792  1.1523 -2.6208  0.7795
  613MPD2    H1 9086   4.024   1.738  15.752 -0.4081 -1.1265  1.2948
  613MPD2    H2 9087   3.750   2.053  15.805 -0.9900 -0.1849  2.1142
  613MPD2    H3 9088   3.970   1.970  15.780  1.0237 -1.2999  0.6012
  613MPD2     N 9089   3.867   1.540  15.748 -0.5425 -0.0724  0.8242
  613MPD2    H5 9090   3.961   1.519  15.716 -0.9732  0.0259 -0.5202
  613MPD2    N1 9091   3.529   1.886  15.812 -0.0466  0.3942 -0.6125
  613MPD2    H7 9092   3.515   1.981  15.779 -0.8361  1.0024  1.5102
  614TMC3    C1 9093   3.310   1.819  15.751  0.3744  0.2780  0.0914
  614TMC3    C2 9094   3.347   1.853  15.622 -0.5772 -0.1644  0.0331
  614TMC3    C3 9095   3.295   1.784  15.520  0.6211 -0.3648  0.2362
  614TMC3    C4 9096   3.210   1.727  15.777  0.0101 -0.1938 -0.4217
  614TMC3    C5 9097   3.163   1.660  15.671  0.0990 -0.2427  0.6863
  614TMC3    C6 9098   3.198   1.695  15.543 -0.1736  0.2932  0.1763
  614TMC3     C 9099   3.426   1.807  15.841  0.0269  0.0448 -0.0246
  614TMC3     O 9100   3.433   1.697  15.897  0.3092  0.3949  1.1301
  614TMC3     H 9101   3.425   1.924  15.599 -1.0177  0.6203  0.9273
  614TMC3    H1 9102   3.190   1.702  15.880  0.4106 -0.5465 -0.4285
  614TMC3    H2 9103   3.156   1.649  15.455 -2.6368  1.3778  0.7965
  614TMC3    C7 9104   3.062   1.551  15.690 -0.4349 -0.8104 -0.3089
  614TMC3    C8 9105   3.396   1.720  15.441  0.6498 -0.5366 -0.0513
  614TMC3    O1 9106   3.017   1.540  15.801  0.1442  0.0621 -0.1430
  614TMC3    O2 9107   3.385   1.597  15.441 -0.5712  0.4226 -0.2275
  615MPD2     C 9108   2.816   2.273  15.575 -0.0327  0.0771  1.0297
  615MPD2    C1 9109   2.756   2.187  15.662  0.2306 -0.7786  0.8758
  615MPD2    C2 9110   2.687   2.083  15.606  0.1949  0.4435  0.0920
  615MPD2    C3 9111   2.657   2.062  15.477  0.3343 -0.8186  0.0549
  615MPD2    C4 9112   2.709   2.161  15.389 -0.7482  0.0987 -0.9537
  615MPD2    C5 9113   2.790   2.256  15.439 -0.6549  0.2152  0.5657
  615MPD2     H 9114   2.646   2.014  15.679  0.0129  1.1477  0.6490
  615MPD2    H1 9115   2.687   2.179  15.284  0.3594  0.8406 -1.0467
  615MPD2    H2 9116   2.880   2.353  15.610  1.0310  0.1893 -1.1807
  615MPD2    H3 9117   2.846   2.323  15.375 -2.0350  1.1602  0.3375
  615MPD2     N 9118   2.570   1.963  15.424 -0.0369  0.5901  0.0403
  615MPD2    H5 9119   2.563   1.972  15.323 -1.0604  0.3632  0.0866
  615MPD2    N1 9120   2.754   2.194  15.801 -0.3150 -0.1382  0.3595
  615MPD2    H7 9121   2.710   2.126  15.861  1.3010 -1.1877  0.3446
  616TMC3    C1 9122   2.802   2.288  16.018  0.0345 -0.1681 -0.1082
  616TMC3    C2 9123   2.870   2.381  16.094  0.8896 -0.2487 -0.4310
  616TMC3    C3 9124   2.834   2.406  16.225 -1.0799 -0.1371 -0.1461
  616TMC3    C4 9125   2.711   2.203  16.079 -0.2095 -0.3252 -0.1064
  616TMC3    C5 9126   2.682   2.224  16.213 -0.2885  0.0589 -0.0235
  616TMC3    C6 9127   2.737   2.324  16.289 -0.0869 -0.2674  0.0383
  616TMC3     C 9128   2.818   2.298  15.876 -0.4130  0.1867 -0.3211
  616TMC3     O 9129   2.881   2.391  15.833  0.7935 -0.0432  0.0898
  616TMC3     H 9130   2.933   2.455  16.047 -0.0653  0.1307 -1.1201
  616TMC3    H1 9131   2.652   2.124  16.034  3.0236 -3.1556  0.5894
  616TMC3    H2 9132   2.703   2.347  16.389  0.4403  1.9212 -0.2916
  616TMC3    C7 9133   2.613   2.125  16.279 -0.9000 -0.4615 -0.3742
  616TMC3    C8 9134   2.853   2.531  16.274  0.5701  0.6700  0.4636
  616TMC3    O1 9135   2.659   2.084  16.382 -0.7737 -0.4444 -0.1425
  616TMC3    O2 9136   2.748   2.593  16.288  0.6009 -0.4488 -1.0233
  617MPD2     C 9137   0.780   0.540  13.473  0.0942  0.1872  0.5984
  617MPD2    C1 9138   0.798   0.497  13.602  0.7925 -0.4154  0.2017
  617MPD2    C2 9139   0.697   0.435  13.664 -0.2396 -0.0989 -0.0632
  617MPD2    C3 9140   0.575   0.406  13.600 -0.5778 -0.4658 -0.6175
  617MPD2    C4 9141   0.563   0.433  13.466  0.0956  0.4141  0.4638
  617MPD2    C5 9142   0.665   0.504  13.407 -0.6830 -0.0599 -0.4113
  617MPD2     H 9143   0.716   0.408  13.767  0.1616 -1.3628 -0.4754
  617MPD2    H1 9144   0.470   0.416  13.414  1.0349 -1.3606 -0.6380
  617MPD2    H2 9145   0.857   0.608  13.439  1.0540 -1.9196 -1.4471
  617MPD2    H3 9146   0.652   0.543  13.307  0.1760  0.6349 -0.2522
  617MPD2     N 9147   0.453   0.366  13.663 -0.5377 -0.0694  0.5823
  617MPD2    H5 9148   0.372   0.362  13.603  0.7186 -2.9090 -0.8968
  617MPD2    N1 9149   0.914   0.548  13.655  0.6169 -0.0760 -0.2339
  617MPD2    H7 9150   0.984   0.592  13.595 -0.1521  0.6894 -0.5592
  618TMC3    C1 9151   1.102   0.581  13.794  0.8708 -0.0649 -0.5602
  618TMC3    C2 9152   1.200   0.497  13.755  0.3844  0.5910 -0.4252
  618TMC3    C3 9153   1.321   0.548  13.716 -0.3028  0.2173 -0.5614
  618TMC3    C4 9154   1.117   0.720  13.792 -0.0819 -0.4962  0.2309
  618TMC3    C5 9155   1.238   0.762  13.757 -0.1483 -0.2142 -0.9091
  618TMC3    C6 9156   1.345   0.682  13.728 -0.2182  0.5296 -0.1453
  618TMC3     C 9157   0.965   0.521  13.783 -0.4491  0.2332  0.3473
  618TMC3     O 9158   0.918   0.452  13.871  0.4178 -0.2597  0.0299
  618TMC3     H 9159   1.173   0.393  13.769 -0.2288  0.9941  1.4105
  618TMC3    H1 9160   1.035   0.790  13.802 -1.9484 -2.5306 -0.9643
  618TMC3    H2 9161   1.444   0.715  13.697  0.4106  0.8597  2.2179
  618TMC3    C7 9162   1.261   0.905  13.756  1.2135  0.3321 -0.2506
  618TMC3    C8 9163   1.387   0.463  13.616  0.2331  0.1820  0.3686
  618TMC3    O1 9164   1.224   0.958  13.860 -0.3070  0.0163  0.1663
  618TMC3    O2 9165   1.336   0.350  13.601  0.1701  0.2617  0.3941
  619MPD2     C 9166   2.229   1.797  13.929 -0.2094  0.3816 -0.5487
  619MPD2    C1 9167   2.162   1.872  13.836 -0.2892  0.1026  0.0143
  619MPD2    C2 9168   2.029   1.843  13.813  1.7549  0.2187  0.0101
  619MPD2    C3 9169   1.972   1.731  13.875 -0.6223 -0.3556 -1.0747
  619MPD2    C4 9170   2.041   1.661  13.968 -0.4020 -0.3139  0.3932
  619MPD2    C5 9171   2.177   1.686  13.985 -0.6325 -0.0483 -0.0220
  619MPD2     H 9172   1.981   1.909  13.741 -2.4883 -1.9506  0.8094
  619MPD2    H1 9173   1.998   1.577  14.021 -0.5144 -0.6275 -0.1959
  619MPD2    H2 9174   2.335   1.817  13.930 -0.2395  0.5055  0.3989
  619MPD2    H3 9175   2.238   1.625  14.050 -0.8214 -0.6674 -0.4237
  619MPD2     N 9176   1.840   1.685  13.851 -0.6377  0.1002  0.1607
  619MPD2    H5 9177   1.802   1.607  13.904 -0.9954 -0.8804 -1.5211
  619MPD2    N1 9178   2.218   1.993  13.780 -0.1224  0.0265  0.0210
  619MPD2    H7 9179   2.161   2.044  13.714  0.1058 -0.8102 -0.8243
  620TMC3    C1 9180   2.349   2.179  13.757 -0.4126  0.6568 -0.0184
  620TMC3    C2 9181   2.321   2.194  13.621 -0.3746 -0.1365 -0.1103
  620TMC3    C3 9182   2.346   2.315  13.559 -0.3043 -0.8944  0.0332
  620TMC3    C4 9183   2.398   2.288  13.824  0.2119  0.1132 -0.5268
  620TMC3    C5 9184   2.413   2.409  13.759 -0.5366  0.2580  0.1903
  620TMC3    C6 9185   2.401   2.424  13.626 -0.1166  0.2172  0.3269
  620TMC3     C 9186   2.337   2.049  13.820  0.2034 -0.1618  0.4882
  620TMC3     O 9187   2.406   2.027  13.916  0.3181 -0.0325 -0.5672
  620TMC3     H 9188   2.300   2.108  13.558  2.1918  0.2183 -1.4656
  620TMC3    H1 9189   2.425   2.279  13.929 -0.1633  1.1245 -0.3473
  620TMC3    H2 9190   2.416   2.516  13.569 -1.9894  1.0679  1.2055
  620TMC3    C7 9191   2.388   2.531  13.832 -0.8546  0.6574 -1.1045
  620TMC3    C8 9192   2.322   2.336  13.415  0.8789 -0.3121  0.4855
  620TMC3    O1 9193   2.379   2.632  13.766 -0.2614  0.6539  0.1775
  620TMC3    O2 9194   2.411   2.405  13.368  0.0099  0.0923 -0.4511
  621MPD2     C 9195   2.462   1.276  10.317  0.0339  0.0084  0.3184
  621MPD2    C1 9196   2.586   1.311  10.266  0.3805  0.3167 -0.2378
  621MPD2    C2 9197   2.628   1.437  10.264 -0.2573  0.6036 -0.3038
  621MPD2    C3 9198   2.551   1.532  10.323 -0.2717  0.3346  0.1111
  621MPD2    C4 9199   2.435   1.500  10.382  0.6505  0.3073 -0.2742
  621MPD2    C5 9200   2.382   1.376  10.381 -0.4266  0.5534 -0.3154
  621MPD2     H 9201   2.712   1.471  10.204  1.0402 -0.8019  0.7091
  621MPD2    H1 9202   2.372   1.566  10.440  0.5091 -1.8235  2.0152
  621MPD2    H2 9203   2.407   1.183  10.306  0.7871 -0.2079 -1.7396
  621MPD2    H3 9204   2.293   1.357  10.440  0.0371  0.2442  0.2889
  621MPD2     N 9205   2.605   1.662  10.321  0.1816 -0.0309 -0.1586
  621MPD2    H5 9206   2.692   1.673  10.271  1.0050  1.3363  1.5826
  621MPD2    N1 9207   2.670   1.216  10.196  0.4522 -0.3772  0.1108
  621MPD2    H7 9208   2.760   1.253  10.169  0.7308 -0.9675  0.2247
  622TMC3    C1 9209   2.740   1.014  10.099 -0.0185  0.6782 -0.7624
  622TMC3    C2 9210   2.711   0.882  10.072 -0.2244  0.9491  0.0193
  622TMC3    C3 9211   2.753   0.824   9.952 -0.1252  0.1360  0.1101
  622TMC3    C4 9212   2.799   1.080   9.993 -1.0748 -0.0338 -0.4288
  622TMC3    C5 9213   2.838   1.022   9.876 -0.3159 -0.4595 -0.0497
  622TMC3    C6 9214   2.822   0.891   9.852 -0.2107 -0.7672 -0.1060
  622TMC3     C 9215   2.639   1.081  10.177  0.6415 -0.0983  0.0531
  622TMC3     O 9216   2.547   1.016  10.218  0.1102 -0.6104 -0.3266
  622TMC3     H 9217   2.649   0.824  10.140  0.5855 -1.3793 -1.2249
  622TMC3    H1 9218   2.805   1.189   9.988 -2.9579 -0.1480 -4.8034
  622TMC3    H2 9219   2.839   0.842   9.757  1.6207  1.2594 -0.8184
  622TMC3    C7 9220   2.863   1.112   9.766  0.1495 -0.2815 -0.0360
  622TMC3    C8 9221   2.715   0.684   9.921  0.1668 -0.6400 -0.3767
  622TMC3    O1 9222   2.979   1.120   9.739  0.0583 -0.2846 -0.8578
  622TMC3    O2 9223   2.809   0.624   9.861  0.3469  0.2079  0.2419
  623MPD2     C 9224   1.275   2.378  15.607  0.5748  0.7184 -0.3420
  623MPD2    C1 9225   1.198   2.423  15.714 -0.3159 -0.2775  0.3852
  623MPD2    C2 9226   1.259   2.436  15.839  0.6532  1.1844  0.8198
  623MPD2    C3 9227   1.396   2.416  15.852  0.6211  0.4493  0.3463
  623MPD2    C4 9228   1.473   2.386  15.743  0.5192  0.6799 -0.5864
  623MPD2    C5 9229   1.411   2.358  15.621 -0.6782  0.4775 -0.2724
  623MPD2     H 9230   1.201   2.473  15.922  0.6876  2.7040  0.1763
  623MPD2    H1 9231   1.581   2.375  15.751  0.2307 -1.7209 -0.0118
  623MPD2    H2 9232   1.230   2.362  15.510  0.5346 -1.3369  0.0190
  623MPD2    H3 9233   1.458   2.318  15.532 -0.2823  1.6564 -0.5958
  623MPD2     N 9234   1.447   2.435  15.981  0.5306 -0.0620  0.3147
  623MPD2    H5 9235   1.386   2.474  16.053 -0.4469  0.7363 -0.9444
  623MPD2    N1 9236   1.062   2.433  15.715  0.5537 -0.1371  0.3408
  623MPD2    H7 9237   1.026   2.443  15.809 -1.0220 -2.1111 -0.0398
  624TMC3    C1 9238   1.675   2.369  16.366  0.6937  0.3210 -0.2130
  624TMC3    C2 9239   1.568   2.411  16.437 -0.6955 -0.2795 -0.1925
  624TMC3    C3 9240   1.472   2.468  16.365 -0.5208 -0.2153  0.1165
  624TMC3    C4 9241   1.690   2.390  16.234 -0.6125  0.6048 -0.0751
  624TMC3    C5 9242   1.586   2.453  16.165 -0.0755  0.1991 -0.3216
  624TMC3    C6 9243   1.476   2.497  16.233 -0.2395  1.1177  0.0448
  624TMC3     C 9244   1.754   2.262  16.428 -0.2967 -0.3893  0.1889
  624TMC3     O 9245   1.776   2.279  16.546  0.2227  0.2121  0.5828
  624TMC3     H 9246   1.557   2.387  16.542 -2.1923  0.0079 -0.2752
  624TMC3    H1 9247   1.774   2.348  16.180 -2.4123  1.7584 -3.7962
  624TMC3    H2 9248   1.386   2.536  16.188 -1.2692 -2.4166 -0.9590
  624TMC3    C7 9249   1.576   2.410  16.025  0.3901 -0.2283 -0.2562
  624TMC3    C8 9250   1.342   2.426  16.408 -0.4869 -0.0366 -0.1550
  624TMC3    O1 9251   1.677   2.397  15.955  0.2636 -0.2622  0.1423
  624TMC3    O2 9252   1.279   2.365  16.322 -0.1891 -0.4479  0.2893
  625MPD2     C 9253   1.920   3.232   0.830 -0.1164 -0.1277  0.0546
  625MPD2    C1 9254   2.005   3.335   0.789  0.0347  0.1982 -0.1318
  625MPD2    C2 9255   2.143   3.319   0.797  0.6596  0.4502 -0.3801
  625MPD2    C3 9256   2.198   3.194   0.811 -1.2383 -0.5243  0.4739
  625MPD2    C4 9257   2.115   3.091   0.854  0.3078 -0.9354 -0.2708
  625MPD2    C5 9258   1.978   3.113   0.855  0.2186 -0.3237  0.8088
  625MPD2     H 9259   2.206   3.405   0.775 -2.4529  3.2305  1.4948
  625MPD2    H1 9260   2.153   2.991   0.873  1.3821 -0.1228  1.8276
  625MPD2    H2 9261   1.812   3.232   0.838 -0.1433  1.2453 -0.3483
  625MPD2    H3 9262   1.915   3.026   0.868 -0.5888  0.1630  0.1321
  625MPD2     N 9263   2.332   3.168   0.770 -0.0698  0.3811 -0.5517
  625MPD2    H5 9264   2.384   3.240   0.721  1.9348 -0.3857  0.4353
  625MPD2    N1 9265   1.951   3.463   0.762  0.5515 -0.6308  0.6291
  625MPD2    H7 9266   2.007   3.545   0.741 -0.6984 -0.1193 -0.6663
  626TMC3    C1 9267   1.791   3.607   0.675 -0.2275 -0.0232  0.1739
  626TMC3    C2 9268   1.699   3.616   0.571  0.1605 -0.2543 -0.2926
  626TMC3    C3 9269   1.654   3.747   0.540  0.4666  0.5894 -0.7259
  626TMC3    C4 9270   1.829   3.709   0.755  0.0442  0.0367 -0.0057
  626TMC3    C5 9271   1.779   3.828   0.732  0.0350  0.3556 -0.2562
  626TMC3    C6 9272   1.696   3.848   0.617 -0.0305  0.2959  0.1794
  626TMC3     C 9273   1.824   3.474   0.711 -0.2104  0.9416  0.7590
  626TMC3     O 9274   1.741   3.391   0.677 -0.4389  0.0644 -0.1608
  626TMC3     H 9275   1.674   3.531   0.510 -1.0791 -1.0870  1.3711
  626TMC3    H1 9276   1.918   3.699   0.817 -1.1285  2.5112  2.0639
  626TMC3    H2 9277   1.649   3.944   0.596  1.1361  1.2846  2.0872
  626TMC3    C7 9278   1.803   3.938   0.817 -0.3983  0.0242 -0.5677
  626TMC3    C8 9279   1.534   3.750   0.463 -0.3493  0.5846  0.3550
  626TMC3    O1 9280   1.908   3.939   0.881 -0.0919 -0.0087 -0.0296
  626TMC3    O2 9281   1.461   3.649   0.443 -0.7193  0.1242  0.1010
  627MPD2     C 9282   0.445   4.067  14.410 -0.3127 -0.3271  0.1466
  627MPD2    C1 9283   0.428   4.067  14.546  0.3686  0.0560 -0.4222
  627MPD2    C2 9284   0.399   3.951  14.612  0.0202  0.0405 -0.3367
  627MPD2    C3 9285   0.370   3.836  14.545 -0.1215  0.5919  0.8633
  627MPD2    C4 9286   0.389   3.837  14.407  0.6176  0.0859 -0.9020
  627MPD2    C5 9287   0.432   3.950  14.346  0.6013 -0.2562  0.3000
  627MPD2     H 9288   0.392   3.956  14.720 -1.2386 -0.5826 -0.3963
  627MPD2    H1 9289   0.359   3.752  14.346 -1.1459 -0.5329  0.8222
  627MPD2    H2 9290   0.466   4.161  14.360  1.9104 -0.5523  0.6703
  627MPD2    H3 9291   0.445   3.953  14.239  0.8521 -0.3703  0.3266
  627MPD2     N 9292   0.316   3.715  14.605 -0.0639  0.2544 -0.6454
  627MPD2    H5 9293   0.286   3.644  14.539  1.6815 -1.7165  0.6675
  627MPD2    N1 9294   0.425   4.178  14.632 -0.0790 -0.0259  0.2770
  627MPD2    H7 9295   0.417   4.161  14.731 -0.5298  0.8720  0.3966
  628TMC3    C1 9296   0.404   4.405  14.682 -0.6710 -0.5153  0.7489
  628TMC3    C2 9297   0.459   4.378  14.805 -0.3827  0.0762 -0.5467
  628TMC3    C3 9298   0.462   4.477  14.894 -0.3283  0.1237 -0.6937
  628TMC3    C4 9299   0.357   4.531  14.644  0.4833 -0.2821 -0.4571
  628TMC3    C5 9300   0.352   4.630  14.746  0.3561  0.5479 -1.1884
  628TMC3    C6 9301   0.401   4.600  14.877 -0.0980  0.4184  0.8107
  628TMC3     C 9302   0.415   4.303  14.580  0.9219 -0.0456 -0.0160
  628TMC3     O 9303   0.401   4.347  14.468  0.9022 -0.3177 -0.0239
  628TMC3     H 9304   0.508   4.285  14.832  1.5513  1.4994  0.8435
  628TMC3    H1 9305   0.315   4.558  14.548 -0.5524 -2.1855 -0.5506
  628TMC3    H2 9306   0.413   4.680  14.948 -0.2900 -1.5197  3.0307
  628TMC3    C7 9307   0.304   0.043  14.726  0.4940 -0.4666 -0.4374
  628TMC3    C8 9308   0.531   4.458  15.016 -0.0639  0.6672  1.0177
  628TMC3    O1 9309   0.288   0.112  14.824 -0.1255  0.3496  0.2583
  628TMC3    O2 9310   0.494   4.534  15.102 -0.9134  0.3964 -0.3834
  629MPD2     C 9311   3.139   2.953  16.289 -0.2270 -0.4504  0.6531
  629MPD2    C1 9312   3.216   2.843  16.318  0.0614 -0.0859 -0.7345
  629MPD2    C2 9313   3.160   2.720  16.304  0.2360  0.2284 -0.3567
  629MPD2    C3 9314   3.024   2.704  16.289 -0.0591  0.1040 -0.2105
  629MPD2    C4 9315   2.941   2.814  16.260 -0.6601 -0.2131  0.3985
  629MPD2    C5 9316   3.005   2.939  16.265 -0.6892 -0.1049  0.6601
  629MPD2     H 9317   3.212   2.626  16.320  2.0154  1.0823 -1.0890
  629MPD2    H1 9318   2.835   2.807  16.236 -0.2190  0.1497 -1.6608
  629MPD2    H2 9319   3.182   3.052  16.298 -0.8636  0.0008 -1.1630
  629MPD2    H3 9320   2.938   3.020  16.239  0.7042  0.8945  0.2034
  629MPD2     N 9321   2.984   2.572  16.285 -0.2366  0.5088 -0.0318
  629MPD2    H5 9322   3.056   2.503  16.300 -1.2939 -0.6173 -0.1785
  629MPD2    N1 9323   3.352   2.871  16.349 -0.4547  0.1055  0.1237
  629MPD2    H7 9324   3.381   2.968  16.346  0.2745 -0.1015  0.5566
  630TMC3    C1 9325   3.565   2.842  16.444  0.7155 -0.6383  0.2371
  630TMC3    C2 9326   3.626   2.936  16.369 -0.1285 -0.3882 -0.1413
  630TMC3    C3 9327   3.726   3.008  16.429 -0.2100 -0.4494 -0.5189
  630TMC3    C4 9328   3.597   2.807  16.573  0.1778 -0.4336  0.3635
  630TMC3    C5 9329   3.682   2.892  16.634  0.0801  0.3293 -0.1143
  630TMC3    C6 9330   3.754   2.988  16.565 -0.0033  0.1848  0.0798
  630TMC3     C 9331   3.440   2.781  16.396 -0.3522 -1.0212 -0.7796
  630TMC3     O 9332   3.415   2.667  16.436 -0.1759  0.3466 -0.1723
  630TMC3     H 9333   3.600   2.958  16.267  0.1937 -0.1761 -0.1777
  630TMC3    H1 9334   3.533   2.750  16.639 -1.3513 -0.0648 -0.8161
  630TMC3    H2 9335   3.838   3.043  16.607 -0.1465  0.1889  0.3603
  630TMC3    C7 9336   3.688   2.893  16.781 -0.0646  0.1151  0.0790
  630TMC3    C8 9337   3.772   3.137  16.377  0.2695 -0.1236 -0.2226
  630TMC3    O1 9338   3.614   2.812  16.836  0.2652 -0.0858 -0.5786
  630TMC3    O2 9339   3.858   3.193  16.447  0.4414  0.4472 -0.4282
  631MPD2     C 9340   1.749   2.311  15.510  0.8922 -0.0273  1.2871
  631MPD2    C1 9341   1.875   2.336  15.454 -0.0602 -0.4223  0.5694
  631MPD2    C2 9342   1.968   2.237  15.448 -0.3219 -0.4831  0.3418
  631MPD2    C3 9343   1.943   2.109  15.489  0.0316 -0.0414 -0.3466
  631MPD2    C4 9344   1.820   2.081  15.541 -0.4249 -0.1514 -0.5016
  631MPD2    C5 9345   1.725   2.180  15.557  0.0193 -0.1996 -0.1529
  631MPD2     H 9346   2.069   2.247  15.410 -0.9878 -0.2933 -1.4004
  631MPD2    H1 9347   1.786   1.986  15.581 -0.7731  0.7286  1.3050
  631MPD2    H2 9348   1.683   2.396  15.519  2.0621  1.0082  0.1359
  631MPD2    H3 9349   1.628   2.158  15.600  0.3609  1.3487  1.4255
  631MPD2     N 9350   2.047   2.016  15.474 -0.1078  0.7189  0.1721
  631MPD2    H5 9351   2.132   2.052  15.433  0.8258 -0.9737  0.5890
  631MPD2    N1 9352   1.900   2.469  15.408  0.2326 -0.0423 -0.6579
  631MPD2    H7 9353   1.831   2.542  15.421 -2.3573 -2.4276 -1.0284
  632TMC3    C1 9354   2.015   2.646  15.293 -0.1562 -0.2136 -0.5193
  632TMC3    C2 9355   1.903   2.718  15.314 -0.5201 -0.0747  0.1863
  632TMC3    C3 9356   1.884   2.830  15.231 -0.3297  0.4237 -0.5346
  632TMC3    C4 9357   2.101   2.672  15.187 -0.1409  0.1291 -0.3088
  632TMC3    C5 9358   2.075   2.778  15.106 -0.2208 -0.0791  0.0296
  632TMC3    C6 9359   1.968   2.864  15.128 -0.0850  0.1832 -0.3780
  632TMC3     C 9360   2.016   2.507  15.347 -0.4435 -0.1737  0.1157
  632TMC3     O 9361   2.085   2.435  15.274 -0.3519  0.5161 -0.4701
  632TMC3     H 9362   1.845   2.715  15.405  0.3923 -1.5972  0.7152
  632TMC3    H1 9363   2.192   2.613  15.188 -0.1472  0.0944 -1.2592
  632TMC3    H2 9364   1.972   2.964  15.086  1.8480 -0.2059 -1.1114
  632TMC3    C7 9365   2.142   2.791  14.976 -0.3891 -0.1410  0.4153
  632TMC3    C8 9366   1.768   2.908  15.271 -0.8757  0.4203 -0.5347
  632TMC3    O1 9367   2.125   2.899  14.924 -0.8002  0.2872 -0.1970
  632TMC3    O2 9368   1.717   2.896  15.386  0.2126 -0.4772  0.2857
  633MPD2     C 9369   0.779   1.177  17.280  0.9329  0.0918 -0.1697
  633MPD2    C1 9370   0.853   1.092  17.193  0.5608 -1.0383 -0.2468
  633MPD2    C2 9371   0.855   0.958  17.231 -0.4690 -0.2937  0.3792
  633MPD2    C3 9372   0.793   0.909  17.342 -0.0983 -0.5783  0.1669
  633MPD2    C4 9373   0.737   0.994  17.437  0.3666  0.7568 -0.1330
  633MPD2    C5 9374   0.723   1.129  17.399  0.1920  0.2837 -0.0675
  633MPD2     H 9375   0.905   0.893  17.160 -0.1819 -0.3969  0.6782
  633MPD2    H1 9376   0.698   0.958  17.532  3.7049 -1.6445  0.3294
  633MPD2    H2 9377   0.767   1.283  17.261 -1.3111 -0.0254  0.5905
  633MPD2    H3 9378   0.667   1.195  17.463 -0.4859 -0.6254  0.2727
  633MPD2     N 9379   0.806   0.771  17.370  0.4972 -0.2153 -0.2031
  633MPD2    H5 9380   0.869   0.715  17.314  2.1250  1.6784 -0.2645
  633MPD2    N1 9381   0.908   1.132  17.065  0.5819 -0.3286  0.3732
  633MPD2    H7 9382   0.939   1.047  17.020  1.3208 -0.3059  0.8586
  634TMC3    C1 9383   0.976   1.235  16.875 -0.5256  0.2937  0.1564
  634TMC3    C2 9384   0.995   1.107  16.817  0.7215 -0.4158 -0.2174
  634TMC3    C3 9385   1.033   1.089  16.689  0.0353 -0.4223 -0.1919
  634TMC3    C4 9386   1.003   1.345  16.799  0.1343 -0.5707  0.5863
  634TMC3    C5 9387   1.062   1.325  16.677  0.1295  0.4090 -0.2691
  634TMC3    C6 9388   1.076   1.201  16.618 -0.7232  0.2357 -1.0700
  634TMC3     C 9389   0.916   1.254  17.010 -0.8320  0.5922 -0.3732
  634TMC3     O 9390   0.874   1.361  17.046  0.6385  0.1926  0.2121
  634TMC3     H 9391   0.986   1.018  16.878  1.1886 -0.0825  0.3353
  634TMC3    H1 9392   0.967   1.442  16.832  1.4543 -0.1742  0.8311
  634TMC3    H2 9393   1.117   1.192  16.518 -1.7386 -1.8279 -1.3084
  634TMC3    C7 9394   1.077   1.446  16.592 -0.4479 -1.0666 -0.7659
  634TMC3    C8 9395   1.012   0.964  16.628 -0.3743 -0.9664 -0.4459
  634TMC3    O1 9396   1.117   1.419  16.481  0.2307  0.0857 -0.0263
  634TMC3    O2 9397   0.954   0.872  16.680 -0.4081 -0.1298  0.6253
  635TMC3    C1 9398   2.226   0.780  17.382  0.7757 -0.1798 -0.2503
  635TMC3    C2 9399   2.357   0.739  17.397 -0.1487  0.1095  0.2104
  635TMC3    C3 9400   2.385   0.633  17.312  0.0128  0.3738 -0.4589
  635TMC3    C4 9401   2.130   0.700  17.323 -0.0053  0.5701  0.0907
  635TMC3    C5 9402   2.169   0.587  17.255 -0.5662 -0.0283  0.5569
  635TMC3    C6 9403   2.296   0.549  17.250  0.1459 -0.0628 -0.8106
  635TMC3     C 9404   2.183   0.906  17.434  0.4977  0.2379 -0.0569
  635TMC3     O 9405   2.080   0.950  17.388  0.0691  0.4508  0.2861
  635TMC3     H 9406   2.435   0.803  17.436  1.6528 -1.5125 -0.7101
  635TMC3    H1 9407   2.034   0.736  17.288 -0.2771 -1.6155 -1.3912
  635TMC3    H2 9408   2.322   0.450  17.216 -0.9352 -1.6336  2.8931
  635TMC3    C7 9409   2.086   0.518  17.161 -0.2173 -0.1824 -0.7257
  635TMC3    C8 9410   2.525   0.598  17.297  0.1178 -0.1680  0.2128
  635TMC3    O1 9411   2.141   0.455  17.072 -1.0929 -0.4511 -0.4461
  635TMC3    O2 9412   2.600   0.646  17.377  0.0889  0.2746 -0.1589
  636MPD2     C 9413   3.125   0.870  15.672  0.4286  0.4721  0.6081
  636MPD2    C1 9414   3.140   0.992  15.731  0.0827 -0.0954 -0.3229
  636MPD2    C2 9415   3.266   1.053  15.722 -0.3538  0.3114  0.3771
  636MPD2    C3 9416   3.380   0.998  15.660 -0.1024  0.0557 -0.0866
  636MPD2    C4 9417   3.357   0.875  15.600 -0.5868  0.0853  0.4899
  636MPD2    C5 9418   3.231   0.814  15.613 -0.0172  0.1661 -0.1716
  636MPD2     H 9419   3.270   1.152  15.766 -1.6006  0.1735  0.7897
  636MPD2    H1 9420   3.438   0.812  15.564  0.6169  2.6839 -1.3984
  636MPD2    H2 9421   3.029   0.820  15.677  0.8436 -0.2115  2.0071
  636MPD2    H3 9422   3.227   0.716  15.566 -0.7154 -0.5106  1.2856
  636MPD2     N 9423   3.507   1.070  15.649 -0.5827  0.1661  0.4063
  636MPD2    H5 9424   3.519   1.156  15.702  0.7069  0.9481 -1.1491
  636MPD2    N1 9425   3.042   1.056  15.812 -0.5415  0.3046  0.2351
  636MPD2    H7 9426   3.070   1.136  15.868  3.0391 -0.6979 -0.0899
  637TMC3    C1 9427   3.715   1.127  15.581  0.6170  0.5950 -0.0939
  637TMC3    C2 9428   3.742   1.197  15.696 -0.0400  0.0816  0.0240
  637TMC3    C3 9429   3.823   1.309  15.686 -0.6330 -0.1395  0.7716
  637TMC3    C4 9430   3.762   1.159  15.454  0.0722  0.7231 -0.0237
  637TMC3    C5 9431   3.842   1.265  15.445 -0.2968 -0.2573  0.1985
  637TMC3    C6 9432   3.869   1.334  15.559 -0.0211 -0.5539  0.3680
  637TMC3     C 9433   3.615   1.020  15.585 -0.0213 -0.2372  0.0488
  637TMC3     O 9434   3.624   0.928  15.504 -0.6294 -0.3516 -0.3322
  637TMC3     H 9435   3.698   1.178  15.793 -2.1473 -1.2564 -1.1736
  637TMC3    H1 9436   3.733   1.105  15.364 -0.9796  0.1993  0.6309
  637TMC3    H2 9437   3.937   1.415  15.536  1.0415 -1.1509  1.3591
  637TMC3    C7 9438   3.779   1.354  15.347  0.0599 -0.2096  0.0651
  637TMC3    C8 9439   3.777   1.435  15.750  0.2808 -0.2407 -0.6110
  637TMC3    O1 9440   3.658   1.344  15.342 -0.1901 -0.9782 -0.4262
  637TMC3    O2 9441   3.670   1.428  15.815 -0.2526 -0.1798 -0.0161
  638MPD2     C 9442   2.458   0.032  14.694  0.1616  0.1187  0.3330
  638MPD2    C1 9443   2.509   4.633  14.648 -0.3646  0.1477 -0.3861
  638MPD2    C2 9444   2.489   4.522  14.731  0.8547  0.2833 -0.0242
  638MPD2    C3 9445   2.428   4.530  14.857  0.0454 -0.4188  0.5192
  638MPD2    C4 9446   2.383   4.652  14.904 -0.0229  0.0809  0.1158
  638MPD2    C5 9447   2.396   0.033  14.817 -0.7187 -0.2378  0.2870
  638MPD2     H 9448   2.519   4.426  14.691 -1.4610 -0.8168  0.8459
  638MPD2    H1 9449   2.327   4.661  14.996 -0.1800 -1.0948  0.1390
  638MPD2    H2 9450   2.472   0.120  14.632  0.1528 -0.5036 -0.5544
  638MPD2    H3 9451   2.354   0.127  14.850  2.8285  0.7300  1.9795
  638MPD2     N 9452   2.411   4.412  14.932 -0.9006  0.5936  0.1477
  638MPD2    H5 9453   2.459   4.330  14.895 -2.5080 -0.4970  0.4578
  638MPD2    N1 9454   2.568   4.642  14.514 -0.6177  0.1652 -0.3064
  638MPD2    H7 9455   2.563   0.010  14.471 -1.0141  0.2769 -0.0162
  639TMC3    C1 9456   2.339   4.268  15.091 -0.4294 -0.1212  0.0106
  639TMC3    C2 9457   2.230   4.212  15.147 -0.0694  0.3908  0.1165
  639TMC3    C3 9458   2.222   4.077  15.175  0.1760  0.7632 -0.2070
  639TMC3    C4 9459   2.453   4.195  15.069 -0.6205  0.1770 -0.0980
  639TMC3    C5 9460   2.441   4.055  15.089  0.0853  0.1635  0.3021
  639TMC3    C6 9461   2.334   3.997  15.150  0.6748 -0.6657  0.1103
  639TMC3     C 9462   2.340   4.399  15.048 -1.3924 -0.7226  0.6391
  639TMC3     O 9463   2.249   4.473  15.086  0.1946  0.1758  0.3735
  639TMC3     H 9464   2.146   4.279  15.163  0.4591  1.2474 -0.6404
  639TMC3    H1 9465   2.548   4.235  15.036 -1.3803  2.0442 -0.0087
  639TMC3    H2 9466   2.346   3.894  15.183  0.0470 -0.2862  1.5476
  639TMC3    C7 9467   2.562   3.972  15.068 -0.6763 -0.1041  0.5288
  639TMC3    C8 9468   2.096   4.021  15.148 -0.4098 -0.0099 -0.4524
  639TMC3    O1 9469   2.570   3.878  15.147 -0.2474 -0.2288  0.0845
  639TMC3    O2 9470   1.999   4.078  15.194 -0.4770  0.0054 -0.3659
  640MPD2     C 9471   2.566   2.926  10.305  0.4700  0.9033 -0.3946
  640MPD2    C1 9472   2.610   3.023  10.221 -0.1165  0.7303 -0.2234
  640MPD2    C2 9473   2.541   3.144  10.193 -0.1276 -0.5044 -0.1245
  640MPD2    C3 9474   2.418   3.157  10.264  0.0921  0.3912 -0.1662
  640MPD2    C4 9475   2.381   3.064  10.359  0.8696  0.1169  0.0226
  640MPD2    C5 9476   2.456   2.947  10.379  0.7210 -0.4206  0.4505
  640MPD2     H 9477   2.595   3.223  10.141 -1.2545 -0.1583 -0.7682
  640MPD2    H1 9478   2.292   3.080  10.418 -0.0843  2.4228 -2.0315
  640MPD2    H2 9479   2.619   2.834  10.325  0.5504  0.7409 -1.3481
  640MPD2    H3 9480   2.421   2.878  10.455 -2.0613  2.1128  1.4381
  640MPD2     N 9481   2.333   3.270  10.259 -0.0358 -0.2923 -0.3222
  640MPD2    H5 9482   2.249   3.280  10.314 -0.9069  0.1061 -1.7376
  640MPD2    N1 9483   2.734   2.998  10.161  0.1681 -0.1652  0.6569
  640MPD2    H7 9484   2.783   2.914  10.190 -1.9013 -1.6726 -0.2018
  641TMC3    C1 9485   2.912   2.995  10.013 -0.1829  0.0305 -1.3172
  641TMC3    C2 9486   2.965   2.906  10.107 -0.1415 -0.2271  0.0252
  641TMC3    C3 9487   3.069   2.833  10.059  0.5367  0.4285 -0.5459
  641TMC3    C4 9488   2.952   3.013   9.888  0.4421 -0.0993  0.0067
  641TMC3    C5 9489   3.056   2.932   9.848 -0.1983 -0.0236 -0.0900
  641TMC3    C6 9490   3.116   2.844   9.930 -0.5481  0.0066 -0.4979
  641TMC3     C 9491   2.788   3.065  10.051  0.4901  0.6764  0.5270
  641TMC3     O 9492   2.762   3.171  10.001 -0.0441  0.3156 -0.0758
  641TMC3     H 9493   2.945   2.911  10.213  3.3855 -0.5991  0.7223
  641TMC3    H1 9494   2.910   3.091   9.825 -0.8136 -1.0834 -0.3574
  641TMC3    H2 9495   3.174   2.762   9.889  0.5695 -0.4815  2.0881
  641TMC3    C7 9496   3.150   3.020   9.778 -0.2222 -0.1234 -0.1760
  641TMC3    C8 9497   3.185   2.788  10.138 -0.4710 -0.2913  0.0133
  641TMC3    O1 9498   3.102   3.120   9.727  0.1518  0.2882 -1.2082
  641TMC3    O2 9499   3.292   2.816  10.086  0.3986 -0.3174  0.2562
  642TMC3    C1 9500   3.925   4.556  11.846  0.2593 -0.3022 -0.3915
  642TMC3    C2 9501   4.058   4.562  11.873 -0.6409 -0.3321  0.0568
  642TMC3    C3 9502   4.135   4.449  11.861  0.3865  0.1721  0.2937
  642TMC3    C4 9503   3.858   4.443  11.811  0.7639 -0.0658 -0.1915
  642TMC3    C5 9504   3.935   4.332  11.810 -0.9082 -0.4478 -0.0099
  642TMC3    C6 9505   4.068   4.334  11.830  0.2506  0.7321 -0.4998
  642TMC3     C 9506   3.843   4.669  11.890  0.1152 -0.2061 -0.1851
  642TMC3     O 9507   3.720   4.646  11.898  0.2276 -0.2673 -0.0629
  642TMC3     H 9508   4.101   4.643  11.930 -0.5853  0.7296 -1.4637
  642TMC3    H1 9509   3.750   4.431  11.807  0.7647 -0.6590  1.4530
  642TMC3    H2 9510   4.130   4.246  11.815 -0.3922  0.1562  0.2278
  642TMC3    C7 9511   3.875   4.204  11.808  0.0984 -0.1297 -0.4188
  642TMC3    C8 9512   4.222   4.435  11.976 -0.4156  0.4757 -0.1087
  642TMC3    O1 9513   3.893   4.124  11.717  0.3410 -0.2347 -0.3649
  642TMC3    O2 9514   4.214   4.341  12.055  0.5601  0.1356 -0.3215
  643TMC3    C1 9515   2.999   3.727  17.577  0.0592 -0.4868  0.3224
  643TMC3    C2 9516   2.973   3.806  17.472  0.1462 -0.1058  0.7572
  643TMC3    C3 9517   2.929   3.744  17.355 -0.4582 -0.2283 -0.1611
  643TMC3    C4 9518   2.988   3.594  17.578  0.4227 -0.0592 -0.3195
  643TMC3    C5 9519   2.950   3.537  17.460  0.4411  0.3651  0.4347
  643TMC3    C6 9520   2.917   3.613  17.348 -0.7977 -0.1958 -0.7906
  643TMC3     C 9521   3.053   3.804  17.694  0.5746 -0.0863  0.6731
  643TMC3     O 9522   3.024   3.917   0.020  0.8013 -0.1451  0.2346
  643TMC3     H 9523   2.984   3.913  17.483 -2.0837 -0.0403  2.3319
  643TMC3    H1 9524   2.985   3.530  17.666  2.2568  2.3040  1.4453
  643TMC3    H2 9525   2.859   3.568  17.268 -2.1484  0.8793 -0.4083
  643TMC3    C7 9526   2.895   3.404  17.459  0.0200 -0.3608  0.4988
  643TMC3    C8 9527   2.974   3.797  17.228  0.1122  0.2808 -0.0798
  643TMC3    O1 9528   2.843   3.370  17.563 -0.3964 -1.0092 -0.2814
  643TMC3    O2 9529   2.956   3.724  17.132 -0.2743  0.7020  0.1936
  644MPD2     C 9530   3.938   3.756   9.885  0.0561 -0.0217 -0.1222
  644MPD2    C1 9531   3.956   3.736   9.749 -0.4261  0.1584 -0.3294
  644MPD2    C2 9532   3.959   3.854   9.666 -0.2130  0.3156  0.3497
  644MPD2    C3 9533   3.954   3.981   9.726  0.5593  0.3095 -0.0892
  644MPD2    C4 9534   3.931   3.998   9.856 -0.3037  0.3872  0.4730
  644MPD2    C5 9535   3.923   3.886   9.934  0.8135  0.3802 -0.1381
  644MPD2     H 9536   3.977   3.847   9.559 -0.6673  0.1123  0.2878
  644MPD2    H1 9537   3.906   4.089   9.909  2.3407  1.0932  0.5165
  644MPD2    H2 9538   3.940   3.682   9.965 -1.5003 -2.2925 -2.1655
  644MPD2    H3 9539   3.912   3.900  10.041 -0.1662  0.2672 -0.2272
  644MPD2     N 9540   3.969   4.089   9.640 -0.3544 -0.5129 -0.3359
  644MPD2    H5 9541   3.986   4.061   9.544  2.7771  0.3776 -0.0370
  644MPD2    N1 9542   3.974   3.603   9.707 -0.1670  0.1691  0.0280
  644MPD2    H7 9543   3.986   3.530   9.776 -0.1758 -0.3753 -0.5497
  645TMC3    C1 9544   3.997   4.307   9.578  0.0603 -0.8518  0.7724
  645TMC3    C2 9545   3.968   4.439   9.602 -0.6459 -0.0811  0.6188
  645TMC3    C3 9546   4.010   4.529   9.507 -0.9611 -0.1098 -0.1679
  645TMC3    C4 9547   4.059   4.265   9.460  0.3653 -0.1006  0.5236
  645TMC3    C5 9548   4.097   4.361   9.368 -0.0121 -0.4661  0.1165
  645TMC3    C6 9549   4.083   4.493   9.391 -0.2351 -0.3612  0.3744
  645TMC3     C 9550   3.974   4.215   9.679  1.2997  0.0453  0.6002
  645TMC3     O 9551   3.980   4.267   9.787 -0.5000 -0.1098  0.0789
  645TMC3     H 9552   3.902   4.480   9.678  1.2122  0.3573  1.9900
  645TMC3    H1 9553   4.079   4.160   9.447 -2.9602 -0.8284  1.3113
  645TMC3    H2 9554   4.118   4.560   9.314  0.7226  0.0449  1.1486
  645TMC3    C7 9555   4.151   4.327   9.243  0.1029  0.2148  0.0945
  645TMC3    C8 9556   4.020   4.670   9.556 -0.3453  0.2737 -0.7683
  645TMC3    O1 9557   4.211   4.416   9.185 -0.2707 -0.3046 -0.5029
  645TMC3    O2 9558   3.929   4.713   9.627 -0.1817 -0.1818  0.4344
  646MPD2     C 9559   2.594   3.151  14.564 -0.6540  0.4008  0.1375
  646MPD2    C1 9560   2.494   3.188  14.652 -0.5304  0.3254 -0.6769
  646MPD2    C2 9561   2.408   3.290  14.616 -0.0219 -0.2761  0.3116
  646MPD2    C3 9562   2.408   3.342  14.488  0.1263 -0.6139 -0.7731
  646MPD2    C4 9563   2.509   3.308  14.401  0.4863 -0.3011 -0.0531
  646MPD2    C5 9564   2.600   3.218  14.441  0.1473 -0.7617  0.0386
  646MPD2     H 9565   2.328   3.314  14.684 -0.2036  0.3565 -0.1350
  646MPD2    H1 9566   2.521   3.361  14.307 -0.6228  0.8270  0.4382
  646MPD2    H2 9567   2.667   3.073  14.582 -1.2620 -0.1271  0.3251
  646MPD2    H3 9568   2.668   3.186  14.363 -0.0955  0.8981 -0.8564
  646MPD2     N 9569   2.306   3.435  14.454  0.1764  0.2358 -0.1360
  646MPD2    H5 9570   2.233   3.446  14.523 -2.3410 -3.1660 -2.2424
  646MPD2    N1 9571   2.508   3.121  14.777 -0.0731  0.2565  0.0045
  646MPD2    H7 9572   2.579   3.050  14.791 -1.3363 -0.8434  0.9309
  647TMC3    C1 9573   2.501   3.096  15.001  0.5541 -0.3901  0.7496
  647TMC3    C2 9574   2.500   2.957  15.001 -0.1705 -0.8292  0.3250
  647TMC3    C3 9575   2.518   2.891  15.123 -0.1986  0.1450 -0.3614
  647TMC3    C4 9576   2.544   3.170  15.106 -0.4817 -0.6691 -0.4212
  647TMC3    C5 9577   2.556   3.102  15.227 -0.3461  0.5563  0.3788
  647TMC3    C6 9578   2.530   2.970  15.243 -0.0236 -0.0556  0.1170
  647TMC3     C 9579   2.442   3.164  14.888  1.2436 -0.1499  0.4780
  647TMC3     O 9580   2.361   3.255  14.908 -0.3154  0.3283 -0.0492
  647TMC3     H 9581   2.471   2.895  14.917 -0.9874 -1.4672  1.0703
  647TMC3    H1 9582   2.549   3.276  15.083 -0.3911 -0.6553 -0.3374
  647TMC3    H2 9583   2.553   2.926  15.339 -1.9222 -3.1717 -0.8624
  647TMC3    C7 9584   2.676   3.150  15.296  0.6095 -0.1035  0.3014
  647TMC3    C8 9585   2.618   2.786  15.121 -0.0428  0.3603  0.5120
  647TMC3    O1 9586   2.724   3.064  15.373  0.2816  0.3868 -0.3241
  647TMC3    O2 9587   2.670   2.767  15.225  0.4027  0.4142 -0.0151
  648TMC3    C1 9588   1.528   0.832  15.654 -0.1172 -0.1129  0.1141
  648TMC3    C2 9589   1.572   0.728  15.576  0.0035  1.0176  0.4099
  648TMC3    C3 9590   1.572   0.756  15.443  0.2946  0.2524  0.3135
  648TMC3    C4 9591   1.494   0.954  15.602  0.1354 -0.4590  0.4834
  648TMC3    C5 9592   1.487   0.970  15.469 -0.1347 -0.6425  0.7161
  648TMC3    C6 9593   1.527   0.872  15.388 -0.9664 -0.1586  0.3087
  648TMC3     C 9594   1.502   0.812  15.795 -0.1346  0.2011 -0.2377
  648TMC3     O 9595   1.494   0.907  15.869 -0.4470 -0.3133 -0.2487
  648TMC3     H 9596   1.590   0.630  15.619  0.4752  1.7358  1.8474
  648TMC3    H1 9597   1.428   1.023  15.654 -0.1977  0.0130 -0.5688
  648TMC3    H2 9598   1.521   0.892  15.281  1.4615 -0.5598  0.1069
  648TMC3    C7 9599   1.411   1.065  15.406  1.1329  0.0239 -0.2189
  648TMC3    C8 9600   1.600   0.654  15.349  0.3893  0.0919  0.8796
  648TMC3    O1 9601   1.346   1.036  15.305  0.3689  0.4798  0.1338
  648TMC3    O2 9602   1.532   0.656  15.249  0.1618 -0.1452 -0.3391
  649TMC3    C1 9603   0.501   1.943  12.985  0.3852 -0.4146  0.3436
  649TMC3    C2 9604   0.625   1.998  12.983  0.4037  0.1012 -0.3850
  649TMC3    C3 9605   0.719   1.929  13.052  0.2710 -0.9446 -0.1401
  649TMC3    C4 9606   0.460   1.831  13.056  0.5714  0.3721  0.0294
  649TMC3    C5 9607   0.563   1.773  13.123  0.8572 -0.3028  0.1469
  649TMC3    C6 9608   0.694   1.818  13.128  0.5671 -0.3777  0.0912
  649TMC3     C 9609   0.393   2.029  12.928 -0.1207 -0.5386 -0.3254
  649TMC3     O 9610   0.407   2.147  12.950  0.3339 -0.1008 -0.2810
  649TMC3     H 9611   0.636   2.084  12.918 -0.7186  1.2585  0.9504
  649TMC3    H1 9612   0.356   1.805  13.074  0.2136  1.2774 -0.7411
  649TMC3    H2 9613   0.774   1.771  13.185  1.5734 -2.1674 -2.7722
  649TMC3    C7 9614   0.527   1.711  13.248  0.0046 -0.4117  0.1870
  649TMC3    C8 9615   0.862   1.959  13.038 -0.1751  0.1149  0.4922
  649TMC3    O1 9616   0.585   1.744  13.344  0.7762 -0.7049  0.3412
  649TMC3    O2 9617   0.937   1.882  13.096  0.3467 -0.3811 -0.0543
  650TMC3    C1 9618   3.371   3.876  12.420 -0.3811  0.6353  0.2636
  650TMC3    C2 9619   3.332   4.004  12.442  0.1617  0.6195 -1.0850
  650TMC3    C3 9620   3.227   4.057  12.375  0.9887 -0.1072  0.0690
  650TMC3    C4 9621   3.304   3.801  12.324 -0.3359 -0.7141  0.3941
  650TMC3    C5 9622   3.207   3.857  12.248  0.1906 -0.6442 -0.1609
  650TMC3    C6 9623   3.161   3.985  12.278  0.6078  1.2097 -0.6031
  650TMC3     C 9624   3.498   3.840  12.483  0.7855 -0.2045  0.6986
  650TMC3     O 9625   3.567   3.932  12.521 -0.2041  0.3373 -1.1976
  650TMC3     H 9626   3.402   4.062  12.501 -0.9923 -0.6227  1.4880
  650TMC3    H1 9627   3.347   3.709  12.286 -1.3292 -1.7582  1.7727
  650TMC3    H2 9628   3.101   4.036  12.205 -0.1300  0.9492 -0.1834
  650TMC3    C7 9629   3.134   3.777  12.149 -0.0428  0.0272 -0.0278
  650TMC3    C8 9630   3.195   4.199  12.403 -0.2046  0.1483  0.6821
  650TMC3    O1 9631   3.198   3.687  12.096 -0.0349  0.3905  0.3569
  650TMC3    O2 9632   3.288   4.268  12.451  0.2063  0.5045 -0.1042
  651MPD2     C 9633   2.447   0.308  10.777 -0.4364 -0.4421 -0.2238
  651MPD2    C1 9634   2.439   0.434  10.820 -0.1607 -0.0449  0.5091
  651MPD2    C2 9635   2.559   0.512  10.821 -0.6043 -0.2406  1.0657
  651MPD2    C3 9636   2.666   0.463  10.750  0.4957 -0.9392 -0.1607
  651MPD2    C4 9637   2.669   0.334  10.697  0.1915  0.4200 -0.3858
  651MPD2    C5 9638   2.554   0.263  10.712 -0.1999 -0.5740 -0.5116
  651MPD2     H 9639   2.563   0.608  10.872 -1.2064 -0.9433  2.4240
  651MPD2    H1 9640   2.752   0.299  10.636  1.5729  1.9523  0.6006
  651MPD2    H2 9641   2.359   0.248  10.759 -1.7046 -0.2326  5.2277
  651MPD2    H3 9642   2.536   0.164  10.670 -0.0501 -0.6864 -0.3125
  651MPD2     N 9643   2.765   0.553  10.732  0.4179 -0.1816 -0.0590
  651MPD2    H5 9644   2.758   0.628  10.801  0.4107  1.5189 -1.9173
  651MPD2    N1 9645   2.320   0.490  10.869  0.4333  0.5001 -0.1764
  651MPD2    H7 9646   2.316   0.590  10.885 -1.4018  0.5633 -0.9836
  652TMC3    C1 9647   3.154   0.771  10.603 -0.2896  0.8119 -0.5142
  652TMC3    C2 9648   3.082   0.655  10.611 -0.2236  0.2277 -0.3364
  652TMC3    C3 9649   2.970   0.662  10.685  0.6430 -0.7440 -0.6483
  652TMC3    C4 9650   3.116   0.881  10.673  0.3136  0.2386 -0.5473
  652TMC3    C5 9651   3.002   0.875  10.749  0.5215 -0.1391  0.1409
  652TMC3    C6 9652   2.929   0.766  10.761  0.8248  0.5653 -0.1802
  652TMC3     C 9653   3.293   0.770  10.572  0.4948  0.1214  0.4232
  652TMC3     O 9654   3.371   0.676  10.597  0.1789 -0.2576 -0.1193
  652TMC3     H 9655   3.108   0.564  10.558  0.4447  0.6024 -0.6493
  652TMC3    H1 9656   3.184   0.963  10.692 -2.2988  2.2410  0.2083
  652TMC3    H2 9657   2.835   0.783  10.813  0.2521 -0.9525 -0.7430
  652TMC3    C7 9658   2.992   0.977  10.855  0.1952  0.0070 -0.1388
  652TMC3    C8 9659   2.882   0.549  10.659 -0.4326  0.8639  0.2422
  652TMC3    O1 9660   2.913   0.957  10.943  0.3392 -0.2993 -0.3258
  652TMC3    O2 9661   2.916   0.463  10.578  0.1346  0.0715 -0.4775
  653MPD2     C 9662   1.015   0.633   0.048  0.2726  0.1706 -0.2998
  653MPD2    C1 9663   0.913   0.722   0.039 -0.6885 -0.0449 -0.2230
  653MPD2    C2 9664   0.784   0.693   0.084  0.7164 -0.1249 -0.2435
  653MPD2    C3 9665   0.756   0.563   0.122  0.6547 -0.9816 -0.4125
  653MPD2    C4 9666   0.857   0.468   0.137 -0.3060  0.5295 -0.6532
  653MPD2    C5 9667   0.988   0.505   0.098  0.2213 -0.3023  0.1138
  653MPD2     H 9668   0.705   0.767   0.085 -0.3449 -1.2274 -1.8745
  653MPD2    H1 9669   0.845   0.367   0.172 -1.6055  0.3427 -1.6185
  653MPD2    H2 9670   1.120   0.643   0.022  0.5244 -1.8491  0.0005
  653MPD2    H3 9671   1.071   0.437   0.112  1.5920  1.1883 -0.7425
  653MPD2     N 9672   0.625   0.528   0.140 -0.2969 -0.0973 -0.0969
  653MPD2    H5 9673   0.568   0.587   0.080 -1.3235  0.7812  1.7443
  653MPD2    N1 9674   0.932   0.856   0.001  0.5176  0.2913  0.3687
  653MPD2    H7 9675   0.865   0.924   0.034  0.1268  0.8693 -1.5864
  654TMC3    C1 9676   0.478   0.359   0.088 -0.1597 -0.5339  0.8654
  654TMC3    C2 9677   0.412   0.453   0.002  0.5817  0.2170  0.6088
  654TMC3    C3 9678   0.347   0.402  17.594 -0.3492  0.0743 -0.1938
  654TMC3    C4 9679   0.497   0.231   0.048  0.5497 -0.1620  0.8387
  654TMC3    C5 9680   0.420   0.183  17.648 -0.0999  0.5544  0.1733
  654TMC3    C6 9681   0.343   0.263  17.570  0.3772 -0.4653  0.0563
  654TMC3     C 9682   0.573   0.407   0.190 -0.4348  0.1545 -0.0533
  654TMC3     O 9683   0.627   0.328   0.265  0.3685  0.2827  0.4608
  654TMC3     H 9684   0.418   0.561   0.014 -3.8964  0.4792  0.5506
  654TMC3    H1 9685   0.556   0.162   0.107  0.1806 -0.6874  0.5980
  654TMC3    H2 9686   0.279   0.224  17.492 -1.0256  0.5731  0.7008
  654TMC3    C7 9687   0.470   0.067  17.568  0.5437  0.1693 -0.8832
  654TMC3    C8 9688   0.284   0.489  17.491  0.3713 -0.3743 -0.4026
  654TMC3    O1 9689   0.386   0.028  17.489  0.3237  0.1135 -0.1849
  654TMC3    O2 9690   0.250   0.601  17.519 -0.1300  0.2998  0.1171
  655MPD2     C 9691   2.226   0.879  15.315  0.4973 -0.1211 -0.2399
  655MPD2    C1 9692   2.109   0.856  15.255 -0.8177  0.9477 -0.3916
  655MPD2    C2 9693   2.104   0.760  15.156 -0.1538 -0.1105 -0.2854
  655MPD2    C3 9694   2.212   0.678  15.124 -1.1843  0.2439 -0.1371
  655MPD2    C4 9695   2.326   0.695  15.195  0.4114 -0.0933 -0.8087
  655MPD2    C5 9696   2.330   0.795  15.288  0.5102 -0.0035  0.0065
  655MPD2     H 9697   2.004   0.753  15.113  0.0626  0.2633 -0.8553
  655MPD2    H1 9698   2.411   0.630  15.177  0.9627  0.4319 -0.1417
  655MPD2    H2 9699   2.244   0.947  15.398 -0.0423  1.4121 -1.3859
  655MPD2    H3 9700   2.412   0.812  15.356  1.1887 -0.2684 -0.7539
  655MPD2     N 9701   2.203   0.572  15.030 -0.5163 -0.2023 -0.1172
  655MPD2    H5 9702   2.288   0.517  15.019 -0.8255 -0.7866  0.4404
  655MPD2    N1 9703   2.004   0.932  15.299  0.2542 -0.5565 -0.2635
  655MPD2    H7 9704   1.926   0.946  15.236  0.7573  2.5045 -0.2369
  656TMC3    C1 9705   1.886   1.092  15.430 -0.1671  0.5727  0.0740
  656TMC3    C2 9706   1.866   1.139  15.557 -0.9636  0.0067 -0.1188
  656TMC3    C3 9707   1.782   1.241  15.577  0.6224  0.0894  0.3758
  656TMC3    C4 9708   1.824   1.136  15.325  0.2680  0.2546 -0.5560
  656TMC3    C5 9709   1.731   1.238  15.350  0.6407  0.0516  0.0362
  656TMC3    C6 9710   1.711   1.290  15.476  0.1259 -0.3816 -0.4143
  656TMC3     C 9711   2.000   1.005  15.420  0.2412  0.1354  0.2290
  656TMC3     O 9712   2.070   0.998  15.522 -0.4907 -0.1642 -0.1214
  656TMC3     H 9713   1.919   1.097  15.641 -0.0194 -0.9409 -1.1866
  656TMC3    H1 9714   1.832   1.091  15.226 -0.3278  0.9223 -0.9092
  656TMC3    H2 9715   1.655   1.380  15.498  2.5239  0.5595  1.7904
  656TMC3    C7 9716   1.646   1.275  15.240 -0.1339  0.1340  0.2847
  656TMC3    C8 9717   1.700   1.250  15.695  0.1699  0.7207 -0.0881
  656TMC3    O1 9718   1.640   1.194  15.149 -0.2003  0.2133  0.0245
  656TMC3    O2 9719   1.583   1.226  15.685 -0.1010  0.6221 -0.7959
  657TMC3    C1 9720   1.043   0.194  14.560 -0.1768  0.3869 -0.1160
  657TMC3    C2 9721   1.007   0.137  14.679 -0.1766 -0.5048  0.2737
  657TMC3    C3 9722   0.946   0.216  14.769 -0.5695 -1.1163 -0.7540
  657TMC3    C4 9723   1.026   0.326  14.537 -0.0114  0.4987  0.5086
  657TMC3    C5 9724   0.952   0.398  14.623  0.2198  1.0236  0.1069
  657TMC3    C6 9725   0.920   0.346  14.743 -0.3817 -0.3151 -0.7391
  657TMC3     C 9726   1.136   0.120  14.480 -0.0434 -0.8772  0.7261
  657TMC3     O 9727   1.161   0.168  14.367  0.4343  0.2319 -0.1563
  657TMC3     H 9728   1.020   0.032  14.705 -1.1839 -0.8781 -0.7502
  657TMC3    H1 9729   1.056   0.355  14.437 -1.8021 -2.4702 -0.8776
  657TMC3    H2 9730   0.875   0.418  14.811  0.7891 -1.2362  0.9916
  657TMC3    C7 9731   0.942   0.541  14.596 -0.2794 -0.1867  0.0664
  657TMC3    C8 9732   0.893   0.152  14.886 -0.3900  0.3919 -0.3893
  657TMC3    O1 9733   0.846   0.602  14.638  0.2460 -0.0692  0.0838
  657TMC3    O2 9734   0.926   0.039  14.917 -0.3929  0.4699  0.3693
  658MPD2     C 9735   2.621   0.512  14.474 -0.3455 -0.3332  0.1098
  658MPD2    C1 9736   2.528   0.578  14.550 -0.3891 -0.5300  0.8146
  658MPD2    C2 9737   2.532   0.714  14.558  0.0578 -0.2630  0.0050
  658MPD2    C3 9738   2.635   0.782  14.499 -0.0931  0.2634 -0.8513
  658MPD2    C4 9739   2.725   0.716  14.421  0.2800 -0.3986 -0.2276
  658MPD2    C5 9740   2.722   0.582  14.412 -0.1190 -0.2724  0.0905
  658MPD2     H 9741   2.465   0.769  14.622 -0.5617 -0.5914 -0.3600
  658MPD2    H1 9742   2.808   0.770  14.376 -1.1329  1.8932 -0.0615
  658MPD2    H2 9743   2.621   0.405  14.462  1.0091 -0.0777 -2.1541
  658MPD2    H3 9744   2.797   0.526  14.357  0.3386  0.3483  0.0884
  658MPD2     N 9745   2.614   0.921  14.514 -0.2219  0.0400 -0.3895
  658MPD2    H5 9746   2.520   0.951  14.539  0.3247  1.2438  0.1950
  658MPD2    N1 9747   2.421   0.515  14.616  0.1352 -1.0664  0.2092
  658MPD2    H7 9748   2.360   0.575  14.670  2.6025  1.2754  0.4105
  659TMC3    C1 9749   2.248   0.395  14.659  0.0095  0.2451 -0.8352
  659TMC3    C2 9750   2.247   0.439  14.791  0.4002 -0.7223 -0.6142
  659TMC3    C3 9751   2.120   0.438  14.854 -0.6740  0.5704  0.0178
  659TMC3    C4 9752   2.137   0.342  14.594 -0.8063  0.1461  0.8138
  659TMC3    C5 9753   2.025   0.341  14.665  0.2552  0.2286  0.0002
  659TMC3    C6 9754   2.013   0.378  14.794  0.2676 -0.3950  0.7315
  659TMC3     C 9755   2.364   0.399  14.582 -1.0604 -0.3536 -0.1321
  659TMC3     O 9756   2.379   0.324  14.488 -0.5015  0.2243 -0.2081
  659TMC3     H 9757   2.331   0.494  14.831 -1.1116 -0.4179  2.1123
  659TMC3    H1 9758   2.150   0.313  14.490 -1.3452  3.1764 -0.1081
  659TMC3    H2 9759   1.924   0.372  14.856  1.9128  0.1254  3.1743
  659TMC3    C7 9760   1.891   0.346  14.596 -0.7335  0.1249 -0.2372
  659TMC3    C8 9761   2.088   0.530  14.969  0.3010 -0.0750  0.0407
  659TMC3    O1 9762   1.791   0.371  14.663 -0.1688 -0.0764  0.2001
  659TMC3    O2 9763   1.977   0.576  14.969  0.4159  0.1937 -0.0936
  660MPD2     C 9764   0.696   4.483  12.243  0.0085 -0.2472 -0.2590
  660MPD2    C1 9765   0.556   4.484  12.233  0.2481 -0.5321 -0.1298
  660MPD2    C2 9766   0.474   4.451  12.334  0.7580 -0.0736 -0.0705
  660MPD2    C3 9767   0.526   4.427  12.460 -0.5825  0.8302 -0.7136
  660MPD2    C4 9768   0.667   4.422  12.478  0.3475  0.6877 -0.2133
  660MPD2    C5 9769   0.747   4.439  12.366  0.1303  1.4061  0.0539
  660MPD2     H 9770   0.367   4.446  12.323  0.7875 -0.3768 -0.2217
  660MPD2    H1 9771   0.714   4.413  12.576 -0.7264 -0.9879  0.1277
  660MPD2    H2 9772   0.764   4.512  12.163  0.6971 -0.1644  0.3620
  660MPD2    H3 9773   0.854   4.435  12.381  0.0344 -0.8927  0.1793
  660MPD2     N 9774   0.453   4.395  12.573  0.7392 -0.5983  0.2448
  660MPD2    H5 9775   0.518   4.380  12.651  0.9439  2.6973  0.7275
  660MPD2    N1 9776   0.499   4.513  12.106  0.0579  0.0056  0.4481
  660MPD2    H7 9777   0.564   4.534  12.031 -1.7352  1.1081 -0.7995
  661TMC3    C1 9778   0.329   4.577  11.945  0.1178 -0.0280  0.5395
  661TMC3    C2 9779   0.396   4.522  11.845 -0.1598 -0.1367 -0.2948
  661TMC3    C3 9780   0.346   4.522  11.711 -0.1563  0.2078 -0.3540
  661TMC3    C4 9781   0.205   4.634  11.920 -0.6701  0.0896 -0.4966
  661TMC3    C5 9782   0.159   4.630  11.789 -0.6578  0.5320  0.1364
  661TMC3    C6 9783   0.223   4.576  11.680  0.2281 -0.9863  0.9149
  661TMC3     C 9784   0.372   4.566  12.082 -0.1315 -0.8765  0.3165
  661TMC3     O 9785   0.291   4.601  12.166 -0.0139 -1.0243  0.0983
  661TMC3     H 9786   0.492   4.477  11.869 -0.7407 -0.4373  1.4474
  661TMC3    H1 9787   0.144   4.682  11.996 -0.3638 -1.7207  0.9009
  661TMC3    H2 9788   0.180   4.581  11.581  1.4841  2.7937  0.5796
  661TMC3    C7 9789   0.030   4.694  11.767  0.0325  0.1648  0.6458
  661TMC3    C8 9790   0.405   4.417  11.623 -1.0284  0.3369  0.0536
  661TMC3    O1 9791   0.000   0.061  11.842 -0.3170  0.5988 -0.2350
  661TMC3    O2 9792   0.500   4.354  11.667  0.2375  0.6315 -0.1693
  662MPD2     C 9793   1.025   4.142  17.262  0.7935  0.0599  0.8826
  662MPD2    C1 9794   0.958   4.020  17.248  0.1928 -0.3101 -0.4278
  662MPD2    C2 9795   0.856   4.005  17.337 -0.4595  0.0194 -0.1449
  662MPD2    C3 9796   0.828   4.097  17.441 -0.1495  0.4123 -0.2988
  662MPD2    C4 9797   0.900   4.212  17.457 -0.3723  0.8317 -0.3771
  662MPD2    C5 9798   0.999   4.232  17.365  0.1570 -0.6031 -0.0154
  662MPD2     H 9799   0.796   3.915  17.330 -1.8896  0.7899  2.1794
  662MPD2    H1 9800   0.892   4.280  17.541 -2.3866  0.4867 -0.2955
  662MPD2    H2 9801   1.106   4.169  17.195  1.7148  1.3318  2.5143
  662MPD2    H3 9802   1.067   4.316  17.379  0.5025 -0.5549 -1.9703
  662MPD2     N 9803   0.728   4.076  17.539 -0.1889 -0.2724 -0.1096
  662MPD2    H5 9804   0.717   4.150  17.607  1.2888 -0.1370 -0.0289
  662MPD2    N1 9805   0.998   3.918  17.154 -0.1964 -0.3053  0.1229
  662MPD2    H7 9806   0.958   3.826  17.168  0.0252 -0.2926  0.8471
  663TMC3    C1 9807   1.142   3.809  17.022  0.0567 -0.2867  0.5759
  663TMC3    C2 9808   1.283   3.809  17.024  0.3520 -0.1936 -0.1986
  663TMC3    C3 9809   1.348   3.704  17.072 -0.1954  0.0405  0.3328
  663TMC3    C4 9810   1.069   3.695  17.048 -1.1201 -0.9089 -0.1059
  663TMC3    C5 9811   1.142   3.583  17.068  0.8230  0.5621 -0.9386
  663TMC3    C6 9812   1.277   3.586  17.077  0.2756 -0.3487 -0.4476
  663TMC3     C 9813   1.090   3.937  17.057  0.3842 -0.1553  0.1720
  663TMC3     O 9814   1.141   4.039  17.016  0.2119 -0.4309  0.0156
  663TMC3     H 9815   1.331   3.906  17.023  0.4579 -0.2581 -1.4926
  663TMC3    H1 9816   0.961   3.699  17.052 -1.1403 -2.8456  1.5960
  663TMC3    H2 9817   1.328   3.500  17.120  0.8415  1.1429  1.8445
  663TMC3    C7 9818   1.089   3.453  17.078  0.3487 -0.3442 -0.3353
  663TMC3    C8 9819   1.398   3.730  17.205  0.3210  0.2682  0.3555
  663TMC3    O1 9820   1.162   3.358  17.099  0.4839 -0.4131  0.5126
  663TMC3    O2 9821   1.473   3.648  17.253  0.0841 -0.3711 -0.2436
  664MPD2     C 9822   2.997   2.488  17.284  0.2266 -0.7894 -0.0593
  664MPD2    C1 9823   3.083   2.515  17.385 -0.7602  0.8099  0.6977
  664MPD2    C2 9824   3.114   2.428  17.487 -0.4662  0.2705  0.3163
  664MPD2    C3 9825   3.049   2.307  17.478 -0.3224  0.2576 -0.4091
  664MPD2    C4 9826   2.957   2.273  17.379 -0.2916  0.0359 -0.0127
  664MPD2    C5 9827   2.928   2.370  17.281  0.0481  0.2046  0.1683
  664MPD2     H 9828   3.193   2.457  17.555  0.7625  2.6809 -2.1223
  664MPD2    H1 9829   2.899   2.182  17.368 -0.4474 -0.2063  2.9850
  664MPD2    H2 9830   2.972   2.561  17.208 -0.7388  0.6161  1.6278
  664MPD2    H3 9831   2.845   2.356  17.213 -0.7132  1.3482  0.8561
  664MPD2     N 9832   3.069   2.222  17.591 -0.3772  0.0518 -0.3403
  664MPD2    H5 9833   3.117   2.270  17.666 -0.3957  0.0676 -0.3384
  664MPD2    N1 9834   3.155   2.642  17.383 -0.1968 -0.2103 -0.8279
  664MPD2    H7 9835   3.216   2.668  17.460 -1.7602  1.8834 -0.3090
  665TMC3    C1 9836   3.051   2.048   0.033  0.2650 -0.4626  0.2983
  665TMC3    C2 9837   2.952   2.032   0.128 -0.0967  0.1732 -1.0944
  665TMC3    C3 9838   2.979   2.043   0.258  0.1075 -0.0653  0.0283
  665TMC3    C4 9839   3.176   2.091   0.081  0.7084 -0.2778 -0.2264
  665TMC3    C5 9840   3.193   2.131   0.218  0.5679 -0.1361 -0.2277
  665TMC3    C6 9841   3.096   2.102   0.306 -0.5602  0.0988  0.0227
  665TMC3     C 9842   3.014   2.098  17.607  0.3623 -0.4740 -0.7419
  665TMC3     O 9843   2.935   2.034  17.538 -0.1291  0.6692  0.2649
  665TMC3     H 9844   2.851   2.006   0.098 -0.3952  0.2190 -0.1097
  665TMC3    H1 9845   3.261   2.107   0.016 -1.4600  3.1634 -2.2422
  665TMC3    H2 9846   3.108   2.100   0.414  1.7048  0.8976 -0.2204
  665TMC3    C7 9847   3.238   2.267   0.223 -0.0529 -0.3119 -0.0313
  665TMC3    C8 9848   2.865   2.058   0.343 -1.2075 -0.8497 -0.5187
  665TMC3    O1 9849   3.225   2.318   0.112 -0.4106  0.2807 -0.0368
  665TMC3    O2 9850   2.882   2.024   0.460  0.2876  0.2343  0.3679
  666TMC3    C1 9851   2.636   1.887  10.356 -0.2912 -0.6478  0.1688
  666TMC3    C2 9852   2.764   1.860  10.315 -0.1814  0.3145 -0.1501
  666TMC3    C3 9853   2.841   1.969  10.283 -0.8002 -0.2327  0.5630
  666TMC3    C4 9854   2.579   2.009  10.367 -0.3775  0.8456 -0.0833
  666TMC3    C5 9855   2.655   2.117  10.326  0.4294 -1.0159  0.3623
  666TMC3    C6 9856   2.791   2.099  10.300 -0.2193  0.2801  0.4648
  666TMC3     C 9857   2.540   1.775  10.368  0.2264  0.3586 -0.1336
  666TMC3     O 9858   2.430   1.801  10.414 -0.1076  0.2310 -0.0659
  666TMC3     H 9859   2.815   1.765  10.322 -2.0836 -0.6860  0.2466
  666TMC3    H1 9860   2.472   2.021  10.382 -0.7595 -1.5927 -0.7996
  666TMC3    H2 9861   2.854   2.185  10.279 -1.8367  1.6292  1.1352
  666TMC3    C7 9862   2.588   2.242  10.291  0.5201  0.4810  0.8997
  666TMC3    C8 9863   2.980   1.949  10.255 -0.3400  0.5422 -0.2018
  666TMC3    O1 9864   2.467   2.256  10.311 -0.0162  0.4914 -0.3140
  666TMC3    O2 9865   3.018   1.833  10.242 -0.2316 -0.4974  0.7043
  667MPD2     C 9866   4.455   2.727  14.498 -0.7873 -0.4381  0.5069
  667MPD2    C1 9867   4.546   2.629  14.524  0.4193  0.1878  0.6034
  667MPD2    C2 9868   4.512   2.496  14.486  1.0351 -0.2019 -0.4217
  667MPD2    C3 9869   4.386   2.466  14.433  0.5844  0.3125  0.1154
  667MPD2    C4 9870   4.304   2.568  14.393 -0.1321 -0.5715  0.5027
  667MPD2    C5 9871   4.340   2.699  14.430  0.6806 -1.0156 -0.3713
  667MPD2     H 9872   4.583   2.417  14.505  0.9719 -0.2254 -0.2864
  667MPD2    H1 9873   4.209   2.543  14.346 -0.2201 -0.8948  0.8480
  667MPD2    H2 9874   4.468   2.831  14.528  0.8592 -0.6922  0.6866
  667MPD2    H3 9875   4.274   2.785  14.419  2.3728  0.0670 -2.0780
  667MPD2     N 9876   4.331   2.340  14.423  0.3985 -1.0166 -0.4613
  667MPD2    H5 9877   4.235   2.334  14.389  0.8869  1.1742 -2.2062
  667MPD2    N1 9878   4.666   2.649  14.594  0.3079  0.2683  0.3414
  667MPD2    H7 9879   4.715   2.563  14.616 -1.4236 -1.6181 -3.1190
  668TMC3    C1 9880   0.092   2.751  14.749 -0.8876  0.1875 -0.4694
  668TMC3    C2 9881   0.159   2.870  14.786 -0.6761 -0.1961 -0.3926
  668TMC3    C3 9882   0.184   2.889  14.920  0.2080  0.4953 -0.5139
  668TMC3    C4 9883   0.038   2.679  14.848  0.9547 -0.4526  0.5249
  668TMC3    C5 9884   0.059   2.703  14.980 -0.1520  0.0872  0.5792
  668TMC3    C6 9885   0.146   2.803  15.016 -0.4676  0.5000 -0.8172
  668TMC3     C 9886   4.716   2.770  14.643  0.4288 -0.7059 -0.0600
  668TMC3     O 9887   4.679   2.883  14.612 -0.2992 -0.2328  0.3261
  668TMC3     H 9888   0.172   2.948  14.711  0.2239 -0.3892 -0.4446
  668TMC3    H1 9889   4.700   2.593  14.822 -2.2707  1.7643  0.9505
  668TMC3    H2 9890   0.132   2.819  15.122 -0.0710  0.6678 -0.7903
  668TMC3    C7 9891   4.691   2.654  15.082 -0.3760 -0.6272 -0.0041
  668TMC3    C8 9892   0.240   3.011  14.973  0.0712 -0.1225 -0.2117
  668TMC3    O1 9893   0.019   2.619  15.189 -0.3819 -0.1736  0.4630
  668TMC3    O2 9894   0.187   3.053  15.077 -0.0137  0.1917 -0.2354
  669TMC3    C1 9895   2.446   2.080  14.624  0.5817  0.0031  0.4217
  669TMC3    C2 9896   2.334   2.141  14.583  0.2004  0.1435 -0.1464
  669TMC3    C3 9897   2.343   2.243  14.490 -0.5982 -0.5467 -0.2334
  669TMC3    C4 9898   2.573   2.122  14.583 -0.4222  0.1043 -0.8122
  669TMC3    C5 9899   2.580   2.224  14.499 -0.1533  0.0475 -0.4751
  669TMC3    C6 9900   2.467   2.280  14.446 -0.9143  0.1115  0.1964
  669TMC3     C 9901   2.429   1.962  14.709 -0.0645  0.8393 -0.2599
  669TMC3     O 9902   2.312   1.949  14.755 -0.0229  0.6096  0.3535
  669TMC3     H 9903   2.232   2.119  14.614 -0.1521  1.7374 -0.1744
  669TMC3    H1 9904   2.661   2.095  14.641 -0.4478  0.5728 -0.5562
  669TMC3    H2 9905   2.471   2.354  14.367 -0.2298  0.4863  0.5843
  669TMC3    C7 9906   2.697   2.310  14.481  0.5210 -0.5705 -0.0958
  669TMC3    C8 9907   2.232   2.287  14.414  0.0252  0.4396 -0.3244
  669TMC3    O1 9908   2.685   2.429  14.448 -0.6047 -0.4279  0.1592
  669TMC3    O2 9909   2.241   2.291  14.295 -0.5754 -0.3192 -0.1704
  670MPD2     C 9910   0.721   4.707  13.348 -0.7154 -0.0835  0.1509
  670MPD2    C1 9911   0.798   0.056  13.425  0.1800  0.1384 -0.0430
  670MPD2    C2 9912   0.772   0.064  13.563 -0.1639 -0.0332 -0.6124
  670MPD2    C3 9913   0.668   4.713  13.615  0.0420 -0.3760  0.4676
  670MPD2    C4 9914   0.599   4.623  13.536  0.0682  0.6950  0.6104
  670MPD2    C5 9915   0.620   4.631  13.407  0.1472 -0.0148  0.4984
  670MPD2     H 9916   0.828   0.132  13.626 -0.3295 -2.2713  1.9655
  670MPD2    H1 9917   0.517   4.561  13.570  1.4920 -0.0983  2.5653
  670MPD2    H2 9918   0.729   4.703  13.240 -1.5674 -0.3148  0.0964
  670MPD2    H3 9919   0.557   4.570  13.343  0.4263  1.0013 -0.7606
  670MPD2     N 9920   0.649   0.006  13.755 -0.3724  0.2294  0.4440
  670MPD2    H5 9921   0.691   0.078  13.813  1.7533  1.0765 -2.1338
  670MPD2    N1 9922   0.909   0.134  13.371  0.6414 -0.0506  0.0059
  670MPD2    H7 9923   0.953   0.194  13.440  0.6911  0.0918 -0.1513
  671TMC3    C1 9924   0.536   4.699  13.963 -0.1309  0.6464 -0.1495
  671TMC3    C2 9925   0.639   4.641  14.034  0.7414  0.1561  0.4046
  671TMC3    C3 9926   0.612   4.577  14.149  0.5158  0.2126 -0.0462
  671TMC3    C4 9927   0.410   4.695  14.010  0.5007 -0.0566  0.1779
  671TMC3    C5 9928   0.382   4.636  14.129  0.2983 -0.2639 -0.6891
  671TMC3    C6 9929   0.484   4.575  14.199  0.2114 -0.2034  0.3791
  671TMC3     C 9930   0.543   4.675  13.818  0.0478 -0.1730 -0.4743
  671TMC3     O 9931   0.452   4.600  13.786 -0.1527 -0.0648 -0.2240
  671TMC3     H 9932   0.736   4.628  13.988  1.3051 -0.3040  1.7348
  671TMC3    H1 9933   0.327   4.712  13.943  1.1343  0.3285 -0.5163
  671TMC3    H2 9934   0.474   4.519  14.292 -2.1677 -0.2225  0.1165
  671TMC3    C7 9935   0.275   4.540  14.109  0.0741 -0.3373  0.3017
  671TMC3    C8 9936   0.688   4.453  14.157  0.8434 -0.2619 -1.1081
  671TMC3    O1 9937   0.312   4.427  14.079  0.5940  0.5715 -0.0010
  671TMC3    O2 9938   0.749   4.405  14.061  0.4448  0.3942  0.4969
  672MPD2     C 9939   1.480   0.554   0.684  0.6089  0.5453  0.4153
  672MPD2    C1 9940   1.418   0.676   0.709 -0.4533  0.9932  0.1902
  672MPD2    C2 9941   1.336   0.685   0.820 -0.3638  0.7685 -0.4664
  672MPD2    C3 9942   1.310   0.579   0.902  0.2857 -0.2832  0.3408
  672MPD2    C4 9943   1.379   0.463   0.879  1.0296 -0.2472 -0.7247
  672MPD2    C5 9944   1.468   0.452   0.777  0.8841  0.0013  0.5261
  672MPD2     H 9945   1.297   0.783   0.844 -2.4964 -1.2118  4.2851
  672MPD2    H1 9946   1.359   0.378   0.943  1.7581 -0.3235 -0.6026
  672MPD2    H2 9947   1.549   0.537   0.603  0.2616 -2.5029  0.7709
  672MPD2    H3 9948   1.515   0.356   0.757 -2.7854 -1.5744 -0.4618
  672MPD2     N 9949   1.236   0.583   1.024  0.7003 -0.3434 -0.1971
  672MPD2    H5 9950   1.247   0.503   1.086  1.8896 -1.2006 -1.4900
  672MPD2    N1 9951   1.437   0.791   0.622  0.2246 -0.4449 -0.3379
  672MPD2    H7 9952   1.398   0.875   0.663 -0.4638  0.9149 -3.8273
  673TMC3    C1 9953   1.495   0.928   0.449 -0.7227  0.8183 -0.2874
  673TMC3    C2 9954   1.611   0.999   0.407  0.1745  0.7758 -0.3240
  673TMC3    C3 9955   1.612   1.139   0.409  0.1517  0.0957  0.0576
  673TMC3    C4 9956   1.383   0.992   0.488  0.1534 -0.3619  0.0051
  673TMC3    C5 9957   1.395   1.127   0.491 -0.1356  0.2606 -0.4630
  673TMC3    C6 9958   1.497   1.205   0.444  0.4252 -0.1561  0.4908
  673TMC3     C 9959   1.518   0.798   0.516 -0.5786 -0.0418 -0.4441
  673TMC3     O 9960   1.610   0.728   0.478 -0.2462  0.2864  0.8594
  673TMC3     H 9961   1.690   0.931   0.378  1.3471  2.1865 -0.3957
  673TMC3    H1 9962   1.288   0.947   0.514  0.2791 -0.2178  0.7010
  673TMC3    H2 9963   1.499   1.312   0.458  1.8666 -0.2188  0.7851
  673TMC3    C7 9964   1.274   1.189   0.522  0.4596 -0.8132  0.5453
  673TMC3    C8 9965   1.722   1.180   0.489 -0.3130  0.6623 -0.2981
  673TMC3    O1 9966   1.194   1.209   0.435 -0.7269 -0.2435 -0.6035
  673TMC3    O2 9967   1.767   1.292   0.482 -0.4231 -0.1830 -0.4767
  674MPD2     C 9968   0.396   0.793   0.260  0.0222 -0.0931 -0.1614
  674MPD2    C1 9969   0.414   0.733   0.384 -0.3421 -0.0400 -0.1890
  674MPD2    C2 9970   0.322   0.639   0.423  0.4138 -0.2181  0.5153
  674MPD2    C3 9971   0.222   0.598   0.334 -0.1336  0.3694 -0.4431
  674MPD2    C4 9972   0.210   0.654   0.206 -0.2766 -0.6989  0.3756
  674MPD2    C5 9973   0.296   0.756   0.175 -0.3659  0.2358  0.3066
  674MPD2     H 9974   0.320   0.603   0.525 -0.1913  1.2578  1.0326
  674MPD2    H1 9975   0.136   0.612   0.139 -0.2531 -0.4923  0.2201
  674MPD2    H2 9976   0.459   0.875   0.229  1.6444 -1.3792 -0.2545
  674MPD2    H3 9977   0.279   0.803   0.079  1.0481  0.1604  0.0152
  674MPD2     N 9978   0.164   0.475   0.360 -0.1835  0.0881 -0.8577
  674MPD2    H5 9979   0.181   0.437   0.453 -0.2872 -0.3757 -1.0253
  674MPD2    N1 9980   0.527   0.753   0.468  0.5700  0.9351  0.6445
  674MPD2    H7 9981   0.532   0.708   0.559 -1.1179 -1.0662 -0.2488
  675TMC3    C1 9982   0.746   0.798   0.523  0.4375 -0.1033 -0.3336
  675TMC3    C2 9983   0.720   0.768   0.657  1.3152  0.1337 -0.8773
  675TMC3    C3 9984   0.816   0.719   0.740 -0.2297  0.3502  0.0404
  675TMC3    C4 9985   0.870   0.777   0.470 -0.6146  0.9368  0.4165
  675TMC3    C5 9986   0.965   0.725   0.550  0.5671  0.0233  0.5248
  675TMC3    C6 9987   0.942   0.695   0.685  0.4900 -0.0367  0.9269
  675TMC3     C 9988   0.639   0.824   0.431 -0.4993 -0.3325  0.7217
  675TMC3     O 9989   0.670   0.882   0.331 -0.2447  0.1824  0.4017
  675TMC3     H 9990   0.627   0.797   0.704  0.7996 -1.7510 -0.7639
  675TMC3    H1 9991   0.890   0.789   0.364  0.6426 -0.8656  0.4414
  675TMC3    H2 9992   1.030   0.675   0.745  2.5489  1.0380 -1.7230
  675TMC3    C7 9993   1.092   0.685   0.503 -0.7595 -0.3878  0.0921
  675TMC3    C8 9994   0.773   0.661   0.865 -0.0114  0.1369  0.3902
  675TMC3    O1 9995   1.154   0.603   0.567 -0.6074  0.0862 -0.1029
  675TMC3    O2 9996   0.674   0.698   0.924  0.0374  0.2905 -0.6025
  676MPD2     C 9997   3.146   3.664  10.874 -0.4416  0.3229 -0.1138
  676MPD2    C1 9998   3.059   3.596  10.955 -0.3556  0.6004  0.7572
  676MPD2    C2 9999   3.078   3.462  10.977 -0.3424  0.8890  0.6936
  676MPD2    C310000   3.178   3.382  10.916 -0.4080 -0.0555  0.4448
  676MPD2    C410001   3.258   3.454  10.840  0.5199 -0.5869  0.1790
  676MPD2    C510002   3.251   3.593  10.825  0.4654 -0.8475 -0.5834
  676MPD2     H10003   3.003   3.415  11.039 -1.8143  0.7003 -1.2431
  676MPD2    H110004   3.328   3.406  10.772 -1.3433 -3.6815  0.4276
  676MPD2    H210005   3.146   3.772  10.869 -0.7903  0.2790 -1.0155
  676MPD2    H310006   3.323   3.656  10.774 -0.6761  1.4603  0.6880
  676MPD2     N10007   3.198   3.241  10.931 -0.2282 -0.1271 -0.3973
  676MPD2    H510008   3.275   3.204  10.876  0.5040 -1.2039  1.3538
  676MPD2    N110009   2.943   3.649  11.019 -0.0356  0.4255 -0.0127
  676MPD2    H710010   2.893   3.586  11.081  1.1856  0.6405  1.1824
  677TMC3    C110011   2.776   3.787  11.083 -0.3211  0.7742 -0.2954
  677TMC3    C210012   2.718   3.666  11.117  0.6476  0.2987  0.3294
  677TMC3    C310013   2.679   3.664  11.250  0.8265  0.1811  0.6155
  677TMC3    C410014   2.780   3.902  11.154 -0.6611  0.0413  0.1194
  677TMC3    C510015   2.721   3.889  11.278 -0.2473 -0.5215  0.7066
  677TMC3    C610016   2.672   3.773  11.329  0.0511 -0.1095  0.4704
  677TMC3     C10017   2.891   3.775  11.002 -0.0216 -0.3179 -0.0188
  677TMC3     O10018   2.939   3.872  10.950  0.9805  0.5467 -0.0733
  677TMC3     H10019   2.723   3.573  11.061  2.8785 -0.0673  1.1218
  677TMC3    H110020   2.819   3.997  11.120 -2.4093  1.4565  2.0748
  677TMC3    H210021   2.643   3.759  11.432 -2.2501 -0.2384 -0.2122
  677TMC3    C710022   2.759   3.989  11.383  0.1617  0.4591 -0.6476
  677TMC3    C810023   2.754   3.558  11.321  0.1503  0.3966 -0.7637
  677TMC3    O110024   2.700   3.975  11.490  0.0363  0.1184 -0.0479
  677TMC3    O210025   2.869   3.538  11.275 -0.2688  0.2779  0.5008
  678MPD2     C10026   4.496   3.425   0.945 -0.0505  0.8898  0.0039
  678MPD2    C110027   4.416   3.351   0.862 -0.2533 -0.5096  0.1582
  678MPD2    C210028   4.277   3.347   0.881  0.2690 -0.2152  0.5474
  678MPD2    C310029   4.216   3.423   0.977 -0.4483  0.0709  0.1485
  678MPD2    C410030   4.292   3.501   1.061 -0.0931 -0.1693  0.5287
  678MPD2    C510031   4.434   3.501   1.038  1.2018 -0.2331  0.3031
  678MPD2     H10032   4.211   3.292   0.816  3.0487 -1.4369 -1.2077
  678MPD2    H110033   4.242   3.555   1.141  0.9095  1.1112  0.2863
  678MPD2    H210034   4.603   3.412   0.960 -0.3990 -0.8015  1.1406
  678MPD2    H310035   4.490   3.552   1.116  1.3181  1.6624 -1.0337
  678MPD2     N10036   4.074   3.418   0.981  0.1911 -0.2362  0.1246
  678MPD2    H510037   4.033   3.374   0.900  1.7506  1.5556 -1.6187
  678MPD2    N110038   4.473   3.279   0.749 -0.3369 -0.0021  0.5009
  678MPD2    H710039   4.406   3.233   0.688 -0.8918  0.7951  0.5131
  679TMC3    C110040   4.621   3.059   0.430 -0.3237  0.1496 -0.0498
  679TMC3    C210041   4.579   3.120   0.546  0.7925 -0.3656 -0.3254
  679TMC3    C310042   4.636   3.238   0.576 -0.4849 -0.0255 -0.5478
  679TMC3    C410043   4.700   3.127   0.339 -0.4398 -0.2886  0.3754
  679TMC3    C510044   0.040   3.247   0.375  0.0319  0.0509 -1.2670
  679TMC3    C610045   0.009   3.295   0.503  0.1089 -0.4540 -0.5323
  679TMC3     C10046   4.651   2.920   0.453  0.3171 -0.2020  0.3216
  679TMC3     O10047   0.026   2.871   0.402 -0.1730 -0.2544 -0.0089
  679TMC3     H10048   4.513   3.075   0.618 -1.9763  0.7913 -2.1447
  679TMC3    H110049   4.720   3.075   0.246  0.3836  1.5428 -0.4602
  679TMC3    H210050   0.042   3.397   0.520 -1.7880  0.3321 -1.4966
  679TMC3    C710051   0.149   3.305   0.307  0.3287 -0.7105 -0.0004
  679TMC3    C810052   4.602   3.297   0.705 -0.2466  0.0404 -0.0792
  679TMC3    O110053   0.177   3.418   0.349 -0.0718  0.2293 -0.0005
  679TMC3    O210054   4.693   3.364   0.753  0.7934  0.0947 -0.0906
  680MPD2     C10055   0.180   2.422  13.583 -0.3270 -0.4244 -0.3104
  680MPD2    C110056   0.227   2.372  13.704 -1.0154  0.4394  0.1391
  680MPD2    C210057   0.308   2.444  13.788  0.5278  0.7285 -0.1410
  680MPD2    C310058   0.358   2.569  13.750  0.0338 -0.5587  0.0657
  680MPD2    C410059   0.309   2.620  13.632  0.3306 -0.0112 -0.7246
  680MPD2    C510060   0.212   2.548  13.556  0.0394  0.4996  0.0837
  680MPD2     H10061   0.336   2.395  13.880 -1.2842 -1.0570 -0.5447
  680MPD2    H110062   0.343   2.721  13.614  3.3121 -0.6559  1.2657
  680MPD2    H210063   0.122   2.365  13.511 -0.2119 -0.9586  0.0197
  680MPD2    H310064   0.166   2.592  13.469 -1.8927 -2.1116 -0.2330
  680MPD2     N10065   0.454   2.642  13.826 -0.8635 -0.5588 -0.1022
  680MPD2    H510066   0.488   2.731  13.791 -0.3845  0.4247  2.8457
  680MPD2    N110067   0.185   2.247  13.754  0.0923  0.1511 -0.2573
  680MPD2    H710068   0.217   2.222  13.846  0.5937  2.9593  0.3327
  681TMC3    C110069   0.085   2.038  13.785 -0.3173  0.6610 -0.2753
  681TMC3    C210070   0.068   2.064  13.916 -0.0823  0.4864  0.2638
  681TMC3    C310071   0.099   1.968  14.012  0.6992 -0.1570  0.2495
  681TMC3    C410072   0.126   1.913  13.753  0.0263 -0.4150 -0.1539
  681TMC3    C510073   0.158   1.819  13.847  0.0916 -0.4070  0.1244
  681TMC3    C610074   0.144   1.847  13.979  0.0474 -0.4830  0.0742
  681TMC3     C10075   0.108   2.149  13.694  0.1997  0.4475  0.3059
  681TMC3     O10076   0.060   2.145  13.577 -0.1961 -0.6847  0.1608
  681TMC3     H10077   0.033   2.159  13.955  1.9510  1.2432  0.2450
  681TMC3    H110078   0.143   1.900  13.647  0.1982 -0.1141 -0.1622
  681TMC3    H210079   0.156   1.759  14.042  0.4578 -0.5171 -0.0513
  681TMC3    C710080   0.183   1.680  13.799  0.2278  0.6492 -0.4891
  681TMC3    C810081   0.075   2.001  14.149 -0.2341  0.0824 -0.8690
  681TMC3    O110082   0.151   1.587  13.871 -0.2835  0.3281  0.7226
  681TMC3    O210083   4.683   2.026  14.173  0.1536  0.4638  0.5688
  682MPD2     C10084   1.977   3.241  10.637  0.2951 -0.2586 -0.4897
  682MPD2    C110085   1.977   3.105  10.644  0.2033  0.0094 -0.3144
  682MPD2    C210086   1.965   3.037  10.762  0.3224  0.3566 -0.5489
  682MPD2    C310087   1.947   3.113  10.878 -0.0057  0.1609  0.8176
  682MPD2    C410088   1.936   3.247  10.865  0.0866  0.2228  0.1929
  682MPD2    C510089   1.954   3.312  10.753 -0.6253 -0.1227  0.0002
  682MPD2     H10090   1.951   2.930  10.760 -2.0438  0.6387  1.8165
  682MPD2    H110091   1.922   3.302  10.958 -2.1225  0.4164 -0.2751
  682MPD2    H210092   1.998   3.298  10.547  0.4996  2.9500  1.6120
  682MPD2    H310093   1.968   3.420  10.760  0.5451 -0.3114  0.7007
  682MPD2     N10094   1.932   3.055  11.006  0.1786 -0.0135  0.2369
  682MPD2    H510095   1.907   3.122  11.078  1.1354  0.7314 -0.1221
  682MPD2    N110096   1.980   3.019  10.536  0.1030  0.2153 -0.5266
  682MPD2    H710097   1.973   2.919  10.547  1.5295  0.3797  1.9509
  683TMC3    C110098   1.911   3.025  11.383 -0.6813 -0.1804 -0.9394
  683TMC3    C210099   1.839   2.910  11.426 -0.1629 -0.1981 -0.5874
  683TMC3    C310100   1.831   2.796  11.342 -0.0336  0.1085 -0.1802
  683TMC3    C410101   1.974   3.029  11.258 -0.7647 -0.2634 -0.0091
  683TMC3    C510102   1.959   2.914  11.188 -0.0024 -0.1584  0.5844
  683TMC3    C610103   1.900   2.795  11.226  0.0517 -0.6230  0.2262
  683TMC3     C10104   1.958   3.120  11.470 -0.2857 -0.6287  0.3029
  683TMC3     O10105   2.079   3.151  11.447  0.2460  0.6956 -0.3007
  683TMC3     H10106   1.802   2.903  11.528 -1.6006 -1.6275 -1.2129
  683TMC3    H110107   2.043   3.108  11.230 -1.5131 -0.5764 -2.7766
  683TMC3    H210108   1.883   2.714  11.155  1.4896  0.1307 -0.9784
  683TMC3    C710109   1.958   2.931  11.038 -0.0710 -0.3202  0.0357
  683TMC3    C810110   1.733   2.693  11.388 -1.0962  1.1788 -0.1299
  683TMC3    O110111   1.953   2.831  10.968 -0.8792 -0.1282  0.2576
  683TMC3    O210112   1.667   2.634  11.307 -0.9449 -0.5813 -0.1988
  684MPD2     C10113   0.673   2.510  16.267  0.3906 -0.3659 -0.0150
  684MPD2    C110114   0.735   2.573  16.160  0.1372 -0.2997 -0.0107
  684MPD2    C210115   0.778   2.702  16.168 -1.1244  0.8149 -0.2395
  684MPD2    C310116   0.781   2.763  16.292  0.5818 -0.4354 -0.1103
  684MPD2    C410117   0.739   2.692  16.399  0.1823 -0.2727 -0.7681
  684MPD2    C510118   0.680   2.570  16.387  0.0528  0.0704  0.2351
  684MPD2     H10119   0.820   2.756  16.084 -0.2840  0.3448 -0.1215
  684MPD2    H110120   0.740   2.729  16.501 -0.6843 -1.8823 -0.1685
  684MPD2    H210121   0.642   2.406  16.261 -3.8677  0.9947 -1.0068
  684MPD2    H310122   0.661   2.518  16.480  2.1846 -0.1533  0.5607
  684MPD2     N10123   0.839   2.893  16.301  0.0546 -0.1747  0.0762
  684MPD2    H510124   0.848   2.918  16.399 -0.4987 -0.5382  0.2205
  684MPD2    N110125   0.741   2.508  16.036 -0.3399  0.0055 -0.0129
  684MPD2    H710126   0.801   2.555  15.968 -1.6848 -0.9676 -1.8730
  685TMC3    C110127   0.692   2.374  15.856  0.7927 -0.1274 -0.1735
  685TMC3    C210128   0.579   2.374  15.779  0.0962  0.1086  0.2531
  685TMC3    C310129   0.598   2.397  15.647 -0.4359 -0.3200 -0.2174
  685TMC3    C410130   0.820   2.394  15.806  0.0289  0.7535 -0.4647
  685TMC3    C510131   0.831   2.402  15.668 -0.5833  0.5346 -0.9241
  685TMC3    C610132   0.725   2.403  15.586  0.0949 -0.2309 -0.3515
  685TMC3     C10133   0.669   2.390  15.998 -0.2898 -0.1423 -0.2534
  685TMC3     O10134   0.572   2.346  16.055 -0.2310  0.5875  0.1846
  685TMC3     H10135   0.484   2.348  15.825 -0.5274  1.5988 -0.1630
  685TMC3    H110136   0.895   2.383  15.883  0.6783  2.2348 -0.8908
  685TMC3    H210137   0.736   2.432  15.483 -0.2030 -1.4310 -0.7198
  685TMC3    C710138   0.970   2.420  15.615 -0.0946 -0.3623 -0.0874
  685TMC3    C810139   0.481   2.456  15.572  0.3860  1.0885 -0.1857
  685TMC3    O110140   0.987   2.424  15.492  0.4142 -0.0656 -0.0086
  685TMC3    O210141   0.486   2.463  15.447 -0.1540  0.8926  0.1314
  686MPD2     C10142   2.498   2.347  15.160  0.1173 -1.0068  0.2943
  686MPD2    C110143   2.409   2.276  15.238 -0.1373  0.3839 -0.4573
  686MPD2    C210144   2.342   2.168  15.191 -0.0728 -0.1456  0.1698
  686MPD2    C310145   2.366   2.116  15.066  0.3980  0.8570  0.0094
  686MPD2    C410146   2.459   2.176  14.988  0.3475  0.2461  0.1567
  686MPD2    C510147   2.518   2.300  15.029  0.2491  0.1319  0.0918
  686MPD2     H10148   2.263   2.123  15.250  0.3407 -0.3740  0.5441
  686MPD2    H110149   2.482   2.125  14.895  0.9378 -0.4448  0.6801
  686MPD2    H210150   2.562   2.427  15.194 -2.3274 -0.0402  2.6319
  686MPD2    H310151   2.602   2.341  14.974  0.2761  0.2682  0.2359
  686MPD2     N10152   2.306   2.001  15.017  0.2229  0.1427  0.4283
  686MPD2    H510153   2.322   1.982  14.918 -0.0863 -2.0710  0.8009
  686MPD2    N110154   2.392   2.329  15.365 -0.0444  0.0805 -0.5414
  686MPD2    H710155   2.431   2.420  15.385 -1.6745  0.3834  1.3116
  687TMC3    C110156   2.254   1.870  15.222 -0.9527  0.3711  0.3597
  687TMC3    C210157   2.141   1.865  15.296 -0.4603  0.2083  0.2595
  687TMC3    C310158   2.146   1.823  15.430  0.3689  0.0729 -0.7361
  687TMC3    C410159   2.377   1.861  15.280  0.3002 -0.5337  0.3312
  687TMC3    C510160   2.370   1.839  15.416  0.4337 -0.7217  0.0255
  687TMC3    C610161   2.262   1.805  15.490  0.3295 -0.0277 -0.4278
  687TMC3     C10162   2.226   1.910  15.080  0.1851 -0.1017 -0.0495
  687TMC3     O10163   2.135   1.846  15.023 -0.5463  0.4446 -0.1360
  687TMC3     H10164   2.047   1.881  15.246  0.2955  3.9874  0.0455
  687TMC3    H110165   2.466   1.878  15.220  0.4486  2.2105  1.3708
  687TMC3    H210166   2.274   1.776  15.594 -2.0515  0.8934  0.1170
  687TMC3    C710167   2.485   1.883  15.500  0.1836 -0.3517 -0.3846
  687TMC3    C810168   2.048   1.887  15.512  0.8765  0.3708 -0.6488
  687TMC3    O110169   2.485   1.876  15.624  0.1176 -0.7160  0.5173
  687TMC3    O210170   1.960   1.821  15.566 -0.1952 -0.6615 -0.0878
  688MPD2     C10171   1.217   1.421  17.100 -0.6900 -0.4461  0.5840
  688MPD2    C110172   1.235   1.284  17.136  0.4500  0.0364 -0.0405
  688MPD2    C210173   1.285   1.196  17.047  0.3145  0.3755  0.4588
  688MPD2    C310174   1.332   1.237  16.930 -0.7435  0.1472 -0.4221
  688MPD2    C410175   1.338   1.369  16.904 -0.4299 -0.0877  0.2380
  688MPD2    C510176   1.272   1.463  16.982  0.5823 -0.6949 -0.5197
  688MPD2     H10177   1.285   1.093  17.079  0.1252  0.4039  0.5517
  688MPD2    H110178   1.373   1.400  16.806 -1.7092 -2.3726 -0.9386
  688MPD2    H210179   1.165   1.497  17.158  1.1224 -0.4929  2.2689
  688MPD2    H310180   1.261   1.564  16.945 -1.4863 -0.9461 -0.6174
  688MPD2     N10181   1.382   1.150  16.823 -0.3943 -0.0728 -0.4321
  688MPD2    H510182   1.420   1.188  16.736  0.7756 -1.1944 -0.4077
  688MPD2    N110183   1.180   1.235  17.253  0.6270 -0.6263  0.0496
  688MPD2    H710184   1.187   1.134  17.258 -1.9415 -0.8456 -1.0119
  689TMC3    C110185   1.071   1.240  17.465  0.4079  0.0611  0.5366
  689TMC3    C210186   1.017   1.317  17.563  0.6822 -0.1175  0.1592
  689TMC3    C310187   0.980   1.259  17.682  0.6566  0.0541  0.2444
  689TMC3    C410188   1.086   1.098  17.490  0.0120 -0.6254 -0.5521
  689TMC3    C510189   1.026   1.042  17.603 -0.8615  0.6220 -0.3163
  689TMC3    C610190   0.981   1.124   0.006 -0.1114 -0.0106  0.1372
  689TMC3     C10191   1.114   1.310  17.347  0.3219 -0.8737  0.0150
  689TMC3     O10192   1.100   1.430  17.351  0.1327 -0.2366  0.5205
  689TMC3     H10193   1.015   1.425  17.549  3.1419 -0.5310 -3.0717
  689TMC3    H110194   1.128   1.031  17.415  2.0693 -1.3686  1.2477
  689TMC3    H210195   0.953   1.079   0.101  2.2977 -2.3549 -0.2489
  689TMC3    C710196   1.032   0.897  17.620 -0.2983  0.5738  0.1505
  689TMC3    C810197   0.960   1.341   0.098 -0.4930  0.6069 -0.3660
  689TMC3    O110198   1.114   0.835  17.558 -0.1286 -0.6350  0.5465
  689TMC3    O210199   0.868   1.298   0.165 -0.2060 -0.0979 -0.3681
  690MPD2     C10200   3.197   3.766  15.247  0.5289  0.6043  0.4485
  690MPD2    C110201   3.282   3.691  15.318 -0.2513 -0.4325 -0.1330
  690MPD2    C210202   3.410   3.673  15.264  0.0672 -0.0434 -0.2443
  690MPD2    C310203   3.449   3.740  15.150  0.6558  0.1769 -0.6544
  690MPD2    C410204   3.360   3.817  15.088 -0.1084 -0.2051  0.4105
  690MPD2    C510205   3.233   3.821  15.129  1.1943  0.1084  0.1383
  690MPD2     H10206   3.478   3.600  15.305  0.1084  0.4559  0.5906
  690MPD2    H110207   3.377   3.871  14.995 -0.3088 -0.6580  0.1102
  690MPD2    H210208   3.093   3.775  15.276  0.6377  1.8136  0.4689
  690MPD2    H310209   3.165   3.881  15.069  3.0530  2.4428  0.3255
  690MPD2     N10210   3.576   3.732  15.095  0.2350  0.3594  0.2718
  690MPD2    H510211   3.641   3.675  15.149 -0.4099 -1.2712 -0.6805
  690MPD2    N110212   3.244   3.604  15.422  0.5032  0.2971 -0.6238
  690MPD2    H710213   3.311   3.532  15.447  0.7986  0.5116 -0.7970
  691TMC3    C110214   3.101   3.458  15.547 -0.3992 -0.1252  0.1515
  691TMC3    C210215   2.970   3.427  15.580 -0.3961  0.2528 -0.3689
  691TMC3    C310216   2.938   3.300  15.634  0.0133 -0.2560  1.5378
  691TMC3    C410217   3.198   3.366  15.556 -0.5114 -0.2636  0.9524
  691TMC3    C510218   3.159   3.238  15.598  0.2784  0.0562 -0.2148
  691TMC3    C610219   3.034   3.206  15.640 -0.4901  0.2670  0.5550
  691TMC3     C10220   3.126   3.593  15.501 -0.4140  0.1897 -0.5520
  691TMC3     O10221   3.034   3.676  15.507 -0.3177  0.7181 -0.2245
  691TMC3     H10222   2.896   3.497  15.543 -2.2743 -1.0731  0.8891
  691TMC3    H110223   3.300   3.382  15.524 -1.5884  0.5124 -2.1180
  691TMC3    H210224   3.021   3.106  15.679 -1.9962 -0.1307 -0.9659
  691TMC3    C710225   3.255   3.134  15.593 -0.4271 -0.3134 -0.5848
  691TMC3    C810226   2.812   3.274  15.692 -0.7500  0.0393 -0.1812
  691TMC3    O110227   3.370   3.160  15.626  0.4635  0.1837 -0.1470
  691TMC3    O210228   2.794   3.153  15.709  0.0730 -0.2996 -0.5929
  692TMC3    C110229   0.397   4.292  15.980  0.0083  0.0165  0.5260
  692TMC3    C210230   0.494   4.339  16.067 -0.0011  0.3131  0.3403
  692TMC3    C310231   0.615   4.272  16.082  0.3445 -0.1506  0.1643
  692TMC3    C410232   0.403   4.162  15.933  1.2666 -0.1137  0.7082
  692TMC3    C510233   0.529   4.102  15.948 -0.7952 -0.0256  0.0329
  692TMC3    C610234   0.636   4.154  16.022 -0.2099 -0.5955 -0.1943
  692TMC3     C10235   0.304   4.382  15.918 -0.7258 -0.0627 -0.3532
  692TMC3     O10236   0.258   4.342  15.812  0.2095  0.3599  0.8985
  692TMC3     H10237   0.488   4.444  16.095 -2.3658  0.3174 -0.1405
  692TMC3    H110238   0.324   4.122  15.870  1.4125  1.8143 -0.7078
  692TMC3    H210239   0.737   4.116  16.010  0.4622  1.6627 -1.6628
  692TMC3    C710240   0.540   3.983  15.864 -0.2744 -0.2570 -0.1808
  692TMC3    C810241   0.674   4.267  16.215  0.3034 -0.7359 -0.0108
  692TMC3    O110242   0.450   3.968  15.778  0.0425  0.2809 -0.7094
  692TMC3    O210243   0.753   4.175  16.230  0.4399  1.0971  0.7508
  693MPD2     C10244   0.202   2.180  11.575  0.0843  0.6775 -0.1628
  693MPD2    C110245   0.221   2.168  11.442 -0.6584 -0.6896 -0.3066
  693MPD2    C210246   0.326   2.079  11.397  0.5089  0.0707  0.0000
  693MPD2    C310247   0.401   2.007  11.487  0.0215  0.5550 -0.0496
  693MPD2    C410248   0.377   2.031  11.623 -0.2912 -0.1049 -0.4351
  693MPD2    C510249   0.284   2.114  11.666  0.5211  0.4254 -0.3329
  693MPD2     H10250   0.342   2.074  11.290  0.1980 -0.2297 -0.0332
  693MPD2    H110251   0.432   1.981  11.702  0.0725 -0.5014 -0.9383
  693MPD2    H210252   0.131   2.253  11.614 -0.2976 -0.5277  1.3819
  693MPD2    H310253   0.270   2.131  11.772 -0.2751  2.4461 -0.7590
  693MPD2     N10254   0.507   1.912  11.450 -0.5010 -0.6772  0.5199
  693MPD2    H510255   0.565   1.882  11.527  0.6970 -2.1339 -0.9640
  693MPD2    N110256   0.128   2.236  11.352  0.2707 -0.6435 -0.4982
  693MPD2    H710257   0.047   2.278  11.397  1.5258  0.4848  0.7187
  694TMC3    C110258   0.012   2.284  11.170  0.4594  0.1381 -0.4854
  694TMC3    C210259   4.676   2.205  11.085 -0.2790 -0.5220  0.2256
  694TMC3    C310260   4.540   2.207  11.089  0.1021  0.2906  0.1286
  694TMC3    C410261   4.668   2.356  11.262 -0.7372  0.2237 -0.2706
  694TMC3    C510262   4.534   2.347  11.268  0.0877  0.6876 -0.0436
  694TMC3    C610263   4.469   2.284  11.172  0.5535  0.2216  0.0542
  694TMC3     C10264   0.140   2.246  11.213 -0.1481 -0.4710  0.1105
  694TMC3     O10265   0.224   2.204  11.138  0.6700  0.2448  0.1223
  694TMC3     H10266   0.008   2.140  11.018  1.0740  1.5216 -0.6018
  694TMC3    H110267   4.722   2.428  11.323  1.0797 -0.2650 -1.2931
  694TMC3    H210268   4.363   2.287  11.151  0.4530 -0.1726  0.5038
  694TMC3    C710269   4.459   2.398  11.385  0.0911  0.3194 -0.0101
  694TMC3    C810270   4.463   2.135  10.985 -0.3866  0.3381  0.5222
  694TMC3    O110271   4.510   2.482  11.461 -0.8850  0.0110  0.3320
  694TMC3    O210272   4.343   2.143  10.992 -0.2132  0.6631 -0.7293
  695MPD2     C10273   0.847   4.122  13.415 -0.3629 -1.0544  0.6020
  695MPD2    C110274   0.794   4.085  13.537  0.1525  0.2981 -0.0780
  695MPD2    C210275   0.660   4.101  13.558  0.3088  0.5954  0.4716
  695MPD2    C310276   0.574   4.158  13.464 -0.2295  0.4824  0.5590
  695MPD2    C410277   0.635   4.204  13.343  0.0294 -0.1084 -0.1166
  695MPD2    C510278   0.766   4.180  13.323 -0.4009  0.1158 -0.6105
  695MPD2     H10279   0.608   4.064  13.646 -1.5982  3.0760  0.4078
  695MPD2    H110280   0.582   4.258  13.266 -0.7052  0.6808  0.9416
  695MPD2    H210281   0.947   4.098  13.378 -0.4801 -1.6080  0.6467
  695MPD2    H310282   0.808   4.218  13.230 -0.3610  0.0288 -0.6279
  695MPD2     N10283   0.435   4.158  13.495  0.1373 -0.3648  0.3235
  695MPD2    H510284   0.406   4.121  13.585 -2.7018 -1.1439 -0.9068
  695MPD2    N110285   0.864   4.007  13.634  0.4140 -0.5387 -0.0290
  695MPD2    H710286   0.812   3.975  13.716  0.7944  1.3973  0.9580
  696TMC3    C110287   0.205   4.183  13.453 -0.0843  0.3581  0.0338
  696TMC3    C210288   0.176   4.132  13.582  0.2604  0.0200 -0.2684
  696TMC3    C310289   0.044   4.130  13.616 -0.4559 -0.2909 -1.2146
  696TMC3    C410290   0.107   4.213  13.363  0.0794  0.6164  0.1261
  696TMC3    C510291   4.703   4.195  13.401  0.4784  0.6592  0.2249
  696TMC3    C610292   4.673   4.150  13.524 -0.1305 -0.2112  0.6821
  696TMC3     C10293   0.339   4.194  13.403 -0.5489 -0.6015  0.4397
  696TMC3     O10294   0.361   4.258  13.301  0.0542  0.2946  0.2764
  696TMC3     H10295   0.253   4.131  13.658 -0.5564  0.6565  0.5732
  696TMC3    H110296   0.127   4.247  13.262 -0.7618  0.2961 -0.1446
  696TMC3    H210297   4.576   4.175  13.565 -0.6823 -0.7265 -0.3291
  696TMC3    C710298   4.627   4.303  13.346  0.4123 -0.0895  0.3299
  696TMC3    C810299   0.041   4.204  13.749 -0.2463  0.0274 -0.5636
  696TMC3    O110300   4.505   4.292  13.347  0.0470  0.2216  0.1343
  696TMC3    O210301   0.125   4.170  13.832  0.2238 -0.4431  1.5434
  697MPD2     C10302   4.538   1.337  15.674 -0.3342 -0.7427 -0.9048
  697MPD2    C110303   4.572   1.299  15.548  0.5933  0.0600 -0.2529
  697MPD2    C210304   4.584   1.393  15.446  0.5617 -0.5620  0.1348
  697MPD2    C310305   4.569   1.524  15.478 -0.3000  0.0420 -0.4792
  697MPD2    C410306   4.522   1.566  15.603 -0.3718 -0.2692  0.4151
  697MPD2    C510307   4.516   1.470  15.699 -0.1945 -0.8759  0.1717
  697MPD2     H10308   4.609   1.362  15.345  1.1560 -1.0739  0.4448
  697MPD2    H110309   4.510   1.670  15.631 -2.2290 -0.0440 -1.2116
  697MPD2    H210310   4.530   1.269  15.758 -0.4392 -1.4452 -1.4748
  697MPD2    H310311   4.471   1.493  15.795 -0.7661 -0.4583 -0.1970
  697MPD2     N10312   4.597   1.609  15.371  0.0267  1.1707  0.6601
  697MPD2    H510313   4.645   1.570  15.292 -1.2304 -0.6845  0.8082
  697MPD2    N110314   4.584   1.161  15.510  0.0503  0.5381 -0.0522
  697MPD2    H710315   4.603   1.134  15.414 -0.4072 -0.0628  0.0260
  698TMC3    C110316   4.639   1.806  15.262 -0.8188 -0.1586  0.2728
  698TMC3    C210317   4.705   1.929  15.273  0.7270 -0.7024  0.4320
  698TMC3    C310318   0.084   1.948  15.192 -0.0939  0.1341  0.0983
  698TMC3    C410319   4.681   1.714  15.161  0.5330 -0.0761 -0.4555
  698TMC3    C510320   0.055   1.755  15.071 -0.1856  0.1332 -0.2997
  698TMC3    C610321   0.129   1.870  15.097 -0.4265 -0.2120  0.3633
  698TMC3     C10322   4.587   1.747  15.379  0.2890 -0.7108 -0.2640
  698TMC3     O10323   4.575   1.823  15.472  0.2925  0.1814 -0.2710
  698TMC3     H10324   4.687   1.984  15.365  0.1398 -0.4655  0.1742
  698TMC3    H110325   4.625   1.625  15.133  0.0049 -0.4621  1.7881
  698TMC3    H210326   0.193   1.903  15.016 -1.8613  0.1209 -0.6315
  698TMC3    C710327   0.036   1.698  14.940  0.1666  0.4544 -0.4043
  698TMC3    C810328   0.179   2.041  15.249  0.1429 -0.2423 -0.1092
  698TMC3    O110329   4.648   1.676  14.898 -0.3535 -0.1624  0.0282
  698TMC3    O210330   0.137   2.108  15.345  0.3011  0.2850 -0.6324
  699TMC3    C110331   0.276   4.307  12.693  0.6460  0.5538 -0.4006
  699TMC3    C210332   0.361   4.217  12.751  0.0192 -0.8659 -0.1387
  699TMC3    C310333   0.324   4.157  12.865  0.3419  0.4709 -0.0047
  699TMC3    C410334   0.154   4.341  12.753 -0.2147 -0.1924 -0.1480
  699TMC3    C510335   0.119   4.281  12.872 -0.6070 -0.3644 -0.1777
  699TMC3    C610336   0.202   4.190  12.925  0.1016  0.7426 -0.5678
  699TMC3     C10337   0.315   4.380  12.582 -0.2101 -0.9807 -0.1412
  699TMC3     O10338   0.224   4.424  12.513  0.0950  0.0920 -0.1717
  699TMC3     H10339   0.439   4.171  12.692 -0.2888  2.8545 -3.4298
  699TMC3    H110340   0.096   4.417  12.702  0.6921 -0.6583 -1.8594
  699TMC3    H210341   0.173   4.152  13.023  0.7394 -0.8587 -1.0034
  699TMC3    C710342   4.719   4.310  12.945  0.7251 -0.8123 -0.5473
  699TMC3    C810343   0.391   4.044  12.925  0.2181  1.0761  1.0584
  699TMC3    O110344   0.001   4.309  13.067  0.3410  0.0421  0.3205
  699TMC3    O210345   0.315   3.967  12.982 -0.0660 -0.4053 -0.0452
  700TMC3    C110346   3.898   1.880  17.271  0.8046  1.2950 -0.4907
  700TMC3    C210347   3.894   1.737  17.290 -0.2295  0.1757 -0.3703
  700TMC3    C310348   3.968   1.682  17.389 -0.0493  0.6778 -0.0281
  700TMC3    C410349   3.970   1.955  17.352 -0.8540 -0.1238  0.0244
  700TMC3    C510350   4.046   1.899  17.447 -0.2438 -0.0471  0.1882
  700TMC3    C610351   4.059   1.760  17.465  0.2421  0.3037 -0.8812
  700TMC3     C10352   3.875   1.926  17.132  1.1216  0.2930  1.6091
  700TMC3     O10353   3.816   1.868  17.046  0.4079 -0.5764  0.3405
  700TMC3     H10354   3.847   1.674  17.216 -2.4646 -0.8188  1.8629
  700TMC3    H110355   3.958   2.063  17.360 -1.6321 -0.2279  0.2781
  700TMC3    H210356   4.120   1.720  17.545 -0.8639 -0.8565 -0.6131
  700TMC3    C710357   4.134   1.988  17.519  0.2304  0.2108  1.1364
  700TMC3    C810358   4.025   1.544  17.368 -0.1194 -0.2654 -0.0278
  700TMC3    O110359   4.105   2.108  17.526  0.0211  0.0542 -0.7248
  700TMC3    O210360   4.053   1.531  17.249 -0.1819  0.4879  0.0366
  701TMC3    C110361   4.107   0.558  15.227 -0.5728  0.1724 -0.3445
  701TMC3    C210362   4.109   0.560  15.089 -0.1264  0.8788 -0.0125
  701TMC3    C310363   4.168   0.671  15.035  1.0271  0.2961  0.2947
  701TMC3    C410364   4.149   0.667  15.301  0.3845  0.4684 -0.5074
  701TMC3    C510365   4.231   0.760  15.246  0.5799  0.2176 -0.1806
  701TMC3    C610366   4.236   0.762  15.112 -0.0343  0.1597  0.7129
  701TMC3     C10367   4.023   0.459  15.295 -0.2135  0.1983 -0.6008
  701TMC3     O10368   3.989   0.502  15.404  0.3890 -0.1133  0.2317
  701TMC3     H10369   4.091   0.476  15.024  0.4280  0.4988  0.3259
  701TMC3    H110370   4.160   0.644  15.406 -0.3652  0.1755 -0.4906
  701TMC3    H210371   4.287   0.843  15.061 -0.1630 -0.7130 -0.7958
  701TMC3    C710372   4.262   0.885  15.320  0.3027  1.0016  0.8295
  701TMC3    C810373   4.182   0.676  14.891  0.4340  0.6247 -0.4544
  701TMC3    O110374   4.304   0.979  15.253 -0.1936  0.4118  0.0249
  701TMC3    O210375   4.275   0.742  14.848  0.3939  0.2043 -0.2297
  702MPD2     C10376   3.580   2.739  10.704  0.1855 -0.9256 -0.3255
  702MPD2    C110377   3.469   2.815  10.686 -0.5714  0.0012  0.9784
  702MPD2    C210378   3.463   2.884  10.565 -0.0164 -0.2638  0.5768
  702MPD2    C310379   3.554   2.865  10.462  0.1115 -0.8329  0.2880
  702MPD2    C410380   3.667   2.788  10.490 -0.0298  0.1740  0.6236
  702MPD2    C510381   3.673   2.727  10.607  0.1065  0.6564 -0.2876
  702MPD2     H10382   3.380   2.952  10.554 -0.7465 -0.8180  2.5302
  702MPD2    H110383   3.735   2.753  10.413  1.7678 -0.8269  2.6866
  702MPD2    H210384   3.594   2.674  10.790 -0.0116 -0.2189  0.2484
  702MPD2    H310385   3.762   2.667  10.625  1.5331  3.0522  0.5628
  702MPD2     N10386   3.548   2.913  10.331  0.1864 -0.4642 -0.9173
  702MPD2    H510387   3.619   2.889  10.262  1.3135 -1.2268  0.5019
  702MPD2    N110388   3.370   2.841  10.782 -0.3431 -0.3938  0.7310
  702MPD2    H710389   3.301   2.913  10.760  0.6696 -0.8694 -4.0761
  703TMC3    C110390   3.464   3.080  10.188  0.3187  0.2198  0.3853
  703TMC3    C210391   3.370   3.164  10.150 -0.0639  0.1349 -0.1482
  703TMC3    C310392   3.397   3.276  10.086 -0.6428 -0.5787  0.9781
  703TMC3    C410393   3.592   3.109  10.140 -0.0251 -0.2799  0.8722
  703TMC3    C510394   3.619   3.223  10.071 -0.0819  0.0880 -0.2968
  703TMC3    C610395   3.522   3.311  10.038 -0.4033 -0.4049  0.2538
  703TMC3     C10396   3.436   2.990  10.291  0.4204  0.6480  0.3995
  703TMC3     O10397   3.335   3.017  10.352 -0.0703  0.1047 -0.3396
  703TMC3     H10398   3.270   3.133  10.177  0.0360  0.6993  0.8920
  703TMC3    H110399   3.670   3.034  10.147 -0.0687 -0.4934 -0.9343
  703TMC3    H210400   3.534   3.404   9.984  1.2149 -0.7634 -0.0136
  703TMC3    C710401   3.756   3.280  10.082  0.0509 -0.3245 -0.7664
  703TMC3    C810402   3.323   3.389  10.120  0.1424  0.0292 -0.4265
  703TMC3    O110403   3.781   3.389  10.026  0.6285  0.0781  0.0529
  703TMC3    O210404   3.354   3.492  10.057  0.1817 -0.6012 -0.2479
  704TMC3    C110405   1.173   1.528  12.105 -0.1073 -0.8646  0.3608
  704TMC3    C210406   1.303   1.565  12.125  0.0543 -0.3131  0.7335
  704TMC3    C310407   1.372   1.505  12.224 -0.4354 -0.2945 -0.1310
  704TMC3    C410408   1.109   1.430  12.180 -0.0706  0.2778  0.3923
  704TMC3    C510409   1.181   1.372  12.281  0.4076  0.2445  0.2559
  704TMC3    C610410   1.315   1.400  12.296  0.3461  0.3390  0.1249
  704TMC3     C10411   1.141   1.506  11.963  0.4712 -0.4869 -0.2528
  704TMC3     O10412   1.027   1.469  11.937 -0.1085  0.1309 -0.2982
  704TMC3     H10413   1.329   1.649  12.063 -0.6724 -0.0039  0.8412
  704TMC3    H110414   1.010   1.403  12.144  0.7518  1.2736 -2.5950
  704TMC3    H210415   1.373   1.348  12.372  1.5129  1.2859 -0.1333
  704TMC3    C710416   1.132   1.248  12.339 -0.6222  0.1922 -0.4359
  704TMC3    C810417   1.517   1.507  12.213  0.2044  0.2516  0.2795
  704TMC3    O110418   1.220   1.182  12.398 -0.2427 -0.5140  0.4955
  704TMC3    O210419   1.558   1.559  12.107  0.2162  0.6421  0.1550
  705MPD2     C10420   1.066   3.628  16.675  0.2781 -0.3706 -0.5789
  705MPD2    C110421   1.008   3.716  16.585  0.5749 -0.1107  0.2960
  705MPD2    C210422   0.871   3.731  16.584  0.4529 -0.0527  0.6411
  705MPD2    C310423   0.795   3.654  16.667 -0.1754  0.2678  0.6632
  705MPD2    C410424   0.846   3.549  16.737 -0.2604  0.0044  0.0661
  705MPD2    C510425   0.982   3.551  16.754 -0.1085  0.4143 -0.7628
  705MPD2     H10426   0.825   3.807  16.522 -2.1621 -1.9017  0.3037
  705MPD2    H110427   0.781   3.483  16.792  0.3794 -0.6475  0.0376
  705MPD2    H210428   1.173   3.616  16.692  0.1678  1.9104  1.7268
  705MPD2    H310429   1.039   3.474  16.803  1.6093  2.9146  1.1658
  705MPD2     N10430   0.655   3.671  16.682  0.1714  0.2846  0.3847
  705MPD2    H510431   0.596   3.602  16.726  1.2168 -0.0198  1.3238
  705MPD2    N110432   1.074   3.799  16.493  0.2615 -0.0068 -0.0399
  705MPD2    H710433   1.022   3.868  16.439 -1.0564 -1.6975 -0.9276
  706TMC3    C110434   1.356   3.969  16.175  0.1535  0.1745 -0.1000
  706TMC3    C210435   1.278   4.074  16.161  0.7479 -0.5869  0.4794
  706TMC3    C310436   1.186   4.104  16.260  0.3560 -0.8240 -0.8696
  706TMC3    C410437   1.336   3.879  16.284  0.8527  0.7338  0.6061
  706TMC3    C510438   1.234   3.906  16.373  0.4149 -0.2673  0.0560
  706TMC3    C610439   1.158   4.015  16.363  0.3050 -1.1072 -0.5861
  706TMC3     C10440   1.472   3.941  16.085  0.2264 -0.0791 -0.3258
  706TMC3     O10441   1.556   3.865  16.133  0.5265 -0.2598  0.1572
  706TMC3     H10442   1.288   4.149  16.083 -0.0939 -0.6612  0.2971
  706TMC3    H110443   1.406   3.798  16.300  0.1519 -0.0101 -0.1038
  706TMC3    H210444   1.090   4.051  16.439  0.6172  0.2201 -0.9368
  706TMC3    C710445   1.209   3.805  16.470 -0.1503  0.0363 -0.5732
  706TMC3    C810446   1.099   4.218  16.235  0.0916 -0.2514 -0.2031
  706TMC3    O110447   1.285   3.714  16.498 -0.6014  0.1901  0.5163
  706TMC3    O210448   1.076   4.238  16.117  0.3095  0.2659  0.3578
  707TMC3    C110449   2.237   3.295   1.192 -0.0221  0.2212  0.1404
  707TMC3    C210450   2.175   3.176   1.221 -0.2211 -0.1782 -0.1990
  707TMC3    C310451   2.040   3.159   1.216  0.4742 -0.4353  0.1634
  707TMC3    C410452   2.164   3.413   1.161 -0.2565 -0.9205 -0.1430
  707TMC3    C510453   2.026   3.391   1.163 -0.1566 -0.8562 -0.2703
  707TMC3    C610454   1.964   3.268   1.182 -0.0619 -0.3163  0.8650
  707TMC3     C10455   2.376   3.288   1.164  0.1437 -0.0667  0.7425
  707TMC3     O10456   2.434   3.186   1.208 -0.4336  0.2760  0.1723
  707TMC3     H10457   2.231   3.099   1.273 -2.7187 -1.6532  0.3016
  707TMC3    H110458   2.209   3.511   1.153 -2.2699  0.1456  1.6966
  707TMC3    H210459   1.857   3.257   1.177  0.2764 -3.3938  0.3727
  707TMC3    C710460   1.946   3.511   1.148 -0.2188 -0.3300 -0.5190
  707TMC3    C810461   1.988   3.034   1.174 -0.0664 -0.5793  0.0579
  707TMC3    O110462   2.004   3.615   1.175  0.1923  0.3560  0.2348
  707TMC3    O210463   1.864   3.023   1.175 -1.1127  0.3103  0.1087
  708MPD2     C10464   4.071   3.242  13.637  0.0755 -0.8227 -0.2825
  708MPD2    C110465   4.185   3.161  13.660 -0.1386 -0.6138 -0.6227
  708MPD2    C210466   4.312   3.223  13.691 -0.1504 -0.4531 -0.1694
  708MPD2    C310467   4.321   3.361  13.674  0.1783  0.1677  0.9911
  708MPD2    C410468   4.207   3.436  13.649 -0.1299  0.3321  0.1310
  708MPD2    C510469   4.085   3.378  13.641  0.3028  0.1885 -0.1931
  708MPD2     H10470   4.391   3.156  13.723  1.8531  2.3232  0.6678
  708MPD2    H110471   4.207   3.544  13.645  0.9899  0.3478  0.3967
  708MPD2    H210472   3.980   3.204  13.590 -2.9658  3.3272  2.2318
  708MPD2    H310473   3.999   3.442  13.621  1.1820  1.7381  1.0311
  708MPD2     N10474   4.445   3.431  13.701 -0.0654 -0.1809  0.1121
  708MPD2    H510475   4.443   3.530  13.725 -1.1689 -0.3471  0.6826
  708MPD2    N110476   4.169   3.024  13.654 -0.0208  0.4537 -0.4463
  708MPD2    H710477   4.075   2.993  13.632  0.2144  0.5411 -1.5499
  709TMC3    C110478   4.242   2.795  13.649  0.5357  0.4512 -0.5188
  709TMC3    C210479   4.202   2.812  13.520  0.0438  0.2551  0.2556
  709TMC3    C310480   4.277   2.761  13.416 -0.5500 -0.4625  0.5514
  709TMC3    C410481   4.349   2.722  13.673  0.5004  0.3549 -0.2893
  709TMC3    C510482   4.429   2.683  13.571  0.5016 -0.7006  0.3548
  709TMC3    C610483   4.392   2.697  13.440  0.6297  0.0349 -0.2376
  709TMC3     C10484   4.259   2.931  13.705 -0.3516  0.1018 -0.0985
  709TMC3     O10485   4.354   2.945  13.777 -0.4737 -0.2103 -0.2268
  709TMC3     H10486   4.103   2.842  13.488  0.1337  0.2436 -0.0326
  709TMC3    H110487   4.387   2.713  13.774 -1.0244  0.1688  0.2648
  709TMC3    H210488   4.458   2.677  13.356 -0.1296 -1.1991 -0.5323
  709TMC3    C710489   4.556   2.746  13.593 -0.0780 -0.3392  0.6453
  709TMC3    C810490   4.214   2.764  13.282 -0.1772 -0.1399 -0.8246
  709TMC3    O110491   4.588   2.831  13.512 -0.4585  0.4318 -0.6209
  709TMC3    O210492   4.150   2.866  13.258 -0.1340  0.2955 -0.4296
  710TMC3    C110493   0.772   3.906   0.275  0.7554 -0.1104  0.1101
  710TMC3    C210494   0.861   3.911   0.165 -0.6502  0.6999 -0.1016
  710TMC3    C310495   0.843   3.815   0.071 -0.1352 -0.1725 -0.1575
  710TMC3    C410496   0.684   3.797   0.288  0.2108  0.4792  0.5372
  710TMC3    C510497   0.679   3.704   0.183  0.1923 -0.1671  0.9056
  710TMC3    C610498   0.771   3.710   0.083  0.7427  0.0774 -0.6199
  710TMC3     C10499   0.770   4.016   0.366  0.0695 -0.6025  0.4424
  710TMC3     O10500   0.837   4.109   0.329 -0.9371  0.3981 -0.1205
  710TMC3     H10501   0.923   3.998   0.148  0.4284  0.3020  1.7969
  710TMC3    H110502   0.619   3.781   0.373 -0.2148  0.8083  0.2721
  710TMC3    H210503   0.785   3.640   0.001  0.3885 -2.5597  1.5721
  710TMC3    C710504   0.583   3.604   0.195 -0.4019  0.1366  0.1194
  710TMC3    C810505   0.930   3.816  17.654  0.0901  0.1015  0.0011
  710TMC3    O110506   0.500   3.621   0.284 -0.0386 -0.0660 -0.4811
  710TMC3    O210507   0.891   3.771  17.550  0.0820  0.6197  0.2340
  711TMC3    C110508   4.528   4.723  14.932  0.1902  0.1510  0.2512
  711TMC3    C210509   4.549   0.094  15.026  0.4412 -0.0154 -0.3037
  711TMC3    C310510   4.659   0.083  15.106  0.5087  0.5087 -0.2910
  711TMC3    C410511   4.627   4.639  14.898  0.1950 -0.0843 -0.0188
  711TMC3    C510512   0.017   4.637  14.966  0.0356 -0.2703 -0.4253
  711TMC3    C610513   0.037   0.000  15.067 -0.6535  0.2055 -0.4334
  711TMC3     C10514   4.414   4.715  14.848  0.9010  0.9117  0.1547
  711TMC3     O10515   4.361   4.605  14.827 -0.1933 -0.1419  0.3336
  711TMC3     H10516   4.472   0.164  15.057 -0.2008 -0.7937 -0.1271
  711TMC3    H110517   4.612   4.572  14.814  2.4486 -0.5294 -0.0565
  711TMC3    H210518   0.126   4.722  15.128 -0.7574 -1.4912 -0.3685
  711TMC3    C710519   0.096   4.510  14.964  0.6394  0.0615 -0.2601
  711TMC3    C810520   4.662   0.165  15.223  0.2743  0.3358 -0.1000
  711TMC3    O110521   0.150   4.483  15.070 -0.1747 -0.2457  0.0162
  711TMC3    O210522   4.588   0.264  15.224  0.0899  0.3424  0.4286
  712MPD2     C10523   0.986   1.462  13.233  0.3762 -0.5569 -0.0292
  712MPD2    C110524   1.057   1.380  13.316 -0.1991  0.0547  0.0070
  712MPD2    C210525   1.163   1.436  13.396 -0.4291  0.0041 -0.0650
  712MPD2    C310526   1.178   1.573  13.397 -0.3184 -0.3426  0.1799
  712MPD2    C410527   1.104   1.659  13.311 -0.2499  0.6810 -0.1154
  712MPD2    C510528   1.006   1.597  13.233 -1.0201 -0.7231 -0.5362
  712MPD2     H10529   1.218   1.368  13.460 -2.0021 -0.5304  0.7346
  712MPD2    H110530   1.117   1.766  13.324  4.0646  0.0311  1.0024
  712MPD2    H210531   0.907   1.419  13.171 -0.9011 -0.4274  1.4996
  712MPD2    H310532   0.953   1.669  13.172 -1.1710 -1.5821 -1.4157
  712MPD2     N10533   1.269   1.633  13.486 -0.5932 -0.4466  0.2855
  712MPD2    H510534   1.271   1.734  13.501 -0.6021 -0.0654 -2.3963
  712MPD2    N110535   1.023   1.244  13.308  0.3771  0.2629 -0.0399
  712MPD2    H710536   0.961   1.212  13.236  1.4321 -3.0897  0.5625
  713TMC3    C110537   1.429   1.660  13.646  0.0437  0.4081 -0.3233
  713TMC3    C210538   1.559   1.623  13.690  0.1919 -0.8306 -0.6262
  713TMC3    C310539   1.618   1.699  13.780  0.7249  0.5773 -0.2551
  713TMC3    C410540   1.362   1.778  13.676  0.2669 -0.1237  0.1232
  713TMC3    C510541   1.430   1.857  13.756 -0.7537 -0.3317 -0.3478
  713TMC3    C610542   1.554   1.819  13.809  0.0537  0.4320  0.1405
  713TMC3     C10543   1.365   1.571  13.559 -0.2242 -0.7784 -0.6597
  713TMC3     O10544   1.401   1.454  13.564 -0.2236  0.3618  0.2261
  713TMC3     H10545   1.593   1.531  13.643  1.7762  0.2705 -1.6441
  713TMC3    H110546   1.255   1.793  13.661  0.0368  0.4992  2.3484
  713TMC3    H210547   1.606   1.887  13.875  1.0759  1.1000 -1.3421
  713TMC3    C710548   1.365   1.973  13.816  0.7645 -0.3785 -0.5052
  713TMC3    C810549   1.758   1.740  13.758 -0.4115 -0.1981  0.4022
  713TMC3    O110550   1.402   2.001  13.930 -0.1499  0.2661  0.0263
  713TMC3    O210551   1.775   1.825  13.669 -0.8431  0.4544 -0.0069
  714MPD2     C10552   3.170   4.549   1.199 -0.0830  0.2409  0.0029
  714MPD2    C110553   3.217   4.482   1.090 -0.7644 -0.3468  0.2657
  714MPD2    C210554   3.135   4.466   0.975 -0.8948  0.6807 -0.0374
  714MPD2    C310555   3.010   4.513   0.981 -0.0294 -0.1945 -0.3854
  714MPD2    C410556   2.965   4.589   1.088 -0.1394  0.1182 -0.6993
  714MPD2    C510557   3.052   4.605   1.193 -0.1195  0.0947  0.4824
  714MPD2     H10558   3.169   4.407   0.890  1.2651 -0.8661  1.9264
  714MPD2    H110559   2.876   4.648   1.075 -1.2784 -1.4201  0.0875
  714MPD2    H210560   3.224   4.560   1.293  0.3699  0.3376 -0.2714
  714MPD2    H310561   3.032   4.667   1.279  0.7350  1.4028 -0.2541
  714MPD2     N10562   2.921   4.492   0.870  0.3754  0.0271  0.0903
  714MPD2    H510563   2.970   4.460   0.787 -0.7640 -3.6356  0.8718
  714MPD2    N110564   3.346   4.421   1.096  0.1877  0.6989 -0.4725
  714MPD2    H710565   3.392   4.423   1.186 -0.5517  0.1698 -0.0785
  715TMC3    C110566   3.533   4.282   1.047 -0.1991 -0.9615  1.1735
  715TMC3    C210567   3.577   4.175   0.973  0.6707 -0.6740 -0.0088
  715TMC3    C310568   3.677   4.100   1.022  0.6974  0.7076  0.2318
  715TMC3    C410569   3.599   4.327   1.164  0.1876 -0.0151 -0.4685
  715TMC3    C510570   3.702   4.246   1.212 -0.5324  0.0996 -0.3220
  715TMC3    C610571   3.742   4.131   1.138 -0.4396  0.5245  0.2711
  715TMC3     C10572   3.415   4.344   1.001 -0.0280  0.1555 -0.2016
  715TMC3     O10573   3.395   4.341   0.881 -0.4914 -0.6559  0.3436
  715TMC3     H10574   3.529   4.145   0.881 -0.3412 -0.9363  0.6046
  715TMC3    H110575   3.568   4.417   1.216 -2.8874 -0.6742 -1.1464
  715TMC3    H210576   3.832   4.085   1.177  0.1138  0.8149 -0.6639
  715TMC3    C710577   3.791   4.285   1.324 -0.1255 -0.3827 -0.6668
  715TMC3    C810578   3.720   3.985   0.944 -0.2116 -0.0764  0.7197
  715TMC3    O110579   3.904   4.234   1.339 -0.2073 -0.6911  0.4337
  715TMC3    O210580   3.644   3.943   0.858 -0.8340 -0.1617  0.2610
  716MPD2     C10581   3.234   2.616  10.461 -0.4535 -0.3915  0.2394
  716MPD2    C110582   3.257   2.658  10.331 -1.1363 -0.0697 -0.6827
  716MPD2    C210583   3.373   2.621  10.273  0.2298 -0.2714  0.1498
  716MPD2    C310584   3.467   2.546  10.335  0.3406  0.1148  0.9540
  716MPD2    C410585   3.446   2.492  10.457  0.2166  0.9580 -0.1038
  716MPD2    C510586   3.332   2.538  10.522 -0.8628  0.4221  0.4117
  716MPD2     H10587   3.405   2.640  10.171 -0.9841 -0.5156 -0.2789
  716MPD2    H110588   3.516   2.427  10.507 -1.1341 -0.5574 -0.1584
  716MPD2    H210589   3.144   2.646  10.514 -0.9089 -0.0898 -0.7082
  716MPD2    H310590   3.324   2.515  10.627  2.8305 -1.7097  0.2515
  716MPD2     N10591   3.582   2.503  10.259 -1.3014 -0.5320  0.2622
  716MPD2    H510592   3.595   2.544  10.167 -0.4532  0.0209  0.6312
  716MPD2    N110593   3.159   2.730  10.262 -0.3195 -0.3556 -0.6368
  716MPD2    H710594   3.066   2.745  10.300  0.4977  2.1261  0.3565
  717TMC3    C110595   3.777   2.400  10.182 -0.4697  0.1358  0.1903
  717TMC3    C210596   3.748   2.435  10.050 -0.5017 -0.1507 -0.2096
  717TMC3    C310597   3.828   2.390   9.955 -0.6097  0.6992 -0.1479
  717TMC3    C410598   3.890   2.332  10.213 -0.5830  0.4493  0.2273
  717TMC3    C510599   3.972   2.292  10.105 -0.1803  0.3129 -0.6308
  717TMC3    C610600   3.940   2.322   9.974  0.5765 -0.1821 -0.6638
  717TMC3     C10601   3.685   2.420  10.295 -0.8325  0.6368 -0.2255
  717TMC3     O10602   3.703   2.356  10.397 -0.1553 -0.4060  0.7937
  717TMC3     H10603   3.658   2.485  10.017 -1.3923 -1.4170  0.3020
  717TMC3    H110604   3.920   2.325  10.317 -1.3864 -0.3980  0.3989
  717TMC3    H210605   3.999   2.280   9.893 -0.5196 -0.9075 -1.0875
  717TMC3    C710606   4.097   2.224  10.133 -0.0915 -0.3630 -0.4585
  717TMC3    C810607   3.788   2.444   9.829 -0.4169  0.9772  0.3704
  717TMC3    O110608   4.119   2.200  10.252  0.3902 -0.3014 -0.1943
  717TMC3    O210609   3.668   2.437   9.808  0.1881  0.1883 -0.1854
  718MPD2     C10610   2.807   1.360  13.194  0.4528 -0.2566 -0.1315
  718MPD2    C110611   2.800   1.488  13.152  0.1989 -0.4125  0.6625
  718MPD2    C210612   2.671   1.543  13.130  0.4141 -0.5851 -0.5343
  718MPD2    C310613   2.555   1.466  13.136 -0.0215  0.1774  0.5425
  718MPD2    C410614   2.563   1.343  13.187 -0.1641  0.7519  0.1511
  718MPD2    C510615   2.691   1.293  13.222  0.3229 -0.1000  0.8031
  718MPD2     H10616   2.662   1.649  13.108 -0.6689 -1.1285 -2.8286
  718MPD2    H110617   2.476   1.280  13.203  0.5889 -0.1023  0.8943
  718MPD2    H210618   2.898   1.310  13.223  0.9545 -0.2917 -1.7789
  718MPD2    H310619   2.688   1.199  13.275  0.0421 -0.9162 -0.6666
  718MPD2     N10620   2.437   1.537  13.100 -0.2645 -0.6041  0.3226
  718MPD2    H510621   2.453   1.628  13.058  0.0500 -0.3475  0.9970
  718MPD2    N110622   2.913   1.576  13.139 -0.0434 -0.2304 -0.5804
  718MPD2    H710623   2.884   1.668  13.107 -2.8696 -0.2417  1.8890
  719TMC3    C110624   3.122   1.623  13.060  0.0211 -0.0728  0.4678
  719TMC3    C210625   3.059   1.744  13.069 -0.2779 -0.2393 -0.1541
  719TMC3    C310626   3.018   1.816  12.956 -0.8699  0.1834 -0.0939
  719TMC3    C410627   3.171   1.581  12.943 -0.2497  0.0043  1.2461
  719TMC3    C510628   3.142   1.659  12.830 -0.3658  0.6386  0.3327
  719TMC3    C610629   3.048   1.762  12.834 -0.7318 -0.4627 -0.3559
  719TMC3     C10630   3.044   1.523  13.127 -0.4989 -0.2798  0.2990
  719TMC3     O10631   3.076   1.402  13.131 -0.4968 -0.4079 -0.2235
  719TMC3     H10632   3.035   1.792  13.163 -0.5853 -0.8694  0.0880
  719TMC3    H110633   3.230   1.491  12.934 -0.3339  0.2223 -1.3051
  719TMC3    H210634   3.020   1.815  12.744  1.6484 -1.4873 -1.6887
  719TMC3    C710635   3.243   1.663  12.725  0.4311 -0.0557  0.2431
  719TMC3    C810636   2.889   1.881  12.962 -0.3154  0.0657 -0.0986
  719TMC3    O110637   3.209   1.695  12.611 -0.1757 -0.2048  0.2232
  719TMC3    O210638   2.837   1.869  13.074  0.0370  0.3623  0.6339
  720MPD2     C10639   1.593   3.127  14.077  0.0944  0.1146  0.6651
  720MPD2    C110640   1.682   3.133  13.971 -0.1119 -0.0170 -0.4963
  720MPD2    C210641   1.819   3.136  13.996  0.1761  0.1401  0.2555
  720MPD2    C310642   1.870   3.111  14.116 -0.2764  0.6207  0.4576
  720MPD2    C410643   1.785   3.089  14.226 -0.9192  0.8766  0.1355
  720MPD2    C510644   1.648   3.103  14.202  0.1788  0.2293  0.4147
  720MPD2     H10645   1.885   3.151  13.911  0.0645 -1.0594 -0.0469
  720MPD2    H110646   1.820   3.078  14.328  0.1695 -1.9192 -0.5450
  720MPD2    H210647   1.486   3.143  14.073  0.2181  0.9020  0.4336
  720MPD2    H310648   1.580   3.103  14.287  0.5274  0.1505  0.6914
  720MPD2     N10649   2.011   3.114  14.131 -0.9032  0.7051  0.3535
  720MPD2    H510650   2.061   3.127  14.043  1.1553 -0.2791  1.4060
  720MPD2    N110651   1.647   3.151  13.838  0.1830 -0.2395 -0.2687
  720MPD2    H710652   1.715   3.167  13.764 -1.4824  1.3558 -1.4479
  721TMC3    C110653   2.210   3.060  14.228  0.8546 -0.2614  0.2836
  721TMC3    C210654   2.266   2.980  14.329 -0.2054 -0.1473  0.1639
  721TMC3    C310655   2.400   2.957  14.316 -0.2364 -0.3822 -0.5753
  721TMC3    C410656   2.280   3.135  14.137 -0.4189 -0.7253 -0.6703
  721TMC3    C510657   2.414   3.094  14.129  0.4673 -0.2862 -0.2988
  721TMC3    C610658   2.473   3.008  14.214  0.1803 -0.0438  0.2126
  721TMC3     C10659   2.076   3.107  14.251 -0.1998 -0.0835  0.4592
  721TMC3     O10660   2.042   3.101  14.368  0.6398 -0.0685 -0.4741
  721TMC3     H10661   2.199   2.930  14.398 -0.8585  0.3962 -0.0775
  721TMC3    H110662   2.226   3.199  14.069 -2.2187 -1.2472  0.2672
  721TMC3    H210663   2.580   2.994  14.206 -0.0510 -2.1622  0.9489
  721TMC3    C710664   2.498   3.171  14.047 -1.2237  0.5255  0.1622
  721TMC3    C810665   2.457   2.861  14.410  0.2839  0.6870  0.5617
  721TMC3    O110666   2.613   3.132  14.026 -0.2542  0.2772 -0.2126
  721TMC3    O210667   2.558   2.804  14.377  0.0353 -0.1977 -0.0072
  722MPD2     C10668   0.199   1.966  13.375 -0.3315  0.4668 -0.6209
  722MPD2    C110669   0.229   2.056  13.279 -0.2334 -0.1499 -0.0195
  722MPD2    C210670   0.152   2.048  13.162 -0.4356  0.4062 -0.0186
  722MPD2    C310671   0.078   1.935  13.128 -0.2431 -0.0711  0.3672
  722MPD2    C410672   0.078   1.833  13.223  0.0686 -1.0645 -0.0656
  722MPD2    C510673   0.142   1.847  13.339  0.4889 -0.3810 -0.5984
  722MPD2     H10674   0.170   2.127  13.090 -1.5180  1.4927  0.8970
  722MPD2    H110675   0.033   1.735  13.225 -0.2155 -0.9750 -1.7680
  722MPD2    H210676   0.240   1.966  13.475 -0.4394  1.6879 -0.5847
  722MPD2    H310677   0.139   1.759  13.402  0.5507 -0.4028 -0.6257
  722MPD2     N10678   0.002   1.930  13.013  0.1444 -0.4796  0.3462
  722MPD2    H510679   4.686   2.018  12.983  1.3770  0.1599  0.5604
  722MPD2    N110680   0.325   2.161  13.301  0.3506  0.0053  0.6539
  722MPD2    H710681   0.319   2.237  13.234  0.7784  1.5266  2.3401
  723TMC3    C110682   4.576   1.825  12.855  0.0535  1.2411  0.2273
  723TMC3    C210683   4.483   1.724  12.856 -0.2000 -0.3683  0.0548
  723TMC3    C310684   4.356   1.764  12.811 -1.0118  0.4786 -0.1200
  723TMC3    C410685   4.546   1.957  12.820 -0.1751  1.0126 -0.1110
  723TMC3    C510686   4.414   1.989  12.798  0.1217  0.6151 -0.1704
  723TMC3    C610687   4.324   1.893  12.779 -0.8911  0.2972  0.5528
  723TMC3     C10688   4.680   1.813  12.959  0.0171 -0.5437 -0.1296
  723TMC3     O10689   4.714   1.700  12.992 -0.1631  0.0850  0.2735
  723TMC3     H10690   4.497   1.634  12.915  0.9402 -0.8684 -0.9839
  723TMC3    H110691   4.629   2.020  12.789  0.6143 -0.4713 -1.0050
  723TMC3    H210692   4.224   1.930  12.762 -0.7282  0.8078  0.6993
  723TMC3    C710693   4.397   2.087  12.697 -0.2123 -0.3418 -0.5908
  723TMC3    C810694   4.255   1.673  12.771 -0.5924  0.6341 -0.2538
  723TMC3    O110695   4.358   2.046  12.593  0.7009 -0.1254  0.0021
  723TMC3    O210696   4.141   1.711  12.752  0.0353 -0.1376 -0.2098
  724TMC3    C110697   0.135   4.250  10.145 -0.2031  0.1804  0.4194
  724TMC3    C210698   0.171   4.344  10.049  0.6379  1.0705  0.3016
  724TMC3    C310699   0.284   4.419  10.070 -1.1327 -0.4729  0.4431
  724TMC3    C410700   0.203   4.252  10.262 -0.2930  0.3466 -0.7727
  724TMC3    C510701   0.297   4.357  10.288 -0.0544 -0.2451  0.7397
  724TMC3    C610702   0.345   4.435  10.191  0.5070  1.1676 -0.2444
  724TMC3     C10703   0.008   4.185  10.137  0.4275  0.6367 -0.3532
  724TMC3     O10704   4.696   4.128  10.234  0.2314 -0.0165  0.4186
  724TMC3     H10705   0.141   4.324   9.947  0.3482 -0.2338  0.6474
  724TMC3    H110706   0.170   4.186  10.342  0.8033  2.3655  1.3547
  724TMC3    H210707   0.434   4.493  10.208  0.1791  1.0451  1.8744
  724TMC3    C710708   0.401   4.335  10.385  0.2413  0.6120  1.0271
  724TMC3    C810709   0.312   4.518   9.961  0.4184 -0.7310 -0.2160
  724TMC3    O110710   0.514   4.361  10.351  0.4770 -0.2552 -0.0683
  724TMC3    O210711   0.233   4.519   9.869  0.5651 -0.7755  0.2105
  725TMC3    C110712   2.177   3.800  12.617  0.6018 -0.0671 -0.6581
  725TMC3    C210713   2.137   3.809  12.484  0.3300  0.7443  0.4008
  725TMC3    C310714   2.137   3.691  12.428 -0.8937  0.4690  0.0726
  725TMC3    C410715   2.212   3.690  12.685  0.0255 -0.2584  0.1540
  725TMC3    C510716   2.215   3.574  12.617  0.1595 -1.0729 -0.2002
  725TMC3    C610717   2.185   3.574  12.484 -0.1555 -0.7595 -0.2529
  725TMC3     C10718   2.178   3.921  12.687 -0.2369 -0.1551  0.2223
  725TMC3     O10719   2.209   4.021  12.622 -0.0878 -0.1879  0.1953
  725TMC3     H10720   2.104   3.902  12.438 -1.4296 -1.2729 -2.4097
  725TMC3    H110721   2.275   3.700  12.772 -1.1952  0.6117  0.9278
  725TMC3    H210722   2.202   3.486  12.424  1.2478  0.4930 -1.6943
  725TMC3    C710723   2.263   3.448  12.671  0.3341 -0.2890  0.6318
  725TMC3    C810724   2.077   3.660  12.301 -0.1515 -0.0132  0.2150
  725TMC3    O110725   2.265   3.348  12.600 -0.6746 -0.7859  0.2899
  725TMC3    O210726   2.052   3.547  12.271  0.7799  0.5420  0.8323
  726MPD2     C10727   4.460   0.061   9.975 -0.1937  0.4052 -0.6130
  726MPD2    C110728   4.398   0.176  10.022 -0.2782  0.3929 -0.6108
  726MPD2    C210729   4.261   0.173  10.034 -0.4916  0.0629 -0.1503
  726MPD2    C310730   4.188   0.065  10.004 -0.5873 -0.2113  0.3874
  726MPD2    C410731   4.251   4.683   9.943  0.2052  0.3786  0.5790
  726MPD2    C510732   4.390   4.683   9.929 -0.7379 -0.2978 -0.1937
  726MPD2     H10733   4.210   0.256  10.082  2.0947  0.3004  2.2004
  726MPD2    H110734   4.196   4.597   9.908 -1.2510  2.2844 -1.8161
  726MPD2    H210735   4.568   0.049   9.979 -0.4042 -1.2707 -0.0586
  726MPD2    H310736   4.434   4.592   9.890 -1.2883 -0.3197 -0.7600
  726MPD2     N10737   4.048   0.054  10.016 -0.0402 -0.4883 -0.2580
  726MPD2    H510738   4.002   4.699   9.973 -0.2515 -0.5189  0.0303
  726MPD2    N110739   4.472   0.295  10.045  0.5050  0.1077 -0.4038
  726MPD2    H710740   4.426   0.385  10.041  0.6739  0.3212  2.4246
  727TMC3    C110741   4.661   0.403  10.098 -0.5440 -0.7933  0.3732
  727TMC3    C210742   0.035   0.427  10.186 -0.4301  0.3090  0.4294
  727TMC3    C310743   0.103   0.548  10.180  0.2446  0.0876 -0.2816
  727TMC3    C410744   4.626   0.499  10.009  0.6243  0.5454 -0.0319
  727TMC3    C510745   4.691   0.619  10.012 -0.0259  0.8168  0.0081
  727TMC3    C610746   0.075   0.642  10.086 -0.0752  0.3746 -0.7169
  727TMC3     C10747   4.590   0.281  10.104  0.5235  0.1681 -0.2236
  727TMC3     O10748   4.634   0.189  10.171 -0.1833 -0.2456  0.1929
  727TMC3     H10749   0.058   0.343  10.250 -1.1850 -0.9443 -0.9454
  727TMC3    H110750   4.544   0.482   9.940 -0.3905  0.7596  1.0983
  727TMC3    H210751   0.146   0.724  10.090  2.1038 -1.5698  0.8026
  727TMC3    C710752   4.673   0.699   9.890  0.4541 -0.0164 -0.0687
  727TMC3    C810753   0.187   0.580  10.294  0.1008 -0.4368  0.2148
  727TMC3    O110754   4.649   0.641   9.782  0.0409 -0.5891 -0.1989
  727TMC3    O210755   0.214   0.487  10.368  0.3283 -0.4655  0.2850
  728TMC3    C110756   3.761   3.751  14.960 -0.8393  0.9972  0.1583
  728TMC3    C210757   3.827   3.717  15.074 -0.1233 -0.2812 -0.3394
  728TMC3    C310758   3.950   3.665  15.042 -0.8130  0.0621 -0.6338
  728TMC3    C410759   3.807   3.753  14.829 -0.3780 -1.0459  0.1948
  728TMC3    C510760   3.935   3.708  14.808  0.0690  0.4079 -0.1986
  728TMC3    C610761   4.006   3.648  14.917  0.6532 -0.5450 -0.2855
  728TMC3     C10762   3.620   3.787  14.979 -0.2841  0.7300  0.3402
  728TMC3     O10763   3.556   3.808  14.876 -0.8601 -0.0479 -0.2302
  728TMC3     H10764   3.784   3.724  15.173  1.9012 -0.7073  0.5749
  728TMC3    H110765   3.746   3.787  14.746  0.5805  1.8852  0.6953
  728TMC3    H210766   4.110   3.625  14.897  1.0876  0.9866  0.2386
  728TMC3    C710767   4.010   3.744  14.689  0.3400 -0.0520 -0.5904
  728TMC3    C810768   4.018   3.629  15.157 -0.0258  0.3176 -0.0730
  728TMC3    O110769   4.120   3.684  14.676  0.3888 -0.1187 -0.2596
  728TMC3    O210770   3.987   3.672  15.265 -0.1435 -0.4758  0.0522
  729MPD2     C10771   0.557   0.129  16.815 -0.3153  0.1657 -0.5178
  729MPD2    C110772   0.682   0.185  16.827 -0.2267 -0.8064 -0.2152
  729MPD2    C210773   0.737   0.229  16.942 -0.0540 -0.2024  0.2116
  729MPD2    C310774   0.669   0.198  17.055  0.5821  0.2129 -1.0585
  729MPD2    C410775   0.543   0.140  17.048  0.0260  0.0417 -0.1748
  729MPD2    C510776   0.493   0.103  16.928 -0.0714 -0.6431  0.0649
  729MPD2     H10777   0.836   0.272  16.957  0.7912 -2.5371  1.3729
  729MPD2    H110778   0.486   0.119  17.137 -1.5955 -0.0629 -1.2521
  729MPD2    H210779   0.516   0.093  16.722 -0.1728 -2.1578  0.3245
  729MPD2    H310780   0.399   0.049  16.927 -0.7651  0.5592 -1.0745
  729MPD2     N10781   0.717   0.249  17.173  0.2093 -0.7740 -0.4290
  729MPD2    H510782   0.814   0.279  17.178 -0.5500  1.1630  2.9108
  729MPD2    N110783   0.759   0.199  16.703  0.1572  0.3983  0.0314
  729MPD2    H710784   0.706   0.207  16.617  0.9972 -1.6222 -0.6925
  730TMC3    C110785   0.724   0.341  17.380  0.3325 -0.0564 -0.3290
  730TMC3    C210786   0.857   0.318  17.386 -0.2607  1.3398 -0.1193
  730TMC3    C310787   0.945   0.413  17.430 -0.0797 -0.2071 -0.0513
  730TMC3    C410788   0.674   0.464  17.421 -0.7345 -0.1878 -0.0614
  730TMC3    C510789   0.766   0.561  17.450  0.6482  0.0216 -0.1656
  730TMC3    C610790   0.902   0.542  17.458  0.7706  0.1016  0.5737
  730TMC3     C10791   0.643   0.271  17.283 -0.5231 -0.2166  0.2967
  730TMC3     O10792   0.519   0.279  17.294  0.0666  0.7711 -0.2135
  730TMC3     H10793   0.893   0.221  17.352  2.2027  1.4510  2.1675
  730TMC3    H110794   0.569   0.485  17.400 -0.4067  2.4489  0.9802
  730TMC3    H210795   0.970   0.623  17.480  0.7774  0.3344 -0.3101
  730TMC3    C710796   0.722   0.698  17.454 -0.1717 -0.0309 -0.6631
  730TMC3    C810797   1.085   0.372  17.449  0.6389 -0.2213 -0.4177
  730TMC3    O110798   0.609   0.725  17.497  0.0710 -0.0248  0.1531
  730TMC3    O210799   1.096   0.250  17.435  0.1222  0.0348 -0.1938
  731MPD2     C10800   1.454   2.570  12.404 -0.1034  0.0519 -0.3524
  731MPD2    C110801   1.566   2.650  12.411 -0.0641  0.0728  0.3833
  731MPD2    C210802   1.644   2.638  12.526 -0.2501 -0.5295  0.1798
  731MPD2    C310803   1.629   2.532  12.613 -0.1732  0.6459 -0.2990
  731MPD2    C410804   1.516   2.454  12.595 -0.3221 -0.2333 -0.8219
  731MPD2    C510805   1.425   2.479  12.499  0.7939 -0.8725  0.1502
  731MPD2     H10806   1.731   2.700  12.545 -1.5164  0.5826  2.3597
  731MPD2    H110807   1.503   2.362  12.652 -0.4626  0.7455  0.7190
  731MPD2    H210808   1.385   2.589  12.323 -0.8206  0.7850  0.4325
  731MPD2    H310809   1.335   2.418  12.498 -1.6808  2.7599  0.2515
  731MPD2     N10810   1.720   2.509  12.718  0.2726 -0.0071  0.1203
  731MPD2    H510811   1.803   2.567  12.717 -0.4840  1.0446 -0.9087
  731MPD2    N110812   1.587   2.736  12.302  0.3994  0.6076 -0.6148
  731MPD2    H710813   1.533   2.719  12.217  2.2373 -0.7712 -1.5211
  732TMC3    C110814   1.717   2.865  12.155 -0.1869 -0.0873  0.3659
  732TMC3    C210815   1.625   2.856  12.060 -0.0877  0.7825  0.1477
  732TMC3    C310816   1.664   2.874  11.933  0.5582 -0.3324  0.2724
  732TMC3    C410817   1.847   2.903  12.124  0.1081 -0.2143 -0.4977
  732TMC3    C510818   1.886   2.912  11.998  0.4585  0.2703  0.4541
  732TMC3    C610819   1.796   2.894  11.898 -0.4992 -0.1056  0.2190
  732TMC3     C10820   1.685   2.825  12.288 -0.4049 -1.2413  0.1177
  732TMC3     O10821   1.758   2.868  12.374  0.2584  0.1196  0.2135
  732TMC3     H10822   1.521   2.852  12.093  0.4882 -0.4144  1.7902
  732TMC3    H110823   1.917   2.916  12.206 -1.4694 -2.3835  1.2301
  732TMC3    H210824   1.835   2.902  11.798  0.0713 -2.8436  0.2234
  732TMC3    C710825   2.025   2.946  11.962  0.6819 -0.1698  0.0764
  732TMC3    C810826   1.564   2.870  11.829  0.0314 -1.0014 -0.5941
  732TMC3    O110827   2.047   2.972  11.842 -0.6443  0.0136  0.1452
  732TMC3    O210828   1.604   2.923  11.724  0.7464 -0.6997 -0.1100
  733TMC3    C110829   2.026   1.721  13.054 -0.1251  0.4642  0.6488
  733TMC3    C210830   2.100   1.609  13.089  0.1665 -0.1672  0.6055
  733TMC3    C310831   2.224   1.590  13.043  0.2769  0.0751  0.3971
  733TMC3    C410832   2.081   1.812  12.973  0.3886 -0.4756 -0.0034
  733TMC3    C510833   2.210   1.787  12.928 -0.1013  0.5113 -0.4875
  733TMC3    C610834   2.279   1.672  12.950 -0.2160 -0.6094  0.7250
  733TMC3     C10835   1.879   1.723  13.073 -0.2995 -0.5688 -0.0018
  733TMC3     O10836   1.824   1.826  13.030  0.1642  0.8923  0.5255
  733TMC3     H10837   2.067   1.538  13.163  0.7733 -2.4552 -1.3297
  733TMC3    H110838   2.023   1.897  12.937  1.2654  0.4766  0.8245
  733TMC3    H210839   2.373   1.664  12.897  0.8381  0.1194  2.4919
  733TMC3    C710840   2.275   1.893  12.852  0.3369  0.5521  0.2776
  733TMC3    C810841   2.311   1.492  13.107 -0.5598 -0.2993  0.4015
  733TMC3    O110842   2.208   1.956  12.770 -0.3952 -0.3744 -0.6900
  733TMC3    O210843   2.257   1.408  13.179  0.4352  1.0887 -0.2988
  734MPD2     C10844   4.229   3.996  12.200  0.0605  0.1670  0.5275
  734MPD2    C110845   4.128   3.924  12.142  0.1314  0.5808  0.1916
  734MPD2    C210846   4.125   3.923  12.003  0.1200 -0.1852  0.2164
  734MPD2    C310847   4.218   3.980  11.929  0.1297 -0.1283 -0.8616
  734MPD2    C410848   4.324   4.049  11.985 -0.8731  0.4872 -0.1738
  734MPD2    C510849   4.325   4.053  12.121  0.4323  0.6242 -0.2276
  734MPD2     H10850   4.050   3.869  11.948 -0.9184  1.8439 -0.3566
  734MPD2    H110851   4.400   4.101  11.928 -0.0148 -0.7683 -0.1545
  734MPD2    H210852   4.256   4.004  12.304 -0.7600 -0.8838  0.8231
  734MPD2    H310853   4.410   4.102  12.167  0.9948  0.1802 -0.7990
  734MPD2     N10854   4.216   3.947  11.797 -0.5789 -0.2730 -0.0055
  734MPD2    H510855   4.142   3.884  11.768 -2.0887  0.8063  1.5156
  734MPD2    N110856   4.047   3.845  12.231  0.5334 -0.2848 -0.1159
  734MPD2    H710857   4.083   3.848  12.325 -1.0184  1.7911  0.4107
  735TMC3    C110858   3.906   3.651  12.304  0.1109  0.3123  0.2608
  735TMC3    C210859   3.814   3.572  12.250 -0.6944  0.0362  0.0241
  735TMC3    C310860   3.856   3.440  12.251 -0.3944  0.3803 -0.0118
  735TMC3    C410861   4.014   3.606  12.376  0.5824 -0.4487  0.2655
  735TMC3    C510862   4.036   3.474  12.393  0.0458 -0.1917 -0.2320
  735TMC3    C610863   3.958   3.389  12.334  0.0269  0.1488 -0.0094
  735TMC3     C10864   3.954   3.749  12.199 -0.3558 -0.8413  0.1232
  735TMC3     O10865   3.898   3.726  12.091  0.5385 -0.3154  0.0304
  735TMC3     H10866   3.741   3.619  12.185 -1.1845 -1.0816 -0.2305
  735TMC3    H110867   4.084   3.676  12.420  1.3345 -1.1682  0.2096
  735TMC3    H210868   3.982   3.284  12.346 -0.4308 -0.1077 -1.3289
  735TMC3    C710869   4.181   3.442  12.384  0.4615  0.5539 -0.7744
  735TMC3    C810870   3.849   3.368  12.129 -0.1779  0.7381 -0.2480
  735TMC3    O110871   4.240   3.532  12.324 -0.1028 -0.2945  0.0063
  735TMC3    O210872   3.848   3.249  12.130  0.6319  0.0741 -0.5592
  736MPD2     C10873   4.371   3.182  12.546 -0.1876  0.1177  0.6693
  736MPD2    C110874   4.351   3.285  12.466  1.0963 -0.1419 -0.4464
  736MPD2    C210875   4.456   3.334  12.387  0.7323  0.2308 -0.0341
  736MPD2    C310876   4.584   3.278  12.396 -0.4143  0.3537 -0.6076
  736MPD2    C410877   4.602   3.180  12.492  0.7976  0.1612 -0.4474
  736MPD2    C510878   4.494   3.128  12.569 -0.3572 -1.0233 -1.1907
  736MPD2     H10879   4.432   3.408  12.312  0.4759 -0.3504 -0.5280
  736MPD2    H110880   4.702   3.145  12.512  0.3876 -1.7475 -1.7724
  736MPD2    H210881   4.287   3.149  12.605 -0.8325  0.0148 -0.3117
  736MPD2    H310882   4.516   3.065  12.654  1.8761  0.2369 -0.8308
  736MPD2     N10883   4.699   3.327  12.326 -0.1017  0.4225  0.4322
  736MPD2    H510884   0.063   3.279  12.339 -0.0579  0.5516  0.6137
  736MPD2    N110885   4.219   3.338  12.463 -0.4580  0.3928 -0.0084
  736MPD2    H710886   4.152   3.288  12.520  2.9243 -2.4083  1.5376
  737TMC3    C110887   0.087   3.427  12.145  0.3179 -0.1440  0.1979
  737TMC3    C210888   0.094   3.526  12.052 -0.1461  0.2157  0.0777
  737TMC3    C310889   0.170   3.519  11.942 -0.7942  0.4766 -0.6218
  737TMC3    C410890   0.163   3.316  12.116  0.4286  0.0417 -0.2152
  737TMC3    C510891   0.243   3.302  12.008  0.5873 -0.0603 -0.0394
  737TMC3    C610892   0.248   3.406  11.911 -0.0555  0.4066 -0.1078
  737TMC3     C10893   4.708   3.435  12.253 -0.0516 -0.9201  0.3215
  737TMC3     O10894   4.631   3.526  12.249 -0.0434  0.3445 -0.0472
  737TMC3     H10895   0.023   3.607  12.063 -0.2979 -0.4067  3.4677
  737TMC3    H110896   0.159   3.237  12.190  1.4963 -0.9500 -1.2464
  737TMC3    H210897   0.293   3.387  11.814  0.5073 -0.9964  0.4255
  737TMC3    C710898   0.280   3.169  11.965  0.0498  0.7960  0.0736
  737TMC3    C810899   0.149   3.620  11.843  0.0787  0.2058 -0.1617
  737TMC3    O110900   0.224   3.075  12.025 -0.6940  0.5192 -0.8817
  737TMC3    O210901   0.112   3.728  11.886  0.5807  0.2846  0.4392
  738MPD2     C10902   0.432   2.096  15.381 -0.3024  0.0152 -0.4126
  738MPD2    C110903   0.430   2.085  15.242  0.5187 -0.3719 -0.0572
  738MPD2    C210904   0.543   2.094  15.168 -0.2849  0.1101 -0.7257
  738MPD2    C310905   0.657   2.141  15.217 -0.2379  0.4635  0.1829
  738MPD2    C410906   0.664   2.160  15.350  0.0125  0.2034 -0.2206
  738MPD2    C510907   0.552   2.145  15.426  0.3314 -0.4787  0.0297
  738MPD2     H10908   0.544   2.072  15.061  0.5142  0.6954 -0.8397
  738MPD2    H110909   0.752   2.183  15.409  1.1629 -0.6608 -1.5571
  738MPD2    H210910   0.341   2.084  15.440  0.7324  0.9408  1.3745
  738MPD2    H310911   0.551   2.176  15.530  0.5864  1.5163 -0.5684
  738MPD2     N10912   0.774   2.144  15.142 -0.1525  0.2202  0.5035
  738MPD2    H510913   0.860   2.171  15.189  0.1833 -0.4164  0.2517
  738MPD2    N110914   0.305   2.036  15.180  0.5970 -0.7153  0.5900
  738MPD2    H710915   0.310   1.986  15.092  0.6605  0.0545  0.1500
  739TMC3    C110916   0.919   2.184  14.955  0.1054  0.1964  0.9321
  739TMC3    C210917   0.928   2.241  14.829 -0.3957 -0.2238  0.1304
  739TMC3    C310918   1.028   2.213  14.741  0.7223 -0.7117  0.0355
  739TMC3    C410919   1.017   2.096  14.996 -0.0654 -0.0398  0.3767
  739TMC3    C510920   1.117   2.076  14.909 -0.0664  0.6731 -0.0248
  739TMC3    C610921   1.131   2.123  14.776 -0.0004 -0.2036 -0.0426
  739TMC3     C10922   0.779   2.163  15.007  0.2189 -0.3775  0.0603
  739TMC3     O10923   0.697   2.181  14.920 -0.1832  0.3239 -0.0905
  739TMC3     H10924   0.840   2.294  14.795  0.3757  0.7870 -0.2970
  739TMC3    H110925   1.013   2.038  15.088  2.6678 -1.2439 -0.2964
  739TMC3    H210926   1.198   2.080  14.704  0.9604  1.1264  0.0524
  739TMC3    C710927   1.224   1.995  14.947  0.1645 -0.7265  0.1342
  739TMC3    C810928   1.030   2.306  14.634  0.2582 -0.4837 -0.1425
  739TMC3    O110929   1.250   1.906  14.867 -0.0437  0.4422 -0.1879
  739TMC3    O210930   0.917   2.320  14.585  0.1248 -0.7902 -0.0446
  740TMC3    C110931   1.271   3.351  14.297  0.6839  0.0390  0.1691
  740TMC3    C210932   1.324   3.325  14.419 -0.6433  0.2466  0.1108
  740TMC3    C310933   1.446   3.370  14.443  0.0810 -0.6434 -1.0854
  740TMC3    C410934   1.342   3.417  14.198 -0.8976 -0.0203 -0.0795
  740TMC3    C510935   1.463   3.472  14.230 -0.1333 -0.4279 -0.0826
  740TMC3    C610936   1.522   3.442  14.350  0.2502 -0.2798  0.6417
  740TMC3     C10937   1.128   3.325  14.271  0.3542  0.6634  0.3117
  740TMC3     O10938   1.077   3.367  14.168 -0.4140 -0.0597  0.8566
  740TMC3     H10939   1.277   3.252  14.484 -2.2377  2.4380  1.4364
  740TMC3    H110940   1.304   3.422  14.096  0.7966  0.3083 -0.6924
  740TMC3    H210941   1.624   3.471  14.371  0.1611  0.5923 -0.1394
  740TMC3    C710942   1.571   3.496  14.131  0.8223  0.3034 -0.1351
  740TMC3    C810943   1.521   3.304  14.553 -0.5126  0.2002 -0.6787
  740TMC3    O110944   1.687   3.509  14.166 -0.0677 -0.1111 -0.6778
  740TMC3    O210945   1.479   3.194  14.587  0.3190  0.5762  0.4846
  741TMC3    C110946   0.907   2.919  14.241  0.4428  0.0171  0.5948
  741TMC3    C210947   0.779   2.873  14.243  0.2275 -0.4132 -0.9793
  741TMC3    C310948   0.724   2.817  14.357  0.3918  0.3284  0.7487
  741TMC3    C410949   0.983   2.903  14.353 -0.1483  0.5023 -0.1235
  741TMC3    C510950   0.930   2.858  14.471 -0.2817  0.5816  0.1792
  741TMC3    C610951   0.793   2.818  14.475 -0.3242  0.7408 -0.8293
  741TMC3     C10952   0.959   2.996  14.137 -0.0352 -0.6429 -0.1846
  741TMC3     O10953   1.081   2.997  14.131 -0.0306 -0.7114 -0.3873
  741TMC3     H10954   0.722   2.869  14.151 -0.8155 -2.0018 -0.2487
  741TMC3    H110955   1.074   2.963  14.357  0.1718  0.0442 -0.5632
  741TMC3    H210956   0.739   2.784  14.563  2.1305  0.0305  0.4003
  741TMC3    C710957   1.008   2.838  14.597  0.0848 -0.8374  0.3824
  741TMC3    C810958   0.583   2.781  14.352  0.0240  0.4585 -0.1388
  741TMC3    O110959   0.942   2.828  14.698  0.5850 -0.2697 -0.2618
  741TMC3    O210960   0.520   2.833  14.265 -0.0997  0.1783 -0.3339
  742TMC3    C110961   0.536   0.948  15.022  0.0088 -1.0674 -0.0832
  742TMC3    C210962   0.522   1.018  14.902 -0.3146 -0.2144 -0.2136
  742TMC3    C310963   0.614   1.000  14.801 -0.3594 -0.2222 -0.4369
  742TMC3    C410964   0.647   0.869  15.043  0.1430  0.4477  0.2726
  742TMC3    C510965   0.730   0.854  14.938 -0.3008 -0.1441 -0.3534
  742TMC3    C610966   0.723   0.919  14.817  0.9376 -0.3947 -0.0205
  742TMC3     C10967   0.451   0.987  15.138 -0.1053  0.4332 -0.0420
  742TMC3     O10968   0.389   1.090  15.122 -0.2753 -0.0869 -0.5778
  742TMC3     H10969   0.428   1.064  14.876 -0.0951  0.1668 -0.3441
  742TMC3    H110970   0.682   0.846  15.143  1.9931 -1.8611 -0.9177
  742TMC3    H210971   0.791   0.905  14.734  2.7381 -2.2618  1.7903
  742TMC3    C710972   0.852   0.779  14.961  0.2607  1.0705 -0.8522
  742TMC3    C810973   0.589   1.039  14.661  0.0788  0.3217 -0.0180
  742TMC3    O110974   0.943   0.789  14.880  0.1124  0.4187  0.2930
  742TMC3    O210975   0.665   0.999  14.573 -0.7233  0.1654  0.0889
  743MPD2     C10976   2.974   2.607   1.479 -0.0296  0.0568  0.2237
  743MPD2    C110977   2.987   2.514   1.369 -0.1702 -0.3464  0.5353
  743MPD2    C210978   3.107   2.439   1.359 -0.0135 -0.0559  0.5578
  743MPD2    C310979   3.201   2.455   1.454  0.5664  0.2923 -0.4056
  743MPD2    C410980   3.180   2.531   1.566 -0.1332 -0.5931 -0.2486
  743MPD2    C510981   3.067   2.602   1.583  0.5048 -0.0913 -0.6026
  743MPD2     H10982   3.110   2.358   1.288  4.9887  0.6034  0.0355
  743MPD2    H110983   3.254   2.532   1.646 -0.1680  1.8328 -0.2361
  743MPD2    H210984   2.892   2.675   1.502 -0.3641 -0.3036  0.1000
  743MPD2    H310985   3.060   2.672   1.665 -1.9134 -1.6730  0.5518
  743MPD2     N10986   3.315   2.379   1.426 -0.1121 -0.0929  0.3068
  743MPD2    H510987   3.328   2.342   1.332 -0.0138 -0.4649  0.4689
  743MPD2    N110988   2.880   2.489   1.275 -0.1746 -0.5682 -0.5699
  743MPD2    H710989   2.801   2.551   1.283 -0.8963 -1.2025 -2.7132
  744TMC3    C110990   2.740   2.379   1.117  0.9864  0.7426 -0.2210
  744TMC3    C210991   2.638   2.460   1.148 -0.1734  0.1877 -0.4200
  744TMC3    C310992   2.538   2.477   1.057  0.0638  0.2716 -0.4152
  744TMC3    C410993   2.741   2.301   1.002  0.0686 -0.2744  0.1991
  744TMC3    C510994   2.622   2.302   0.928 -0.1654  0.2871 -0.4963
  744TMC3    C610995   2.523   2.394   0.951 -0.2192 -0.4597 -0.0260
  744TMC3     C10996   2.865   2.383   1.189 -0.4526  0.0100 -0.3767
  744TMC3     O10997   2.931   2.280   1.167 -0.7734 -0.3928  0.0660
  744TMC3     H10998   2.628   2.508   1.244  1.3550 -1.3778  0.5148
  744TMC3    H110999   2.820   2.232   0.979  0.9840  0.2064  1.8814
  744TMC3    H211000   2.432   2.401   0.892  0.4837  1.7254 -0.8570
  744TMC3    C711001   2.631   2.248   0.792  0.5508 -0.3330  0.4700
  744TMC3    C811002   2.431   2.559   1.097  0.0631 -0.5827  0.3945
  744TMC3    O111003   2.714   2.159   0.783 -0.0094  0.5362  0.8247
  744TMC3    O211004   2.466   2.644   1.175  0.2012  0.1885 -0.0719
  745TMC3    C111005   1.003   1.020  13.385  0.4199 -1.1293  0.0436
  745TMC3    C211006   0.973   0.956  13.501 -0.1598  1.2531  0.3209
  745TMC3    C311007   0.848   0.894  13.511  0.6363  0.7217 -0.5437
  745TMC3    C411008   0.929   1.014  13.274 -0.1024 -0.2928  0.0892
  745TMC3    C511009   0.813   0.937  13.283 -0.1187 -0.0798  0.9358
  745TMC3    C611010   0.774   0.883  13.400  0.3698  0.5705  0.3757
  745TMC3     C11011   1.071   1.150  13.400  0.1480  0.8284  0.0750
  745TMC3     O11012   1.139   1.170  13.502 -0.2415 -0.1566  0.3444
  745TMC3     H11013   1.028   0.985  13.590 -0.2439  1.8348  0.1850
  745TMC3    H111014   0.971   1.056  13.183  2.4177  0.4442  1.6206
  745TMC3    H211015   0.686   0.821  13.409  0.7900  0.0893  1.1838
  745TMC3    C711016   0.699   1.001  13.215 -0.5064 -0.0617  0.1134
  745TMC3    C811017   0.769   0.959  13.619  0.5882  0.2182 -0.0331
  745TMC3    O111018   0.588   0.990  13.262 -0.3103  0.4488 -0.1482
  745TMC3    O211019   0.825   0.984  13.720 -0.2602 -0.0178  0.1359
  746TMC3    C111020   3.116   3.012  10.991  0.9666 -0.3048  0.6482
  746TMC3    C211021   3.231   2.952  10.948  0.1639 -0.1631 -0.1390
  746TMC3    C311022   3.248   2.817  10.966  0.4633 -0.4436 -0.2176
  746TMC3    C411023   3.018   2.935  11.030  0.1629 -0.1846  0.5634
  746TMC3    C511024   3.034   2.799  11.053 -0.8456  0.5301  0.1885
  746TMC3    C611025   3.148   2.737  11.016  0.8098  0.9326  0.0592
  746TMC3     C11026   3.099   3.160  10.989  0.0508 -0.2818  0.6492
  746TMC3     O11027   2.996   3.194  11.035 -0.4846  0.2524 -0.1088
  746TMC3     H11028   3.319   3.016  10.944  0.0263  0.1578  1.9573
  746TMC3    H111029   2.922   2.977  11.056 -0.5143 -2.0892  1.1419
  746TMC3    H211030   3.160   2.630  11.028 -0.8687  0.8018  0.5861
  746TMC3    C711031   2.929   2.711  11.097  0.0510 -0.1692 -0.0001
  746TMC3    C811032   3.347   2.755  10.891 -0.1337 -0.4310 -0.9352
  746TMC3    O111033   2.919   2.600  11.043 -0.1282  0.5619  0.3772
  746TMC3    O211034   3.372   2.639  10.914 -0.6225  0.0936 -0.1553
  747TMC3    C111035   0.724   2.951  11.085 -0.0717 -0.3584  0.4425
  747TMC3    C211036   0.651   2.982  11.191 -0.3865 -0.0875  0.1107
  747TMC3    C311037   0.715   3.033  11.304  0.4451  0.6189 -0.5931
  747TMC3    C411038   0.862   2.961  11.083 -0.4171 -0.4816 -0.6071
  747TMC3    C511039   0.922   3.010  11.198 -0.3412  0.1348  0.5898
  747TMC3    C611040   0.851   3.052  11.307  0.0737  0.4717  0.4918
  747TMC3     C11041   0.649   2.910  10.969 -0.3730  0.0567 -0.0501
  747TMC3     O11042   0.532   2.951  10.956 -0.2208 -0.2067  0.2439
  747TMC3     H11043   0.542   2.981  11.185 -0.4631 -0.0217  1.5763
  747TMC3    H111044   0.923   2.946  10.995 -0.2121  0.0353 -0.5566
  747TMC3    H211045   0.903   3.077  11.398  0.8491 -2.1533  0.7569
  747TMC3    C711046   1.047   3.067  11.195  0.2437 -0.4388 -0.4204
  747TMC3    C811047   0.639   3.061  11.427 -0.4208 -0.1395 -0.3711
  747TMC3    O111048   1.055   3.178  11.248  0.4144  0.2491  0.3888
  747TMC3    O211049   0.676   3.158  11.492  0.2304  0.0487  0.2556
  748MPD2     C11050   2.386   3.628   1.345  0.2766  0.3370 -0.2712
  748MPD2    C111051   2.491   3.546   1.385  0.8252  0.3209  0.0285
  748MPD2    C211052   2.609   3.568   1.313 -0.1478  0.0047  0.3487
  748MPD2    C311053   2.624   3.669   1.219 -0.6085  0.5710  0.6457
  748MPD2    C411054   2.517   3.753   1.189  0.3076 -0.0578  0.2006
  748MPD2    C511055   2.399   3.726   1.250 -0.1658 -0.0218 -0.6948
  748MPD2     H11056   2.691   3.499   1.328  0.6053  0.5871 -1.0697
  748MPD2    H111057   2.525   3.842   1.127  2.1607 -0.5023 -0.2011
  748MPD2    H211058   2.290   3.618   1.396  0.5622 -1.0351  0.0048
  748MPD2    H311059   2.312   3.787   1.227 -0.1846 -0.3608 -1.5071
  748MPD2     N11060   2.750   3.676   1.161  0.5956 -0.0716  0.0554
  748MPD2    H511061   2.819   3.605   1.183  0.3282 -0.5471 -0.6166
  748MPD2    N111062   2.464   3.445   1.480 -0.0411  0.1907 -0.2240
  748MPD2    H711063   2.364   3.436   1.498  0.2795 -2.7075  0.0267
  749TMC3    C111064   2.909   3.741   1.005  0.4377 -0.0773 -0.1845
  749TMC3    C211065   2.983   3.632   1.041  0.1367  0.2410  0.3875
  749TMC3    C311066   3.105   3.619   0.984 -0.2013  0.4854 -0.9319
  749TMC3    C411067   2.947   3.833   0.915 -0.1506  0.4961  0.5105
  749TMC3    C511068   3.071   3.806   0.857  0.5525 -0.6182 -0.2642
  749TMC3    C611069   3.152   3.707   0.889  0.6613  0.3992  0.6626
  749TMC3     C11070   2.778   3.761   1.056 -0.7069  0.6535  0.5019
  749TMC3     O11071   2.707   3.839   0.992 -0.1333 -0.1191 -0.2295
  749TMC3     H11072   2.955   3.553   1.110 -0.0689  0.1554  0.2066
  749TMC3    H111073   2.888   3.923   0.901 -0.2356  0.4614  0.6414
  749TMC3    H211074   3.252   3.700   0.848 -0.1875 -1.8889 -0.9758
  749TMC3    C711075   3.127   3.908   0.773 -0.2395  0.7113  1.0043
  749TMC3    C811076   3.177   3.492   1.003  0.4081 -0.2654 -0.3991
  749TMC3    O111077   3.253   3.909   0.772 -0.1649 -0.0187  0.1318
  749TMC3    O211078   3.216   3.433   0.906 -1.0301  0.1543 -0.2148
  750MPD2     C11079   3.245   0.380  10.863 -0.9128 -0.3419  0.4905
  750MPD2    C111080   3.175   0.304  10.939 -0.8056  0.0308 -0.0098
  750MPD2    C211081   3.101   0.198  10.886 -0.5496  0.2182 -0.1581
  750MPD2    C311082   3.095   0.173  10.750 -0.5801  0.5699  0.2454
  750MPD2    C411083   3.166   0.261  10.668  0.2622 -0.4213 -0.0779
  750MPD2    C511084   3.231   0.369  10.724 -0.1421  0.2731  0.0632
  750MPD2     H11085   3.059   0.122  10.951 -0.5642 -0.4413 -0.9439
  750MPD2    H111086   3.169   0.243  10.561 -1.4736 -0.9648 -0.0393
  750MPD2    H211087   3.290   0.470  10.903  1.4234  0.0460 -2.9678
  750MPD2    H311088   3.273   0.451  10.668  0.6144 -0.8113 -0.9538
  750MPD2     N11089   3.019   0.072  10.692 -0.1761  0.1987 -0.0527
  750MPD2    H511090   3.014   0.076  10.591  1.5226  0.1744 -0.1342
  750MPD2    N111091   3.183   0.332  11.078 -0.3346  0.0781  0.3980
  750MPD2    H711092   3.239   0.412  11.106 -0.4797  0.3152  0.0049
  751TMC3    C111093   2.894   4.599  10.680 -1.1571 -0.1099 -0.1080
  751TMC3    C211094   2.777   4.538  10.717 -0.7154 -0.3545 -0.7354
  751TMC3    C311095   2.753   4.414  10.661 -0.3491 -0.5813 -0.1988
  751TMC3    C411096   2.994   4.535  10.607  0.3175  0.0616 -0.5538
  751TMC3    C511097   2.957   4.412  10.551 -0.1009  0.4771 -0.0404
  751TMC3    C611098   2.840   4.350  10.586  0.0494  0.4265 -0.1910
  751TMC3     C11099   2.926   4.723  10.750  0.0307 -1.1864  0.3101
  751TMC3     O11100   2.872   0.018  10.858  0.1429  0.0968  0.4191
  751TMC3     H11101   2.710   4.585  10.789  0.5008  1.6885 -0.9468
  751TMC3    H111102   3.097   4.568  10.610 -0.1557  1.3880  0.7966
  751TMC3    H211103   2.812   4.258  10.535 -0.2480  0.2028  0.3771
  751TMC3    C711104   3.058   4.312  10.535 -0.0535  0.0297  0.7479
  751TMC3    C811105   2.639   4.342  10.714  0.7456  0.2027 -0.5239
  751TMC3    O111106   3.056   4.236  10.443 -0.0557 -0.2372 -0.0492
  751TMC3    O211107   2.536   4.405  10.731  0.2352  0.3848  0.2025
  752TMC3    C111108   1.843   0.574  16.692  0.6072  0.1188 -0.3903
  752TMC3    C211109   1.726   0.617  16.754 -0.5003 -0.2783  0.2989
  752TMC3    C311110   1.733   0.699  16.866  0.0043  0.2140 -0.7792
  752TMC3    C411111   1.969   0.605  16.730  0.0018 -0.0609  0.4355
  752TMC3    C511112   1.972   0.689  16.844  0.1372  0.3957  0.4203
  752TMC3    C611113   1.859   0.727  16.918  0.0737  0.3118  1.1975
  752TMC3     C11114   1.832   0.475  16.584 -0.1138 -0.4763  0.7665
  752TMC3     O11115   1.939   0.435  16.542  0.1645  0.0490 -0.3725
  752TMC3     H11116   1.634   0.601  16.701 -0.8829 -2.3288  1.5836
  752TMC3    H111117   2.053   0.565  16.676  0.3893 -0.0017  0.9898
  752TMC3    H211118   1.872   0.766  17.018 -1.8610 -2.3335  2.4994
  752TMC3    C711119   2.105   0.738  16.891  0.2958  0.4263 -0.0439
  752TMC3    C811120   1.618   0.740  16.939  0.9503 -1.0655  0.5018
  752TMC3    O111121   2.109   0.787  17.003 -0.4571  0.2610 -0.0419
  752TMC3    O211122   1.510   0.687  16.916 -0.0030  0.1922  0.1040
  753TMC3    C111123   4.444   1.164  13.081  0.6117  0.3360  0.1781
  753TMC3    C211124   4.506   1.149  13.207 -0.2816 -0.0939 -0.0750
  753TMC3    C311125   4.573   1.034  13.220 -0.6987 -0.0410  0.7241
  753TMC3    C411126   4.438   1.061  12.990  0.0659  0.2547 -0.3789
  753TMC3    C511127   4.516   0.947  13.016  0.7838  0.1179  0.3790
  753TMC3    C611128   4.579   0.929  13.131  0.9484  0.1066 -0.3056
  753TMC3     C11129   4.370   1.279  13.045 -0.9570 -0.1066  0.2140
  753TMC3     O11130   4.261   1.270  12.991  0.2077  0.2562 -0.2392
  753TMC3     H11131   4.479   1.213  13.290  1.0680 -0.0364  0.3208
  753TMC3    H111132   4.376   1.075  12.903  0.3945 -1.7595 -0.9275
  753TMC3    H211133   4.648   0.848  13.154 -0.9805 -1.8662 -1.5190
  753TMC3    C711134   4.471   0.830  12.950  0.1207 -0.7344 -0.0783
  753TMC3    C811135   4.607   0.999  13.360 -0.0748 -1.2716  0.8740
  753TMC3    O111136   4.420   0.835  12.837 -0.2120  0.1748 -0.5711
  753TMC3    O211137   4.620   0.880  13.375 -0.3211  0.7521 -0.7472
  754MPD2     C11138   3.366   0.054  12.868 -0.4304  0.3628  0.7369
  754MPD2    C111139   3.339   4.657  12.812  0.0657 -0.4546 -0.5952
  754MPD2    C211140   3.211   4.622  12.783  0.8322  0.6159  0.5489
  754MPD2    C311141   3.105   4.711  12.815  0.7627  0.5328 -0.8049
  754MPD2    C411142   3.139   0.113  12.859 -0.0395 -0.3826 -0.1732
  754MPD2    C511143   3.264   0.142  12.895  0.5562 -0.0118  0.2967
  754MPD2     H11144   3.199   4.523  12.742  0.6782  0.5820  0.6758
  754MPD2    H111145   3.059   0.183  12.879 -1.5927 -1.4293 -2.7503
  754MPD2    H211146   3.466   0.088  12.889 -0.0384 -0.5684  0.3451
  754MPD2    H311147   3.280   0.240  12.938  1.5739 -1.1181  2.4236
  754MPD2     N11148   2.968   4.666  12.804 -0.2649  0.1779  0.2699
  754MPD2    H511149   2.908   0.017  12.835  0.3473 -0.0959  2.1684
  754MPD2    N111150   3.450   4.573  12.793 -0.2702 -0.3667 -0.9258
  754MPD2    H711151   3.540   4.618  12.787 -0.2076 -0.5271 -1.2467
  755MPD2     C11152   2.665   0.490  13.138  0.3415  0.2338  0.3720
  755MPD2    C111153   2.578   0.386  13.165  0.2673 -0.0664 -0.0268
  755MPD2    C211154   2.584   0.271  13.087 -0.0524 -0.6639 -0.2841
  755MPD2    C311155   2.649   0.265  12.970 -0.1620  0.5520 -0.1049
  755MPD2    C411156   2.705   0.388  12.931 -0.1868  0.0511 -0.1990
  755MPD2    C511157   2.728   0.491  13.020  0.7517 -0.8110 -0.4078
  755MPD2     H11158   2.543   0.178  13.125  2.6647 -1.0307  1.7731
  755MPD2    H111159   2.738   0.403  12.828  0.4416 -1.2859 -0.1949
  755MPD2    H211160   2.673   0.583  13.193  5.0505 -1.7254  2.9735
  755MPD2    H311161   2.772   0.583  12.984  2.2138 -1.9542 -1.4952
  755MPD2     N11162   2.640   0.154  12.888 -0.1373  0.0580  0.0928
  755MPD2    H511163   2.700   0.156  12.806 -1.3112 -0.2842 -0.7709
  755MPD2    N111164   2.501   0.378  13.282  0.1286  0.3483  0.3317
  755MPD2    H711165   2.451   0.289  13.287  0.9316  0.0388  2.7618
  756MPD2     C11166   3.818   4.438   9.087 -0.5012 -0.1857  0.4222
  756MPD2    C111167   3.723   4.493   9.174  0.2444 -1.0644  0.6588
  756MPD2    C211168   3.638   4.411   9.244 -0.2369  0.4344 -0.2036
  756MPD2    C311169   3.650   4.273   9.237 -0.0351 -0.0082 -0.7126
  756MPD2    C411170   3.734   4.216   9.145 -0.0082  0.3386  0.4027
  756MPD2    C511171   3.814   4.297   9.072 -0.1844 -0.2906 -0.0287
  756MPD2     H11172   3.558   4.458   9.299 -0.1763 -0.3196  0.5331
  756MPD2    H111173   3.732   4.111   9.118 -0.5984  0.4719 -0.0818
  756MPD2    H211174   3.900   4.487   9.036 -1.0266  1.2237  0.9241
  756MPD2    H311175   3.880   4.258   8.995 -1.1628  1.7576 -1.8923
  756MPD2     N11176   3.550   4.205   9.308 -0.1865 -0.1503 -0.1964
  756MPD2    H511177   3.486   4.260   9.365 -1.3790 -1.0709 -0.6307
  756MPD2    N111178   3.706   4.635   9.191 -0.6924 -0.3069 -0.3100
  756MPD2    H711179   3.635   4.660   9.259  0.9292  0.9345  0.9482
  757MPD2     C11180   2.599   4.294   9.494  0.8099 -0.0194 -0.6556
  757MPD2    C111181   2.610   4.158   9.516  1.2558  0.1466  0.1576
  757MPD2    C211182   2.733   4.101   9.489  0.6809 -0.0834 -0.1022
  757MPD2    C311183   2.843   4.168   9.461  0.0663  0.2529  0.3738
  757MPD2    C411184   2.838   4.309   9.457 -0.5348  0.6669  0.0354
  757MPD2    C511185   2.712   4.368   9.461 -0.5557 -0.2674 -0.0439
  757MPD2     H11186   2.750   3.997   9.513 -0.1542 -0.3073 -0.4691
  757MPD2    H111187   2.923   4.375   9.456  0.9459 -1.2273 -0.0293
  757MPD2    H211188   2.502   4.342   9.506  1.1519  1.0627 -2.1848
  757MPD2    H311189   2.719   4.476   9.464 -0.1156 -0.2992  0.0938
  757MPD2     N11190   2.973   4.105   9.467  0.2525  0.3035 -0.1722
  757MPD2    H511191   2.975   4.005   9.485 -0.5753  0.6373  1.6904
  757MPD2    N111192   2.490   4.089   9.557  0.0949 -0.2145  0.8108
  757MPD2    H711193   2.400   4.136   9.560  0.1621  0.1018 -2.0848
  758MPD2     C11194   2.971   4.355  15.623  0.1663 -0.3934  0.0580
  758MPD2    C111195   2.996   4.224  15.664  0.0653  0.2030 -0.5509
  758MPD2    C211196   2.913   4.172  15.765  0.3910  0.7727  0.3782
  758MPD2    C311197   2.831   4.265  15.838 -0.9624 -0.0212 -0.1910
  758MPD2    C411198   2.819   4.396  15.801 -0.2071  0.0662 -0.6802
  758MPD2    C511199   2.884   4.441  15.687 -0.1767  0.1001 -1.1587
  758MPD2     H11200   2.909   4.067  15.789  1.2499 -0.2086 -3.7254
  758MPD2    H111201   2.746   4.454  15.857  0.0142  1.4182 -1.8015
  758MPD2    H211202   3.034   4.402  15.549 -0.0819  0.6710  0.5215
  758MPD2    H311203   2.881   4.545  15.658  0.7992  0.4704  0.0672
  758MPD2     N11204   2.765   4.234  15.957  0.0299  0.1286 -0.6091
  758MPD2    H511205   2.705   4.303  16.001  0.1788 -0.8253  1.0910
  758MPD2    N111206   3.103   4.150  15.602 -0.1788 -0.1595  0.2481
  758MPD2    H711207   3.150   4.199  15.527 -0.7599 -0.2700 -0.1891
  759MPD2     C11208   2.765   1.802   9.957  0.2474  0.4753 -0.1749
  759MPD2    C111209   2.626   1.816   9.966  0.0743  0.1586  0.0582
  759MPD2    C211210   2.558   1.934   9.944  0.3074  0.2371 -0.2963
  759MPD2    C311211   2.635   2.041   9.913  0.1684 -0.0403  0.2187
  759MPD2    C411212   2.772   2.023   9.902  0.4406 -0.5336  0.1222
  759MPD2    C511213   2.840   1.910   9.926 -0.5250 -0.1569  0.3859
  759MPD2     H11214   2.450   1.943   9.938  0.4357  0.0080 -2.8400
  759MPD2    H111215   2.840   2.105   9.881  0.5378 -0.6490 -0.0152
  759MPD2    H211216   2.815   1.710   9.983  0.2704  0.6861  0.5330
  759MPD2    H311217   2.948   1.903   9.913 -0.2171  2.3169  1.4261
  759MPD2     N11218   2.563   2.158   9.896 -0.5820  0.0206  0.5234
  759MPD2    H511219   2.463   2.153   9.915  0.0543 -1.9471  3.2928
  759MPD2    N111220   2.541   1.700   9.987  0.1901 -0.5645  0.5058
  759MPD2    H711221   2.442   1.722   9.991  0.4697  1.0438 -1.9134
  760MPD2     C11222   1.726   0.192  12.205 -0.1506 -0.5391  0.8318
  760MPD2    C111223   1.831   0.209  12.114  0.8283  0.2551  0.0546
  760MPD2    C211224   1.873   0.101  12.047 -1.0920 -0.4690 -0.0371
  760MPD2    C311225   1.799   4.703  12.052  0.0517 -0.5653 -0.5123
  760MPD2    C411226   1.694   4.688  12.139  0.5942  0.3816 -0.1971
  760MPD2    C511227   1.658   0.071  12.220  0.0188  0.4670 -0.6978
  760MPD2     H11228   1.951   0.110  11.973 -0.1686 -3.5734  0.5668
  760MPD2    H111229   1.634   4.599  12.142  1.2617 -0.1104 -1.2210
  760MPD2    H211230   1.689   0.275  12.263 -3.3567 -0.0196 -1.9690
  760MPD2    H311231   1.571   0.066  12.283  2.8023  0.2427  3.1417
  760MPD2     N11232   1.830   4.597  11.962  0.3353  0.3546 -0.1235
  760MPD2    H511233   1.905   4.621  11.898  1.7742 -1.2042  0.9732
  760MPD2    N111234   1.892   0.333  12.079  0.0722  0.0198  0.0180
  760MPD2    H711235   1.947   0.333  11.994 -0.1685 -0.9672 -0.1304
  761MPD2     C11236   2.421   3.904  10.881  0.5399 -0.2546 -0.4645
  761MPD2    C111237   2.523   3.876  10.793 -0.4108  0.5097  0.0213
  761MPD2    C211238   2.590   3.984  10.734 -0.4113  0.5730 -0.0811
  761MPD2    C311239   2.558   4.111  10.755 -0.9790  0.3514 -1.0872
  761MPD2    C411240   2.445   4.144  10.833  0.3791 -0.5796  0.0642
  761MPD2    C511241   2.378   4.036  10.886 -0.0790 -0.5174  0.3531
  761MPD2     H11242   2.679   3.965  10.674 -1.9967  0.1067 -2.2834
  761MPD2    H111243   2.404   4.243  10.850 -0.1459 -0.8983  0.6806
  761MPD2    H211244   2.356   3.832  10.931 -0.6454  0.0678 -1.5334
  761MPD2    H311245   2.295   4.065  10.950 -0.9151 -1.6652 -0.2166
  761MPD2     N11246   2.652   4.207  10.701  0.4290  0.0171  0.4156
  761MPD2    H511247   2.742   4.165  10.677  0.9101  0.6996  1.0354
  761MPD2    N111248   2.561   3.742  10.760  0.0251 -0.1001 -0.4180
  761MPD2    H711249   2.648   3.720  10.713  1.0445  0.5777  1.1691
  762MPD2     C11250   3.047   3.680  10.439  0.2340  0.0867  0.0541
  762MPD2    C111251   3.027   3.543  10.476  0.5341 -0.3147 -0.2290
  762MPD2    C211252   3.107   3.447  10.413  0.4396 -0.3534  0.0715
  762MPD2    C311253   3.178   3.481  10.299  0.1493 -0.3210  0.3090
  762MPD2    C411254   3.176   3.605  10.251  0.0402 -0.3360 -0.2699
  762MPD2    C511255   3.121   3.711  10.328 -0.8965  0.3183  0.0298
  762MPD2     H11256   3.100   3.342  10.439 -0.2354 -0.6094 -1.1536
  762MPD2    H111257   3.224   3.643  10.162 -0.8568  0.1929 -0.5285
  762MPD2    H211258   2.994   3.765  10.481  0.4191 -1.6033  3.7134
  762MPD2    H311259   3.130   3.814  10.295 -1.4294  0.2972 -0.1912
  762MPD2     N11260   3.242   3.378  10.229 -0.2274  0.1093  0.0227
  762MPD2    H511261   3.229   3.284  10.266  0.5867  0.9823  2.5337
  762MPD2    N111262   2.935   3.519  10.581 -0.5354  0.2593 -0.1264
  762MPD2    H711263   2.892   3.599  10.626 -0.4842  0.9720 -1.3269
  763MPD2     C11264   0.454   3.855  16.236  0.4709 -0.1335 -0.3702
  763MPD2    C111265   0.327   3.885  16.194  0.2695  0.0509 -0.0855
  763MPD2    C211266   0.263   3.992  16.256 -0.7716 -0.0955  0.3521
  763MPD2    C311267   0.323   4.064  16.359  0.6083 -0.1272 -0.6953
  763MPD2    C411268   0.450   4.022  16.402  0.2886 -0.5169  0.1142
  763MPD2    C511269   0.513   3.910  16.351  0.5040 -0.4859 -0.5735
  763MPD2     H11270   0.161   4.011  16.225 -0.4038 -0.0045 -0.8202
  763MPD2    H111271   0.497   4.075  16.483 -1.3172  0.1300  0.6178
  763MPD2    H211272   0.517   3.791  16.174  1.4920  1.7568 -1.2686
  763MPD2    H311273   0.617   3.892  16.378  0.9564 -1.3364 -2.8424
  763MPD2     N11274   0.268   4.177  16.427 -0.1215  0.2576  0.6965
  763MPD2    H511275   0.327   4.248  16.469 -1.7196  2.3550 -0.5702
  763MPD2    N111276   0.261   3.816  16.092 -0.5496 -0.3936 -0.1484
  763MPD2    H711277   0.191   3.868  16.040  0.7623  0.9354 -0.6029
  764MPD2     C11278   3.012   0.920  17.051 -0.3645  0.9629 -0.0643
  764MPD2    C111279   2.876   0.922  17.086  0.4802  0.0331  0.1822
  764MPD2    C211280   2.843   0.858  17.209  0.1688  0.5071 -0.3071
  764MPD2    C311281   2.940   0.823  17.301  0.9962  0.1426  0.8997
  764MPD2    C411282   3.068   0.813  17.259 -0.1521 -0.1484 -0.3603
  764MPD2    C511283   3.104   0.854  17.131 -0.1020  0.0680  0.5990
  764MPD2     H11284   2.741   0.865  17.244  0.3388 -2.5024  0.7800
  764MPD2    H111285   3.145   0.758  17.312  2.4891  1.0910 -2.9277
  764MPD2    H211286   3.048   0.960  16.957 -0.7949  1.1075 -0.1670
  764MPD2    H311287   3.210   0.862  17.108 -0.5725  3.1051 -0.4675
  764MPD2     N11288   2.891   0.764  17.413 -0.2590 -0.2227 -0.0209
  764MPD2    H511289   2.790   0.755  17.424 -0.5013  0.9330 -1.3990
  764MPD2    N111290   2.767   0.976  17.015  0.5022 -0.4123 -0.1946
  764MPD2    H711291   2.677   0.982  17.061 -0.4245  2.1913 -2.3367
  765MPD2     C11292   2.340   3.389  15.878 -0.1375  1.1190  0.4505
  765MPD2    C111293   2.403   3.505  15.832 -0.0770  0.3370 -0.3667
  765MPD2    C211294   2.532   3.491  15.780 -0.0268 -0.4118 -0.8234
  765MPD2    C311295   2.594   3.374  15.771  0.2211  0.4228 -0.3425
  765MPD2    C411296   2.530   3.258  15.810  0.4578 -0.2495  0.6575
  765MPD2    C511297   2.405   3.268  15.868  0.0079 -0.0349 -0.4747
  765MPD2     H11298   2.586   3.578  15.744 -1.9189  1.2472  0.3271
  765MPD2    H111299   2.576   3.160  15.820 -0.9821 -0.8086  1.7970
  765MPD2    H211300   2.239   3.395  15.918 -1.0795 -1.4483 -1.4942
  765MPD2    H311301   2.364   3.175  15.904 -0.3428  0.2564 -0.1220
  765MPD2     N11302   2.728   3.382  15.716 -0.0192  0.2759  0.4568
  765MPD2    H511303   2.772   3.469  15.687 -2.0960  1.1999  0.1286
  765MPD2    N111304   2.317   3.615  15.826 -0.3127  0.3126  0.1096
  765MPD2    H711305   2.222   3.599  15.859 -0.6222 -1.0939 -1.4598
  766MPD2     C11306   2.060   3.412  15.336  0.3466  0.4715  0.0535
  766MPD2    C111307   2.113   3.542  15.323  0.3139  0.5154 -0.4695
  766MPD2    C211308   2.185   3.571  15.210 -0.6235  0.3255  0.5428
  766MPD2    C311309   2.224   3.475  15.127 -0.6492 -0.3662  0.3733
  766MPD2    C411310   2.187   3.343  15.145 -0.2024  0.2619 -0.6224
  766MPD2    C511311   2.099   3.315  15.248  0.4386  0.2796  0.4388
  766MPD2     H11312   2.207   3.676  15.195 -0.2706 -0.1735 -2.2885
  766MPD2    H111313   2.213   3.262  15.078 -1.6805 -1.4718  0.8904
  766MPD2    H211314   1.995   3.382  15.418 -2.1940  1.9520 -1.4380
  766MPD2    H311315   2.059   3.215  15.255 -0.7591  0.6196 -1.3994
  766MPD2     N11316   2.299   3.507  15.013  0.2135 -1.0531 -0.1746
  766MPD2    H511317   2.330   3.423  14.964  1.9526 -1.3970  1.5275
  766MPD2    N111318   2.076   3.634  15.427 -0.4898  0.4905  0.1897
  766MPD2    H711319   2.012   3.601  15.498  1.4465 -0.0149  1.6935
  767MPD2     C11320   1.877   3.879  15.028  0.1345 -0.2923  0.5508
  767MPD2    C111321   2.001   3.864  14.989 -0.6392 -0.2637 -0.6129
  767MPD2    C211322   2.023   3.798  14.867  0.5393  0.3366 -0.1258
  767MPD2    C311323   1.922   3.755  14.782 -0.2189 -0.3390  0.5134
  767MPD2    C411324   1.795   3.766  14.831  0.6588 -0.1651 -0.4975
  767MPD2    C511325   1.777   3.818  14.957  0.1856  0.3074  0.1378
  767MPD2     H11326   2.122   3.806  14.822  0.4052  1.3604 -0.2343
  767MPD2    H111327   1.705   3.738  14.778  1.1166  1.9151 -2.3968
  767MPD2    H211328   1.847   3.919  15.124  0.3783  0.2763  0.3869
  767MPD2    H311329   1.675   3.815  14.992 -0.1903  0.4421 -0.9455
  767MPD2     N11330   1.957   3.707  14.655  0.1576  0.4248  0.6276
  767MPD2    H511331   2.052   3.717  14.622  0.1810 -0.6506  0.3635
  767MPD2    N111332   2.107   3.923  15.054  0.0832 -0.2475 -0.2845
  767MPD2    H711333   2.200   3.895  15.023  0.7460  1.3065  0.3277
  768MPD2     C11334   2.740   1.823  10.892  0.1104 -0.4125 -0.0752
  768MPD2    C111335   2.760   1.943  10.958 -0.7378  0.2943 -0.5079
  768MPD2    C211336   2.878   1.966  11.017  0.0206  0.3391 -0.3377
  768MPD2    C311337   2.980   1.873  11.003  0.3678  0.7336 -0.4670
  768MPD2    C411338   2.957   1.760  10.930 -0.7064 -0.2602 -0.1672
  768MPD2    C511339   2.837   1.733  10.874  0.2129  0.0721 -0.4482
  768MPD2     H11340   2.891   2.056  11.076  1.5165  1.2387 -2.0189
  768MPD2    H111341   3.036   1.686  10.935  0.1627  0.7336  0.8312
  768MPD2    H211342   2.648   1.801  10.839  1.1929  1.9761 -2.9748
  768MPD2    H311343   2.807   1.638  10.832  1.0496 -0.5260  0.3103
  768MPD2     N11344   3.111   1.889  11.055  0.0852 -0.0889  0.0787
  768MPD2    H511345   3.181   1.815  11.054  0.7532  0.4982  2.5650
  768MPD2    N111346   2.650   2.029  10.978 -0.0981 -0.2749 -0.0331
  768MPD2    H711347   2.667   2.115  11.029 -0.3017  0.5764 -1.3844
  769MPD2     C11348   3.983   0.616  14.424 -0.2691 -0.3450  0.0104
  769MPD2    C111349   3.902   0.552  14.513  0.3111  0.3611 -0.3226
  769MPD2    C211350   3.933   0.551  14.644 -0.5163  0.6098  0.0903
  769MPD2    C311351   4.047   0.625  14.689  0.1109 -0.0888  0.4900
  769MPD2    C411352   4.128   0.690  14.598  0.1570  0.0775 -0.0054
  769MPD2    C511353   4.092   0.681  14.464  0.3694  0.9235 -0.2205
  769MPD2     H11354   3.870   0.500  14.715  0.8512 -0.3953  0.5903
  769MPD2    H111355   4.215   0.747  14.627  1.9926 -2.1890 -1.0926
  769MPD2    H211356   3.968   0.605  14.317 -1.3994  0.9875  0.0366
  769MPD2    H311357   4.158   0.734  14.397  0.4471  0.4954 -0.4800
  769MPD2     N11358   4.078   0.622  14.826  0.0415  0.3072 -0.2325
  769MPD2    H511359   4.003   0.586  14.885 -0.6571 -2.6276 -2.8926
  769MPD2    N111360   3.796   0.474  14.458 -0.9464  0.6024 -0.7813
  769MPD2    H711361   3.767   0.493  14.362 -1.9737  3.7820  0.1375
  770MPD2     C11362   2.992   4.526  14.579 -0.1974 -0.2643 -0.1470
  770MPD2    C111363   3.124   4.521  14.548  0.3872 -0.2533  0.4179
  770MPD2    C211364   3.194   4.641  14.513  0.7698  0.2374  0.2454
  770MPD2    C311365   3.127   0.038  14.517 -0.1038  0.5392 -0.3729
  770MPD2    C411366   2.991   0.032  14.533  0.1935  0.5024 -0.1369
  770MPD2    C511367   2.919   4.641  14.554  0.7920  0.3523  0.2182
  770MPD2     H11368   3.298   4.635  14.482  0.7773  1.6877 -0.0349
  770MPD2    H111369   2.930   0.121  14.518  0.9449  1.0735  0.2057
  770MPD2    H211370   2.943   4.440  14.622 -0.5382  0.3231  0.6627
  770MPD2    H311371   2.819   4.645  14.595  1.5854 -1.8983  2.3535
  770MPD2     N11372   3.185   0.167  14.491  0.0536  0.1004 -0.4449
  770MPD2    H511373   3.129   0.242  14.451  0.0404 -0.3088 -1.1999
  770MPD2    N111374   3.186   4.396  14.577 -0.4584  0.4461  0.0945
  770MPD2    H711375   3.126   4.326  14.618  1.1678 -0.8901  0.1884
  771MPD2     C11376   0.202   3.134  13.469  0.9271  0.2578 -0.1409
  771MPD2    C111377   0.157   3.240  13.393  0.6533 -0.4435 -0.2521
  771MPD2    C211378   0.051   3.222  13.299 -1.0063 -0.0867  0.3531
  771MPD2    C311379   4.723   3.097  13.274  0.0000 -0.1347  0.0180
  771MPD2    C411380   0.057   2.995  13.346  0.3939  0.9307 -0.5871
  771MPD2    C511381   0.150   3.016  13.446  0.8149  0.1787 -0.0240
  771MPD2     H11382   0.022   3.307  13.238 -2.9297 -2.0527 -1.4454
  771MPD2    H111383   0.026   2.891  13.335  2.0449  0.3511  0.1974
  771MPD2    H211384   0.279   3.138  13.545 -0.7449  0.9364  1.4989
  771MPD2    H311385   0.193   2.942  13.513 -0.8734 -1.8951 -1.2213
  771MPD2     N11386   4.620   3.088  13.174 -0.4922 -0.3222  0.7983
  771MPD2    H511387   4.593   3.175  13.130  1.9292 -1.1622 -2.3643
  771MPD2    N111388   0.209   3.370  13.410 -0.0642  0.0196 -0.4766
  771MPD2    H711389   0.171   3.448  13.356 -0.1859  0.1059 -0.2648
  772MPD2     C11390   4.717   3.939  13.181  0.1125  0.8851 -0.2346
  772MPD2    C111391   4.696   3.884  13.305 -0.3595  0.3642  0.3269
  772MPD2    C211392   4.562   3.867  13.344 -0.0170  0.0214 -0.4434
  772MPD2    C311393   4.459   3.927  13.274 -0.0113  0.1541 -0.0840
  772MPD2    C411394   4.492   3.985  13.157  0.2590 -0.1112 -0.1718
  772MPD2    C511395   4.614   3.991  13.112 -0.0688 -0.2925  0.4527
  772MPD2     H11396   4.556   3.815  13.439  0.9318  4.5728  2.0818
  772MPD2    H111397   4.416   4.028  13.093  0.0394 -0.9375 -0.4651
  772MPD2    H211398   0.095   3.961  13.152  0.1916  0.1209 -0.5249
  772MPD2    H311399   4.635   4.045  13.021  2.4179 -0.6432  0.8234
  772MPD2     N11400   4.323   3.941  13.319 -0.5075  0.1885 -0.5471
  772MPD2    H511401   4.262   3.988  13.253 -1.8537  0.9325  1.2314
  772MPD2    N111402   0.074   3.834  13.383  0.2949 -0.4297 -0.0304
  772MPD2    H711403   0.037   3.773  13.456  0.4244 -1.9962 -1.2862
  773MPD2     C11404   3.301   4.584   0.076  0.4620 -0.1006  0.4428
  773MPD2    C111405   3.330   4.496  17.668 -0.4912  0.1516  0.9664
  773MPD2    C211406   3.392   4.381  17.691 -0.7913  0.4660  0.7805
  773MPD2    C311407   3.418   4.339   0.130  0.0123  0.0698  0.0889
  773MPD2    C411408   3.369   4.417   0.229  0.7566 -0.4339 -0.2014
  773MPD2    C511409   3.314   4.538   0.202  0.5043  0.3168  0.2178
  773MPD2     H11410   3.432   4.318  17.612 -0.9382  1.4016 -0.0442
  773MPD2    H111411   3.362   4.386   0.333  0.3891  1.4687  0.3402
  773MPD2    H211412   3.260   4.683   0.059 -1.5954 -0.4719  3.3547
  773MPD2    H311413   3.273   4.602   0.279 -0.6692  0.5012 -0.5541
  773MPD2     N11414   3.469   4.208   0.146  0.4521  0.2542  0.3568
  773MPD2    H511415   3.463   4.149   0.064  0.4774 -0.6809  1.0385
  773MPD2    N111416   3.315   4.530  17.534 -0.0976 -0.6573  0.1883
  773MPD2    H711417   3.326   4.454  17.467  0.4137  0.3562 -0.8665
  774MPD2     C11418   3.350   3.519  12.981  0.3782 -0.0593 -0.5223
  774MPD2    C111419   3.226   3.558  13.018 -0.1713 -0.1612  0.3874
  774MPD2    C211420   3.183   3.691  12.989 -0.3656  0.0038  0.5104
  774MPD2    C311421   3.260   3.770  12.900 -0.3323 -0.1798 -0.1961
  774MPD2    C411422   3.380   3.718  12.859 -0.4304 -0.1927  0.0039
  774MPD2    C511423   3.418   3.594  12.894  0.4000  0.2897  0.0183
  774MPD2     H11424   3.090   3.738  13.019 -0.0042  1.6853 -0.9615
  774MPD2    H111425   3.455   3.773  12.803 -1.3969 -0.5982 -1.7015
  774MPD2    H211426   3.393   3.422  13.000  2.1107  0.8671  0.3833
  774MPD2    H311427   3.514   3.559  12.856 -0.9366 -1.2624 -1.9572
  774MPD2     N11428   3.223   3.903  12.883  0.5378 -0.2753  0.3348
  774MPD2    H511429   3.138   3.931  12.932  0.3555  3.8636 -2.2626
  774MPD2    N111430   3.152   3.460  13.089  0.0670 -0.3883 -0.1247
  774MPD2    H711431   3.206   3.377  13.110  0.7714 -0.4946 -2.3066
  775MPD2     C11432   4.152   0.153  15.520 -0.3565  0.0622 -0.1781
  775MPD2    C111433   4.150   0.248  15.622 -0.0940  0.6593  0.4885
  775MPD2    C211434   4.232   0.355  15.615  0.6212 -0.8595 -0.2750
  775MPD2    C311435   4.310   0.369  15.510 -0.1841 -0.1620  0.8938
  775MPD2    C411436   4.315   0.271  15.404  0.2795  0.0768  0.6021
  775MPD2    C511437   4.239   0.162  15.412  0.0073 -0.6170 -0.1271
  775MPD2     H11438   4.239   0.422  15.699  1.5278 -0.2838 -0.8085
  775MPD2    H111439   4.385   0.279  15.321  1.3482 -2.2013  1.3072
  775MPD2    H211440   4.080   0.072  15.513 -1.1118  0.6127  1.3288
  775MPD2    H311441   4.236   0.083  15.338  2.9248  0.2980 -1.2559
  775MPD2     N11442   4.408   0.480  15.490  0.3587 -0.0814 -0.5024
  775MPD2    H511443   4.456   0.478  15.401 -0.0911  1.7711 -0.7899
  775MPD2    N111444   4.055   0.244  15.724 -0.2856 -0.7900 -0.1720
  775MPD2    H711445   4.003   0.158  15.734  0.9555 -1.2858  1.9635
  776MPD2     C11446   3.620   0.600  11.757 -0.6113  0.1623 -1.0311
  776MPD2    C111447   3.586   0.613  11.623  0.4023 -0.9571  0.0685
  776MPD2    C211448   3.608   0.725  11.550 -0.1764  0.2321  0.1559
  776MPD2    C311449   3.680   0.832  11.603 -0.3044  0.0068  0.1238
  776MPD2    C411450   3.715   0.815  11.738 -0.9779 -0.4827  0.1293
  776MPD2    C511451   3.686   0.701  11.812 -0.4234 -0.7058  0.1199
  776MPD2     H11452   3.564   0.731  11.451 -1.2767  0.1295  0.6309
  776MPD2    H111453   3.781   0.881  11.793  1.3232 -2.1715 -0.5968
  776MPD2    H211454   3.602   0.508  11.811  1.3421  0.6650  0.4969
  776MPD2    H311455   3.721   0.696  11.915 -3.0383  1.1175  1.0850
  776MPD2     N11456   3.715   0.947  11.525 -0.3934 -0.2884  0.2832
  776MPD2    H511457   3.776   1.015  11.569  0.8298 -0.4302 -1.2060
  776MPD2    N111458   3.509   0.502  11.579  0.0412  0.1839 -0.2069
  776MPD2    H711459   3.501   0.432  11.652  2.5581  0.3024  0.1879
  777MPD2     C11460   3.235   2.719   0.449  0.0180 -0.4004 -0.1213
  777MPD2    C111461   3.287   2.628   0.536  0.0450 -0.9111 -0.3091
  777MPD2    C211462   3.279   2.493   0.495  0.2753 -0.1213 -0.3354
  777MPD2    C311463   3.246   2.461   0.371 -0.1463 -0.3155  0.3830
  777MPD2    C411464   3.213   2.558   0.278  0.3671  0.1596 -0.4686
  777MPD2    C511465   3.208   2.691   0.317 -0.3072  0.2992 -0.0467
  777MPD2     H11466   3.314   2.414   0.560  0.0609  0.3753  0.3785
  777MPD2    H111467   3.200   2.531   0.174 -1.5814  1.8758 -0.6720
  777MPD2    H211468   3.234   2.820   0.489 -3.7253  0.2723 -1.8889
  777MPD2    H311469   3.170   2.764   0.246  0.0135  0.0867 -0.4352
  777MPD2     N11470   3.246   2.325   0.347 -0.8166  0.4871 -0.0996
  777MPD2    H511471   3.256   2.262   0.427 -0.8967 -0.3179 -0.7250
  777MPD2    N111472   3.333   2.678   0.657 -0.2291 -0.0035  0.1426
  777MPD2    H711473   3.302   2.773   0.677  0.4933  0.3238 -0.2462
  778MPD2     C11474   0.380   3.265  15.022  0.2082  0.5110 -0.0337
  778MPD2    C111475   0.381   3.197  14.899 -0.2235  1.0072  0.2522
  778MPD2    C211476   0.443   3.257  14.787  0.0112 -0.0687  0.0172
  778MPD2    C311477   0.499   3.378  14.798 -0.0019 -0.3623 -0.4086
  778MPD2    C411478   0.499   3.443  14.917 -0.6459 -0.6713  0.6577
  778MPD2    C511479   0.436   3.395  15.030  0.4324  0.2307  0.1567
  778MPD2     H11480   0.440   3.214  14.687 -0.7384  1.7990 -0.7488
  778MPD2    H111481   0.538   3.544  14.916 -0.4039 -0.7543  2.6816
  778MPD2    H211482   0.337   3.213  15.107  1.8333 -1.9556 -0.7238
  778MPD2    H311483   0.439   3.458  15.118  1.2082 -0.2018  0.4391
  778MPD2     N11484   0.548   3.442  14.675  0.0779 -0.3971  0.2886
  778MPD2    H511485   0.513   3.398  14.590 -1.7591  0.3231  0.6668
  778MPD2    N111486   0.328   3.065  14.883  0.7319  0.4116  0.1313
  778MPD2    H711487   0.345   3.018  14.795 -0.3733 -1.0338  0.6830
  779MPD2     C11488   4.219   2.039  14.018 -0.2390  0.3622 -0.2942
  779MPD2    C111489   4.347   2.039  14.067  0.1156 -0.1542 -0.3290
  779MPD2    C211490   4.410   2.164  14.092 -0.4956  0.0604  0.2268
  779MPD2    C311491   4.345   2.280  14.057  0.2163  0.1304  0.7886
  779MPD2    C411492   4.205   2.272  14.021  0.2973  0.4833  0.3321
  779MPD2    C511493   4.146   2.148  14.006  0.3347 -0.2441  0.3687
  779MPD2     H11494   4.514   2.167  14.121 -0.0095  0.3028 -1.4985
  779MPD2    H111495   4.147   2.363  14.015 -0.9267 -0.4514 -2.1739
  779MPD2    H211496   4.166   1.944  14.011  1.3897 -0.5932  0.3901
  779MPD2    H311497   4.041   2.140  13.982  1.0021 -0.7123 -2.3176
  779MPD2     N11498   4.406   2.399  14.091  0.1914  0.1613  0.1711
  779MPD2    H511499   4.491   2.399  14.146  1.0675  2.3116 -1.1587
  779MPD2    N111500   4.422   1.925  14.092 -0.4227  0.5806  0.0543
  779MPD2    H711501   4.518   1.941  14.121  0.0747 -1.4754 -0.4937
  780MPD2     C11502   3.745   1.719   0.802  0.1547 -0.1265 -0.0634
  780MPD2    C111503   3.656   1.632   0.761  0.4114 -0.1751 -0.7362
  780MPD2    C211504   3.638   1.621   0.626  0.1287  0.4248 -0.0215
  780MPD2    C311505   3.702   1.708   0.530  0.2624  0.0242  0.3431
  780MPD2    C411506   3.798   1.790   0.580 -0.1833 -0.4895  0.8259
  780MPD2    C511507   3.820   1.791   0.715 -0.0789  0.4496  0.7290
  780MPD2     H11508   3.571   1.542   0.593  1.9641 -1.8863  1.8057
  780MPD2    H111509   3.867   1.851   0.523 -1.2848 -1.4323 -1.5177
  780MPD2    H211510   3.774   1.720   0.907 -0.5373  1.8574  0.0989
  780MPD2    H311511   3.891   1.854   0.767 -0.5733  0.6901  1.1112
  780MPD2     N11512   3.682   1.706   0.391 -0.6652 -0.2516 -0.6804
  780MPD2    H511513   3.741   1.771   0.341 -0.0692 -1.8133 -1.9965
  780MPD2    N111514   3.581   1.559   0.853 -0.5985  0.2304  0.3417
  780MPD2    H711515   3.592   1.596   0.946  0.3598 -1.4950  0.9090
  781MPD2     C11516   1.176   3.832  11.812 -0.0354 -0.6772 -0.3760
  781MPD2    C111517   1.260   3.745  11.892  0.1650  0.0158  1.0061
  781MPD2    C211518   1.374   3.688  11.836 -0.1219  0.5833 -0.6320
  781MPD2    C311519   1.397   3.712  11.697 -0.4130 -0.5842 -0.0708
  781MPD2    C411520   1.320   3.799  11.627  0.2476 -0.0032  1.3343
  781MPD2    C511521   1.216   3.869  11.691 -0.1009 -0.4457 -0.0328
  781MPD2     H11522   1.439   3.629  11.900 -1.4733 -2.7667 -2.3669
  781MPD2    H111523   1.334   3.824  11.522 -0.1832 -0.0390  1.2683
  781MPD2    H211524   1.076   3.863  11.841  0.0199 -2.5395  1.7951
  781MPD2    H311525   1.156   3.931  11.625  0.0082 -0.8881 -0.5523
  781MPD2     N11526   1.489   3.642  11.618 -0.4402  0.4044  0.2362
  781MPD2    H511527   1.482   3.660  11.518 -2.2133  0.9778  0.4603
  781MPD2    N111528   1.230   3.716  12.030 -0.9778  0.1530 -0.0881
  781MPD2    H711529   1.302   3.684  12.093 -2.2425  1.4359  1.9991
  782MPD2     C11530   3.574   4.013   9.819 -0.6463 -0.0629  0.2946
  782MPD2    C111531   3.598   4.026   9.949 -0.0391 -0.2485 -0.0612
  782MPD2    C211532   3.644   4.142   9.998 -0.4143  0.2829 -0.1477
  782MPD2    C311533   3.661   4.253   9.921 -0.1719  1.1084  0.4408
  782MPD2    C411534   3.643   4.243   9.785 -0.1391  0.1249 -0.3465
  782MPD2    C511535   3.595   4.121   9.736  0.3417 -0.0937 -0.4639
  782MPD2     H11536   3.664   4.143  10.105  0.3791 -2.4241 -0.2625
  782MPD2    H111537   3.677   4.318   9.715 -0.1159  1.5408  1.1803
  782MPD2    H211538   3.545   3.921   9.768 -5.2686  0.8411  1.2920
  782MPD2    H311539   3.592   4.107   9.629  0.3250  2.1379 -0.7614
  782MPD2     N11540   3.690   4.373   9.995 -0.0406 -0.0713  0.0302
  782MPD2    H511541   3.711   4.368  10.095  0.7391  2.4149 -0.0094
  782MPD2    N111542   3.570   3.909  10.029  0.1904 -0.1691 -0.5645
  782MPD2    H711543   3.516   3.840   9.977 -0.9671  0.8999 -0.7847
  783MPD2     C11544   3.223   4.155  10.829  0.0344 -0.1601 -0.8804
  783MPD2    C111545   3.186   4.169  10.700 -0.1248 -0.1764  0.5340
  783MPD2    C211546   3.235   4.086  10.604 -0.9858  0.0331  0.4652
  783MPD2    C311547   3.310   3.974  10.637  0.3384  0.8052  0.3374
  783MPD2    C411548   3.341   3.957  10.772 -0.3581  0.5480 -0.9624
  783MPD2    C511549   3.302   4.050  10.865 -0.2668  0.5180  0.6218
  783MPD2     H11550   3.233   4.111  10.498  1.2963 -1.0302  0.1769
  783MPD2    H111551   3.392   3.869  10.809 -1.7404  0.1539 -0.0343
  783MPD2    H211552   3.188   4.224  10.906 -0.5023  1.6456 -2.7178
  783MPD2    H311553   3.322   4.041  10.972 -1.0316  0.8052  0.7925
  783MPD2     N11554   3.353   3.876  10.534 -0.4745 -0.3788 -0.1910
  783MPD2    H511555   3.308   3.887  10.444 -0.4873  3.1983  0.2517
  783MPD2    N111556   3.110   4.287  10.664 -0.5951  0.5231 -0.3578
  783MPD2    H711557   3.088   4.350  10.740  0.9607  1.3764 -0.6182
  784MPD2     C11558   2.111   1.012   0.796  0.6678  0.2707 -0.0732
  784MPD2    C111559   2.014   0.917   0.782 -0.6492 -0.4978  0.6600
  784MPD2    C211560   1.913   0.948   0.695 -0.2874 -0.9526 -0.9365
  784MPD2    C311561   1.899   1.069   0.627  0.1948  0.1035  0.6208
  784MPD2    C411562   1.993   1.172   0.647  0.1857  0.6373 -0.3567
  784MPD2    C511563   2.098   1.136   0.732  0.0643 -0.1088 -0.6240
  784MPD2     H11564   1.837   0.872   0.683 -2.0743  0.6043  0.5198
  784MPD2    H111565   1.991   1.268   0.597  0.6910  2.0732  2.3572
  784MPD2    H211566   2.190   0.996   0.868  0.7533 -0.5851 -0.3477
  784MPD2    H311567   2.178   1.207   0.751 -0.4865  0.1226  0.7585
  784MPD2     N11568   1.790   1.071   0.545 -0.4477 -0.9597 -0.3414
  784MPD2    H511569   1.747   0.979   0.545  2.3454 -2.2425 -1.1362
  784MPD2    N111570   2.012   0.791   0.851 -0.1191  0.3812  0.2988
  784MPD2    H711571   1.938   0.732   0.815  1.4059 -0.3189 -1.6743
  785MPD2     C11572   1.519   2.746  10.401  0.8059 -0.0333 -0.6821
  785MPD2    C111573   1.435   2.803  10.493 -0.7305  0.5994  0.6618
  785MPD2    C211574   1.300   2.788  10.486 -0.2251  0.0514  0.2684
  785MPD2    C311575   1.239   2.718  10.383  0.0171  0.0712  0.7765
  785MPD2    C411576   1.319   2.659  10.283 -0.5485  0.7746  0.0944
  785MPD2    C511577   1.457   2.677  10.299  1.2184  0.1682  0.3092
  785MPD2     H11578   1.233   2.845  10.549  0.6635  0.3740  0.9158
  785MPD2    H111579   1.287   2.609  10.193 -1.1031  1.7108 -0.2252
  785MPD2    H211580   1.627   2.753  10.407  0.8483 -1.0126 -0.2509
  785MPD2    H311581   1.526   2.631  10.229  0.3433 -1.4512  0.5176
  785MPD2     N11582   1.099   2.727  10.358  0.2863 -0.3772  0.1029
  785MPD2    H511583   1.035   2.736  10.436 -0.1482 -0.6990 -0.2162
  785MPD2    N111584   1.469   2.887  10.594  0.0337 -0.1986  0.7206
  785MPD2    H711585   1.390   2.926  10.646 -0.5541 -0.5771  0.1019
  786MPD2     C11586   0.298   1.229  14.290 -0.0749 -0.3583 -0.2630
  786MPD2    C111587   0.399   1.140  14.287 -0.2976  0.0116 -0.6884
  786MPD2    C211588   0.471   1.110  14.403  1.0286 -0.7923 -0.3884
  786MPD2    C311589   0.435   1.168  14.523 -0.5974  0.5184  0.1102
  786MPD2    C411590   0.338   1.261  14.517 -0.1981 -0.0181 -1.0269
  786MPD2    C511591   0.272   1.295  14.401 -0.9098  0.0060 -0.0741
  786MPD2     H11592   0.551   1.038  14.393  1.0417 -0.6991 -0.9652
  786MPD2    H111593   0.319   1.309  14.612  1.2854  0.6569 -1.0661
  786MPD2    H211594   0.246   1.251  14.197 -1.6412 -3.3300 -0.0955
  786MPD2    H311595   0.185   1.359  14.396  0.2551  1.5556 -0.6570
  786MPD2     N11596   0.482   1.121  14.646  0.2733  0.1113 -0.1195
  786MPD2    H511597   0.449   1.171  14.727  1.1440  2.0792 -0.9664
  786MPD2    N111598   0.425   1.059  14.174  0.6691  0.5054  0.7719
  786MPD2    H711599   0.515   1.012  14.176  1.4209  1.9509  0.4370
  787MPD2     C11600   0.508   0.455  14.353  0.2006  0.1405 -0.1717
  787MPD2    C111601   0.554   0.465  14.226  0.3271 -0.7334 -0.0642
  787MPD2    C211602   0.640   0.366  14.183  0.3576 -0.4479 -0.3593
  787MPD2    C311603   0.680   0.263  14.270  0.8769  0.0912  0.0102
  787MPD2    C411604   0.638   0.257  14.399  0.3227 -0.9335 -0.2310
  787MPD2    C511605   0.552   0.357  14.444  0.0671  0.0517  0.2567
  787MPD2     H11606   0.675   0.365  14.080 -0.0547  0.1361 -0.5057
  787MPD2    H111607   0.674   0.178  14.463  2.8479 -0.7397 -1.4321
  787MPD2    H211608   0.433   0.526  14.384  0.1381  0.7532 -1.6979
  787MPD2    H311609   0.517   0.350  14.546 -1.3544  1.7294 -0.1098
  787MPD2     N11610   0.777   0.172  14.222 -0.3559  0.8376  0.5668
  787MPD2    H511611   0.795   0.185  14.123  1.7006  0.2318  0.8576
  787MPD2    N111612   0.507   0.568  14.141 -0.8735 -0.3312  0.2458
  787MPD2    H711613   0.434   0.626  14.180 -1.4623 -1.3085  0.5899
  788MPD2     C11614   2.980   3.453   0.559 -1.0460  0.4080  0.4561
  788MPD2    C111615   2.846   3.432   0.541  0.1416  0.5538  0.1135
  788MPD2    C211616   2.769   3.529   0.474  0.0332 -0.6182 -0.2491
  788MPD2    C311617   2.825   3.647   0.427 -0.9864 -0.2062 -0.3626
  788MPD2    C411618   2.959   3.670   0.448  0.5497  0.0728 -0.0637
  788MPD2    C511619   3.034   3.573   0.513  0.0420 -0.2830 -0.2667
  788MPD2     H11620   2.663   3.515   0.459  0.1031 -2.4954  0.9377
  788MPD2    H111621   3.006   3.748   0.389 -1.9551  1.7715  0.2000
  788MPD2    H211622   3.038   3.381   0.616 -2.9752 -1.5528 -0.0607
  788MPD2    H311623   3.141   3.586   0.520  0.1821 -1.9682  0.7247
  788MPD2     N11624   2.758   3.740   0.338 -0.0551 -0.4058 -0.1026
  788MPD2    H511625   2.818   3.810   0.297  1.2347  0.2244  2.8812
  788MPD2    N111626   2.770   3.318   0.588  0.0485 -0.8246 -0.4193
  788MPD2    H711627   2.669   3.320   0.594  0.1469  0.9556  0.6659
  789MPD2     C11628   2.424   3.867  16.099  0.7255 -0.4880  0.1031
  789MPD2    C111629   2.378   3.772  16.185 -0.0393 -0.4365  0.6337
  789MPD2    C211630   2.273   3.796  16.266 -0.2214 -0.6060  1.2210
  789MPD2    C311631   2.206   3.921  16.264  0.2518  0.3590 -0.5024
  789MPD2    C411632   2.255   4.023  16.182  0.0808  0.1665 -0.0874
  789MPD2    C511633   2.351   3.991  16.093 -0.9005 -0.0327 -0.0987
  789MPD2     H11634   2.240   3.713  16.327 -0.3265 -1.8768 -0.5482
  789MPD2    H111635   2.200   4.115  16.167 -1.5973 -0.6031  1.4839
  789MPD2    H211636   2.498   3.846  16.024  0.1659  0.4618 -0.7228
  789MPD2    H311637   2.378   4.047  16.004  2.0023 -0.1686  0.6680
  789MPD2     N11638   2.095   3.948  16.355  0.4791 -0.0452 -0.3767
  789MPD2    H511639   2.052   4.040  16.344  2.5138  0.8969 -0.4198
  789MPD2    N111640   2.433   3.647  16.200 -0.1248  0.2429  0.7588
  789MPD2    H711641   2.366   3.581  16.238 -0.4254 -1.0721 -2.0385
  790MPD2     C11642   3.713   0.726  13.618 -0.3308  0.2862  0.6678
  790MPD2    C111643   3.791   0.668  13.526 -0.6433  0.6233  0.1281
  790MPD2    C211644   3.762   0.679  13.394  0.3995  0.6757  0.6089
  790MPD2    C311645   3.659   0.755  13.349 -0.6212  0.4910 -0.3417
  790MPD2    C411646   3.590   0.824  13.447 -0.6383  0.5603 -0.8647
  790MPD2    C511647   3.610   0.804  13.576 -0.8646 -0.8105 -0.3302
  790MPD2     H11648   3.811   0.607  13.330  1.4731 -1.1801  3.5200
  790MPD2    H111649   3.509   0.889  13.417  1.7048  2.1288 -3.7284
  790MPD2    H211650   3.735   0.721  13.724 -0.5024 -0.7745  0.6490
  790MPD2    H311651   3.566   0.862  13.657  0.0888 -1.3777  0.6035
  790MPD2     N11652   3.619   0.748  13.213  0.4948  0.7115  1.3198
  790MPD2    H511653   3.671   0.677  13.163 -1.8107 -1.2815  1.7802
  790MPD2    N111654   3.885   0.574  13.577 -0.1588 -0.9607 -0.2708
  790MPD2    H711655   3.894   0.557  13.677  2.4836 -0.0786 -0.3676
  791MPD2     C11656   2.894   0.904  13.072  0.3115  0.0939  0.8913
  791MPD2    C111657   2.945   0.829  12.969  0.3204 -0.0882  0.2928
  791MPD2    C211658   2.859   0.807  12.861  0.2008 -0.1380  0.0066
  791MPD2    C311659   2.731   0.848  12.859 -0.1410 -0.2143 -0.1592
  791MPD2    C411660   2.682   0.927  12.960 -0.2139 -0.2974 -0.9002
  791MPD2    C511661   2.766   0.954  13.064 -0.2153  0.5107  0.6746
  791MPD2     H11662   2.901   0.769  12.768  0.6302  0.5237 -0.0715
  791MPD2    H111663   2.582   0.968  12.962 -0.3197 -0.6320  1.5507
  791MPD2    H211664   2.957   0.933  13.156 -0.5171 -0.6155  1.7498
  791MPD2    H311665   2.723   1.015  13.143 -0.4100  1.2690 -0.0268
  791MPD2     N11666   2.654   0.813  12.749  0.0799  0.6382  1.2619
  791MPD2    H511667   2.696   0.764  12.670 -0.1791  1.0093  0.8917
  791MPD2    N111668   3.077   0.782  12.981  0.3676  0.3140  0.2001
  791MPD2    H711669   3.114   0.803  13.073  1.7253 -1.0155 -0.0429
  792MPD2     C11670   3.665   0.368  11.066  0.5131 -0.5850  0.0191
  792MPD2    C111671   3.728   0.427  10.956 -0.3866 -0.1731  0.2030
  792MPD2    C211672   3.688   0.376  10.832  0.4325  0.1367  0.3157
  792MPD2    C311673   3.595   0.268  10.808  0.7993 -0.1344 -0.4567
  792MPD2    C411674   3.545   0.216  10.921 -0.3458 -0.5014 -0.6891
  792MPD2    C511675   3.577   0.262  11.048 -0.0472 -0.8727  0.7325
  792MPD2     H11676   3.707   0.431  10.740  3.2776 -2.2214 -0.4833
  792MPD2    H111677   3.477   0.133  10.909  0.4362 -1.3349  0.6276
  792MPD2    H211678   3.690   0.406  11.164  0.0108 -0.7482  0.2061
  792MPD2    H311679   3.528   0.211  11.130 -0.4863  0.3172  1.2038
  792MPD2     N11680   3.543   0.221  10.687 -0.1124 -0.0800 -0.6546
  792MPD2    H511681   3.479   0.143  10.700 -2.2100  1.7461  0.0733
  792MPD2    N111682   3.827   0.528  10.959 -0.0506  0.2878 -0.2696
  792MPD2    H711683   3.825   0.576  11.048 -0.6735  0.8639 -0.5938
  793MPD2     C11684   3.242   0.199   9.618  0.7267  0.6100 -0.0550
  793MPD2    C111685   3.367   0.196   9.672 -0.7203  0.2488  0.8389
  793MPD2    C211686   3.384   0.204   9.812 -0.1232  0.3863  0.4185
  793MPD2    C311687   3.272   0.205   9.890  0.1661  0.6144 -0.7266
  793MPD2    C411688   3.147   0.183   9.835  0.1066  0.4634 -0.8057
  793MPD2    C511689   3.126   0.188   9.697 -0.1064 -0.5516 -0.1273
  793MPD2     H11690   3.484   0.202   9.853  0.0448 -1.4510 -0.0714
  793MPD2    H111691   3.058   0.181   9.897  0.2786  1.4796 -0.5210
  793MPD2    H211692   3.227   0.192   9.511  0.3391 -1.3707  0.1145
  793MPD2    H311693   3.028   0.183   9.652  1.2248 -0.4966 -3.0263
  793MPD2     N11694   3.278   0.198  10.035 -0.3923  0.3989 -0.1236
  793MPD2    H511695   3.189   0.190  10.083  0.1892 -2.7596  0.4717
  793MPD2    N111696   3.476   0.215   9.586  0.8540  0.5340 -0.0876
  793MPD2    H711697   3.568   0.224   9.627  0.9738 -0.5024 -0.1228
  794MPD2     C11698   3.303   0.480  16.923 -0.3079  0.2840  0.3436
  794MPD2    C111699   3.279   0.350  16.879 -0.1932 -0.2578 -0.3362
  794MPD2    C211700   3.259   0.324  16.749  0.4153  0.0090 -0.6866
  794MPD2    C311701   3.287   0.426  16.654  0.5302 -0.0186 -0.1817
  794MPD2    C411702   3.314   0.555  16.691  0.3122 -0.6882  0.0737
  794MPD2    C511703   3.318   0.584  16.823  0.7453  0.9243  0.3121
  794MPD2     H11704   3.227   0.226  16.717  1.3000 -0.9916  1.5011
  794MPD2    H111705   3.328   0.630  16.614 -2.1881 -0.7176 -0.4205
  794MPD2    H211706   3.323   0.507  17.026  3.7435  2.1010 -0.9005
  794MPD2    H311707   3.337   0.686  16.855  0.0053  0.9159  0.7935
  794MPD2     N11708   3.277   0.407  16.516  0.4065 -0.0349 -0.2650
  794MPD2    H511709   3.277   0.495  16.465  2.8828  0.2267  0.1874
  794MPD2    N111710   3.265   0.234  16.965  0.4987 -0.1810  0.4426
  794MPD2    H711711   3.250   0.148  16.914 -0.2679 -0.4285  1.0994
  795MPD2     C11712   1.011   2.353  13.824 -0.1748 -0.3274  0.3906
  795MPD2    C111713   0.989   2.275  13.712  0.2079  0.0123  0.2927
  795MPD2    C211714   1.072   2.169  13.689  0.0418 -0.1523  0.0064
  795MPD2    C311715   1.181   2.137  13.774  0.7618  0.6519 -0.0608
  795MPD2    C411716   1.207   2.220  13.884 -0.2060  0.4767  0.2556
  795MPD2    C511717   1.116   2.320  13.907  0.2184  0.4146 -0.2909
  795MPD2     H11718   1.065   2.099  13.606  1.9200 -2.9096  2.1714
  795MPD2    H111719   1.301   2.205  13.937  0.1202  1.9975  0.1324
  795MPD2    H211720   0.952   2.441  13.851  2.3420  2.1029 -2.0588
  795MPD2    H311721   1.134   2.393  13.984 -3.4741  1.8841 -0.8253
  795MPD2     N11722   1.262   2.025  13.743 -0.3873 -0.8748 -0.3230
  795MPD2    H511723   1.259   1.974  13.656  3.0744 -1.7932  0.1063
  795MPD2    N111724   0.889   2.305  13.617 -0.0583  0.0715 -0.3019
  795MPD2    H711725   0.899   2.255  13.528  0.9160 -0.6231  0.1892
  796MPD2     C11726   0.693   3.501  15.835 -0.3395  0.3063 -1.4124
  796MPD2    C111727   0.726   3.547  15.956  0.5346  0.9065  0.2974
  796MPD2    C211728   0.704   3.681  15.981 -0.2997 -0.2844  0.7865
  796MPD2    C311729   0.647   3.763  15.886  0.3181  0.3385 -0.2033
  796MPD2    C411730   0.593   3.708  15.772  0.2059 -0.2683 -0.1625
  796MPD2    C511731   0.625   3.578  15.746  0.1913 -0.2616  0.6778
  796MPD2     H11732   0.739   3.726  16.073 -0.4318  0.9690  0.2204
  796MPD2    H111733   0.548   3.770  15.695  1.4423 -1.1529 -1.6208
  796MPD2    H211734   0.732   3.409  15.794  1.6248 -0.5510  2.3411
  796MPD2    H311735   0.602   3.527  15.653 -4.1683 -0.6762  1.9971
  796MPD2     N11736   0.626   3.899  15.924 -0.5223  0.4406 -0.1122
  796MPD2    H511737   0.673   3.941  16.003 -2.7988 -1.4446  2.2537
  796MPD2    N111738   0.785   3.452  16.037 -0.3282  0.7322 -0.0337
  796MPD2    H711739   0.781   3.360  15.995 -0.5535  0.3483  0.8466
  797MPD2     C11740   1.447   2.471  17.492 -0.2319  0.9684  0.8265
  797MPD2    C111741   1.472   2.583  17.562  0.3669 -0.0548 -0.0217
  797MPD2    C211742   1.424   2.705  17.517 -0.3484 -0.7992 -0.2392
  797MPD2    C311743   1.369   2.722  17.398 -0.4617 -0.6779  0.5088
  797MPD2    C411744   1.344   2.611  17.321  0.3736 -0.3018 -0.1345
  797MPD2    C511745   1.386   2.487  17.367 -0.0199  0.4218  0.1372
  797MPD2     H11746   1.437   2.788  17.585  0.6688 -1.3419  0.2246
  797MPD2    H111747   1.291   2.613  17.226  0.1908 -0.0297 -0.0267
  797MPD2    H211748   1.484   2.373  17.517 -0.4271  0.9205  0.9243
  797MPD2    H311749   1.378   2.399  17.304 -1.2969  0.6401 -0.0017
  797MPD2     N11750   1.333   2.853  17.374  0.1876 -0.6824  0.1204
  797MPD2    H511751   1.356   2.922  17.445  1.0193  0.8551 -1.6597
  797MPD2    N111752   1.544   2.587  17.680  0.2163  0.2727  0.3243
  797MPD2    H711753   1.538   2.672   0.036 -1.2389  0.0925  0.4474
  798MPD2     C11754   1.811   3.247  17.607 -0.0070 -0.1490 -0.6077
  798MPD2    C111755   1.694   3.170  17.607 -0.0586  0.8441  0.1521
  798MPD2    C211756   1.685   3.071   0.006 -0.1911  0.3500  0.4334
  798MPD2    C311757   1.801   3.039   0.077  0.2958 -0.0889 -0.0917
  798MPD2    C411758   1.910   3.123   0.081  0.6055 -0.4191  0.5330
  798MPD2    C511759   1.913   3.227  17.694  0.5633  0.0576  0.2476
  798MPD2     H11760   1.601   3.003   0.007  0.2420 -0.1885  0.3773
  798MPD2    H111761   1.999   3.103   0.140  0.6649  1.9718  1.2806
  798MPD2    H211762   1.825   3.335  17.545 -0.3491  0.0740 -0.3621
  798MPD2    H311763   2.004   3.286  17.695  1.3944 -1.2237  0.1368
  798MPD2     N11764   1.779   2.926   0.155  0.5942  0.5788 -0.1984
  798MPD2    H511765   1.690   2.880   0.137 -0.8528  2.0170  3.2153
  798MPD2    N111766   1.596   3.208  17.520 -0.2626  0.5294 -0.4659
  798MPD2    H711767   1.604   3.296  17.469 -0.1265  1.4826  1.1839
  799MPD2     C11768   0.239   0.314  14.626  0.0530  0.0646 -0.6064
  799MPD2    C111769   0.250   0.202  14.544  0.1315 -1.0402  0.0210
  799MPD2    C211770   0.205   0.215  14.416 -0.0836  0.3488 -0.6104
  799MPD2    C311771   0.163   0.339  14.364  0.4337  0.4435  0.0563
  799MPD2    C411772   0.145   0.449  14.452  0.4942 -0.7272 -0.4504
  799MPD2    C511773   0.182   0.429  14.581  0.0002 -0.4511 -0.0797
  799MPD2     H11774   0.217   0.124  14.359  0.8523 -1.2308  2.1568
  799MPD2    H111775   0.118   0.550  14.427 -0.6933 -1.3326 -1.6169
  799MPD2    H211776   0.272   0.325  14.729  4.1037 -1.6851 -1.7082
  799MPD2    H311777   0.176   0.513  14.649  0.3296  1.6775 -2.6509
  799MPD2     N11778   0.135   0.360  14.229  0.6104 -0.4198 -0.1631
  799MPD2    H511779   0.129   0.458  14.204 -0.2103 -0.9795 -2.1334
  799MPD2    N111780   0.294   0.080  14.591 -0.0856  0.7113  0.0032
  799MPD2    H711781   0.319   0.012  14.520 -1.4251 -0.2050  0.4170
  800MPD2     C11782   0.719   1.460  13.518  0.3804  0.5841 -0.1227
  800MPD2    C111783   0.798   1.389  13.605 -0.5273 -0.4219  0.4343
  800MPD2    C211784   0.780   1.250  13.614  0.0004 -0.1068 -0.6078
  800MPD2    C311785   0.678   1.181  13.549 -0.0626  0.4981 -0.2976
  800MPD2    C411786   0.597   1.253  13.469 -0.1603 -0.3273  0.3238
  800MPD2    C511787   0.620   1.390  13.450  0.5640 -0.6435  0.0311
  800MPD2     H11788   0.854   1.198  13.674 -1.6065 -1.2001  0.4418
  800MPD2    H111789   0.517   1.206  13.413  0.2874  0.5860 -1.0613
  800MPD2    H211790   0.736   1.564  13.494 -0.8017  0.5951 -0.9472
  800MPD2    H311791   0.569   1.440  13.368  0.7551 -0.3671  0.0822
  800MPD2     N11792   0.673   1.037  13.550 -0.1450  0.3072  0.3269
  800MPD2    H511793   0.622   0.985  13.479  2.2622 -1.4144 -0.1322
  800MPD2    N111794   0.911   1.456  13.666  0.3399 -0.0978  0.2460
  800MPD2    H711795   0.913   1.557  13.657  0.5571 -0.4795 -4.1771
  801MPD2     C11796   0.934   2.085  14.103  0.3185  0.2922 -0.1706
  801MPD2    C111797   0.984   1.970  14.164  0.2335  0.9369 -0.1918
  801MPD2    C211798   0.981   1.958  14.302  0.1213  0.1061  0.0871
  801MPD2    C311799   0.914   2.051  14.380 -0.4353  1.2842 -0.5444
  801MPD2    C411800   0.872   2.165  14.319  0.6057  0.0395  0.1968
  801MPD2    C511801   0.883   2.183  14.179 -1.1535 -0.3108  0.3205
  801MPD2     H11802   1.018   1.862  14.334  1.9989  1.2378  1.3149
  801MPD2    H111803   0.826   2.245  14.376  1.0185 -1.2146  2.2786
  801MPD2    H211804   0.934   2.108  13.997  0.2681  2.6692  0.3396
  801MPD2    H311805   0.855   2.273  14.125  1.6591  0.0866 -0.4779
  801MPD2     N11806   0.876   2.034  14.516  0.3551  0.0949  0.1801
  801MPD2    H511807   0.848   2.121  14.560 -0.6587  0.7064 -1.6404
  801MPD2    N111808   1.030   1.857  14.092 -0.0908  0.1018  0.3089
  801MPD2    H711809   1.081   1.788  14.146 -0.6211 -0.6011 -0.0966
  802MPD2     C11810   0.143   2.057   0.421  0.4314  1.0113  0.3424
  802MPD2    C111811   0.128   2.156   0.325 -0.3248  0.7782  0.5379
  802MPD2    C211812   0.231   2.169   0.236 -0.1583 -0.2686 -0.0163
  802MPD2    C311813   0.348   2.089   0.246  0.0703  0.1464  0.4767
  802MPD2    C411814   0.353   1.991   0.337  0.1919 -0.4275 -0.1449
  802MPD2    C511815   0.249   1.964   0.419 -0.1618  0.5697  0.4414
  802MPD2     H11816   0.224   2.245   0.159  0.7163  0.6517  0.8251
  802MPD2    H111817   0.433   1.917   0.335  0.0339 -0.5373 -2.2996
  802MPD2    H211818   0.058   2.028   0.481 -0.1444  0.5341 -0.7000
  802MPD2    H311819   0.247   1.877   0.485  0.1312  0.2146 -0.0187
  802MPD2     N11820   0.441   2.120   0.150  0.3236 -0.5448 -0.2187
  802MPD2    H511821   0.414   2.167   0.064  0.3953 -0.1952 -0.0521
  802MPD2    N111822   0.009   2.228   0.300 -1.2019  0.0614 -0.1010
  802MPD2    H711823   0.014   2.294   0.223  2.3038 -0.7558 -0.5678
  803MPD2     C11824   1.591   1.051  11.650  0.5503 -0.2878 -0.0643
  803MPD2    C111825   1.671   1.025  11.754 -1.1356  0.0314  0.0079
  803MPD2    C211826   1.625   0.944  11.860 -0.3329 -0.6529  0.1340
  803MPD2    C311827   1.502   0.878  11.838  0.7130  0.4063  0.7570
  803MPD2    C411828   1.424   0.905  11.721 -0.1107 -0.4362  0.5882
  803MPD2    C511829   1.467   0.998  11.633  0.2385  0.1111  0.0444
  803MPD2     H11830   1.697   0.910  11.933 -0.0158 -0.4737 -0.0946
  803MPD2    H111831   1.334   0.849  11.696  1.6442 -3.0460  0.0795
  803MPD2    H211832   1.629   1.124  11.580 -1.0955  0.8467  0.2325
  803MPD2    H311833   1.408   1.019  11.545 -0.6096 -2.8010 -0.0964
  803MPD2     N11834   1.444   0.784  11.925 -0.0085 -0.0457  0.2411
  803MPD2    H511835   1.353   0.743  11.908 -1.2313  2.9879 -0.4021
  803MPD2    N111836   1.796   1.083  11.775 -0.5958 -0.4215  0.5390
  803MPD2    H711837   1.839   1.084  11.866 -0.2448 -2.3025  0.3857
  804MPD2     C11838   0.705   2.046  17.111 -0.2214  0.3713 -0.5347
  804MPD2    C111839   0.773   1.933  17.153  0.3111 -0.3714 -0.5299
  804MPD2    C211840   0.882   1.960  17.246  0.7169 -0.3873 -0.0441
  804MPD2    C311841   0.938   2.091  17.267  0.6979  0.3723 -0.0773
  804MPD2    C411842   0.868   2.193  17.212  0.8153  0.1229 -0.2086
  804MPD2    C511843   0.752   2.175  17.139  0.2639 -0.0412 -0.4833
  804MPD2     H11844   0.935   1.878  17.294 -0.7249  0.0510  2.2981
  804MPD2    H111845   0.895   2.293  17.245  0.2291  0.7351 -1.6114
  804MPD2    H211846   0.611   2.026  17.060  0.5351 -1.2533 -1.3083
  804MPD2    H311847   0.702   2.269  17.123 -1.2879 -1.0165 -1.3385
  804MPD2     N11848   1.054   2.103  17.340 -0.3114 -0.1332 -0.5690
  804MPD2    H511849   1.123   2.029  17.336 -0.2293 -0.0913  0.1952
  804MPD2    N111850   0.731   1.798  17.151  0.3398  0.1837  0.6510
  804MPD2    H711851   0.789   1.742  17.213  1.2353  0.3837  0.0038
  805MPD2     C11852   4.695   0.266  15.510 -1.0161  0.1288  0.2184
  805MPD2    C111853   0.061   0.190  15.443  0.3771 -0.3076  0.7173
  805MPD2    C211854   0.166   0.154  15.525 -0.1768  0.6398  0.4537
  805MPD2    C311855   0.186   0.194  15.658  0.1294 -0.0360  0.4516
  805MPD2    C411856   0.094   0.275  15.711 -0.6979 -0.0776  0.2658
  805MPD2    C511857   4.706   0.304  15.640  0.5749  0.8167 -0.0391
  805MPD2     H11858   0.240   0.087  15.484 -0.6015  0.0302  0.6836
  805MPD2    H111859   0.105   0.307  15.815 -0.6007 -0.4875  0.3806
  805MPD2    H211860   4.604   0.296  15.459 -0.2183  1.2453 -0.5413
  805MPD2    H311861   4.631   0.359  15.696 -1.6060 -0.5257 -1.6238
  805MPD2     N11862   0.307   0.158  15.721  0.0914 -0.1367  0.1298
  805MPD2    H511863   0.374   0.110  15.662 -0.5918  0.3259 -1.0151
  805MPD2    N111864   0.039   0.133  15.315 -0.6538  0.0000 -0.2736
  805MPD2    H711865   0.113   0.070  15.285  0.4766  1.1135  0.1960
  806MPD2     C11866   0.817   0.304   1.229  0.1043  0.1384  0.7589
  806MPD2    C111867   0.898   0.267   1.120  0.8828 -0.1382  0.0746
  806MPD2    C211868   0.914   0.357   1.017 -0.7285 -0.1423  0.2939
  806MPD2    C311869   0.839   0.473   1.016  0.6154 -0.1180 -1.0347
  806MPD2    C411870   0.768   0.511   1.128 -0.1300 -0.2396 -0.2631
  806MPD2    C511871   0.748   0.428   1.237 -0.6812 -0.5496 -0.2197
  806MPD2     H11872   0.986   0.352   0.937  0.8973  1.5130  1.6772
  806MPD2    H111873   0.710   0.603   1.137  0.8308  0.2353  1.0201
  806MPD2    H211874   0.805   0.236   1.313  2.1581 -1.4891 -0.2676
  806MPD2    H311875   0.684   0.463   1.317 -0.2241 -1.1499  0.4141
  806MPD2     N11876   0.850   0.551   0.899  0.4302 -0.1211  0.2253
  806MPD2    H511877   0.921   0.526   0.830  0.1511 -0.3724  0.0287
  806MPD2    N111878   0.958   0.142   1.121  0.0921 -0.1460  0.0086
  806MPD2    H711879   0.923   0.066   1.177  0.8018  0.9881  1.9675
  807MPD2     C11880   0.760   4.149   1.185  0.0519 -0.1657  0.3988
  807MPD2    C111881   0.847   4.166   1.078  0.2222 -1.1223  0.1357
  807MPD2    C211882   0.834   4.070   0.980 -0.2850  0.7997 -0.5035
  807MPD2    C311883   0.752   3.957   0.989  0.0885  0.2450 -0.5698
  807MPD2    C411884   0.678   3.938   1.100  0.1857 -0.6252  0.1986
  807MPD2    C511885   0.683   4.037   1.201  0.2859  0.3207  0.1089
  807MPD2     H11886   0.888   4.078   0.887 -0.0722 -1.2788 -0.5675
  807MPD2    H111887   0.614   3.854   1.124 -0.9509 -0.3277 -1.8087
  807MPD2    H211888   0.742   4.228   1.256  1.8015  0.2243  0.4048
  807MPD2    H311889   0.619   4.027   1.288  1.6373 -0.5427  1.0042
  807MPD2     N11890   0.750   3.872   0.878  0.1272 -0.3847 -0.0828
  807MPD2    H511891   0.814   3.898   0.804  2.7296 -1.2327  1.8826
  807MPD2    N111892   0.930   4.279   1.063 -0.2104 -0.5323 -0.1210
  807MPD2    H711893   0.974   4.285   0.972 -1.3449  0.4629 -0.6038
  808MPD2     C11894   1.048   0.876  10.360 -0.4032 -0.2487 -0.2730
  808MPD2    C111895   1.071   0.854  10.224 -0.6120 -0.0597  0.0114
  808MPD2    C211896   1.126   0.954  10.148 -0.4773 -0.5018 -0.2850
  808MPD2    C311897   1.158   1.077  10.202  0.0007  0.3662  0.0045
  808MPD2    C411898   1.139   1.098  10.338  0.1655  0.4847  0.9217
  808MPD2    C511899   1.081   0.996  10.415 -0.8775  0.0921  0.4047
  808MPD2     H11900   1.142   0.926  10.045  0.5082 -0.2118 -0.2179
  808MPD2    H111901   1.158   1.189  10.394  0.5722  1.9183 -1.5570
  808MPD2    H211902   1.001   0.807  10.429 -0.8801 -1.2771 -1.6377
  808MPD2    H311903   1.075   0.993  10.523 -0.1511  0.5245  0.4589
  808MPD2     N11904   1.201   1.190  10.131  0.3591  0.5456 -0.2560
  808MPD2    H511905   1.240   1.265  10.186  1.4148  1.0677 -1.7176
  808MPD2    N111906   1.044   0.731  10.157 -0.3261 -0.3099  0.3626
  808MPD2    H711907   1.070   0.712  10.061  2.0221 -2.3878  1.4200
  809MPD2     C11908   1.643   1.111   9.238  0.2628  0.5911 -0.0699
  809MPD2    C111909   1.720   1.186   9.326 -0.5524 -0.3248  0.2475
  809MPD2    C211910   1.667   1.228   9.441  0.2304  0.2552  0.2482
  809MPD2    C311911   1.536   1.203   9.473  0.3817  0.0403 -0.0487
  809MPD2    C411912   1.462   1.122   9.389 -0.6232  0.1418 -0.5674
  809MPD2    C511913   1.518   1.071   9.276 -0.3411  1.0448  0.6079
  809MPD2     H11914   1.731   1.283   9.509  0.2479 -1.0015  1.2553
  809MPD2    H111915   1.355   1.110   9.407 -0.6008 -0.7264 -1.0229
  809MPD2    H211916   1.680   1.067   9.146  0.6220  0.2295  0.2480
  809MPD2    H311917   1.455   1.020   9.204 -0.8284 -0.0758  1.8243
  809MPD2     N11918   1.475   1.257   9.594  0.1270 -0.0912 -0.1262
  809MPD2    H511919   1.378   1.230   9.604  1.0250 -3.3248 -0.0650
  809MPD2    N111920   1.849   1.244   9.300 -0.7478 -0.8442  0.0423
  809MPD2    H711921   1.894   1.298   9.373 -0.9536  0.1934 -0.5970
  810MPD2     C11922   0.873   0.145  10.409  0.0514 -0.3352 -0.1974
  810MPD2    C111923   0.749   0.141  10.472  0.0364  0.4111  0.4005
  810MPD2    C211924   0.728   0.210  10.587 -0.6069 -0.1449 -0.5274
  810MPD2    C311925   0.826   0.278  10.648 -0.3844  0.3390 -0.1470
  810MPD2    C411926   0.941   0.292  10.576  0.6954  0.1336 -0.2062
  810MPD2    C511927   0.969   0.228  10.463 -0.5531 -0.0925  0.4580
  810MPD2     H11928   0.628   0.207  10.626  0.0120  1.2497  1.1295
  810MPD2    H111929   1.021   0.358  10.608  1.6263 -1.4173  0.6358
  810MPD2    H211930   0.888   0.100  10.311  1.6881  0.2523 -0.2071
  810MPD2    H311931   1.069   0.245  10.422 -1.0768 -0.5168 -1.0094
  810MPD2     N11932   0.813   0.335  10.775  0.0268 -0.2998  0.0999
  810MPD2    H511933   0.888   0.391  10.814 -1.1535  0.4061  1.3679
  810MPD2    N111934   0.642   0.090  10.401 -0.5588 -0.3819  0.2933
  810MPD2    H711935   0.648   0.077  10.301 -0.0693  2.7056 -0.0645
  811MPD2     C11936   0.200   0.297   9.730  0.0683  0.4792  0.1554
  811MPD2    C111937   0.245   0.338   9.854 -0.0133 -0.0907 -0.4149
  811MPD2    C211938   0.273   0.470   9.863  0.1702  0.2651  0.8133
  811MPD2    C311939   0.255   0.561   9.757 -0.2389  0.1043  0.5235
  811MPD2    C411940   0.203   0.512   9.636 -0.9809  0.7995  0.3910
  811MPD2    C511941   0.178   0.379   9.623  0.6162  0.3755  0.0995
  811MPD2     H11942   0.311   0.510   9.957  1.0026 -0.4835  0.7973
  811MPD2    H111943   0.177   0.580   9.557 -0.4523  1.2080  0.5750
  811MPD2    H211944   0.165   0.195   9.718  0.5920  0.1748  1.1677
  811MPD2    H311945   0.136   0.339   9.531 -1.0225  1.2515  0.4563
  811MPD2     N11946   0.292   0.698   9.781 -0.6260 -0.8142 -0.0530
  811MPD2    H511947   0.331   0.709   9.873 -1.1301  0.6934 -0.0208
  811MPD2    N111948   0.257   0.250   9.963  0.4292 -0.1935  0.0424
  811MPD2    H711949   0.226   0.154   9.948  1.2294 -0.9006  2.8992
  812MPD2     C11950   4.351   0.524  11.908 -0.0915 -0.8490 -0.1694
  812MPD2    C111951   4.306   0.576  12.027  0.5962 -0.1291  0.2029
  812MPD2    C211952   4.267   0.490  12.130  0.3235 -0.2853 -0.1815
  812MPD2    C311953   4.280   0.353  12.114 -0.5925 -0.0954 -0.1062
  812MPD2    C411954   4.329   0.307  11.991  0.3236 -0.5130 -0.2584
  812MPD2    C511955   4.363   0.388  11.893  1.1156  0.9294  0.1036
  812MPD2     H11956   4.244   0.525  12.230  3.3790 -1.3766  0.9144
  812MPD2    H111957   4.329   0.202  11.963  0.7521 -0.5654 -0.0586
  812MPD2    H211958   4.372   0.586  11.822 -0.5116 -1.0760 -0.4393
  812MPD2    H311959   4.404   0.347  11.801 -1.3898  1.4907 -1.2534
  812MPD2     N11960   4.256   0.266  12.227  0.0699  0.0888 -0.0276
  812MPD2    H511961   4.245   0.301  12.322 -0.3822  0.3712 -0.1869
  812MPD2    N111962   4.307   0.720  12.025  0.1108  0.1424  0.3539
  812MPD2    H711963   4.362   0.760  11.949 -1.0035  2.7350  0.9328
  813MPD2     C11964   3.451   2.476  12.968 -0.1463 -0.2077 -0.2019
  813MPD2    C111965   3.404   2.603  12.944  0.4775 -0.5191  0.0641
  813MPD2    C211966   3.302   2.660  13.026  0.6066 -0.1488 -0.5296
  813MPD2    C311967   3.262   2.584  13.133 -0.8586  0.4976  0.1414
  813MPD2    C411968   3.317   2.463  13.164 -0.0996 -0.3138  0.0877
  813MPD2    C511969   3.418   2.410  13.083 -0.3641  0.1078 -0.6975
  813MPD2     H11970   3.246   2.750  13.000 -0.0501 -1.1997 -2.7269
  813MPD2    H111971   3.283   2.402  13.246  0.7853 -1.3056 -0.2759
  813MPD2    H211972   3.525   2.437  12.899  0.4115 -0.0016  0.2829
  813MPD2    H311973   3.458   2.310  13.098 -0.7023  0.1628  0.5923
  813MPD2     N11974   3.164   2.649  13.209  0.3280 -0.3143 -0.1860
  813MPD2    H511975   3.141   2.742  13.177  0.7846 -0.7004 -1.6327
  813MPD2    N111976   3.467   2.661  12.829  0.0161 -0.4586 -0.9705
  813MPD2    H711977   3.543   2.609  12.786 -0.2168  0.3827 -2.3700
  814MPD2     C11978   3.602   3.845  12.049  0.2805 -0.5448  0.3562
  814MPD2    C111979   3.638   3.854  11.916  0.3855  0.2961  0.6647
  814MPD2    C211980   3.709   3.961  11.866 -0.0518  0.2369 -0.1888
  814MPD2    C311981   3.740   4.061  11.957  0.1376 -0.7560  0.1040
  814MPD2    C411982   3.699   4.054  12.089 -0.4383 -0.2581  0.3636
  814MPD2    C511983   3.634   3.947  12.138  0.7424 -0.4034 -0.0999
  814MPD2     H11984   3.713   3.968  11.758 -0.5120 -0.8255 -0.2736
  814MPD2    H111985   3.711   4.133  12.163 -1.3839 -0.8876  1.1900
  814MPD2    H211986   3.539   3.769  12.093 -0.3064  0.2119  0.8272
  814MPD2    H311987   3.599   3.944  12.241  1.2237 -1.1714  0.0443
  814MPD2     N11988   3.805   4.187  11.924 -0.3512 -0.1989 -0.4767
  814MPD2    H511989   3.820   4.262  11.991 -3.7534  0.0481  0.0384
  814MPD2    N111990   3.596   3.759  11.820  0.0003 -0.1531  0.5056
  814MPD2    H711991   3.627   3.766  11.724  2.4551 -0.1593  1.3022
  815MPD2     C11992   4.372   2.226  11.915 -0.3706  0.1366 -0.2301
  815MPD2    C111993   4.350   2.090  11.918 -0.3361 -0.2779  0.3753
  815MPD2    C211994   4.245   2.055  11.993 -0.1755 -0.1339  0.6818
  815MPD2    C311995   4.161   2.137  12.058 -0.1155  0.4451  1.0937
  815MPD2    C411996   4.187   2.278  12.050 -0.1730  0.7520 -0.4801
  815MPD2    C511997   4.294   2.315  11.976 -0.4221 -0.1034  0.0790
  815MPD2     H11998   4.222   1.950  12.009  0.3761 -0.3999 -0.2089
  815MPD2    H111999   4.119   2.346  12.100  0.9764  0.8955  0.8887
  815MPD2    H212000   4.454   2.268  11.858 -2.9913  1.9719 -2.6522
  815MPD2    H312001   4.311   2.417  11.943 -0.0643  0.2548  1.3779
  815MPD2     N12002   4.054   2.077  12.124 -0.5224 -0.2664 -0.0065
  815MPD2    H512003   4.053   1.975  12.125  1.5546 -0.3003 -1.1873
  815MPD2    N112004   4.434   1.997  11.844 -0.4324 -0.1998 -0.1122
  815MPD2    H712005   4.501   2.029  11.774 -0.1973  1.1603  0.7381
  816MPD2     C12006   4.138   1.297  17.614  1.0147 -0.2084 -0.2148
  816MPD2    C112007   4.112   1.351  17.488  0.0810 -0.4379 -0.0045
  816MPD2    C212008   4.157   1.277  17.376  0.0647 -0.4157 -0.4731
  816MPD2    C312009   4.217   1.157  17.388  0.2466 -0.0819  0.0491
  816MPD2    C412010   4.230   1.098  17.517 -0.4151  0.1175 -0.3223
  816MPD2    C512011   4.197   1.173  17.625  0.6982 -0.6809  0.4489
  816MPD2     H12012   4.144   1.310  17.273 -1.0283 -1.2642 -0.6021
  816MPD2    H112013   4.270   0.999  17.535  1.8070  1.0808 -0.0218
  816MPD2    H212014   4.111   1.347   0.006 -1.7138 -0.3497 -0.9515
  816MPD2    H312015   4.204   1.124   0.021 -0.6348  0.0436  0.9259
  816MPD2     N12016   4.260   1.093  17.269 -0.9006 -0.3650  0.4132
  816MPD2    H512017   4.239   1.132  17.178  1.6078  2.5601  1.1175
  816MPD2    N112018   4.044   1.473  17.484 -0.0148 -0.0488  0.0684
  816MPD2    H712019   4.024   1.520  17.571 -2.3519 -0.6801 -0.1084
  817MPD2     C12020   4.196   2.690   9.974 -0.2308  0.1823 -0.0550
  817MPD2    C112021   4.276   2.719   9.865 -0.4326  0.9392  0.2462
  817MPD2    C212022   4.224   2.818   9.778  0.1296 -0.3086  0.0860
  817MPD2    C312023   4.102   2.884   9.799  0.2221  0.2237  0.6409
  817MPD2    C412024   4.020   2.839   9.904 -0.3933 -0.2288 -0.1943
  817MPD2    C512025   4.072   2.749   9.989  0.6984 -0.1186  0.2764
  817MPD2     H12026   4.274   2.856   9.690  1.2253 -2.0521 -0.0537
  817MPD2    H112027   3.926   2.889   9.922 -0.4906 -1.5390  2.8235
  817MPD2    H212028   4.224   2.622  10.053  1.6620  1.3018  0.2415
  817MPD2    H312029   4.023   2.726  10.083 -0.8377 -0.9280 -0.7222
  817MPD2     N12030   4.075   2.996   9.715 -0.3157  0.4831  0.0772
  817MPD2    H512031   4.121   3.002   9.624  1.2102  1.8579  0.9411
  817MPD2    N112032   4.399   2.666   9.839 -0.2204  0.3213  0.6212
  817MPD2    H712033   4.455   2.717   9.771 -0.1867  0.2069  0.5621
  818MPD2     C12034   2.569   2.705  10.090  0.1082  0.4824  0.1460
  818MPD2    C112035   2.480   2.632  10.166  0.6187  0.7016  0.3769
  818MPD2    C212036   2.513   2.513  10.221  0.5063  0.3624 -0.3351
  818MPD2    C312037   2.644   2.464  10.201  0.2167 -0.2446 -0.3764
  818MPD2    C412038   2.733   2.539  10.126 -0.2947 -1.2389 -0.5089
  818MPD2    C512039   2.693   2.659  10.073  0.4937  1.0271  0.0079
  818MPD2     H12040   2.443   2.469  10.290 -0.2470  1.5775 -0.3328
  818MPD2    H112041   2.837   2.508  10.120 -0.3172 -1.1643 -1.2628
  818MPD2    H212042   2.547   2.801  10.044  0.0770  0.5394  0.2816
  818MPD2    H312043   2.765   2.725  10.027  0.0453  2.2877  1.1409
  818MPD2     N12044   2.676   2.341  10.245 -0.2379  0.3563  0.8490
  818MPD2    H512045   2.768   2.303  10.225 -1.5884 -1.8083 -1.3477
  818MPD2    N112046   2.353   2.674  10.201  0.0956 -0.1242  0.3919
  818MPD2    H712047   2.314   2.625  10.280  1.6065 -1.3996  0.3389
  819MPD2     C12048   0.541   4.347  15.618 -0.3062  0.3830  0.2452
  819MPD2    C112049   0.628   4.246  15.589 -0.2797 -0.6273 -0.4529
  819MPD2    C212050   0.761   4.247  15.635  0.0015 -0.1286  0.3282
  819MPD2    C312051   0.801   4.344  15.720  0.3723 -0.2502 -0.0663
  819MPD2    C412052   0.710   4.449  15.751 -0.0358 -0.0551 -0.1659
  819MPD2    C512053   0.587   4.453  15.687  0.0356 -0.2744  0.3478
  819MPD2     H12054   0.826   4.162  15.617  0.2595  0.2905 -0.6946
  819MPD2    H112055   0.735   4.540  15.804 -1.6364  0.6986 -0.6859
  819MPD2    H212056   0.436   4.353  15.592  0.0725  0.9536 -1.1699
  819MPD2    H312057   0.517   4.531  15.715  0.2148  0.9679 -2.6767
  819MPD2     N12058   0.938   4.353  15.760 -0.2947 -0.3703  0.2207
  819MPD2    H512059   1.001   4.294  15.705 -1.8485  0.0267 -1.9875
  819MPD2    N112060   0.572   4.136  15.514 -0.3357 -0.3198  0.6577
  819MPD2    H712061   0.479   4.151  15.477  0.2080 -1.0097 -0.9998
  820MPD2     C12062   0.065   4.235  14.718  1.0498 -0.2667  0.3139
  820MPD2    C112063   0.099   4.290  14.844  0.0071 -0.3068  1.1080
  820MPD2    C212064   0.169   4.217  14.936  0.0178  0.2496  0.7309
  820MPD2    C312065   0.193   4.083  14.908 -0.0592 -0.0274  0.0069
  820MPD2    C412066   0.150   4.022  14.794 -0.1859 -0.7427 -0.0941
  820MPD2    C512067   0.088   4.101  14.702  0.1401 -0.4287 -0.6572
  820MPD2     H12068   0.205   4.272  15.022  0.0676 -2.0603  2.1599
  820MPD2    H112069   0.166   3.917  14.772  1.6863  0.4147 -4.2726
  820MPD2    H212070   0.028   4.293  14.634 -3.4888 -0.4408  2.1785
  820MPD2    H312071   0.077   4.057  14.604 -0.0317 -1.6141 -0.1070
  820MPD2     N12072   0.271   4.001  15.003  0.0383 -0.2230 -0.2415
  820MPD2    H512073   0.282   3.902  14.985 -1.1016 -0.3901 -0.0461
  820MPD2    N112074   0.078   4.433  14.856 -0.0110 -0.3777 -0.2651
  820MPD2    H712075   0.035   4.485  14.780 -0.4149 -3.2815 -2.0361
  821MPD2     C12076   0.541   1.230  13.081 -0.8044  0.6713 -0.4559
  821MPD2    C112077   0.674   1.202  13.061  0.3301  0.1201  0.1186
  821MPD2    C212078   0.764   1.277  12.988 -0.0043  0.3888  0.3870
  821MPD2    C312079   0.725   1.402  12.950  0.0410 -0.0173 -0.2070
  821MPD2    C412080   0.593   1.439  12.972 -0.0467  0.4037 -0.2791
  821MPD2    C512081   0.505   1.349  13.026  0.6230  0.0196 -0.0185
  821MPD2     H12082   0.858   1.233  12.955 -0.4119 -0.1425 -0.0621
  821MPD2    H112083   0.570   1.539  12.939 -1.2455  0.4859  0.7992
  821MPD2    H212084   0.470   1.168  13.135 -0.0436 -0.7292 -1.0752
  821MPD2    H312085   0.402   1.378  13.044  0.8514 -0.2520  1.7879
  821MPD2     N12086   0.808   1.504  12.891  0.6660 -0.4069 -0.2157
  821MPD2    H512087   0.763   1.589  12.861  0.8991  0.2589  1.3234
  821MPD2    N112088   0.740   1.085  13.114  0.4398 -0.3623 -0.7347
  821MPD2    H712089   0.835   1.069  13.083  0.0271 -0.9416 -1.7121
  822MPD2     C12090   1.194   1.282  15.384 -0.1644 -0.0230 -1.2656
  822MPD2    C112091   1.307   1.282  15.466 -0.2877 -0.4799 -0.5597
  822MPD2    C212092   1.323   1.393  15.546  0.0333  0.4071  0.6420
  822MPD2    C312093   1.222   1.493  15.558  0.0487 -0.2712 -0.7606
  822MPD2    C412094   1.109   1.480  15.479  0.7477 -0.4623  0.4576
  822MPD2    C512095   1.097   1.376  15.395 -0.0900 -0.8808 -0.0397
  822MPD2     H12096   1.414   1.404  15.603 -0.2396 -1.7858  1.5184
  822MPD2    H112097   1.037   1.561  15.477  0.1278 -0.9473  2.6628
  822MPD2    H212098   1.184   1.199  15.316 -0.8549 -1.1778  0.2484
  822MPD2    H312099   1.011   1.373  15.328  0.8393  1.7840 -1.3613
  822MPD2     N12100   1.242   1.596  15.646 -0.4544  1.0431  0.0734
  822MPD2    H512101   1.331   1.596  15.696  1.4103 -0.1520 -3.2438
  822MPD2    N112102   1.398   1.175  15.486  0.8312 -0.0417  0.4968
  822MPD2    H712103   1.460   1.187  15.566 -1.4368  1.6111  2.0115
  823MPD2     C12104   1.086   1.950  16.490  0.3499 -0.6061  0.2645
  823MPD2    C112105   1.081   1.848  16.405 -0.4202 -0.0009 -0.1308
  823MPD2    C212106   1.078   1.717  16.448 -0.2624 -0.6404  0.2416
  823MPD2    C312107   1.057   1.695  16.585  0.1753  0.0426 -0.5018
  823MPD2    C412108   1.051   1.801  16.671  0.7084  0.5419 -0.1637
  823MPD2    C512109   1.073   1.931  16.626  0.4431  0.6289  0.0186
  823MPD2     H12110   1.085   1.638  16.374 -0.3388  0.3930 -0.8705
  823MPD2    H112111   1.034   1.786  16.777 -0.4947 -1.8116 -0.6823
  823MPD2    H212112   1.093   2.052  16.453 -1.5612 -0.3252  0.6720
  823MPD2    H312113   1.071   2.018  16.690  2.6534 -1.1337  2.4452
  823MPD2     N12114   1.060   1.567  16.649  0.0307 -0.1693  0.1800
  823MPD2    H512115   1.046   1.569  16.750 -1.6887  0.8557 -0.0684
  823MPD2    N112116   1.085   1.873  16.264 -0.3415 -0.0825  0.2944
  823MPD2    H712117   1.115   1.963  16.227 -2.2380  0.7532  0.7919
  824MPD2     C12118   1.688   0.410  15.209 -0.3296  0.0760 -0.2520
  824MPD2    C112119   1.774   0.487  15.289  0.0303 -0.0163  0.3452
  824MPD2    C212120   1.909   0.450  15.296  0.1469 -0.0329  0.4282
  824MPD2    C312121   1.940   0.324  15.248 -0.3519 -0.5983 -0.0264
  824MPD2    C412122   1.847   0.233  15.187  0.3673  0.4214  0.2109
  824MPD2    C512123   1.726   0.285  15.157 -0.3480  0.1353 -0.1840
  824MPD2     H12124   1.983   0.518  15.338 -0.4752 -0.1557  1.7510
  824MPD2    H112125   1.861   0.131  15.154 -0.2532  0.1737  0.7228
  824MPD2    H212126   1.589   0.447  15.184  0.0080  0.4319 -1.0642
  824MPD2    H312127   1.654   0.221  15.108  0.5730  1.0253 -2.7265
  824MPD2     N12128   2.077   0.282  15.266 -0.4052 -0.0051  0.3886
  824MPD2    H512129   2.147   0.350  15.294  2.1713 -2.0699 -1.0910
  824MPD2    N112130   1.722   0.593  15.366 -0.4168  0.0599 -1.0109
  824MPD2    H712131   1.774   0.623  15.449  1.1888 -0.4539 -1.8388
  825MPD2     C12132   2.779   0.318  14.792  0.2882 -0.4426 -0.2408
  825MPD2    C112133   2.695   0.377  14.883 -0.2946  0.2022 -0.6429
  825MPD2    C212134   2.687   0.515  14.903  0.1121  0.2949  0.3685
  825MPD2    C312135   2.773   0.594  14.822  0.8708  0.6465 -0.2165
  825MPD2    C412136   2.847   0.530  14.724  0.5375 -1.4222 -0.1379
  825MPD2    C512137   2.857   0.394  14.713  0.8535 -0.0201  0.1284
  825MPD2     H12138   2.626   0.566  14.977  0.6865 -0.7948  1.5992
  825MPD2    H112139   2.903   0.593  14.656  0.2190  0.3255  1.2325
  825MPD2    H212140   2.789   0.210  14.782 -0.4778 -0.5642  0.2728
  825MPD2    H312141   2.915   0.349  14.633  0.8702  0.8165 -0.3355
  825MPD2     N12142   2.776   0.736  14.825  0.1632 -0.2345 -0.0286
  825MPD2    H512143   2.851   0.782  14.775  0.6462 -2.3758 -1.2836
  825MPD2    N112144   2.620   0.292  14.969  0.3572 -0.1161  0.2815
  825MPD2    H712145   2.632   0.191  14.964 -0.9320 -0.2986  0.8708
  826MPD2     C12146   2.844   0.789  13.867 -0.1672  0.3981  0.2706
  826MPD2    C112147   2.773   0.709  13.785 -0.4441  0.0454 -0.0168
  826MPD2    C212148   2.634   0.689  13.797  0.0947  0.3409  0.0252
  826MPD2    C312149   2.567   0.748  13.901 -0.1916 -1.0994 -0.3767
  826MPD2    C412150   2.641   0.818  13.996 -0.4443 -0.1371  0.2849
  826MPD2    C512151   2.778   0.831  13.977  0.1902  0.2821  0.8858
  826MPD2     H12152   2.583   0.632  13.720 -1.3078  2.6203 -0.7454
  826MPD2    H112153   2.594   0.861  14.083  2.1737  4.0490 -0.3702
  826MPD2    H212154   2.951   0.797  13.851  0.1043 -1.4848  1.1157
  826MPD2    H312155   2.843   0.876  14.051  2.4702 -0.8605 -0.4276
  826MPD2     N12156   2.427   0.750  13.926 -0.1276  0.0396 -0.0977
  826MPD2    H512157   2.387   0.796  14.007  4.5498  1.3196  1.5075
  826MPD2    N112158   2.835   0.661  13.667 -0.2211  0.2949  0.0011
  826MPD2    H712159   2.935   0.677  13.659 -0.2431 -0.5546 -1.8567
  827MPD2     C12160   3.701   2.014  10.145 -0.3714  0.1862 -0.0903
  827MPD2    C112161   3.669   1.893  10.208  0.2727  0.2005  0.5882
  827MPD2    C212162   3.547   1.826  10.163 -0.3490 -0.1782 -0.1732
  827MPD2    C312163   3.474   1.883  10.066 -0.0724  0.6012  0.8328
  827MPD2    C412164   3.511   1.998  10.000 -0.0771 -0.4636 -0.0366
  827MPD2    C512165   3.619   2.067  10.046  0.7612 -0.1730 -0.4115
  827MPD2     H12166   3.508   1.738  10.211  0.2335 -0.2840  0.1153
  827MPD2    H112167   3.462   2.040   9.912  0.0406  0.4491  0.3298
  827MPD2    H212168   3.789   2.070  10.177  0.2457 -0.0002 -1.4631
  827MPD2    H312169   3.657   2.151   9.989  0.0781  2.7555  3.4861
  827MPD2     N12170   3.367   1.803  10.024 -0.2727 -0.4538 -0.4836
  827MPD2    H512171   3.361   1.710  10.064 -0.0080 -0.7606 -1.1426
  827MPD2    N112172   3.747   1.853  10.320  0.1540 -0.2460 -0.0253
  827MPD2    H712173   3.790   1.924  10.378  0.6664 -0.9443  0.4582
  828MPD2     C12174   2.016   1.448  12.793  0.4967 -0.8069  0.4466
  828MPD2    C112175   2.038   1.555  12.718  0.2196 -0.6161  0.2348
  828MPD2    C212176   2.154   1.567  12.653 -0.1800  0.3037  0.1107
  828MPD2    C312177   2.245   1.465  12.654 -0.4883  0.2163 -0.2539
  828MPD2    C412178   2.229   1.358  12.738  0.1380 -0.2843 -0.2104
  828MPD2    C512179   2.111   1.355  12.805 -0.1647 -0.4263 -0.0327
  828MPD2     H12180   2.173   1.657  12.595 -1.9961  0.9006  0.4479
  828MPD2    H112181   2.297   1.275  12.744 -0.3951 -0.6007  1.4946
  828MPD2    H212182   1.926   1.437  12.853 -0.9811 -1.1133 -1.8118
  828MPD2    H312183   2.095   1.268  12.866 -1.8526  0.6619  1.0822
  828MPD2     N12184   2.358   1.479  12.575  0.6466 -0.3958 -0.5958
  828MPD2    H512185   2.422   1.401  12.590 -2.3491 -2.6591  0.4862
  828MPD2    N112186   1.941   1.648  12.690  0.3559 -0.1474  1.1352
  828MPD2    H712187   1.975   1.717  12.624 -2.6718 -0.2216 -0.5155
  829MPD2     C12188   2.191   1.787  11.920  0.8213  0.1831  0.5136
  829MPD2    C112189   2.061   1.809  11.903  0.0478  0.1531 -0.0074
  829MPD2    C212190   1.974   1.807  12.013 -0.0681 -0.1812  0.3585
  829MPD2    C312191   2.022   1.795  12.137 -0.1057  0.7653  0.1711
  829MPD2    C412192   2.158   1.777  12.151  0.6472 -0.1907  0.2340
  829MPD2    C512193   2.239   1.786  12.046  0.4170  0.0142  0.0833
  829MPD2     H12194   1.869   1.812  11.985  0.0832  0.3418 -0.1129
  829MPD2    H112195   2.191   1.770  12.254 -0.6125  2.0000  0.8070
  829MPD2    H212196   2.262   1.780  11.838  0.8758  2.4450  0.3522
  829MPD2    H312197   2.345   1.768  12.059  0.4151 -0.5754 -0.7052
  829MPD2     N12198   1.939   1.792  12.255  0.7393  0.6751 -0.0515
  829MPD2    H512199   1.996   1.788  12.339 -0.8839 -1.5065  0.9382
  829MPD2    N112200   2.013   1.815  11.768 -0.3605 -0.0560 -0.2779
  829MPD2    H712201   2.060   1.757  11.699  0.5278 -0.2742  0.4941
  830MPD2     C12202   1.755   4.217  15.683 -0.0556  0.2696 -0.6903
  830MPD2    C112203   1.647   4.262  15.613 -0.7822 -0.2176  0.6333
  830MPD2    C212204   1.651   4.266  15.476 -0.5963  0.3291  0.1837
  830MPD2    C312205   1.767   4.243  15.405 -0.3468 -0.7610  0.3925
  830MPD2    C412206   1.880   4.211  15.481  0.5767 -0.4843  0.3117
  830MPD2    C512207   1.869   4.191  15.615  0.1221  0.1811 -0.5032
  830MPD2     H12208   1.561   4.283  15.418 -0.2572  1.0786 -0.1327
  830MPD2    H112209   1.975   4.186  15.435  0.8065  0.3958  0.3160
  830MPD2    H212210   1.756   4.196  15.790 -0.7456 -0.1801 -0.7751
  830MPD2    H312211   1.955   4.147  15.664  0.0979 -0.6732 -1.2432
  830MPD2     N12212   1.782   4.249  15.259 -0.8432 -0.3838  0.0148
  830MPD2    H512213   1.874   4.227  15.223 -0.9815  1.4508 -1.4380
  830MPD2    N112214   1.535   4.300  15.689  0.0488  0.1568  0.5134
  830MPD2    H712215   1.540   4.293  15.791  0.2487  0.7825  0.5457
  831MPD2     C12216   1.785   1.341  16.054 -0.2038  0.4153  0.3080
  831MPD2    C112217   1.704   1.323  15.938  0.0861  0.4445  0.1956
  831MPD2    C212218   1.568   1.333  15.953  0.0235 -0.2872  0.0024
  831MPD2    C312219   1.516   1.376  16.075  0.3994  0.3573  0.7270
  831MPD2    C412220   1.595   1.385  16.189  0.3019  0.1036 -0.7076
  831MPD2    C512221   1.726   1.367  16.171  0.5452 -0.6136 -0.7685
  831MPD2     H12222   1.510   1.323  15.862  1.2600  1.7958 -1.0070
  831MPD2    H112223   1.571   1.407  16.292  1.3715  0.3450 -0.5136
  831MPD2    H212224   1.892   1.325  16.050 -0.4093 -0.9636  0.1482
  831MPD2    H312225   1.788   1.368  16.260 -0.4270  0.4991 -0.1019
  831MPD2     N12226   1.375   1.402  16.094 -0.3859  0.0418  0.2949
  831MPD2    H512227   1.344   1.438  16.184  1.8973 -0.1004  1.1476
  831MPD2    N112228   1.767   1.281  15.814  0.4888  0.4008 -0.4055
  831MPD2    H712229   1.868   1.280  15.809  0.4065 -2.0920 -1.3878
  832MPD2     C12230   0.195   2.773  17.210  0.5191 -0.3545  0.7138
  832MPD2    C112231   0.122   2.885  17.211  0.0875  0.7274 -0.8577
  832MPD2    C212232   4.714   2.886  17.165 -0.7519 -0.0896 -0.3939
  832MPD2    C312233   4.656   2.766  17.121  0.0669  0.2902  0.5689
  832MPD2    C412234   0.014   2.650  17.124 -0.4430  0.2397 -0.2804
  832MPD2    C512235   0.143   2.651  17.174 -0.4545 -0.4147 -0.7961
  832MPD2     H12236   4.656   2.978  17.165 -0.4035  0.1296 -0.2667
  832MPD2    H112237   4.698   2.555  17.092 -3.2808  0.7229  1.8145
  832MPD2    H212238   0.301   2.772  17.233  0.4644  1.5860  1.0287
  832MPD2    H312239   0.189   2.553  17.182 -0.1244 -0.2496 -0.6747
  832MPD2     N12240   4.527   2.756  17.072 -0.2526  0.3219 -0.5153
  832MPD2    H512241   4.502   2.658  17.059  0.5331 -0.1282  1.3940
  832MPD2    N112242   0.179   3.002  17.272  0.2331 -0.1438  0.1153
  832MPD2    H712243   0.278   3.011  17.293 -0.0132 -2.5322  2.3183
  833MPD2     C12244   2.564   3.909  12.651  0.0888  0.5084  0.1409
  833MPD2    C112245   2.531   3.961  12.529 -0.0156 -0.2250 -0.3538
  833MPD2    C212246   2.522   3.878  12.417 -0.1899 -0.4521 -0.0188
  833MPD2    C312247   2.540   3.741  12.433 -0.8265 -0.1845 -0.3679
  833MPD2    C412248   2.569   3.691  12.559 -0.2575  0.4162  0.2772
  833MPD2    C512249   2.589   3.777  12.667 -0.5142  0.3776  0.5666
  833MPD2     H12250   2.478   3.924  12.330  2.5434 -1.0414 -1.7179
  833MPD2    H112251   2.583   3.584  12.569  0.0498  0.2919 -1.5871
  833MPD2    H212252   2.568   3.977  12.736 -0.8770 -1.3899  1.7286
  833MPD2    H312253   2.633   3.740  12.759 -0.6875  2.1281  1.3757
  833MPD2     N12254   2.537   3.652  12.323 -0.4573 -0.5799  0.8925
  833MPD2    H512255   2.539   3.553  12.343 -0.1618 -0.5414  1.0516
  833MPD2    N112256   2.513   4.104  12.520 -0.1142  0.2443  0.5414
  833MPD2    H712257   2.520   4.154  12.608  0.5873 -1.1563  1.2862
  834MPD2     C12258   1.794   3.243  11.783  0.4149  0.4080  0.4269
  834MPD2    C112259   1.896   3.223  11.692 -0.3568 -0.2601 -0.4722
  834MPD2    C212260   2.019   3.253  11.734  0.2630 -0.1253  0.2131
  834MPD2    C312261   2.049   3.291  11.867 -0.5716  0.3567 -0.1362
  834MPD2    C412262   1.945   3.313  11.954 -0.1065 -1.3236 -0.0303
  834MPD2    C512263   1.818   3.287  11.912  0.6370  0.0890 -0.3465
  834MPD2     H12264   2.100   3.221  11.670 -0.7249 -2.2904  0.0799
  834MPD2    H112265   1.954   3.343  12.058 -0.1055 -1.5844  0.0448
  834MPD2    H212266   1.695   3.210  11.754 -0.0056  0.4223  1.8562
  834MPD2    H312267   1.731   3.289  11.977  0.0127  0.4129 -1.1975
  834MPD2     N12268   2.181   3.327  11.897 -0.0209  0.0232  0.0301
  834MPD2    H512269   2.253   3.323  11.826 -1.0299  2.1470 -1.1134
  834MPD2    N112270   1.866   3.152  11.574 -0.6418  0.9038  0.3488
  834MPD2    H712271   1.768   3.126  11.568  0.3370 -2.9819  0.9770
  835MPD2     C12272   2.396   1.808  11.230 -0.0090  0.2296  0.2378
  835MPD2    C112273   2.284   1.879  11.189  0.1317 -0.4136 -0.2025
  835MPD2    C212274   2.235   1.979  11.272 -0.2270 -0.6880 -0.3647
  835MPD2    C312275   2.286   1.992  11.403  0.0520 -0.4462 -0.2604
  835MPD2    C412276   2.395   1.911  11.441 -0.1379 -0.3070 -0.2523
  835MPD2    C512277   2.458   1.835  11.351 -0.0688  0.0349 -0.1014
  835MPD2     H12278   2.152   2.035  11.231  0.1138  0.4567  0.5105
  835MPD2    H112279   2.437   1.915  11.541 -1.4370  1.0571  0.2331
  835MPD2    H212280   2.456   1.745  11.165 -1.4769 -0.2863 -0.6119
  835MPD2    H312281   2.547   1.778  11.376  0.8262  1.4462 -0.0311
  835MPD2     N12282   2.220   2.071  11.505  0.5317 -0.4705  0.3572
  835MPD2    H512283   2.263   2.067  11.597 -0.4005 -0.1584  0.8036
  835MPD2    N112284   2.201   1.845  11.073 -0.0892  0.4817 -0.4090
  835MPD2    H712285   2.115   1.897  11.060 -0.2362  0.2558 -0.3384
  836MPD2     C12286   1.477   2.221  11.429 -0.6898 -0.0455  0.1152
  836MPD2    C112287   1.514   2.224  11.560  0.1702  0.5790  0.1949
  836MPD2    C212288   1.413   2.200  11.654  0.1552 -0.3667  0.8063
  836MPD2    C312289   1.282   2.178  11.614  0.9531 -0.5713 -0.3391
  836MPD2    C412290   1.250   2.169  11.484 -0.4082  0.2447  0.4508
  836MPD2    C512291   1.348   2.190  11.385 -0.0284  0.6708 -0.2405
  836MPD2     H12292   1.441   2.223  11.756  0.3160 -0.8364  0.8673
  836MPD2    H112293   1.146   2.159  11.455  0.3709  0.7040 -2.5509
  836MPD2    H212294   1.556   2.224  11.355 -2.4040 -1.5701 -1.7791
  836MPD2    H312295   1.329   2.177  11.279 -2.2569  1.0882  0.1150
  836MPD2     N12296   1.173   2.168  11.700  0.0459 -0.2574  0.2156
  836MPD2    H512297   1.082   2.175  11.655 -0.4064  0.5926  1.2768
  836MPD2    N112298   1.646   2.260  11.595 -0.7826  0.0475 -0.0321
  836MPD2    H712299   1.712   2.289  11.523  2.4332  0.0511  2.8994
  837MPD2     C12300   0.402   1.271  10.284  0.0389 -0.1984  0.0073
  837MPD2    C112301   0.424   1.306  10.152 -0.1037 -0.4786 -0.1607
  837MPD2    C212302   0.442   1.438  10.115 -0.1889 -0.5182 -0.2141
  837MPD2    C312303   0.451   1.541  10.203  0.3272 -0.3181  0.4641
  837MPD2    C412304   0.454   1.498  10.341 -0.5107 -0.0125  0.0927
  837MPD2    C512305   0.427   1.369  10.373 -0.5361  1.5686 -0.1879
  837MPD2     H12306   0.447   1.459  10.009  1.6053  0.5981  0.0874
  837MPD2    H112307   0.490   1.569  10.415 -0.6863  0.5847 -0.3957
  837MPD2    H212308   0.384   1.171  10.322  1.7072 -0.8263 -0.8084
  837MPD2    H312309   0.435   1.356  10.480 -2.3412  1.6651 -0.0452
  837MPD2     N12310   0.466   1.670  10.159 -0.0875  0.1089  0.1471
  837MPD2    H512311   0.474   1.693  10.060  2.8164 -0.7217  0.1764
  837MPD2    N112312   0.420   1.218  10.045  0.6418  0.1189 -0.3507
  837MPD2    H712313   0.430   1.260   9.953  0.1684  1.0474  0.0242
  838MPD2     C12314   2.819   4.336  11.056 -0.5135  0.2584  0.3999
  838MPD2    C112315   2.848   4.429  11.147 -0.4820 -0.2969 -0.4582
  838MPD2    C212316   2.774   4.436  11.265 -0.2968 -0.5096  0.0652
  838MPD2    C312317   2.665   4.353  11.287  0.4135 -0.1833  0.8137
  838MPD2    C412318   2.630   4.267  11.182 -0.0312  0.5196  0.1714
  838MPD2    C512319   2.715   4.249  11.069  0.3724 -0.3456  1.0303
  838MPD2     H12320   2.808   4.488  11.354  2.4199  0.8625 -1.7744
  838MPD2    H112321   2.547   4.200  11.202  1.2780 -1.0266  0.3279
  838MPD2    H212322   2.884   4.329  10.970  0.7070  2.3854  1.1537
  838MPD2    H312323   2.703   4.168  10.998 -0.5901 -0.2470  1.0911
  838MPD2     N12324   2.607   4.362  11.417 -0.0560  0.2993  0.0475
  838MPD2    H512325   2.634   4.436  11.481  0.0327  1.8387 -1.7533
  838MPD2    N112326   2.950   4.522  11.126  0.0379  0.0546  0.7448
  838MPD2    H712327   2.954   4.591  11.201 -1.9693 -0.8987  1.7290
  839MPD2     C12328   2.888   4.195  11.564  0.1512 -0.2578  0.0451
  839MPD2    C112329   2.919   4.169  11.430 -0.3652 -0.4771 -0.3492
  839MPD2    C212330   3.022   4.242  11.373  0.7989  0.9562 -1.1293
  839MPD2    C312331   3.084   4.343  11.444  0.0924  0.3371 -1.0511
  839MPD2    C412332   3.047   4.377  11.568  0.2905  0.2030  0.8455
  839MPD2    C512333   2.953   4.300  11.629 -0.0544  0.0894  0.4069
  839MPD2     H12334   3.039   4.234  11.266 -0.1551 -1.0710 -1.1382
  839MPD2    H112335   3.095   4.463  11.614  0.0668  0.1711  1.1368
  839MPD2    H212336   2.810   4.142  11.618  1.2835  1.0198  2.9153
  839MPD2    H312337   2.913   4.330  11.725 -0.9199  2.8089 -0.7851
  839MPD2     N12338   3.182   4.417  11.380  0.0240  0.0806 -0.6875
  839MPD2    H512339   3.206   4.499  11.436  0.7446  0.2740 -1.2714
  839MPD2    N112340   2.860   4.071  11.349 -0.3854 -0.2062  0.7606
  839MPD2    H712341   2.887   4.070  11.251 -2.2058 -0.9533  0.2575
  840MPD2     C12342   4.377   1.948  10.520  0.7179 -0.3323 -0.1086
  840MPD2    C112343   4.291   1.948  10.632 -0.5071  0.0030  0.3473
  840MPD2    C212344   4.348   1.996  10.749  0.2799 -0.0685  0.0453
  840MPD2    C312345   4.479   2.049  10.751  0.4107  0.5783  0.0153
  840MPD2    C412346   4.558   2.047  10.641 -1.1992  0.5176 -0.7406
  840MPD2    C512347   4.500   2.003  10.523  0.5680  0.8010 -0.2930
  840MPD2     H12348   4.305   1.971  10.845 -0.0005  1.3095  0.2810
  840MPD2    H112349   4.661   2.082  10.639 -0.7406 -0.7222  0.9567
  840MPD2    H212350   4.348   1.912  10.422  0.1165  1.5585 -0.6151
  840MPD2    H312351   4.556   2.023  10.433  3.5145  0.4892  1.4653
  840MPD2     N12352   4.538   2.111  10.871  0.1281 -0.1314  0.0645
  840MPD2    H512353   4.634   2.143  10.868  0.1287 -0.0718  0.6891
  840MPD2    N112354   4.167   1.882  10.622 -0.1847  0.0511 -0.6197
  840MPD2    H712355   4.131   1.860  10.529  0.5778 -1.6999 -0.5013
  841MPD2     C12356   3.453   1.929  14.239 -0.3031  0.2245  0.4320
  841MPD2    C112357   3.532   1.817  14.244  0.1333 -0.0835  0.2919
  841MPD2    C212358   3.669   1.835  14.244  0.1820 -0.1315 -0.6152
  841MPD2    C312359   3.727   1.958  14.274  0.9107 -0.5691 -0.5224
  841MPD2    C412360   3.646   2.068  14.292  0.1989 -0.6632 -0.5691
  841MPD2    C512361   3.512   2.054  14.268 -0.3136  0.4230 -0.0588
  841MPD2     H12362   3.729   1.745  14.233 -0.0848 -0.2050 -1.5167
  841MPD2    H112363   3.686   2.166  14.317 -0.9908 -0.1777 -0.5551
  841MPD2    H212364   3.345   1.925  14.242 -0.3856 -0.4831 -3.0723
  841MPD2    H312365   3.452   2.144  14.271  1.0304  1.3396 -0.3972
  841MPD2     N12366   3.865   1.951  14.298  0.1671 -0.3701  0.7872
  841MPD2    H512367   3.912   1.862  14.307  1.9980  0.6343  1.1328
  841MPD2    N112368   3.468   1.691  14.224  0.6732 -0.1521 -0.5915
  841MPD2    H712369   3.531   1.612  14.227  2.0652  1.0175  1.0517
  842MPD2     C12370   3.916   3.084  16.995  0.3269  0.5495  0.0040
  842MPD2    C112371   3.809   2.995  16.969  0.3985  0.0434  0.1335
  842MPD2    C212372   3.751   2.924  17.075  0.0260  0.5931 -0.0435
  842MPD2    C312373   3.775   2.966  17.201  0.2127 -0.2747  0.3616
  842MPD2    C412374   3.881   3.050  17.229  0.0614  0.5484  0.5113
  842MPD2    C512375   3.950   3.112  17.127  0.2517 -0.2849  0.2757
  842MPD2     H12376   3.659   2.872  17.053  1.7870 -2.2398 -0.7036
  842MPD2    H112377   3.903   3.082  17.330  0.0759  2.6254 -0.1349
  842MPD2    H212378   3.962   3.131  16.909  2.9952 -0.3891  0.9130
  842MPD2    H312379   4.018   3.191  17.154 -0.7147  0.2073  1.2262
  842MPD2     N12380   3.686   2.935  17.311 -0.4019  0.2753  0.7238
  842MPD2    H512381   3.709   2.980  17.399 -1.7055 -0.8020  1.6048
  842MPD2    N112382   3.778   2.975  16.833  0.1414  0.6307  0.0936
  842MPD2    H712383   3.830   3.021  16.759  2.3757  0.0543  1.3180
  843MPD2     C12384   0.948   3.343  17.495 -0.1962  0.6002 -0.6896
  843MPD2    C112385   0.977   3.228  17.564 -0.5755  0.6088 -0.7399
  843MPD2    C212386   1.082   3.218  17.654  0.5150  0.2948  0.2849
  843MPD2    C312387   1.162   3.331  17.671 -0.2933 -0.1406 -0.1631
  843MPD2    C412388   1.129   3.449  17.600 -0.1450  0.1449 -0.6263
  843MPD2    C512389   1.030   3.456  17.513 -0.2208  0.7308 -0.0039
  843MPD2     H12390   1.107   3.131   0.013 -1.5791 -2.0843 -2.3548
  843MPD2    H112391   1.182   3.544  17.598  0.1470  0.0325  1.6837
  843MPD2    H212392   0.889   3.345  17.405 -1.2411 -0.0934 -0.0185
  843MPD2    H312393   1.033   3.536  17.439  2.3498  1.4348  0.8574
  843MPD2     N12394   1.279   3.336   0.050 -0.1546 -0.4994  0.1276
  843MPD2    H512395   1.335   3.419   0.059  0.0876 -0.4755 -1.7281
  843MPD2    N112396   0.904   3.111  17.528  0.3564 -0.4603 -0.0648
  843MPD2    H712397   0.823   3.125  17.469 -0.3148 -1.1458  0.6861
  844MPD2     C12398   4.357   2.582  16.665  0.4726  0.0532  0.5375
  844MPD2    C112399   4.439   2.494  16.731 -0.1661  0.1521  0.0476
  844MPD2    C212400   4.567   2.532  16.761 -0.1010  0.5505  0.0192
  844MPD2    C312401   4.614   2.658  16.740  0.3718  0.0485  0.4863
  844MPD2    C412402   4.528   2.750  16.677  0.5722 -0.0851 -0.6758
  844MPD2    C512403   4.400   2.713  16.641  0.3275  0.5784  0.0982
  844MPD2     H12404   4.634   2.462  16.808 -1.4727 -1.5914 -1.2418
  844MPD2    H112405   4.550   2.856  16.668  0.2966 -0.0870 -1.3538
  844MPD2    H212406   4.259   2.548  16.631  0.2613  1.1924  0.0211
  844MPD2    H312407   4.329   2.783  16.598 -0.7530 -0.8900 -0.5031
  844MPD2     N12408   0.019   2.692  16.781 -0.2591  0.0326  0.5047
  844MPD2    H512409   0.077   2.620  16.822 -1.5417 -1.6131 -0.5918
  844MPD2    N112410   4.405   2.353  16.742 -0.0149  0.2229 -0.1772
  844MPD2    H712411   4.466   2.295  16.798 -0.5966 -0.6143 -0.4178
  845MPD2     C12412   0.407   3.606  17.070  0.0744  0.7989  0.1757
  845MPD2    C112413   0.287   3.555  17.100  0.3927  0.7527  0.0128
  845MPD2    C212414   0.257   3.429  17.054  0.7016  1.0331  0.0103
  845MPD2    C312415   0.343   3.353  16.975 -0.5231  0.8335  0.0651
  845MPD2    C412416   0.465   3.415  16.943 -0.1345 -0.0006  0.7070
  845MPD2    C512417   0.497   3.542  16.985 -0.0865  0.3115  1.0017
  845MPD2     H12418   0.162   3.379  17.070  1.8534 -0.6936  1.4677
  845MPD2    H112419   0.539   3.368  16.879  0.0108 -1.4453  1.9492
  845MPD2    H212420   0.442   3.705  17.099 -1.5697  0.7989  2.1134
  845MPD2    H312421   0.592   3.591  16.968 -0.0696  0.3181  1.1114
  845MPD2     N12422   0.320   3.213  16.959  0.5228  0.2418  0.2297
  845MPD2    H512423   0.223   3.187  16.972  1.0537 -2.2785 -0.6581
  845MPD2    N112424   0.194   3.633  17.166 -0.0145 -0.6003 -0.4461
  845MPD2    H712425   0.213   3.732  17.173 -1.5803 -0.3905  0.9942
  846MPD2     C12426   1.731   3.497  13.649  0.3525  0.4581  0.2982
  846MPD2    C112427   1.618   3.572  13.643 -0.0177  0.0372  0.0302
  846MPD2    C212428   1.547   3.580  13.766 -0.5358 -0.4741 -0.1186
  846MPD2    C312429   1.603   3.526  13.883  0.4448 -0.4846  0.0462
  846MPD2    C412430   1.724   3.456  13.881  0.1600 -0.4582 -0.5186
  846MPD2    C512431   1.784   3.441  13.764 -0.3887  0.0533  0.1697
  846MPD2     H12432   1.452   3.630  13.779 -0.6796 -0.5050 -1.0544
  846MPD2    H112433   1.768   3.402  13.964  0.9385  0.8505 -0.0696
  846MPD2    H212434   1.796   3.470  13.566 -0.3834  3.6501 -1.3129
  846MPD2    H312435   1.877   3.385  13.756  1.2300  2.5730  1.3759
  846MPD2     N12436   1.521   3.527  14.006  0.1473 -0.3226 -0.6933
  846MPD2    H512437   1.427   3.565  14.001 -0.6134 -2.2193 -0.7122
  846MPD2    N112438   1.583   3.641  13.527 -0.1135 -0.2190  0.2818
  846MPD2    H712439   1.506   3.708  13.529  0.5592  0.5111  1.4652
  847MPD2     C12440   1.642   4.491  13.785  0.6788 -0.1851 -0.7842
  847MPD2    C112441   1.778   4.496  13.799 -0.1335  0.2273  0.0535
  847MPD2    C212442   1.850   4.394  13.850  0.0036 -0.1667  0.2129
  847MPD2    C312443   1.785   4.279  13.896 -0.2316 -0.2087 -0.5897
  847MPD2    C412444   1.651   4.275  13.878 -0.2936  0.8983  0.1390
  847MPD2    C512445   1.577   4.377  13.827 -0.0109 -0.3203  0.7159
  847MPD2     H12446   1.958   4.402  13.853  0.0076  0.9801 -2.7250
  847MPD2    H112447   1.595   4.186  13.906 -0.0862  1.4676  2.3595
  847MPD2    H212448   1.580   4.567  13.738  1.0523  1.1401  0.8733
  847MPD2    H312449   1.469   4.371  13.817  0.3450 -0.3714 -3.3222
  847MPD2     N12450   1.846   4.172  13.965 -0.2224  0.4686 -0.1405
  847MPD2    H512451   1.782   4.106  14.009  1.9611 -2.1305 -0.8645
  847MPD2    N112452   1.855   4.605  13.748  0.7015 -0.5465  0.3134
  847MPD2    H712453   1.954   4.592  13.732  0.9900 -0.5290  2.0446
  848MPD2     C12454   4.105   2.921  16.429  0.0418  0.5026  0.6915
  848MPD2    C112455   4.149   3.012  16.524  0.2002  0.4624  0.3773
  848MPD2    C212456   4.207   3.133  16.488 -0.3206  0.2776  0.6877
  848MPD2    C312457   4.208   3.170  16.356 -0.7204 -0.0364 -0.3503
  848MPD2    C412458   4.170   3.077  16.259  0.3314 -0.5991 -0.6373
  848MPD2    C512459   4.114   2.959  16.294  0.6618 -0.1939 -0.4725
  848MPD2     H12460   4.255   3.190  16.566 -0.1869  2.9018 -1.3345
  848MPD2    H112461   4.182   3.112  16.157 -1.6988  1.4341 -0.1703
  848MPD2    H212462   4.045   2.834  16.452 -2.0471  1.2495 -1.9446
  848MPD2    H312463   4.067   2.892  16.223 -0.1076 -0.6905  0.4982
  848MPD2     N12464   4.253   3.293  16.309  0.2574  0.6841  0.1681
  848MPD2    H512465   4.253   3.310  16.209  0.7988  1.8913  0.3720
  848MPD2    N112466   4.153   2.981  16.663 -0.1199  0.3083 -0.3796
  848MPD2    H712467   4.176   3.055  16.728  1.6777 -2.1027  1.7600
  849MPD2     C12468   0.061   2.726  13.869  0.5573  0.1749  0.2560
  849MPD2    C112469   4.712   2.791  13.773 -0.0828 -0.4247 -0.5478
  849MPD2    C212470   4.723   2.929  13.754  0.1680  0.4847 -0.0281
  849MPD2    C312471   0.086   3.001  13.837  1.2570  1.0458 -0.3571
  849MPD2    C412472   0.160   2.932  13.934 -0.1049 -0.3629 -0.0761
  849MPD2    C512473   0.150   2.796  13.939  0.2514  0.6594  0.2104
  849MPD2     H12474   4.663   2.980  13.680  0.8758  0.4672 -0.6112
  849MPD2    H112475   0.237   2.976  13.997 -0.4808  0.8620 -0.4650
  849MPD2    H212476   0.054   2.620  13.889 -2.1243  0.4308  0.6897
  849MPD2    H312477   0.205   2.738  14.012  1.8564  1.8888 -0.0430
  849MPD2     N12478   0.091   3.141  13.822  0.5731 -0.3621 -1.0353
  849MPD2    H512479   0.031   3.181  13.751 -1.1267  2.3073  1.9007
  849MPD2    N112480   4.621   2.712  13.704  0.0606 -0.3723  0.1463
  849MPD2    H712481   4.598   2.620  13.740 -0.8087  0.6766  2.2919
  850MPD2     C12482   1.572   0.258  14.234  0.3308  0.1259  0.2656
  850MPD2    C112483   1.558   0.322  14.350  0.4141  0.2772 -0.4779
  850MPD2    C212484   1.667   0.365  14.421 -0.0044 -0.9744  0.0242
  850MPD2    C312485   1.789   0.332  14.376  0.8607  0.1206 -0.3507
  850MPD2    C412486   1.810   0.278  14.254  0.2311 -0.5265  0.2050
  850MPD2    C512487   1.693   0.236  14.189  0.1459 -0.6168 -0.3581
  850MPD2     H12488   1.655   0.427  14.510  0.9172  0.4651 -0.8546
  850MPD2    H112489   1.907   0.255  14.211 -1.2201 -1.0406 -2.7504
  850MPD2    H212490   1.491   0.211  14.180  0.9523 -1.2234  0.5124
  850MPD2    H312491   1.705   0.177  14.099  2.8447 -0.8506  0.1630
  850MPD2     N12492   1.904   0.339  14.460  0.3253  0.3479  0.6090
  850MPD2    H512493   1.994   0.330  14.413  0.3786  0.2760  0.7249
  850MPD2    N112494   1.429   0.330  14.393 -0.5594  0.4929  0.3476
  850MPD2    H712495   1.360   0.310  14.322 -0.0611  1.3519 -0.3848
  851MPD2     C12496   1.891   4.720  14.502  0.1826  0.4795 -0.1465
  851MPD2    C112497   1.859   4.712  14.633 -0.3974  0.0237  0.3290
  851MPD2    C212498   1.912   4.608  14.708  0.5575 -0.3506 -0.3982
  851MPD2    C312499   1.995   4.512  14.651 -0.5126 -0.1904 -0.2356
  851MPD2    C412500   2.026   4.523  14.519 -0.0355 -0.9294  0.3340
  851MPD2    C512501   1.976   4.633  14.444 -0.6448  0.3183  0.0716
  851MPD2     H12502   1.875   4.612  14.810  0.1097 -1.1650 -0.5278
  851MPD2    H112503   2.084   4.447  14.467 -0.6013 -0.1216 -1.4280
  851MPD2    H212504   1.837   0.064  14.438  0.8449  0.0407 -1.1786
  851MPD2    H312505   2.002   4.634  14.339  1.3506 -1.0257  0.5544
  851MPD2     N12506   2.057   4.407  14.723  0.1147  0.3754  0.1457
  851MPD2    H512507   2.144   4.372  14.685 -0.6578  0.2197 -1.4607
  851MPD2    N112508   1.744   0.071  14.663 -1.0779  0.4872 -0.7453
  851MPD2    H712509   1.714   0.146  14.601 -1.0324  0.3611 -0.9211
  852MPD2     C12510   0.757   3.363   9.983 -0.2919  0.5659  0.0913
  852MPD2    C112511   0.820   3.334  10.098  0.1363  0.4952 -0.1069
  852MPD2    C212512   0.886   3.441  10.160 -0.1030  0.2862 -0.6313
  852MPD2    C312513   0.890   3.570  10.102 -0.1738  0.9111 -0.2535
  852MPD2    C412514   0.814   3.594   9.989 -0.4061  0.1689  0.2632
  852MPD2    C512515   0.747   3.490   9.927 -0.2663 -0.0717  0.7503
  852MPD2     H12516   0.944   3.423  10.249 -0.6272  0.1576 -0.3187
  852MPD2    H112517   0.815   3.691   9.941  1.5069 -0.5192 -1.0820
  852MPD2    H212518   0.698   3.282   9.940 -0.9764  1.8763 -1.4774
  852MPD2    H312519   0.673   3.511   9.851 -0.8347  0.5775  1.4786
  852MPD2     N12520   0.973   3.673  10.166  0.5978 -0.3293  0.5008
  852MPD2    H512521   1.016   3.646  10.254  1.7248  0.8551  0.3097
  852MPD2    N112522   0.824   3.213  10.162 -0.2049  0.1959 -0.0623
  852MPD2    H712523   0.863   3.223  10.255 -2.6793 -0.9621  1.0843
  853MPD2     C12524   3.560   3.113  12.281 -0.1209 -0.7871  0.2219
  853MPD2    C112525   3.442   3.164  12.236  0.0458  0.6970 -0.7697
  853MPD2    C212526   3.405   3.148  12.105 -0.5225  0.0004  0.0367
  853MPD2    C312527   3.484   3.072  12.022  0.4111  0.3342 -0.5218
  853MPD2    C412528   3.602   3.017  12.069 -0.4763  0.2278 -0.1326
  853MPD2    C512529   3.641   3.041  12.194 -0.9232  0.0852 -0.5224
  853MPD2     H12530   3.317   3.199  12.069 -0.8102 -0.1003  0.5969
  853MPD2    H112531   3.659   2.958  11.998  1.1091  0.4942  0.9163
  853MPD2    H212532   3.601   3.124  12.381  1.0145  1.4535 -0.4816
  853MPD2    H312533   3.739   3.012  12.230 -0.9638  1.4725  0.7525
  853MPD2     N12534   3.453   3.033  11.890  0.1004  0.4904 -0.1883
  853MPD2    H512535   3.520   2.976  11.841 -0.6192 -0.2881 -0.2637
  853MPD2    N112536   3.357   3.224  12.340 -0.1125  0.7727  0.0571
  853MPD2    H712537   3.393   3.225  12.434  1.3017  0.5453 -0.4815
  854MPD2     C12538   0.605   3.509  12.906 -0.2910  0.1726 -0.3094
  854MPD2    C112539   0.516   3.418  12.856  0.0878 -0.7097  0.4295
  854MPD2    C212540   0.531   3.287  12.888 -0.3234  0.1962  0.0968
  854MPD2    C312541   0.626   3.246  12.975 -0.2061  0.3247  0.5410
  854MPD2    C412542   0.706   3.339  13.038 -0.0646  0.5803 -0.5921
  854MPD2    C512543   0.700   3.470  12.990  0.7289 -0.5658 -0.0033
  854MPD2     H12544   0.462   3.215  12.848  2.1644 -3.1448  1.8685
  854MPD2    H112545   0.773   3.310  13.119 -0.4631  0.4949 -0.2938
  854MPD2    H212546   0.597   3.613  12.880 -0.5180 -0.2468 -1.9151
  854MPD2    H312547   0.759   3.551  13.031 -2.0133  0.8597  1.1184
  854MPD2     N12548   0.641   3.108  13.005  1.0486  0.5497  0.1486
  854MPD2    H512549   0.712   3.086  13.074  1.0487  1.8619  0.5718
  854MPD2    N112550   0.428   3.463  12.765  0.4826  0.2206 -0.4972
  854MPD2    H712551   0.438   3.560  12.735  2.6707  1.3779  4.1076
  855MPD2     C12552   1.189   2.573  13.580 -0.0719 -0.1068  0.1235
  855MPD2    C112553   1.069   2.640  13.594  0.3959 -0.1725 -0.0574
  855MPD2    C212554   0.996   2.657  13.477  0.2038  0.0689  0.8565
  855MPD2    C312555   1.043   2.623  13.347 -0.2392 -0.6165  0.1638
  855MPD2    C412556   1.164   2.558  13.336 -0.6931  0.0562 -0.9430
  855MPD2    C512557   1.232   2.532  13.455 -0.7745  0.6301 -0.0635
  855MPD2     H12558   0.897   2.700  13.494  1.2406  2.0763  1.8413
  855MPD2    H112559   1.205   2.511  13.248 -0.4993  1.7789 -1.7809
  855MPD2    H212560   1.237   2.543  13.673  0.2219 -0.0664 -0.0155
  855MPD2    H312561   1.319   2.467  13.444 -0.3754  0.9632  1.1442
  855MPD2     N12562   0.959   2.645  13.229 -0.1618  0.3829 -0.7550
  855MPD2    H512563   0.981   2.607  13.138  0.3919  0.8033 -0.8011
  855MPD2    N112564   1.017   2.668  13.724  0.4010 -0.6358  0.0988
  855MPD2    H712565   1.078   2.653  13.803 -0.8404  2.5049  1.6549
  856MPD2     C12566   2.834   3.787  13.632 -0.1770 -0.5014  0.0726
  856MPD2    C112567   2.864   3.912  13.579 -0.1303  0.5341 -0.7639
  856MPD2    C212568   2.780   4.014  13.608  0.2479  0.2488  0.6406
  856MPD2    C312569   2.681   3.991  13.701 -0.5583  1.0275 -0.1694
  856MPD2    C412570   2.663   3.869  13.767  0.6930  0.3772  0.4542
  856MPD2    C512571   2.742   3.765  13.729 -0.7993  0.8216  0.2650
  856MPD2     H12572   2.807   4.112  13.571 -0.4493  0.3420  0.3895
  856MPD2    H112573   2.588   3.849  13.843  1.0732  1.8570  1.2192
  856MPD2    H212574   2.886   3.698  13.597 -0.2660 -0.4405 -0.2204
  856MPD2    H312575   2.728   3.671  13.781  1.4238  0.7802  0.7680
  856MPD2     N12576   2.616   4.101  13.759  0.0342 -0.4111 -0.1142
  856MPD2    H512577   2.546   4.087  13.831 -0.2319 -1.2984 -0.5379
  856MPD2    N112578   2.965   3.925  13.480 -0.7847  0.0520 -0.1044
  856MPD2    H712579   2.951   4.003  13.417  2.3736  0.9779  0.3747
  857MPD2     C12580   4.091   1.201  12.640  0.0214 -0.0183 -0.4133
  857MPD2    C112581   4.227   1.195  12.641 -0.7703  0.3509 -1.4479
  857MPD2    C212582   4.303   1.304  12.681 -0.1018  0.3338 -0.1818
  857MPD2    C312583   4.233   1.423  12.710 -0.4726  0.1750  0.2835
  857MPD2    C412584   4.095   1.429  12.703  0.1872  0.2177 -0.1356
  857MPD2    C512585   4.026   1.320  12.669  0.4921  0.0504  0.2012
  857MPD2     H12586   4.411   1.302  12.670  0.0176  2.0098  0.5920
  857MPD2    H112587   4.038   1.520  12.715  1.2366  0.5905  1.9451
  857MPD2    H212588   4.022   1.122  12.614 -0.8403  0.6137 -0.0457
  857MPD2    H312589   3.918   1.330  12.668  0.3684 -1.2540 -0.9059
  857MPD2     N12590   4.304   1.545  12.750  0.5694  0.5776  0.0033
  857MPD2    H512591   4.406   1.541  12.749  0.5986  1.3073  0.0984
  857MPD2    N112592   4.276   1.073  12.585  0.1641 -0.2641  0.3617
  857MPD2    H712593   4.208   1.000  12.567 -2.1206  1.8356  0.4719
  858MPD2     C12594   4.468   0.006  16.762  0.5638 -0.2596 -0.4777
  858MPD2    C112595   4.599   4.699  16.790  0.3353 -0.2342 -0.0222
  858MPD2    C212596   4.648   0.001  16.921  0.0855 -0.0186  0.4633
  858MPD2    C312597   4.564   0.073  17.004 -0.4640 -0.1666 -0.1961
  858MPD2    C412598   4.433   0.104  16.968  0.6063  0.0779  0.1810
  858MPD2    C512599   4.387   0.072  16.846  0.4647 -0.4473  0.5012
  858MPD2     H12600   0.022   4.686  16.943  0.8150  0.5768 -1.7385
  858MPD2    H112601   4.358   0.150  17.031  1.1684  0.4053  0.6079
  858MPD2    H212602   4.411   4.691  16.678  2.1324 -0.6718 -1.3437
  858MPD2    H312603   4.285   0.104  16.829  0.9294 -0.4581 -2.3560
  858MPD2     N12604   4.610   0.103  17.136  0.1864 -0.7106 -0.1973
  858MPD2    H512605   4.555   0.166  17.192 -2.6189 -2.2513 -1.1976
  858MPD2    N112606   4.683   4.628  16.696  0.0592  0.2844 -0.4102
  858MPD2    H712607   0.055   4.608  16.719  0.0626  0.0999 -0.5855
  859MPD2     C12608   3.185   2.564  14.875 -0.0162 -0.8776 -0.3038
  859MPD2    C112609   3.267   2.536  14.982 -0.0256  0.2147 -0.0344
  859MPD2    C212610   3.315   2.408  14.999  0.1972 -0.5053  0.3055
  859MPD2    C312611   3.264   2.303  14.929  0.3333 -0.2454  0.4629
  859MPD2    C412612   3.186   2.335  14.817  0.3300 -0.6104  0.2252
  859MPD2    C512613   3.148   2.465  14.793 -0.1607 -0.7491 -0.1977
  859MPD2     H12614   3.395   2.391  15.071  1.1140  0.9416 -0.3629
  859MPD2    H112615   3.139   2.258  14.757  0.1924  0.2474 -0.7880
  859MPD2    H212616   3.139   2.661  14.863 -0.8087 -0.9979  1.7599
  859MPD2    H312617   3.081   2.485  14.711 -0.9512  0.4324  0.7333
  859MPD2     N12618   3.303   2.170  14.949 -0.4299  0.8190  0.1287
  859MPD2    H512619   3.271   2.109  14.874  1.7137 -3.1966  2.5206
  859MPD2    N112620   3.315   2.648  15.062  0.4549 -0.0368 -0.2064
  859MPD2    H712621   3.286   2.737  15.022  3.0728  0.8432 -0.1687
  860MPD2     C12622   1.344   2.878  11.640  0.0868 -0.3189  0.0315
  860MPD2    C112623   1.321   2.850  11.777  0.5157 -0.3452  0.5795
  860MPD2    C212624   1.189   2.831  11.820  0.0948 -0.2327  0.0405
  860MPD2    C312625   1.087   2.821  11.731 -0.6949  0.0847  0.0610
  860MPD2    C412626   1.113   2.836  11.602 -0.4474 -0.1999  0.2309
  860MPD2    C512627   1.236   2.862  11.553 -0.2249 -0.8488 -0.0792
  860MPD2     H12628   1.173   2.815  11.926 -2.2899 -1.7388 -0.5521
  860MPD2    H112629   1.032   2.841  11.530 -0.0788 -1.1233 -0.2543
  860MPD2    H212630   1.433   2.909  11.587  0.5222  1.1923  1.6726
  860MPD2    H312631   1.260   2.891  11.451  0.6567 -0.4417  0.2429
  860MPD2     N12632   0.959   2.811  11.782 -0.5249 -0.0203 -0.2999
  860MPD2    H512633   0.936   2.815  11.881 -1.0995  3.7886 -0.5929
  860MPD2    N112634   1.433   2.849  11.868  0.0436  0.2216  0.2126
  860MPD2    H712635   1.405   2.807  11.956  0.2974 -1.8607 -0.6916
  861MPD2     C12636   4.421   0.763  10.849  0.3856  0.4221  0.2041
  861MPD2    C112637   4.456   0.850  10.951 -0.9538  0.2723  0.0135
  861MPD2    C212638   4.454   0.990  10.932  0.5282  0.3813 -0.4026
  861MPD2    C312639   4.420   1.035  10.802  0.0864  0.0156 -0.3475
  861MPD2    C412640   4.395   0.945  10.700  0.0577  0.2383  0.1456
  861MPD2    C512641   4.391   0.809  10.723 -0.3260  0.7772 -0.2433
  861MPD2     H12642   4.474   1.051  11.019 -0.6930 -1.6740  1.3233
  861MPD2    H112643   4.366   0.984  10.603  0.4882  3.2036  1.2224
  861MPD2    H212644   4.435   0.656  10.860 -0.3954 -0.0322 -3.2686
  861MPD2    H312645   4.391   0.737  10.642  0.7099 -0.9864  1.3230
  861MPD2     N12646   4.417   1.164  10.753  0.2593  0.1075 -0.1319
  861MPD2    H512647   4.388   1.186  10.659  1.7772  0.7102 -0.4493
  861MPD2    N112648   4.483   0.808  11.086  0.0280  0.0105  0.0249
  861MPD2    H712649   4.505   0.885  11.149  1.1344 -0.4909  0.2661
  862MPD2     C12650   4.457   1.563  10.136 -0.2235  0.2787  0.3156
  862MPD2    C112651   4.438   1.449  10.217  0.0603 -0.0144 -0.1091
  862MPD2    C212652   4.399   1.330  10.156 -0.4356  0.4084  0.3098
  862MPD2    C312653   4.373   1.324  10.018 -0.2613 -0.8485 -0.2441
  862MPD2    C412654   4.384   1.438   9.947  0.0987  0.1260  0.7366
  862MPD2    C512655   4.432   1.554  10.001  0.5061  0.3267 -0.2324
  862MPD2     H12656   4.377   1.248  10.222 -1.3175 -0.3939 -0.9821
  862MPD2    H112657   4.358   1.435   9.842 -1.0195 -1.4139  1.0556
  862MPD2    H212658   4.492   1.657  10.179  0.7405  1.2985 -2.7163
  862MPD2    H312659   4.434   1.642   9.938 -0.6915 -1.4126 -2.7005
  862MPD2     N12660   4.323   1.211   9.945 -0.0233 -0.7130  0.0303
  862MPD2    H512661   4.304   1.225   9.846 -0.4439 -0.5891  0.1271
  862MPD2    N112662   4.465   1.442  10.358  0.0371 -0.6461  0.3810
  862MPD2    H712663   4.441   1.352  10.399  1.4975 -1.1209  0.1927
  863MPD2     C12664   3.266   4.215  16.374  0.0868 -0.2951  0.1733
  863MPD2    C112665   3.167   4.144  16.447  0.1879 -0.3195 -0.6110
  863MPD2    C212666   3.193   4.082  16.568  0.8490  1.2753  0.4594
  863MPD2    C312667   3.322   4.083  16.608  0.3700  0.1680  0.5759
  863MPD2    C412668   3.423   4.152  16.539 -0.0352 -0.0784 -0.1453
  863MPD2    C512669   3.394   4.219  16.422 -0.6408  0.3434 -0.5528
  863MPD2     H12670   3.118   4.044  16.637  0.1297 -0.2514 -1.1975
  863MPD2    H112671   3.529   4.145  16.561 -0.1227  0.9387  0.5781
  863MPD2    H212672   3.255   4.263  16.278  0.5377 -0.5433  0.0004
  863MPD2    H312673   3.480   4.266  16.375  2.1466 -3.5429  0.6435
  863MPD2     N12674   3.365   4.013  16.725 -0.0094 -0.3936 -0.9050
  863MPD2    H512675   3.458   4.029  16.761 -0.3719  0.1940 -0.2181
  863MPD2    N112676   3.042   4.136  16.394  0.5607 -0.2379  0.4620
  863MPD2    H712677   3.029   4.176  16.301 -0.4537 -0.8326  0.3430
  864MPD2     C12678   3.519   0.755  17.172  0.1699  1.0868 -0.0202
  864MPD2    C112679   3.571   0.673  17.076 -0.6412 -0.3694  0.6088
  864MPD2    C212680   3.611   0.739  16.956 -0.0102  0.2816 -0.5083
  864MPD2    C312681   3.610   0.874  16.940  0.2252 -0.3161  0.0436
  864MPD2    C412682   3.558   0.951  17.038  0.4889  0.4574 -0.3738
  864MPD2    C512683   3.513   0.890  17.154 -0.4790 -0.2976  0.1357
  864MPD2     H12684   3.642   0.677  16.873 -0.7392  0.0594 -0.6083
  864MPD2    H112685   3.569   1.059  17.034  1.5413  0.3283 -0.8714
  864MPD2    H212686   3.483   0.722  17.269  0.0357  3.1408  0.6254
  864MPD2    H312687   3.481   0.956  17.234 -0.6542  1.0328 -1.0399
  864MPD2     N12688   3.675   0.933  16.826 -0.3132 -0.1928 -0.3469
  864MPD2    H512689   3.724   0.877  16.757  0.1451 -1.0459  0.6697
  864MPD2    N112690   3.584   0.533  17.095  1.1334  0.1695  0.4667
  864MPD2    H712691   3.548   0.503  17.186 -1.3238 -0.6223 -0.7742
  865MPD2     C12692   3.537   0.850  15.981  0.8513  0.0941  0.1376
  865MPD2    C112693   3.635   0.781  16.051 -0.1919  0.1562 -0.5003
  865MPD2    C212694   3.705   0.856  16.141  0.2430 -0.1872 -0.0557
  865MPD2    C312695   3.679   0.988  16.181 -0.3784 -0.3706  0.1526
  865MPD2    C412696   3.579   1.055  16.108 -0.2409  0.2069 -0.1123
  865MPD2    C512697   3.518   0.985  16.005  0.5031  0.0491 -0.1220
  865MPD2     H12698   3.784   0.812  16.201  1.0317 -0.1036 -1.0270
  865MPD2    H112699   3.553   1.157  16.131 -0.0700 -0.2499  2.1226
  865MPD2    H212700   3.474   0.798  15.910  2.9561  1.7681 -2.9485
  865MPD2    H312701   3.442   1.037  15.948  0.6155  0.9135  0.5141
  865MPD2     N12702   3.743   1.052  16.295 -0.7043  0.5603  0.1670
  865MPD2    H512703   3.705   1.140  16.329  1.0628  1.0416  0.8879
  865MPD2    N112704   3.669   0.646  16.020  0.6909 -0.1152 -0.0172
  865MPD2    H712705   3.630   0.605  15.935 -1.9529  0.2985  0.9882
  866MPD2     C12706   0.567   1.500  11.713 -0.5846 -0.2205 -0.0259
  866MPD2    C112707   0.581   1.433  11.592  0.2949 -0.4105  0.2140
  866MPD2    C212708   0.497   1.459  11.487  0.5944 -0.1347  0.3737
  866MPD2    C312709   0.396   1.550  11.510  0.0868  0.6627  0.5285
  866MPD2    C412710   0.372   1.613  11.633  0.0035  1.1030 -0.2858
  866MPD2    C512711   0.457   1.576  11.735 -0.0234 -0.1155 -0.1944
  866MPD2     H12712   0.521   1.415  11.391 -2.0425  0.8945 -0.7292
  866MPD2    H112713   0.287   1.677  11.655 -1.5407 -0.8453 -0.6100
  866MPD2    H212714   0.634   1.472  11.794  0.9586  1.6242 -0.6814
  866MPD2    H312715   0.448   1.618  11.834  1.4044 -2.6435  1.0067
  866MPD2     N12716   0.293   1.575  11.421 -0.0840  0.2104 -0.4432
  866MPD2    H512717   0.222   1.644  11.443  0.7695  0.8595  0.2339
  866MPD2    N112718   0.690   1.350  11.576 -0.2587  0.1643 -0.0522
  866MPD2    H712719   0.718   1.319  11.668 -0.9982 -2.8257 -0.8268
  867MPD2     C12720   2.597   0.686  16.104  0.0495 -0.4325 -0.2521
  867MPD2    C112721   2.700   0.699  16.189  0.1391 -0.7622  0.6232
  867MPD2    C212722   2.693   0.795  16.286  0.8299  0.3662  0.4621
  867MPD2    C312723   2.573   0.857  16.312  1.2117  0.2262 -0.0539
  867MPD2    C412724   2.463   0.838  16.233 -0.4288  0.1111 -0.1245
  867MPD2    C512725   2.473   0.748  16.129  0.0743 -0.1672 -0.9992
  867MPD2     H12726   2.780   0.806  16.350  1.0946  1.2978 -0.0513
  867MPD2    H112727   2.371   0.894  16.243 -1.3234 -1.1792 -1.1001
  867MPD2    H212728   2.607   0.620  16.018 -0.3495 -0.8884  0.0546
  867MPD2    H312729   2.382   0.723  16.075  0.3823 -2.1169 -0.6092
  867MPD2     N12730   2.569   0.926  16.439  0.3206  0.0790  0.4602
  867MPD2    H512731   2.653   0.925  16.496  0.8032  0.1876 -0.2364
  867MPD2    N112732   2.811   0.610  16.168 -0.7706 -0.0654  0.5221
  867MPD2    H712733   2.803   0.545  16.091 -2.7769 -0.9464  1.4720
  868MPD2     C12734   4.385   4.429  12.830 -0.2655  0.0889 -0.1242
  868MPD2    C112735   4.476   4.388  12.919 -0.3693 -0.0968 -0.6834
  868MPD2    C212736   4.424   4.345  13.039 -0.1248 -0.2797 -0.2831
  868MPD2    C312737   4.289   4.353  13.080  0.1921  0.2523 -0.0407
  868MPD2    C412738   4.202   4.411  12.989 -0.8264 -0.3985 -0.3569
  868MPD2    C512739   4.250   4.445  12.865 -0.2279  0.3193 -0.7384
  868MPD2     H12740   4.494   4.309  13.114 -0.9714  0.3459  0.8205
  868MPD2    H112741   4.097   4.434  13.003 -0.3710  0.3159  1.7517
  868MPD2    H212742   4.406   4.458  12.728 -0.7634  1.3634  0.1335
  868MPD2    H312743   4.190   4.475  12.779 -1.8307  0.5755  0.4623
  868MPD2     N12744   4.248   4.317  13.208 -0.3704 -0.2345  0.0754
  868MPD2    H512745   4.326   4.305  13.271 -1.1243 -0.9608  0.8677
  868MPD2    N112746   4.611   4.370  12.874  0.0395 -0.5541 -0.5609
  868MPD2    H712747   4.621   4.404  12.779 -0.9045 -0.9474 -0.7998
  869MPD2     C12748   0.898   2.193   1.183  0.0266 -0.7165 -0.3193
  869MPD2    C112749   0.780   2.135   1.224 -0.3822  0.1305  0.4516
  869MPD2    C212750   0.672   2.134   1.127 -0.3919 -0.0042 -0.4591
  869MPD2    C312751   0.704   2.166   0.997 -0.2444 -0.2026  0.0316
  869MPD2    C412752   0.832   2.204   0.965 -0.7263  0.1471 -0.4866
  869MPD2    C512753   0.932   2.220   1.055 -0.4214 -0.4352 -0.1108
  869MPD2     H12754   0.576   2.092   1.153 -0.6168  0.5399 -0.4062
  869MPD2    H112755   0.864   2.217   0.862 -1.4230  0.1316 -0.7097
  869MPD2    H212756   0.981   2.206   1.252 -0.6013  0.4551  0.2091
  869MPD2    H312757   1.031   2.247   1.020 -1.8522  5.6560  0.4723
  869MPD2     N12758   0.606   2.171   0.894  0.7308 -0.1835 -0.1753
  869MPD2    H512759   0.636   2.212   0.806  0.9274  0.0475 -0.0002
  869MPD2    N112760   0.759   2.103   1.360  0.0927  0.4920  0.3943
  869MPD2    H712761   0.837   2.126   1.420 -0.0811 -1.0232  1.2156
  870MPD2     C12762   0.363   0.903   1.849  0.4954 -0.0739 -0.1358
  870MPD2    C112763   0.404   0.842   1.737 -0.8789 -0.2663 -0.1515
  870MPD2    C212764   0.313   0.841   1.626  0.1933  0.2992  0.2182
  870MPD2    C312765   0.186   0.904   1.631  0.0006 -0.5423 -0.5131
  870MPD2    C412766   0.146   0.959   1.755 -0.4759 -0.8302 -0.2801
  870MPD2    C512767   0.238   0.957   1.859 -0.1592 -0.3382  0.2590
  870MPD2     H12768   0.353   0.800   1.534  0.5256 -0.6911  0.7977
  870MPD2    H112769   0.053   1.014   1.766  0.2089  0.2651  0.0667
  870MPD2    H212770   0.423   0.913   1.938 -0.3992 -2.6407  0.7412
  870MPD2    H312771   0.211   1.017   1.945  1.9965  1.0012 -0.0229
  870MPD2     N12772   0.111   0.906   1.514  0.0119  0.3319  0.3328
  870MPD2    H512773   0.157   0.892   1.425 -0.5445 -1.3287  0.3003
  870MPD2    N112774   0.531   0.785   1.749 -0.3152 -0.6159  0.7055
  870MPD2    H712775   0.575   0.795   1.840  3.1875 -1.2833 -0.8891
  871MPD2     C12776   1.163   0.887  16.309 -0.4799 -0.0228  0.3984
  871MPD2    C112777   1.103   0.861  16.430  0.5661 -0.7747 -0.3101
  871MPD2    C212778   1.059   0.734  16.456  0.1673  0.6174  0.5124
  871MPD2    C312779   1.054   0.640  16.354  0.1617 -0.1987  0.4027
  871MPD2    C412780   1.106   0.669  16.232 -0.1189 -0.6571 -0.0841
  871MPD2    C512781   1.165   0.789  16.219  0.1722 -0.2919  0.2901
  871MPD2     H12782   1.009   0.710  16.549 -1.7956 -0.6593 -0.8812
  871MPD2    H112783   1.111   0.598  16.149  0.2045  1.9857 -2.3218
  871MPD2    H212784   1.206   0.983  16.282  0.4476 -0.5429  0.0161
  871MPD2    H312785   1.212   0.818  16.126 -0.6253  0.5469  0.1425
  871MPD2     N12786   0.988   0.514  16.382 -0.1059 -0.0087 -0.3189
  871MPD2    H512787   0.971   0.491  16.479 -0.2970  2.6572  0.2911
  871MPD2    N112788   1.083   0.971  16.515 -0.3093  0.3045 -0.1934
  871MPD2    H712789   1.138   1.053  16.493 -0.0701  0.6089  1.5176
  872MPD2     C12790   2.522   3.554  13.690 -0.6841  0.1126 -0.1466
  872MPD2    C112791   2.596   3.432  13.703  0.0689  1.2990 -0.5275
  872MPD2    C212792   2.567   3.345  13.807  0.6788 -0.9551 -0.0380
  872MPD2    C312793   2.468   3.378  13.903 -0.2050  0.5202  0.9412
  872MPD2    C412794   2.388   3.494  13.886  0.5924  0.1265  0.8322
  872MPD2    C512795   2.417   3.577  13.779  0.4614 -0.0527  0.3045
  872MPD2     H12796   2.628   3.256  13.817 -0.1532 -1.3725  1.4522
  872MPD2    H112797   2.309   3.521  13.956  0.2798 -0.0916  0.5643
  872MPD2    H212798   2.547   3.623  13.610 -0.7952 -0.5624 -0.7697
  872MPD2    H312799   2.363   3.668  13.756  0.2535  0.1114  1.4560
  872MPD2     N12800   2.434   3.284  14.008 -0.4800  0.8183  0.1829
  872MPD2    H512801   2.359   3.312  14.070 -1.2432 -1.7584  0.4226
  872MPD2    N112802   2.700   3.389  13.617 -0.2859  0.1391  0.1192
  872MPD2    H712803   2.750   3.310  13.658  2.0798  0.6082 -1.8243
  873MPD2     C12804   3.344   3.272   0.627 -0.0011  0.0968 -0.0438
  873MPD2    C112805   3.466   3.216   0.674  0.0750  0.7915  0.1712
  873MPD2    C212806   3.512   3.098   0.622 -0.5839  0.1592  0.5367
  873MPD2    C312807   3.449   3.041   0.516  0.4367 -0.1166 -0.3473
  873MPD2    C412808   3.336   3.105   0.468 -0.0029  0.0522  0.1569
  873MPD2    C512809   3.274   3.213   0.529  0.1417 -0.0241  1.2212
  873MPD2     H12810   3.610   3.062   0.653 -0.0438 -0.5386 -1.9648
  873MPD2    H112811   3.279   3.052   0.394 -0.6142  1.0215 -0.0681
  873MPD2    H212812   3.302   3.359   0.677 -0.2616 -0.0570  0.0044
  873MPD2    H312813   3.171   3.238   0.504  0.1531 -0.9992  0.1957
  873MPD2     N12814   3.496   2.928   0.443 -0.1449 -0.4449 -0.3877
  873MPD2    H512815   3.447   2.908   0.356  1.6819 -0.6641 -1.3491
  873MPD2    N112816   3.526   3.288   0.780  0.3868  0.8376 -0.2146
  873MPD2    H712817   3.490   3.379   0.808 -1.9148 -0.2251  0.2766
  874MPD2     C12818   3.708   3.293  16.045 -0.9082 -0.2312  0.1442
  874MPD2    C112819   3.768   3.275  16.168 -0.9434  0.9100 -0.2050
  874MPD2    C212820   3.875   3.362  16.202  0.0172 -0.7471 -0.1460
  874MPD2    C312821   3.922   3.456  16.111  0.4943  0.2353 -0.7315
  874MPD2    C412822   3.852   3.474  15.987  0.4807 -0.4015 -0.5052
  874MPD2    C512823   3.739   3.401  15.968 -0.2824 -0.2464  0.0611
  874MPD2     H12824   3.925   3.354  16.298  0.9543  0.8476 -0.5074
  874MPD2    H112825   3.873   3.561  15.926 -1.3445  1.1610  1.1056
  874MPD2    H212826   3.626   3.227  16.017 -1.2547 -1.1118  3.2497
  874MPD2    H312827   3.688   3.415  15.873 -2.1112 -1.3030  0.8898
  874MPD2     N12828   4.035   3.532  16.142 -0.3761 -0.8020 -0.0577
  874MPD2    H512829   4.064   3.525  16.239  0.6102  3.2308 -0.0670
  874MPD2    N112830   3.727   3.165  16.252 -0.0813  0.7130  0.0470
  874MPD2    H712831   3.649   3.111  16.217 -1.1360  1.0523  1.8377
  875MPD2     C12832   0.273   1.656  14.476 -0.1634 -0.8801 -0.1485
  875MPD2    C112833   0.135   1.655  14.502 -0.1751 -0.1632 -0.1789
  875MPD2    C212834   0.093   1.662  14.634  0.2008 -0.4884  0.2759
  875MPD2    C312835   0.182   1.669  14.737  0.3506  0.4224 -0.2144
  875MPD2    C412836   0.316   1.666  14.706 -0.6075  0.8694 -0.1413
  875MPD2    C512837   0.364   1.655  14.580  0.6856 -0.2853 -0.9698
  875MPD2     H12838   4.711   1.671  14.655  0.2867 -0.5314  0.7326
  875MPD2    H112839   0.386   1.672  14.789  1.8797 -2.3976 -2.0206
  875MPD2    H212840   0.314   1.666  14.376 -0.9651 -0.3097 -0.4231
  875MPD2    H312841   0.470   1.667  14.560  0.3361  1.0630 -2.0159
  875MPD2     N12842   0.155   1.692  14.870  0.2187  0.5980  0.3214
  875MPD2    H512843   0.239   1.715  14.922  0.1844 -0.1128  0.6919
  875MPD2    N112844   0.034   1.646  14.396 -0.2172 -0.0914  0.3585
  875MPD2    H712845   4.662   1.644  14.428 -0.5233 -0.2510 -0.5844
  876MPD2     C12846   3.610   2.968  15.942 -0.2970 -0.0451  0.4599
  876MPD2    C112847   3.743   2.959  15.943 -0.3536 -0.3021  0.1226
  876MPD2    C212848   3.798   2.850  16.014  0.7675 -0.2786 -0.2104
  876MPD2    C312849   3.708   2.763  16.073  0.1644  0.0776 -0.9842
  876MPD2    C412850   3.574   2.777  16.071  0.2549  0.1126  0.7415
  876MPD2    C512851   3.526   2.888  16.013  0.3942 -0.8252 -0.8195
  876MPD2     H12852   3.905   2.834  16.008  1.2962  2.5171  1.5817
  876MPD2    H112853   3.500   2.702  16.096  0.8553 -1.0893 -1.1405
  876MPD2    H212854   3.561   3.048  15.887 -0.4702 -0.3893  0.1105
  876MPD2    H312855   3.420   2.912  16.015  0.2773 -1.3477 -0.5932
  876MPD2     N12856   3.769   2.651  16.144 -0.4647 -0.3473  0.7370
  876MPD2    H512857   3.870   2.644  16.136 -0.5328 -0.8627  0.3914
  876MPD2    N112858   3.820   3.051  15.861 -0.0363 -0.6006  0.0236
  876MPD2    H712859   3.779   3.093  15.779  0.7415 -1.6630 -0.9131
  877MPD2     C12860   3.695   3.364  15.225 -0.2452  0.1260 -0.8982
  877MPD2    C112861   3.831   3.330  15.209  0.3597 -0.5850 -0.2928
  877MPD2    C212862   3.883   3.324  15.084 -0.0725 -0.1271  0.3047
  877MPD2    C312863   3.791   3.331  14.973 -0.0290 -0.6039 -0.3768
  877MPD2    C412864   3.656   3.360  14.992  0.2963  0.0222  0.4505
  877MPD2    C512865   3.616   3.371  15.122  0.4102  0.1245  0.4665
  877MPD2     H12866   3.989   3.302  15.073  0.2436  0.9045  1.3412
  877MPD2    H112867   3.584   3.378  14.913 -0.8487 -1.1045  1.2452
  877MPD2    H212868   3.644   3.375  15.320  1.4498  0.2113  0.0134
  877MPD2    H312869   3.513   3.405  15.132 -0.8745 -3.2163 -1.2591
  877MPD2     N12870   3.843   3.321  14.837  0.3535  0.4851 -0.1800
  877MPD2    H512871   3.765   3.310  14.772 -0.0174 -1.5799  0.6034
  877MPD2    N112872   3.914   3.317  15.328  0.5326 -0.1893 -0.4383
  877MPD2    H712873   4.014   3.305  15.314  0.5084 -0.6228 -0.2605
  878MPD2     C12874   4.061   2.535  12.855 -0.6438 -0.6449 -0.4159
  878MPD2    C112875   4.031   2.658  12.906  0.7251 -0.4003 -0.1969
  878MPD2    C212876   4.084   2.711  13.025  0.1284  0.2316 -0.0398
  878MPD2    C312877   4.159   2.612  13.099 -0.2247  0.6888 -0.3899
  878MPD2    C412878   4.162   2.479  13.065 -0.6990 -0.1408 -0.4729
  878MPD2    C512879   4.119   2.445  12.935 -0.6981  0.1609 -0.2153
  878MPD2     H12880   4.065   2.811  13.062  1.3695  0.8280 -1.0320
  878MPD2    H112881   4.229   2.413  13.118  0.7248  2.6727  1.2195
  878MPD2    H212882   4.020   2.508  12.758  2.0918  1.9841 -2.2862
  878MPD2    H312883   4.133   2.342  12.903 -0.9000 -0.0148  0.2717
  878MPD2     N12884   4.229   2.643  13.218  0.1132  0.1985 -0.5406
  878MPD2    H512885   4.273   2.568  13.271  0.3434 -0.9546 -2.3373
  878MPD2    N112886   3.944   2.736  12.833 -0.0626  0.1225  0.1756
  878MPD2    H712887   3.898   2.695  12.753 -0.1638  0.1495  0.2204
  879MPD2     C12888   3.877   4.117  16.928  0.4116  0.5386 -0.1458
  879MPD2    C112889   3.874   3.986  16.976  0.1208  0.1996 -0.6566
  879MPD2    C212890   3.818   3.893  16.892 -0.4345  0.0348 -0.0585
  879MPD2    C312891   3.751   3.934  16.776 -0.5198  0.2866 -0.0138
  879MPD2    C412892   3.774   4.060  16.726  0.5347 -0.1667  0.0982
  879MPD2    C512893   3.822   4.155  16.810  0.4313  0.6550  1.2627
  879MPD2     H12894   3.823   3.790  16.924 -0.3834  0.9632  2.9444
  879MPD2    H112895   3.740   4.095  16.629 -0.8336  2.0696  1.3652
  879MPD2    H212896   3.931   4.187  16.991 -0.2145 -0.8132  1.9077
  879MPD2    H312897   3.832   4.257  16.774 -2.5231  0.7003  0.5150
  879MPD2     N12898   3.699   3.841  16.685 -0.3626 -0.6260  0.0315
  879MPD2    H512899   3.671   3.874  16.593 -2.2743 -1.5847  0.2632
  879MPD2    N112900   3.943   3.962  17.103  0.4419 -1.0950 -0.1366
  879MPD2    H712901   3.988   4.044  17.142  2.6629 -1.9493 -0.9008
  880MPD2     C12902   0.898   1.079   0.853  0.0722  0.3584 -0.2534
  880MPD2    C112903   0.891   1.129   0.727 -1.0837 -0.0140  0.4008
  880MPD2    C212904   1.005   1.167   0.666 -0.4230  0.4860 -0.5259
  880MPD2    C312905   1.128   1.140   0.720  0.2543  0.3752 -0.1662
  880MPD2    C412906   1.131   1.102   0.853  0.3317  0.0126  0.2130
  880MPD2    C512907   1.016   1.070   0.919  0.6547 -0.3481 -0.0327
  880MPD2     H12908   1.008   1.206   0.565  1.3326 -1.6816 -1.3129
  880MPD2    H112909   1.219   1.087   0.914 -0.5707 -3.6373  0.6186
  880MPD2    H212910   0.805   1.060   0.905  1.4205  0.9495  2.3306
  880MPD2    H312911   1.020   1.028   1.019  2.4850  2.0981  0.9311
  880MPD2     N12912   1.255   1.150   0.652  0.4293 -0.0643  0.2567
  880MPD2    H512913   1.343   1.129   0.699  0.7549  1.0934  0.1583
  880MPD2    N112914   0.765   1.136   0.665  0.2404  0.5799 -0.3363
  880MPD2    H712915   0.687   1.098   0.718 -0.5001  2.9610  0.2877
  881MPD2     C12916   0.147   1.358  17.486  0.3962 -0.5019 -0.2156
  881MPD2    C112917   0.287   1.382  17.502 -0.5402 -0.7598 -0.2237
  881MPD2    C212918   0.336   1.369  17.633 -0.1714  0.0522 -0.1358
  881MPD2    C312919   0.252   1.353   0.045  0.0927 -0.2431  0.3515
  881MPD2    C412920   0.114   1.346   0.023  0.7887 -0.9911 -0.2732
  881MPD2    C512921   0.066   1.354  17.599 -0.3469  0.2700  0.1355
  881MPD2     H12922   0.443   1.369  17.652 -0.2171  1.9373  0.0633
  881MPD2    H112923   0.038   1.344   0.101  0.2275  1.0966 -0.7570
  881MPD2    H212924   0.091   1.364  17.394  0.4773  1.7967 -0.1170
  881MPD2    H312925   4.685   1.344  17.577 -0.1374  1.9311 -1.6749
  881MPD2     N12926   0.285   1.311   0.176 -0.1185 -1.0882 -0.0021
  881MPD2    H512927   0.218   1.311   0.252  1.7565  1.8022  1.6108
  881MPD2    N112928   0.368   1.360  17.387 -0.4293  0.3675  0.6034
  881MPD2    H712929   0.319   1.324  17.305  1.3974 -1.0491  0.1476
  882MPD2     C12930   3.867   3.152  14.007  0.4526 -0.3948 -0.1719
  882MPD2    C112931   3.789   3.179  14.118  0.4401  0.6615 -0.0411
  882MPD2    C212932   3.661   3.139  14.126  0.0690  0.2403 -0.2763
  882MPD2    C312933   3.598   3.080  14.017  0.2528  0.0890 -0.9078
  882MPD2    C412934   3.677   3.056  13.907  0.1471  0.4958 -0.2857
  882MPD2    C512935   3.808   3.081  13.905 -0.6936 -0.0693 -0.2117
  882MPD2     H12936   3.601   3.162  14.213 -0.3144  2.1256 -1.0486
  882MPD2    H112937   3.630   3.006  13.823 -1.1072  1.4118 -0.1258
  882MPD2    H212938   3.975   3.155  14.012  0.4714  0.5392 -0.9861
  882MPD2    H312939   3.865   3.069  13.814 -0.6827 -1.7970  0.0168
  882MPD2     N12940   3.463   3.030  14.012  0.1556  0.2000 -0.4334
  882MPD2    H512941   3.428   2.977  13.933  0.4033  0.1636 -0.5185
  882MPD2    N112942   3.859   3.242  14.231  0.3879 -0.0856  0.3199
  882MPD2    H712943   3.960   3.245  14.219  0.0551  1.2706 -2.2632
  883MPD2     C12944   1.099   2.695  16.145 -0.4774  0.3224 -0.4157
  883MPD2    C112945   1.152   2.801  16.073 -0.1740 -0.1659  0.3641
  883MPD2    C212946   1.227   2.896  16.143  0.3392  0.5279 -0.0288
  883MPD2    C312947   1.259   2.884  16.274 -0.0781  0.0270  0.1728
  883MPD2    C412948   1.218   2.770  16.341  0.6167  0.2540 -0.9094
  883MPD2    C512949   1.132   2.681  16.279 -0.2792  0.5148  0.0231
  883MPD2     H12950   1.271   2.970  16.077 -0.5665  0.5788 -0.5747
  883MPD2    H112951   1.234   2.759  16.448 -0.2875  1.4978 -0.6430
  883MPD2    H212952   1.030   2.622  16.104  1.5591 -1.7138 -0.2273
  883MPD2    H312953   1.065   2.625  16.342  2.4335 -2.1951  0.4715
  883MPD2     N12954   1.324   2.995  16.337 -0.3072  0.0114 -1.2495
  883MPD2    H512955   1.364   3.060  16.270  3.1804  0.2853  1.1133
  883MPD2    N112956   1.127   2.822  15.936  0.0738 -0.0541  0.6235
  883MPD2    H712957   1.180   2.897  15.893 -0.8936  1.7208  2.5350
  884MPD2     C12958   2.987   3.769  14.871  0.3202  0.2600  0.1928
  884MPD2    C112959   2.982   3.900  14.830 -0.2409  0.1219 -0.1399
  884MPD2    C212960   2.865   3.971  14.862  0.0827  0.0916  0.3095
  884MPD2    C312961   2.763   3.919  14.936  0.1253  0.4617  0.3564
  884MPD2    C412962   2.766   3.791  14.975 -0.6639  0.1059  0.1429
  884MPD2    C512963   2.877   3.716  14.933  0.2409  0.4996 -0.6222
  884MPD2     H12964   2.857   4.073  14.826  1.0901  0.2758  0.6131
  884MPD2    H112965   2.687   3.748  15.036  0.9043 -1.8001  0.8402
  884MPD2    H212966   3.078   3.715  14.850 -0.6693 -1.2883 -0.1582
  884MPD2    H312967   2.893   3.618  14.977  2.1176  0.6732 -0.9432
  884MPD2     N12968   2.647   3.998  14.966  0.2896  0.3638 -0.6387
  884MPD2    H512969   2.630   4.080  14.908  0.8505  1.3898  0.6728
  884MPD2    N112970   3.082   3.968  14.754 -0.1202 -0.2789  0.1548
  884MPD2    H712971   3.058   4.064  14.732  1.3193  0.4185  1.6811
  885MPD2     C12972   1.283   3.897   0.390  0.7493 -0.3583 -0.0855
  885MPD2    C112973   1.408   3.939   0.348 -0.2643  0.7127 -0.4409
  885MPD2    C212974   1.424   4.041   0.252 -0.5838  0.2743  0.5473
  885MPD2    C312975   1.310   4.108   0.205 -0.3579 -0.2305  0.7044
  885MPD2    C412976   1.189   4.064   0.253 -0.6013 -0.6094 -0.3348
  885MPD2    C512977   1.174   3.967   0.337  0.0496 -0.3039 -0.7040
  885MPD2     H12978   1.520   4.081   0.222  0.3324 -0.6270  2.2931
  885MPD2    H112979   1.096   4.111   0.223  1.0221  2.3773 -0.6986
  885MPD2    H212980   1.269   3.824   0.470 -0.3934  0.7526  0.7265
  885MPD2    H312981   1.078   3.940   0.381  1.0651 -1.5463  0.7353
  885MPD2     N12982   1.321   4.210   0.108 -0.2095  0.0668 -0.5930
  885MPD2    H512983   1.415   4.228   0.077  0.5490 -0.4787  1.4011
  885MPD2    N112984   1.522   3.878   0.408 -0.1164 -0.4237 -0.3210
  885MPD2    H712985   1.606   3.935   0.411 -0.7744  0.5224  0.2003
  886MPD2     C12986   2.865   2.395  14.902 -0.2597 -0.4528  1.1824
  886MPD2    C112987   2.862   2.433  15.035  0.1689  0.6390  0.5860
  886MPD2    C212988   2.789   2.544  15.062 -0.3728 -0.4644  0.2486
  886MPD2    C312989   2.717   2.612  14.971  0.8225 -0.6984  0.7161
  886MPD2    C412990   2.730   2.576  14.834  0.7098 -0.5350 -0.1999
  886MPD2    C512991   2.800   2.468  14.803  0.4682 -0.1973  0.6439
  886MPD2     H12992   2.794   2.576  15.166 -1.1469 -0.7354  0.3693
  886MPD2    H112993   2.695   2.647  14.760 -1.3162 -2.3042 -0.9200
  886MPD2    H212994   2.911   2.299  14.882 -2.3354 -1.3745  0.8264
  886MPD2    H312995   2.816   2.440  14.700  0.1141  2.1354 -0.0584
  886MPD2     N12996   2.641   2.727  14.998  0.6959 -0.3450  0.7152
  886MPD2    H512997   2.603   2.779  14.919 -0.0359 -2.6094 -0.4218
  886MPD2    N112998   2.931   2.368  15.140  0.5872 -0.1617 -0.0197
  886MPD2    H712999   2.939   2.412  15.231  1.1161  2.8018 -1.4795
  887MPD2     C13000   3.410   2.627  15.586  0.5786  0.4043  0.2377
  887MPD2    C113001   3.276   2.631  15.536 -0.9353 -0.4734  0.6752
  887MPD2    C213002   3.216   2.758  15.525 -0.3952  0.3842 -0.1014
  887MPD2    C313003   3.278   2.879  15.569 -1.0619 -0.2998  0.0090
  887MPD2    C413004   3.405   2.862  15.622 -0.4160  0.1283  0.1922
  887MPD2    C513005   3.465   2.742  15.635 -0.2529 -0.2057  0.6358
  887MPD2     H13006   3.114   2.768  15.488  0.0385  1.7095 -0.9520
  887MPD2    H113007   3.457   2.946  15.666 -0.0967 -0.1637  0.3678
  887MPD2    H213008   3.473   2.539  15.587  0.0244  0.0336  2.3062
  887MPD2    H313009   3.565   2.734  15.677 -0.6485 -1.9365  1.2414
  887MPD2     N13010   3.209   3.007  15.562 -0.4475  0.0097  0.0916
  887MPD2    H513011   3.112   3.007  15.535  0.0938 -3.7192 -1.7650
  887MPD2    N113012   3.215   2.516  15.487 -0.0120  0.0280 -0.0867
  887MPD2    H713013   3.132   2.534  15.431 -1.1483 -0.4089  1.4675
  888MPD2     C13014   0.283   2.295  14.925 -0.4077  0.2373 -0.5549
  888MPD2    C113015   0.229   2.376  15.020 -0.3071  0.0539  0.7275
  888MPD2    C213016   0.290   2.500  15.049 -0.8305  0.1124  0.0356
  888MPD2    C313017   0.381   2.554  14.961  0.5031  0.2212 -0.3135
  888MPD2    C413018   0.420   2.478  14.858 -0.0335 -0.7074  0.4911
  888MPD2    C513019   0.386   2.345  14.846 -1.2214  0.1274 -0.4461
  888MPD2     H13020   0.264   2.551  15.140 -1.2593 -0.4468  0.2268
  888MPD2    H113021   0.501   2.509  14.794 -0.6691 -0.4898 -0.2137
  888MPD2    H213022   0.241   2.201  14.892  1.0590 -0.3730 -0.6799
  888MPD2    H313023   0.430   2.283  14.769  1.0771  2.5555 -1.0606
  888MPD2     N13024   0.424   2.688  14.975 -0.1570  0.1673 -0.2773
  888MPD2    H513025   0.414   2.732  15.065 -0.0027 -1.5736  0.5956
  888MPD2    N113026   0.113   2.343  15.094 -0.2564  0.5186 -0.0980
  888MPD2    H713027   0.090   2.407  15.169 -1.1634 -0.6554  0.6101
  889MPD2     C13028   4.349   2.322  12.532  0.6981 -0.0561  0.0038
  889MPD2    C113029   4.428   2.325  12.652 -0.5227 -0.1439 -0.2768
  889MPD2    C213030   4.450   2.448  12.709 -0.3701 -0.6348 -0.4793
  889MPD2    C313031   4.397   2.567  12.660 -0.7107  0.4144 -0.5391
  889MPD2    C413032   4.330   2.561  12.541  0.2719  0.2570 -0.0674
  889MPD2    C513033   4.307   2.439  12.473  0.2940  0.5915 -0.2579
  889MPD2     H13034   4.489   2.443  12.810 -2.8513 -3.2603  0.3512
  889MPD2    H113035   4.284   2.644  12.488  1.7169  0.8248 -0.4379
  889MPD2    H213036   4.335   2.229  12.478  0.5126  0.6284 -1.1224
  889MPD2    H313037   4.255   2.445  12.378 -2.3321  0.0377  1.1394
  889MPD2     N13038   4.407   2.669  12.754 -0.4190 -0.5841  0.2122
  889MPD2    H513039   4.461   2.642  12.836  0.0141  0.7624  0.3805
  889MPD2    N113040   4.439   2.209  12.735 -0.3177  0.0473  0.1502
  889MPD2    H713041   4.463   2.220  12.833 -1.0856 -0.4637  0.3988
  890MPD2     C13042   4.165   4.045  14.298 -0.4990  0.0595 -0.1259
  890MPD2    C113043   4.051   4.096  14.350  0.1446  0.2456  0.5148
  890MPD2    C213044   3.991   4.031  14.460 -0.0435  0.0231 -0.2650
  890MPD2    C313045   4.039   3.917  14.514  0.1548 -0.7956  0.1266
  890MPD2    C413046   4.155   3.862  14.456 -0.7417 -0.2661  0.1121
  890MPD2    C513047   4.212   3.925  14.347 -0.1833  0.2453  0.4753
  890MPD2     H13048   3.894   4.061  14.498  1.1416  0.6514  2.2705
  890MPD2    H113049   4.211   3.779  14.498 -1.4692 -1.7356 -1.8039
  890MPD2    H213050   4.207   4.090  14.209  0.9416 -0.9067  0.0846
  890MPD2    H313051   4.299   3.880  14.300 -0.9562  0.6785 -1.3809
  890MPD2     N13052   3.970   3.857  14.622  0.1821  0.9650 -0.3031
  890MPD2    H513053   3.892   3.914  14.654 -1.0780  0.9845 -3.4087
  890MPD2    N113054   4.002   4.215  14.292 -0.4456  0.0595 -0.1302
  890MPD2    H713055   4.047   4.251  14.208 -1.1658  0.9749 -0.1270
  891MPD2     C13056   1.772   1.908  16.299 -0.0945 -0.2682  0.3535
  891MPD2    C113057   1.803   2.016  16.384 -1.0479  0.2916 -0.0483
  891MPD2    C213058   1.858   1.991  16.506  0.2004  0.3444  0.3013
  891MPD2    C313059   1.895   1.864  16.547 -0.4222  0.3236 -0.2207
  891MPD2    C413060   1.852   1.760  16.467 -0.4735 -0.3193  0.2903
  891MPD2    C513061   1.804   1.787  16.340 -0.8130  0.4411  0.4564
  891MPD2     H13062   1.877   2.079  16.567 -1.3974 -0.1726  1.5576
  891MPD2    H113063   1.867   1.655  16.488 -1.2619 -0.1914  1.4578
  891MPD2    H213064   1.741   1.921  16.196 -1.8991  1.3596  1.0985
  891MPD2    H313065   1.780   1.704  16.274  2.2559 -1.8054  2.1346
  891MPD2     N13066   1.960   1.841  16.673 -0.0842 -0.3652  0.0682
  891MPD2    H513067   1.983   1.924  16.727 -0.7633  0.1456 -0.4240
  891MPD2    N113068   1.753   2.144  16.352  0.0477 -0.3627 -0.3122
  891MPD2    H713069   1.704   2.140  16.264 -0.3518 -1.1612 -0.0485
  892MPD2     C13070   2.972   3.233  14.813  0.0296  0.3320 -0.1031
  892MPD2    C113071   2.917   3.289  14.700 -0.1830 -0.2785 -0.5666
  892MPD2    C213072   2.938   3.231  14.573  0.1953 -0.1883 -0.4413
  892MPD2    C313073   3.021   3.119  14.571  0.5616 -0.7031  0.1093
  892MPD2    C413074   3.069   3.063  14.691 -0.3012  0.6302  0.1978
  892MPD2    C513075   3.048   3.125  14.810 -0.2443 -0.0155  0.3082
  892MPD2     H13076   2.893   3.275  14.485 -0.5322 -1.1211 -0.5366
  892MPD2    H113077   3.139   2.980  14.693  0.1370  0.9952 -0.0920
  892MPD2    H213078   2.949   3.271  14.912  2.1034 -1.3368  1.0352
  892MPD2    H313079   3.074   3.080  14.905  0.9897 -2.2482 -1.0784
  892MPD2     N13080   3.048   3.031  14.457  0.0254 -0.0594  0.0064
  892MPD2    H513081   3.099   2.944  14.464  0.6175  0.1566 -1.7965
  892MPD2    N113082   2.823   3.389  14.710 -0.0372  0.5981  0.2257
  892MPD2    H713083   2.793   3.433  14.624 -1.0768  0.2639  0.4050
  893MPD2     C13084   4.047   1.156   1.721  0.4708  0.3497  0.1649
  893MPD2    C113085   4.071   1.243   1.619  0.3477 -0.2860  0.5418
  893MPD2    C213086   3.968   1.304   1.554 -0.8250 -0.0055 -0.4076
  893MPD2    C313087   3.839   1.298   1.610 -0.6274 -0.1581  0.2370
  893MPD2    C413088   3.812   1.214   1.721 -0.2702 -0.3587  0.1771
  893MPD2    C513089   3.923   1.142   1.769  0.4011 -0.2138 -0.1203
  893MPD2     H13090   3.986   1.350   1.457 -3.1417  1.5796 -0.0769
  893MPD2    H113091   3.714   1.205   1.766 -0.5284  1.1713 -0.1026
  893MPD2    H213092   4.132   1.097   1.751  1.5817  1.7618 -0.2263
  893MPD2    H313093   3.914   1.086   1.861 -1.2776  0.0573 -0.1128
  893MPD2     N13094   3.721   1.370   1.562  0.4377  0.1938 -0.1362
  893MPD2    H513095   3.633   1.348   1.608  0.0273  3.2810  0.5099
  893MPD2    N113096   4.205   1.247   1.569  0.5251  0.4346 -0.7299
  893MPD2    H713097   4.273   1.199   1.627  0.8283  1.1044 -0.5294
  894MPD2     C13098   1.990   4.076   0.516 -0.1742 -0.4377  0.7231
  894MPD2    C113099   1.966   4.211   0.536  0.0948  1.0073  0.0137
  894MPD2    C213100   2.074   4.293   0.555  0.0232 -0.0164 -0.0663
  894MPD2    C313101   2.198   4.245   0.576  0.6201  0.2985  0.2503
  894MPD2    C413102   2.220   4.105   0.580  0.9295 -0.5936 -0.1118
  894MPD2    C513103   2.117   4.024   0.541 -0.9693 -0.1841  0.4318
  894MPD2     H13104   2.066   4.400   0.568 -0.9297 -0.1857  0.7646
  894MPD2    H113105   2.317   4.058   0.588  0.3602 -1.4100  2.1824
  894MPD2    H213106   1.910   4.004   0.501  0.6102 -1.1499 -0.0059
  894MPD2    H313107   2.138   3.919   0.523  2.5426  0.3804  1.1700
  894MPD2     N13108   2.297   4.343   0.601 -0.2006  0.0988  0.1172
  894MPD2    H513109   2.276   4.439   0.577 -3.5071 -0.7569 -0.3692
  894MPD2    N113110   1.839   4.270   0.515  0.2856 -0.0457 -0.2326
  894MPD2    H713111   1.837   4.371   0.530 -1.9702 -0.2585  0.8704
  895MPD2     C13112   2.073   2.690  14.206 -0.2500 -0.2678  0.6112
  895MPD2    C113113   2.082   2.720  14.067 -0.6129  0.0144 -0.3923
  895MPD2    C213114   2.190   2.683  13.996 -0.0799  0.3513 -0.8851
  895MPD2    C313115   2.281   2.598  14.048  0.3278 -0.4125 -0.3934
  895MPD2    C413116   2.273   2.563  14.184 -0.5872  0.2609  0.4111
  895MPD2    C513117   2.175   2.615  14.264 -0.0587  0.0385  0.2312
  895MPD2     H13118   2.182   2.701  13.889 -2.4208  1.2640 -0.5612
  895MPD2    H113119   2.340   2.490  14.228 -0.5331  1.4044  2.2294
  895MPD2    H213120   1.987   2.727  14.261 -1.7658 -0.4903 -1.5578
  895MPD2    H313121   2.178   2.587  14.369  0.2622  1.0824  0.5060
  895MPD2     N13122   2.359   2.511  13.961 -0.2917 -0.4961  0.7349
  895MPD2    H513123   2.414   2.439  14.008  0.0310 -1.3479 -0.9483
  895MPD2    N113124   1.987   2.794  13.996 -0.1718  0.3626 -0.5726
  895MPD2    H713125   2.021   2.832  13.908  0.3708  1.6859  0.2196
  896MPD2     C13126   0.072   4.532   1.843  0.1216 -0.5130 -0.7793
  896MPD2    C113127   0.062   4.541   1.710  0.0278 -0.4308  0.1930
  896MPD2    C213128   4.672   4.578   1.648  0.4242  0.0233 -0.0183
  896MPD2    C313129   4.555   4.596   1.713 -0.9598  0.4189 -0.0546
  896MPD2    C413130   4.561   4.600   1.847 -0.6773 -0.2051 -0.2888
  896MPD2    C513131   4.679   4.565   1.914  0.4803 -0.3182  0.4489
  896MPD2     H13132   4.668   4.592   1.541 -0.1303  1.3388  0.1727
  896MPD2    H113133   4.477   4.621   1.912 -1.4385 -0.7372 -1.0981
  896MPD2    H213134   0.160   4.492   1.891  0.0470  1.7235  1.1884
  896MPD2    H313135   4.672   4.571   2.022  0.3112  0.1746  0.4093
  896MPD2     N13136   4.435   4.615   1.635 -0.5801 -0.2138 -0.6900
  896MPD2    H513137   4.439   4.598   1.535 -3.2269 -1.1527 -0.6440
  896MPD2    N113138   0.175   4.497   1.642  0.0861 -0.4233 -0.2096
  896MPD2    H713139   0.254   4.470   1.699  2.7073  2.4762 -2.4506
  897MPD2     C13140   1.234   1.772  10.799  0.0318  0.0052  0.0097
  897MPD2    C113141   1.128   1.861  10.796  0.6657  1.0076  0.2542
  897MPD2    C213142   1.025   1.828  10.880 -0.3233 -0.3020 -0.8455
  897MPD2    C313143   1.033   1.721  10.967 -0.5695 -0.1517 -0.1859
  897MPD2    C413144   1.146   1.636  10.966  0.2976 -0.1171 -0.0901
  897MPD2    C513145   1.246   1.671  10.885  0.0273 -0.1576 -0.0681
  897MPD2     H13146   0.942   1.898  10.890  0.0132 -0.4883  3.0914
  897MPD2    H113147   1.161   1.559  11.041 -1.8362 -0.8684 -0.4517
  897MPD2    H213148   1.306   1.793  10.720 -0.6402  1.9822 -0.0823
  897MPD2    H313149   1.334   1.607  10.880  0.2164  0.0614  0.4710
  897MPD2     N13150   0.930   1.712  11.059  0.7292  0.4911  0.8894
  897MPD2    H513151   0.862   1.788  11.068 -0.2783 -0.3684  0.5127
  897MPD2    N113152   1.123   1.966  10.703  0.5954  0.3159 -0.1304
  897MPD2    H713153   1.181   1.954  10.621  0.6608  0.5918 -0.1243
  898MPD2     C13154   2.598   2.254  17.518 -0.1112 -0.2476 -0.6142
  898MPD2    C113155   2.611   2.391  17.528  0.3536  0.5080  1.0202
  898MPD2    C213156   2.537   2.469  17.437 -0.1626  0.1850 -0.2208
  898MPD2    C313157   2.446   2.421  17.345  0.4048 -0.0178  0.6875
  898MPD2    C413158   2.435   2.284  17.341  0.3193 -0.0818  0.0110
  898MPD2    C513159   2.519   2.206  17.420 -1.2450 -0.1329 -0.3049
  898MPD2     H13160   2.549   2.574  17.461  3.8866  0.0938 -1.9192
  898MPD2    H113161   2.368   2.225  17.279  2.1664 -1.2773 -0.8377
  898MPD2    H213162   2.647   2.186  17.587 -0.7876  1.9827  2.0608
  898MPD2    H313163   2.513   2.098  17.416 -0.4765 -0.2056  0.6377
  898MPD2     N13164   2.370   2.514  17.271  0.0792 -0.0746  0.4295
  898MPD2    H513165   2.382   2.614  17.280  2.0041 -0.4414  2.0310
  898MPD2    N113166   2.716   2.453  17.604  0.4326  0.2122  0.7918
  898MPD2    H713167   2.742   2.550  17.584  1.3691  0.0109  1.0375
  899MPD2     C13168   3.110   3.344  17.004 -0.5279  0.0109 -0.2221
  899MPD2    C113169   3.149   3.427  17.105  0.0173  0.5245 -0.8956
  899MPD2    C213170   3.086   3.418  17.225  0.5593  0.0165 -0.1356
  899MPD2    C313171   2.974   3.335  17.228 -0.5006 -0.6592  0.2700
  899MPD2    C413172   2.947   3.240  17.132  0.6467  0.3126  0.7150
  899MPD2    C513173   3.020   3.244  17.012 -0.1977 -0.5743 -0.5189
  899MPD2     H13174   3.121   3.478  17.308  0.4753 -0.4065  0.2092
  899MPD2    H113175   2.866   3.169  17.137 -0.4632  1.5470  0.0316
  899MPD2    H213176   3.153   3.349  16.905  1.1219  2.5050  0.6188
  899MPD2    H313177   3.020   3.169  16.934  0.2414 -1.3283  0.1965
  899MPD2     N13178   2.900   3.321  17.347 -0.2262  0.4210 -0.0406
  899MPD2    H513179   2.855   3.231  17.358 -2.0218  1.3679  0.2453
  899MPD2    N113180   3.252   3.524  17.070 -0.1704  0.2825  0.4814
  899MPD2    H713181   3.260   3.539  16.970  3.6238 -0.6098  0.6444
  900MPD2     C13182   3.369   0.808  12.625 -0.8063  0.5320 -0.3804
  900MPD2    C113183   3.293   0.758  12.518 -0.4025 -0.5233  0.7321
  900MPD2    C213184   3.197   0.837  12.456  0.2693 -0.2769  0.5096
  900MPD2    C313185   3.170   0.959  12.507 -0.0305  0.3803 -0.3422
  900MPD2    C413186   3.238   1.012  12.617 -0.2512  0.0580 -0.2987
  900MPD2    C513187   3.337   0.936  12.677 -0.3045  0.5872  0.1451
  900MPD2     H13188   3.142   0.806  12.367 -2.0693  0.8516  1.5815
  900MPD2    H113189   3.208   1.102  12.669  2.1304 -0.1172  1.3908
  900MPD2    H213190   3.439   0.746  12.680 -1.9547  0.8008  1.3577
  900MPD2    H313191   3.391   0.974  12.763  0.8245 -0.5844 -0.0311
  900MPD2     N13192   3.066   1.021  12.443 -0.6917 -0.6072 -0.0920
  900MPD2    H513193   3.038   0.964  12.363 -0.4624  1.3400 -1.5803
  900MPD2    N113194   3.315   0.621  12.484  0.2492  0.4097 -0.2942
  900MPD2    H713195   3.384   0.569  12.537  0.7942  2.3856  0.9293
  901MPD2     C13196   2.867   4.336  12.408  0.2804  0.0421  0.1079
  901MPD2    C113197   3.004   4.342  12.428  0.1437  0.7802 -0.2776
  901MPD2    C213198   3.070   4.462  12.444 -0.4932  1.0650  0.4738
  901MPD2    C313199   3.011   4.581  12.425 -0.8381  0.2322 -0.3024
  901MPD2    C413200   2.873   4.579  12.402  0.4901  0.1569  0.2602
  901MPD2    C513201   2.806   4.457  12.391 -0.3431  0.1103  0.0405
  901MPD2     H13202   3.176   4.457  12.467 -0.3186 -0.1738 -0.6163
  901MPD2    H113203   2.810   4.666  12.393  0.1666 -0.1810 -0.7710
  901MPD2    H213204   2.821   4.238  12.407  0.4798 -0.0382 -0.7360
  901MPD2    H313205   2.699   4.468  12.376 -0.3663 -1.2110 -0.7567
  901MPD2     N13206   3.089   4.701  12.410 -0.5314  0.6183 -0.3906
  901MPD2    H513207   3.189   4.683  12.405 -0.6076  0.0369  0.1385
  901MPD2    N113208   3.060   4.215  12.412  0.1229  0.6496 -0.6728
  901MPD2    H713209   3.003   4.133  12.394  0.1550  0.7410 -1.1819
  902MPD2     C13210   2.308   3.328  13.024  0.1653  0.5942  0.2418
  902MPD2    C113211   2.323   3.338  12.884 -0.5096 -0.4063  0.2602
  902MPD2    C213212   2.397   3.233  12.827 -0.1803  0.1454 -0.1268
  902MPD2    C313213   2.432   3.114  12.892 -0.6231  0.2848 -0.0813
  902MPD2    C413214   2.398   3.099  13.023  0.0208  0.7827  0.5929
  902MPD2    C513215   2.351   3.210  13.088 -0.2869 -0.0414 -0.7309
  902MPD2     H13216   2.401   3.229  12.719 -0.0343  0.7342 -0.1464
  902MPD2    H113217   2.415   3.011  13.084  1.2530  2.0774  2.1084
  902MPD2    H213218   2.268   3.406  13.088 -0.5407  0.6616 -0.2717
  902MPD2    H313219   2.331   3.192  13.193 -0.2616 -0.5528 -0.8144
  902MPD2     N13220   2.511   3.012  12.829 -0.3454  0.0450 -0.0651
  902MPD2    H513221   2.517   2.920  12.871  1.3481  0.2334  0.0978
  902MPD2    N113222   2.275   3.452  12.807  0.1642 -0.6116  0.3195
  902MPD2    H713223   2.245   3.537  12.854  0.9165  0.5315 -1.2695
  903MPD2     C13224   2.518   3.026  12.051  0.0381  0.3898 -0.0438
  903MPD2    C113225   2.470   2.947  12.153  0.0912 -0.1758  0.9436
  903MPD2    C213226   2.336   2.922  12.162 -0.8259  0.0479 -0.2792
  903MPD2    C313227   2.251   2.962  12.063 -0.0950 -0.3857 -0.1027
  903MPD2    C413228   2.302   3.046  11.960 -0.2305  0.1290 -0.0219
  903MPD2    C513229   2.433   3.070  11.958 -0.0506  0.6566 -0.6316
  903MPD2     H13230   2.288   2.877  12.249  0.8949 -1.5368 -0.1606
  903MPD2    H113231   2.250   3.085  11.873 -1.1603  1.8993  1.3301
  903MPD2    H213232   2.624   3.050  12.041  0.6548 -2.0833  0.4378
  903MPD2    H313233   2.478   3.126  11.878 -0.9523  2.4564  0.1235
  903MPD2     N13234   2.118   2.927  12.070  0.0174 -0.5375 -0.1220
  903MPD2    H513235   2.091   2.879  12.155 -4.9540 -0.0290 -1.3928
  903MPD2    N113236   2.558   2.900  12.251 -0.1303 -0.2024 -0.1139
  903MPD2    H713237   2.653   2.932  12.236  0.4045 -1.2330  1.0948
  904MPD2     C13238   1.941   1.949  14.285  0.8508 -0.4874  0.5464
  904MPD2    C113239   1.983   1.999  14.172  0.0168  0.1928  0.5533
  904MPD2    C213240   2.116   2.017  14.155  0.6175  0.3320 -0.6766
  904MPD2    C313241   2.210   1.970  14.243  0.3367  1.0291 -0.6019
  904MPD2    C413242   2.170   1.928  14.370 -0.0308  0.2817  0.4749
  904MPD2    C513243   2.034   1.911  14.384  0.5464  0.3657  0.0439
  904MPD2     H13244   2.159   2.059  14.064  0.6888 -0.0991 -0.8393
  904MPD2    H113245   2.243   1.910  14.448 -2.1369 -1.8461  1.9743
  904MPD2    H213246   1.838   1.925  14.311  0.6652 -0.0298  0.2184
  904MPD2    H313247   1.986   1.867  14.470 -1.0934 -0.2299 -1.1782
  904MPD2     N13248   2.344   1.999  14.217  0.1634 -0.5673  0.3286
  904MPD2    H513249   2.364   2.037  14.125  0.3734 -0.3107  0.4805
  904MPD2    N113250   1.885   2.045  14.079 -1.0920  0.3221  0.8613
  904MPD2    H713251   1.921   2.104  14.005 -1.2057 -0.2006  0.3877
  905MPD2     C13252   1.928   2.008  13.427 -0.0030 -0.3576 -0.5083
  905MPD2    C113253   1.959   2.110  13.512 -0.5911 -0.0716  0.2911
  905MPD2    C213254   2.065   2.195  13.475 -0.4552  0.3368  0.1966
  905MPD2    C313255   2.142   2.183  13.368  0.1408  0.0143 -0.1211
  905MPD2    C413256   2.099   2.085  13.276  0.1523  0.6470 -0.5472
  905MPD2    C513257   2.006   1.993  13.313 -0.0221 -0.1087 -0.0881
  905MPD2     H13258   2.078   2.270  13.553 -3.5444 -1.9770  2.9623
  905MPD2    H113259   2.143   2.069  13.178  0.9118 -1.3884  0.1251
  905MPD2    H213260   1.849   1.937  13.447  0.0027 -0.3533 -0.4699
  905MPD2    H313261   1.978   1.918  13.240  0.9406 -1.1715  0.6432
  905MPD2     N13262   2.265   2.246  13.337  0.4854  0.1400 -0.0119
  905MPD2    H513263   2.306   2.214  13.250  0.5336 -0.6295  0.2886
  905MPD2    N113264   1.881   2.123  13.625  0.0862 -0.0004 -0.6095
  905MPD2    H713265   1.818   2.045  13.641 -1.1781  0.6804 -2.2585
  906MPD2     C13266   4.252   2.424  11.597 -0.0952  0.4670 -0.1593
  906MPD2    C113267   4.260   2.313  11.516  0.6500 -0.3439 -0.1146
  906MPD2    C213268   4.165   2.216  11.523 -0.5620 -0.0027  0.1090
  906MPD2    C313269   4.078   2.203  11.628 -0.2908 -0.6188  0.2680
  906MPD2    C413270   4.075   2.312  11.713  0.1484 -0.9545  0.0915
  906MPD2    C513271   4.151   2.424  11.688  0.1580  0.6478  0.1677
  906MPD2     H13272   4.164   2.129  11.458  0.2570  0.8130 -0.9891
  906MPD2    H113273   4.002   2.309  11.793 -0.0290 -0.9572 -0.0706
  906MPD2    H213274   4.316   2.511  11.587 -1.5741  1.7010  1.0326
  906MPD2    H313275   4.144   2.509  11.754  1.9200  1.0262 -0.1265
  906MPD2     N13276   3.999   2.086  11.638  0.0004 -0.4120  0.3939
  906MPD2    H513277   4.014   2.013  11.569 -0.7827 -0.2821  0.0861
  906MPD2    N113278   4.352   2.318  11.404 -0.0676 -0.4080  0.1390
  906MPD2    H713279   4.342   2.249  11.330 -1.4709  0.4238 -0.4566
  907MPD2     C13280   2.697   1.243  15.495  0.4321 -0.1532 -0.9205
  907MPD2    C113281   2.792   1.274  15.399 -0.3004 -0.4415 -0.4317
  907MPD2    C213282   2.892   1.359  15.430  0.4383  0.3376 -0.3370
  907MPD2    C313283   2.906   1.410  15.560 -0.3236 -0.2563 -0.2798
  907MPD2    C413284   2.819   1.369  15.661 -0.2978 -0.2832  0.2720
  907MPD2    C513285   2.713   1.294  15.623  0.0332  0.3730 -0.3363
  907MPD2     H13286   2.962   1.391  15.354  0.5368  2.0685  0.4795
  907MPD2    H113287   2.813   1.404  15.764 -1.4192  1.2467 -0.3159
  907MPD2    H213288   2.603   1.192  15.478  1.4478 -1.3760 -2.8960
  907MPD2    H313289   2.643   1.278  15.704 -1.3203  0.4828 -1.4881
  907MPD2     N13290   3.019   1.491  15.577 -0.1823 -0.3120 -0.3869
  907MPD2    H513291   3.068   1.514  15.491 -0.2832 -1.3910 -0.7324
  907MPD2    N113292   2.776   1.235  15.263  0.3820 -0.5521  0.2060
  907MPD2    H713293   2.842   1.272  15.197  1.5521 -4.2027 -0.6933
  908MPD2     C13294   0.960   1.559  10.007  0.4839 -0.3679 -0.5310
  908MPD2    C113295   0.892   1.534  10.123 -0.0779 -0.6770 -0.2595
  908MPD2    C213296   0.878   1.641  10.208  0.4446  0.7329 -0.6061
  908MPD2    C313297   0.925   1.767  10.171 -0.4692  0.4022 -0.1172
  908MPD2    C413298   0.975   1.787  10.047  0.2089 -0.3032 -0.0433
  908MPD2    C513299   0.993   1.682   9.965 -0.2367 -0.2591  0.5468
  908MPD2     H13300   0.824   1.628  10.301  2.1055 -1.0405  0.0858
  908MPD2    H113301   1.021   1.877  10.007 -0.6400 -0.1792 -0.7513
  908MPD2    H213302   0.991   1.487   9.933 -2.2287 -0.2946 -1.7456
  908MPD2    H313303   1.044   1.696   9.871 -0.0242 -3.9126  0.1387
  908MPD2     N13304   0.913   1.865  10.270 -0.0073  0.7549  0.5072
  908MPD2    H513305   0.869   1.848  10.360 -2.2542  2.4916 -0.2589
  908MPD2    N113306   0.833   1.413  10.164 -0.0948 -0.1164 -0.4995
  908MPD2    H713307   0.806   1.405  10.261 -0.1207  0.6379 -0.4449
  909MPD2     C13308   1.104   0.041  12.266 -0.6102  0.5135  0.4735
  909MPD2    C113309   1.081   0.100  12.148 -0.2018 -0.6373  0.7470
  909MPD2    C213310   0.947   0.135  12.120 -0.0820 -0.3220 -0.0383
  909MPD2    C313311   0.846   0.124  12.211  0.4107  0.8057  0.5933
  909MPD2    C413312   0.872   0.067  12.325  0.0576  0.2882  0.6382
  909MPD2    C513313   0.999   0.034  12.351 -0.0530 -0.3798  0.0338
  909MPD2     H13314   0.916   0.178  12.025 -4.1969 -0.8019  1.0826
  909MPD2    H113315   0.795   0.037  12.395 -0.3871  1.0071  0.4623
  909MPD2    H213316   1.200   4.723  12.290  0.1314  2.1101  0.3340
  909MPD2    H313317   1.009   4.709  12.447 -0.1665  2.5939  1.5769
  909MPD2     N13318   0.717   0.166  12.174  0.1652 -0.4991 -0.3208
  909MPD2    H513319   0.701   0.200  12.080 -0.0694  1.7354  0.5166
  909MPD2    N113320   1.177   0.113  12.047 -0.0412  0.1206 -0.2201
  909MPD2    H713321   1.144   0.167  11.967 -3.3604 -0.3793  0.8224
  910MPD2     C13322   2.322   1.396  16.003  0.0614 -0.4164  0.3478
  910MPD2    C113323   2.381   1.299  15.916  1.0790  0.8519 -0.5570
  910MPD2    C213324   2.320   1.278  15.795  0.7550  0.9793  0.1608
  910MPD2    C313325   2.232   1.372  15.746 -0.6398  0.4692  0.4699
  910MPD2    C413326   2.186   1.473  15.826 -0.3998 -0.4406 -0.4516
  910MPD2    C513327   2.229   1.481  15.949 -0.7069 -0.2385 -0.3649
  910MPD2     H13328   2.343   1.192  15.733 -0.0801 -0.6928  2.1923
  910MPD2    H113329   2.117   1.547  15.787 -1.3143 -0.1117  1.8076
  910MPD2    H213330   2.345   1.405  16.108  1.0901 -0.8126  0.1625
  910MPD2    H313331   2.173   1.544  16.016  1.2421  0.9344  0.1462
  910MPD2     N13332   2.184   1.369  15.612  0.0163 -0.2547  0.3961
  910MPD2    H513333   2.108   1.435  15.600  1.0527  0.3796 -2.7552
  910MPD2    N113334   2.471   1.198  15.961  0.4163  0.0274  0.0931
  910MPD2    H713335   2.478   1.115  15.902 -0.9382 -0.0854  0.0853
  911MPD2     C13336   0.042   2.129  16.353  0.0519 -0.3936 -0.3616
  911MPD2    C113337   0.134   2.229  16.371 -0.2618  0.3375 -0.4576
  911MPD2    C213338   0.086   2.355  16.390 -0.1401  0.3402  0.5182
  911MPD2    C313339   4.675   2.383  16.388 -0.3414  0.0091  0.3333
  911MPD2    C413340   4.586   2.281  16.388  0.5688  0.2433  0.5158
  911MPD2    C513341   4.628   2.158  16.357 -0.2428  0.6594 -0.2926
  911MPD2     H13342   0.155   2.439  16.395 -0.5344  0.5411  2.7269
  911MPD2    H113343   4.481   2.298  16.410  1.0700  2.4556  1.2858
  911MPD2    H213344   0.071   2.025  16.341 -1.5321 -0.6746 -1.8817
  911MPD2    H313345   4.561   2.073  16.354 -1.2655  1.5139 -1.3751
  911MPD2     N13346   4.616   2.513  16.395 -0.6540  0.3158 -0.6826
  911MPD2    H513347   4.517   2.516  16.375 -1.2248 -0.9195  2.0178
  911MPD2    N113348   0.270   2.187  16.364 -0.5499 -0.1615  0.2665
  911MPD2    H713349   0.297   2.096  16.327  0.2687 -0.1329  0.7797
  912MPD2     C13350   4.406   2.223  15.994  0.0434 -1.1120  0.1332
  912MPD2    C113351   4.361   2.306  16.087 -0.2901 -0.5116  0.0785
  912MPD2    C213352   4.307   2.256  16.200  0.7421  0.3360  0.7612
  912MPD2    C313353   4.301   2.120  16.224 -0.3920  0.1677  0.4278
  912MPD2    C413354   4.348   2.036  16.128 -0.0823  0.4310 -0.1501
  912MPD2    C513355   4.392   2.088  16.012 -0.3711  0.6936 -0.7259
  912MPD2     H13356   4.264   2.314  16.281  0.2525 -0.3755  1.0147
  912MPD2    H113357   4.350   1.929  16.142 -1.0645  0.3871 -0.4009
  912MPD2    H213358   4.458   2.265  15.909  0.0827 -1.1160  0.1551
  912MPD2    H313359   4.432   2.027  15.932  0.4851 -0.4849  0.5770
  912MPD2     N13360   4.262   2.083  16.357  0.5870 -0.2400 -0.0904
  912MPD2    H513361   4.236   2.154  16.425 -2.4133 -0.8193 -0.6210
  912MPD2    N113362   4.391   2.442  16.060  0.2550 -0.0698  0.7353
  912MPD2    H713363   4.432   2.465  15.970  1.7558  0.0353  1.4601
  913MPD2     C13364   4.375   3.190   9.849  0.2973  0.0708 -0.5030
  913MPD2    C113365   4.448   3.269   9.936  0.0529 -0.1089 -0.4193
  913MPD2    C213366   4.527   3.361   9.882 -0.1056 -0.1837 -0.5578
  913MPD2    C313367   4.521   3.390   9.744 -0.8555  0.3730 -0.4710
  913MPD2    C413368   4.433   3.328   9.660 -0.1798 -0.0815  0.0543
  913MPD2    C513369   4.358   3.223   9.718 -0.5591 -0.4211  0.5771
  913MPD2     H13370   4.590   3.415   9.952 -1.0927  1.0271 -0.5922
  913MPD2    H113371   4.427   3.356   9.555 -1.4001  1.9435  0.6835
  913MPD2    H213372   4.319   3.100   9.875  0.3714  0.3759  0.6976
  913MPD2    H313373   4.297   3.156   9.661 -0.2618 -0.3088  0.1266
  913MPD2     N13374   4.592   3.500   9.678 -0.1271 -0.8634  0.3811
  913MPD2    H513375   4.579   3.522   9.580  1.9121 -0.2522  0.2536
  913MPD2    N113376   4.444   3.227  10.072 -0.1088  0.1112  0.2976
  913MPD2    H713377   4.386   3.144  10.076 -0.2270  0.1471 -0.7781
  914MPD2     C13378   2.813   3.842  11.759  0.7679 -0.4152 -0.2418
  914MPD2    C113379   2.780   3.935  11.850 -0.1959  0.1107 -0.5843
  914MPD2    C213380   2.841   3.923  11.973  0.1736  0.4901 -0.2217
  914MPD2    C313381   2.943   3.832  12.002 -0.0792 -0.0469  0.1522
  914MPD2    C413382   2.975   3.737  11.906  0.0972  0.2847  0.3209
  914MPD2    C513383   2.897   3.740  11.790 -0.0382  0.4159 -0.7923
  914MPD2     H13384   2.814   3.983  12.060 -1.3903 -1.9901  1.0001
  914MPD2    H113385   3.022   3.641  11.922  1.9931  0.7993 -2.0992
  914MPD2    H213386   2.772   3.838  11.659  1.7582  1.9011 -0.7530
  914MPD2    H313387   2.914   3.659  11.721 -3.1762 -0.1409 -0.9082
  914MPD2     N13388   3.003   3.831  12.126  0.1502  0.0434 -0.1157
  914MPD2    H513389   2.964   3.900  12.189  0.9797  0.9564 -0.5958
  914MPD2    N113390   2.684   4.030  11.816  0.1164 -0.0871  0.3323
  914MPD2    H713391   2.641   4.019  11.725  1.5037  0.7724 -0.4251
  915MPD2     C13392   1.666   3.857  15.624  0.8028 -0.6216  0.2429
  915MPD2    C113393   1.548   3.925  15.608  0.3223 -0.4697  0.3557
  915MPD2    C213394   1.478   3.966  15.718  0.6214 -0.3406  0.1645
  915MPD2    C313395   1.531   3.948  15.840 -0.4494  0.1670 -0.3065
  915MPD2    C413396   1.656   3.897  15.858  0.9864  0.0047 -0.0113
  915MPD2    C513397   1.722   3.852  15.747 -0.1735 -0.2457 -0.5692
  915MPD2     H13398   1.383   4.018  15.713  0.8215 -0.0520 -0.7850
  915MPD2    H113399   1.706   3.895  15.954  1.0108  1.4263  0.0019
  915MPD2    H213400   1.732   3.816  15.549 -0.7625 -1.1324 -0.8516
  915MPD2    H313401   1.821   3.810  15.763  0.8995  2.3779 -0.3191
  915MPD2     N13402   1.447   3.983  15.953  0.0018  0.2717 -0.2346
  915MPD2    H513403   1.361   4.025  15.920 -0.8383 -0.9373  0.3962
  915MPD2    N113404   1.502   3.941  15.474 -0.3594 -0.7315  0.7353
  915MPD2    H713405   1.571   3.910  15.405  0.5153  0.0473  1.2563
  916MPD2     C13406   4.019   2.393  15.692  0.0991  0.0576  0.0474
  916MPD2    C113407   4.044   2.296  15.777 -0.8264  0.3645  0.0229
  916MPD2    C213408   4.101   2.176  15.732  0.1062  0.0841 -0.3359
  916MPD2    C313409   4.102   2.139  15.603  0.6162 -0.0966 -0.1279
  916MPD2    C413410   4.076   2.245  15.516 -1.0051  0.2789 -0.2092
  916MPD2    C513411   4.042   2.373  15.556 -0.0015  0.0581 -0.2632
  916MPD2     H13412   4.124   2.101  15.807  0.8855  1.5638  0.9085
  916MPD2    H113413   4.082   2.224  15.409 -1.1654  0.5603 -0.2718
  916MPD2    H213414   3.994   2.493  15.727  1.6150  0.7060 -0.7053
  916MPD2    H313415   4.010   2.441  15.478 -1.3532  1.1557  1.2844
  916MPD2     N13416   4.144   2.007  15.565  0.7183  0.1928 -0.3721
  916MPD2    H513417   4.173   1.947  15.642  1.1736  0.5132 -0.2898
  916MPD2    N113418   4.019   2.314  15.907  0.2205  0.7860  0.3143
  916MPD2    H713419   3.996   2.409  15.934  0.4601  0.2255  2.4921
  917MPD2     C13420   4.049   4.355  10.709  0.1383 -0.3524  0.1110
  917MPD2    C113421   4.160   4.374  10.788 -0.0464 -0.5601 -0.5793
  917MPD2    C213422   4.262   4.464  10.747  0.2458 -0.0024 -0.0657
  917MPD2    C313423   4.250   4.534  10.631  0.2399 -0.3503 -0.3370
  917MPD2    C413424   4.133   4.520  10.556 -0.3620 -0.2252  0.8434
  917MPD2    C513425   4.035   4.435  10.600  1.0040 -0.1021 -0.3646
  917MPD2     H13426   4.343   4.479  10.817  2.0148 -3.3798 -1.3882
  917MPD2    H113427   4.116   4.577  10.466 -0.1485 -0.3194  0.7437
  917MPD2    H213428   3.980   4.276  10.737  0.0677  0.2416  1.5691
  917MPD2    H313429   3.946   4.423  10.539 -0.3281 -0.8280  1.7438
  917MPD2     N13430   4.343   4.625  10.586 -0.8882 -0.1542 -0.4027
  917MPD2    H513431   4.328   4.675  10.498  0.9740 -0.3213 -0.8177
  917MPD2    N113432   4.170   4.292  10.901 -0.1406  0.8370 -0.0702
  917MPD2    H713433   4.094   4.226  10.918  0.0184  0.7203  0.1853
  918MPD2     C13434   4.467   0.013  11.709 -0.3195  0.1165 -0.5222
  918MPD2    C113435   4.541   4.638  11.653  0.6911 -0.6048 -0.7633
  918MPD2    C213436   4.474   4.544  11.576 -0.3900 -0.3638  0.1558
  918MPD2    C313437   4.337   4.545  11.555  0.4081 -0.1582 -0.0731
  918MPD2    C413438   4.264   4.657  11.610 -0.2437 -0.0868 -0.2273
  918MPD2    C513439   4.332   0.019  11.691 -0.1080  0.7109 -0.1271
  918MPD2     H13440   4.539   4.473  11.525  0.1917 -0.4734  1.0491
  918MPD2    H113441   4.160   4.682  11.595 -0.6520 -1.9388 -0.5355
  918MPD2    H213442   4.511   0.099  11.759 -0.5966 -0.3954  0.6043
  918MPD2    H313443   4.277   0.100  11.737  2.5860  1.9498  0.9259
  918MPD2     N13444   4.291   4.448  11.460  0.1650  0.2224 -0.3167
  918MPD2    H513445   4.362   4.389  11.418  0.2540  0.0453  0.0894
  918MPD2    N113446   4.681   4.619  11.684  0.0330  0.3495 -0.4092
  918MPD2    H713447   0.009   4.560  11.621 -0.7118 -0.3531 -0.3710
  919MPD2     C13448   0.163   3.780  11.612 -0.0886  0.4373 -0.2945
  919MPD2    C113449   0.173   3.644  11.601 -0.0278 -0.2653 -0.8279
  919MPD2    C213450   0.168   3.583  11.484  0.1427 -0.2149 -0.4027
  919MPD2    C313451   0.173   3.661  11.368 -0.9831  0.1726 -0.4327
  919MPD2    C413452   0.184   3.797  11.382  0.2671 -0.7524 -0.0493
  919MPD2    C513453   0.183   3.855  11.501 -0.3321  0.2949  0.3750
  919MPD2     H13454   0.165   3.474  11.486 -0.4506 -0.1656  0.8830
  919MPD2    H113455   0.194   3.862  11.296  0.8184  0.5949  1.0489
  919MPD2    H213456   0.153   3.839  11.703 -1.2429  0.4963 -0.4492
  919MPD2    H313457   0.170   3.963  11.502 -1.5610  0.1429  3.3671
  919MPD2     N13458   0.164   3.612  11.240 -0.5856  0.8606 -0.5038
  919MPD2    H513459   0.168   3.679  11.163  2.4328  0.3889 -0.7386
  919MPD2    N113460   0.170   3.568  11.718 -0.5940  0.2327  0.0056
  919MPD2    H713461   0.164   3.467  11.711  0.1938  0.0732  1.5774
  920MPD2     C13462   0.081   3.862  10.313 -0.2154 -0.0863  0.3440
  920MPD2    C113463   0.028   3.741  10.304 -0.8133  0.4088 -0.1040
  920MPD2    C213464   0.031   3.662  10.416  0.2844  0.2041  0.0858
  920MPD2    C313465   0.096   3.699  10.525 -0.0361  0.6016  0.3355
  920MPD2    C413466   0.166   3.816  10.527  0.4838  0.5503  0.0267
  920MPD2    C513467   0.149   3.901  10.427  0.4460  0.5529 -0.0138
  920MPD2     H13468   4.715   3.561  10.410 -0.7542  0.5444  1.4776
  920MPD2    H113469   0.225   3.844  10.613  1.4583 -3.3638  0.6721
  920MPD2    H213470   0.080   3.930  10.228 -1.3287  1.0968  1.2958
  920MPD2    H313471   0.208   3.991  10.432 -1.1159  1.5449  0.6239
  920MPD2     N13472   0.114   3.603  10.635 -0.5510  0.5164  1.0006
  920MPD2    H513473   0.063   3.515  10.631  0.6787 -0.2447  2.1655
  920MPD2    N113474   4.672   3.697  10.195  0.3977  0.7190 -0.5067
  920MPD2    H713475   4.608   3.621  10.216  1.5645 -0.3099 -0.7088
  921MPD2     C13476   1.122   2.592  16.642 -0.3720 -0.6125  0.1278
  921MPD2    C113477   1.160   2.486  16.560  0.8103  0.6182 -0.5027
  921MPD2    C213478   1.062   2.398  16.521  0.4730  0.5973 -0.7045
  921MPD2    C313479   0.933   2.412  16.578  1.2485 -0.0351  0.3685
  921MPD2    C413480   0.896   2.512  16.663  0.7308 -0.3870  0.4135
  921MPD2    C513481   0.995   2.602  16.685 -0.0624 -0.4526 -0.3091
  921MPD2     H13482   1.082   2.325  16.444  0.5461  0.4623 -0.5572
  921MPD2    H113483   0.795   2.522  16.701  0.8614 -0.0611  0.6740
  921MPD2    H213484   1.189   2.673  16.667  0.0345 -1.4212  1.6835
  921MPD2    H313485   0.985   2.678  16.761 -1.6158  1.9040 -2.8603
  921MPD2     N13486   0.831   2.311  16.556  0.2572  0.6490  0.3920
  921MPD2    H513487   0.762   2.304  16.630  1.5569 -2.3357  1.3130
  921MPD2    N113488   1.294   2.490  16.516  0.3026 -0.3114 -0.0033
  921MPD2    H713489   1.353   2.564  16.551  0.4871  0.4044 -1.8317
  922MPD2     C13490   1.576   0.475  17.477 -0.4621 -0.4046  0.9182
  922MPD2    C113491   1.505   0.595  17.493 -0.9109 -0.4979  0.0798
  922MPD2    C213492   1.370   0.589  17.502 -0.3397  0.3958  0.3567
  922MPD2    C313493   1.308   0.467  17.484 -0.2304  0.1160 -0.3672
  922MPD2    C413494   1.380   0.352  17.459 -0.0125  0.0767  0.7199
  922MPD2    C513495   1.519   0.353  17.458 -0.9432 -0.3708 -0.3225
  922MPD2     H13496   1.315   0.682  17.509 -1.5129 -0.2724  0.0059
  922MPD2    H113497   1.327   0.261  17.432  1.6696 -0.7124  0.0367
  922MPD2    H213498   1.685   0.468  17.473 -0.5162 -1.3740  1.1095
  922MPD2    H313499   1.584   0.269  17.438 -1.5072 -0.9738  0.3393
  922MPD2     N13500   1.173   0.475  17.480  0.1416 -0.1117 -0.2153
  922MPD2    H513501   1.131   0.566  17.498 -0.1241  0.0367 -1.5984
  922MPD2    N113502   1.573   0.720  17.517 -0.8083  0.0270 -0.5585
  922MPD2    H713503   1.514   0.784  17.569  0.3065  1.9294 -1.6314
  923MPD2     C13504   3.880   2.778   9.449  0.5452 -0.2679 -0.1914
  923MPD2    C113505   3.761   2.725   9.491 -0.3366 -0.7549  0.6580
  923MPD2    C213506   3.762   2.631   9.591 -0.2103 -0.1770 -0.7248
  923MPD2    C313507   3.879   2.581   9.640 -0.4486  1.0201 -0.3516
  923MPD2    C413508   3.997   2.631   9.588 -0.2277 -0.0696 -0.0635
  923MPD2    C513509   3.998   2.737   9.497 -0.2353  0.0214 -0.0351
  923MPD2     H13510   3.666   2.584   9.611 -0.3518  0.2772 -0.3255
  923MPD2    H113511   4.093   2.592   9.620 -0.0769 -2.8758 -3.8220
  923MPD2    H213512   3.882   2.843   9.362  0.0658 -0.9258 -0.6911
  923MPD2    H313513   4.089   2.773   9.449 -0.0891  0.3105  0.4586
  923MPD2     N13514   3.889   2.501   9.755  0.1296 -0.3163  0.2939
  923MPD2    H513515   3.984   2.483   9.787  0.3384  2.8291  1.4432
  923MPD2    N113516   3.637   2.783   9.440 -0.1016 -0.3247  0.2188
  923MPD2    H713517   3.654   2.854   9.370 -1.6178  0.8007  0.9931
  924MPD2     C13518   3.892   1.696  15.294  0.5419  0.5976 -1.0305
  924MPD2    C113519   3.808   1.597  15.334 -0.2049 -0.1289  0.5971
  924MPD2    C213520   3.681   1.628  15.376  0.0520  0.2213 -0.2444
  924MPD2    C313521   3.630   1.759  15.375 -0.2839  0.4253  0.4235
  924MPD2    C413522   3.720   1.856  15.349  0.8280 -0.0169 -0.5129
  924MPD2    C513523   3.839   1.822  15.296  0.2679 -0.3318 -0.7577
  924MPD2     H13524   3.617   1.551  15.418 -0.2781  1.0252  0.7082
  924MPD2    H113525   3.689   1.960  15.358  1.4245  0.1092  0.0506
  924MPD2    H213526   3.991   1.681  15.252  1.1501  1.7042  0.0429
  924MPD2    H313527   3.904   1.901  15.260 -0.4513  0.5743 -0.0710
  924MPD2     N13528   3.497   1.801  15.412 -0.0039 -0.1132  0.0867
  924MPD2    H513529   3.476   1.899  15.421  1.3495  0.0705  1.2945
  924MPD2    N113530   3.855   1.466  15.328  0.3032  0.0020  0.3363
  924MPD2    H713531   3.952   1.461  15.301  0.2224 -1.9618  0.4130
  925MPD2     C13532   2.451   2.635  14.593  0.4988 -0.4789  0.2028
  925MPD2    C113533   2.392   2.751  14.619 -0.3743 -0.1871  0.4036
  925MPD2    C213534   2.320   2.770  14.741  0.0895 -0.1936 -0.4435
  925MPD2    C313535   2.298   2.669  14.830 -0.4916 -0.0144  0.1452
  925MPD2    C413536   2.368   2.550  14.801  0.1605  0.1460 -0.0450
  925MPD2    C513537   2.440   2.534  14.687  0.2543 -0.3382  0.2932
  925MPD2     H13538   2.277   2.869  14.743  1.3311  0.3717 -1.8738
  925MPD2    H113539   2.352   2.461  14.861  1.4186  0.3029  0.5207
  925MPD2    H213540   2.510   2.617  14.504  0.1831  0.9142 -0.2959
  925MPD2    H313541   2.476   2.434  14.664 -0.5553  0.0660 -2.8257
  925MPD2     N13542   2.212   2.678  14.940 -0.2319  0.3868 -0.4407
  925MPD2    H513543   2.204   2.591  14.992 -0.4995  1.1198  0.7424
  925MPD2    N113544   2.386   2.855  14.523 -0.5426 -0.0126  0.0286
  925MPD2    H713545   2.324   2.934  14.536  0.9887  1.3193 -0.8428
  926MPD2     C13546   0.199   1.479  13.576  0.4427  0.3468  0.1043
  926MPD2    C113547   0.284   1.589  13.588  0.4004  0.2892  0.0902
  926MPD2    C213548   0.364   1.630  13.481  0.3984 -0.0835 -0.1962
  926MPD2    C313549   0.363   1.562  13.364  0.6280 -0.2593  0.2481
  926MPD2    C413550   0.288   1.452  13.352  0.0539 -0.1710  0.2161
  926MPD2    C513551   0.206   1.419  13.455 -0.5088  0.3765  0.5547
  926MPD2     H13552   0.409   1.729  13.486 -1.2619  0.7742 -2.3313
  926MPD2    H113553   0.285   1.412  13.252  0.6480 -1.6438  0.7949
  926MPD2    H213554   0.129   1.450  13.654  3.4153 -1.7343  1.9867
  926MPD2    H313555   0.138   1.336  13.443 -1.8991  1.8918 -1.8982
  926MPD2     N13556   0.426   1.611  13.243 -0.2029 -0.1921  0.0072
  926MPD2    H513557   0.402   1.573  13.153  3.2149  0.6438 -1.2714
  926MPD2    N113558   0.265   1.684  13.690 -0.2793  0.7101 -0.0976
  926MPD2    H713559   0.311   1.774  13.675 -0.5413  1.0208  0.9499
  927MPD2     C13560   1.291   3.848  17.694 -0.5810 -0.8613  0.2727
  927MPD2    C113561   1.175   3.839  17.620 -0.1610  0.2750  0.1368
  927MPD2    C213562   1.180   3.841  17.483  0.0260  0.5479  0.0399
  927MPD2    C313563   1.305   3.820  17.421 -0.1326  0.2120 -0.1760
  927MPD2    C413564   1.424   3.815  17.495 -0.2822 -0.1205  0.1065
  927MPD2    C513565   1.417   3.838  17.630  0.1140 -0.0397  0.5286
  927MPD2     H13566   1.086   3.843  17.428  0.6699 -1.2516 -1.1299
  927MPD2    H113567   1.519   3.796  17.448 -1.2809 -1.0618 -1.5543
  927MPD2    H213568   1.292   3.854   0.102 -0.1649 -1.8609  0.3229
  927MPD2    H313569   1.507   3.828  17.689  0.8441  2.3085 -0.1657
  927MPD2     N13570   1.313   3.809  17.276 -0.0712  0.1992 -0.2546
  927MPD2    H513571   1.229   3.828  17.222 -1.0786  0.8717  1.5508
  927MPD2    N113572   1.058   3.820  17.697 -1.3343 -0.1125  0.6354
  927MPD2    H713573   1.074   3.798   0.095  1.1869 -0.1207  0.2322
  928MPD2     C13574   2.485   2.368   0.465  0.2885  0.3682 -0.2601
  928MPD2    C113575   2.568   2.298   0.549  0.3855  0.1605 -0.7434
  928MPD2    C213576   2.652   2.207   0.488  0.4410  0.0379 -0.2520
  928MPD2    C313577   2.661   2.197   0.349  0.0323 -0.2422  0.2224
  928MPD2    C413578   2.576   2.262   0.273  0.1404  0.0312 -0.2098
  928MPD2    C513579   2.488   2.355   0.327  0.8286 -0.4097 -0.1314
  928MPD2     H13580   2.721   2.150   0.549 -0.1633  0.7047  1.0630
  928MPD2    H113581   2.572   2.264   0.164  1.9515 -2.3386 -0.3304
  928MPD2    H213582   2.422   2.445   0.509 -0.7359 -0.4203 -0.3597
  928MPD2    H313583   2.431   2.414   0.255  1.5948  1.2123  0.5829
  928MPD2     N13584   2.762   2.129   0.289  0.2218  0.5100  0.9071
  928MPD2    H513585   2.766   2.152   0.190  1.6627  1.9364  1.2958
  928MPD2    N113586   2.559   2.315   0.694  0.1177  0.2738 -0.4614
  928MPD2    H713587   2.508   2.398   0.725 -0.5985 -0.5261  0.5008
  929MPD2     C13588   3.439   2.143  10.326  0.5327  0.4531  1.1130
  929MPD2    C113589   3.387   2.022  10.365 -0.1496 -0.8605 -0.2117
  929MPD2    C213590   3.262   1.984  10.326 -0.1305 -0.4176  0.4282
  929MPD2    C313591   3.195   2.067  10.236  0.0412  0.3502  0.2279
  929MPD2    C413592   3.248   2.187  10.196 -0.2518 -0.3582 -0.1050
  929MPD2    C513593   3.369   2.231  10.242 -0.4332 -0.1114 -0.4817
  929MPD2     H13594   3.220   1.888  10.353 -1.0056 -0.8117 -2.3593
  929MPD2    H113595   3.185   2.259  10.144 -0.8499 -0.5139  0.4033
  929MPD2    H213596   3.528   2.189  10.366  1.7711  1.0819 -2.3614
  929MPD2    H313597   3.399   2.329  10.208  0.7495  0.3616  1.9848
  929MPD2     N13598   3.054   2.057  10.219  0.4840 -0.5424  0.0368
  929MPD2    H513599   3.008   2.145  10.197  0.5424 -0.0081  2.0915
  929MPD2    N113600   3.471   1.946  10.449  0.3281  0.1539 -0.4327
  929MPD2    H713601   3.562   1.983  10.474  0.3263 -1.6927  2.2620
  930MPD2     C13602   4.661   4.637  14.015  0.3658  0.3286  0.1100
  930MPD2    C113603   0.047   4.548  14.020 -0.2530  0.0341  0.1322
  930MPD2    C213604   0.048   4.434  13.945 -0.2423  0.5605  0.0056
  930MPD2    C313605   4.674   4.417  13.849 -0.5669 -0.2684 -0.3045
  930MPD2    C413606   4.566   4.507  13.841  0.0793  0.1298 -0.7721
  930MPD2    C513607   4.563   4.617  13.921 -0.0430 -0.5015  0.4718
  930MPD2     H13608   0.134   4.368  13.944 -0.6619  0.0189 -0.5664
  930MPD2    H113609   4.485   4.501  13.768 -1.7944 -1.2480  1.4432
  930MPD2    H213610   4.647   4.722  14.081  0.3547  1.9112 -1.9413
  930MPD2    H313611   4.486   4.693  13.912  2.1115  1.3347 -2.4528
  930MPD2     N13612   4.676   4.307  13.757 -0.0914 -0.2504 -0.0329
  930MPD2    H513613   4.598   4.301  13.693 -0.1317 -2.4909  0.2148
  930MPD2    N113614   0.154   4.594  14.101  0.3284 -0.5329 -0.2643
  930MPD2    H713615   0.142   4.690  14.133 -0.8647 -0.9569  0.5324
  931MPD2     C13616   0.544   3.301  17.682  0.1178 -0.1294  0.2180
  931MPD2    C113617   0.511   3.392   0.082 -0.2190  0.3790  0.3393
  931MPD2    C213618   0.392   3.363   0.155  0.0897 -0.6639  0.5331
  931MPD2    C313619   0.320   3.252   0.131  0.1610  1.0543  1.0627
  931MPD2    C413620   0.348   3.168   0.032  0.0620 -0.0684  0.3394
  931MPD2    C513621   0.464   3.191  17.660  0.0276  0.6694 -0.5378
  931MPD2     H13622   0.379   3.433   0.236  1.3810  0.2691 -0.0675
  931MPD2    H113623   0.298   3.077   0.002 -0.1529  0.4780 -0.9234
  931MPD2    H213624   0.642   3.310  17.636  0.8951  3.2797  2.5502
  931MPD2    H313625   0.498   3.119  17.586 -0.1906  0.5457 -0.5187
  931MPD2     N13626   0.200   3.224   0.197  0.0312 -0.2691 -0.2108
  931MPD2    H513627   0.158   3.133   0.185  0.3570 -0.1880 -1.9754
  931MPD2    N113628   0.600   3.499   0.107  0.2784  0.1972 -0.2508
  931MPD2    H713629   0.685   3.495   0.051 -0.8692 -1.6959 -1.8635
  932MPD2     C13630   1.504   2.594  11.547 -0.5456 -0.0648  1.1264
  932MPD2    C113631   1.635   2.616  11.594  0.1097 -0.1909  0.3690
  932MPD2    C213632   1.662   2.581  11.723  0.0089  0.1031  0.5344
  932MPD2    C313633   1.571   2.534  11.817  0.2795  0.4556 -0.0009
  932MPD2    C413634   1.443   2.508  11.764  0.7406  0.4431 -0.1196
  932MPD2    C513635   1.409   2.546  11.635  0.0547  0.3874  0.6417
  932MPD2     H13636   1.764   2.584  11.759 -0.0790  0.8357  0.7330
  932MPD2    H113637   1.363   2.467  11.825 -0.3361 -0.9503 -2.4592
  932MPD2    H213638   1.473   2.609  11.444  0.1359  2.1861  1.2439
  932MPD2    H313639   1.312   2.551  11.586  0.9451  0.0465 -1.1716
  932MPD2     N13640   1.601   2.475  11.939  0.0030  0.4580  0.2632
  932MPD2    H513641   1.534   2.419  11.992 -0.9124 -0.6742 -2.0993
  932MPD2    N113642   1.742   2.677  11.519 -0.1010  0.1847 -0.2957
  932MPD2    H713643   1.820   2.710  11.576  0.3985  0.2958 -1.0474
  933MPD2     C13644   2.074   2.567   0.998 -0.0002 -0.8941  0.1270
  933MPD2    C113645   2.190   2.609   1.053  0.1229  0.2170 -0.5028
  933MPD2    C213646   2.198   2.739   1.107 -0.1377 -0.0521 -0.6050
  933MPD2    C313647   2.084   2.817   1.111  0.6248 -0.4502 -0.2006
  933MPD2    C413648   1.962   2.769   1.058  0.4984  0.1662  0.1186
  933MPD2    C513649   1.964   2.643   1.005  0.2869  0.4473 -0.1563
  933MPD2     H13650   2.283   2.787   1.153  0.5411 -0.8974 -0.9609
  933MPD2    H113651   1.865   2.817   1.055  0.5422  0.1366 -1.8563
  933MPD2    H213652   2.064   2.464   0.966 -1.0285 -1.6318  2.8152
  933MPD2    H313653   1.872   2.611   0.958 -0.2629  0.6656  0.7685
  933MPD2     N13654   2.090   2.945   1.163  0.3143  0.1020 -0.2960
  933MPD2    H513655   2.181   2.971   1.199  1.0088  1.4619 -3.0267
  933MPD2    N113656   2.302   2.524   1.045 -0.2684  0.3322  0.6718
  933MPD2    H713657   2.287   2.446   0.982 -1.4766  1.0001  0.1437
  934MPD2     C13658   3.850   4.578   1.769  0.3254 -0.4128 -0.5966
  934MPD2    C113659   3.929   4.472   1.714 -0.3804  0.3919  0.7297
  934MPD2    C213660   3.900   4.411   1.596 -0.4251 -0.0180  0.2568
  934MPD2    C313661   3.787   4.445   1.522  0.5654 -0.2100  0.3264
  934MPD2    C413662   3.703   4.541   1.583 -0.2393  0.7358 -0.0087
  934MPD2    C513663   3.732   4.598   1.701  0.4026  0.2743  0.5641
  934MPD2     H13664   3.960   4.331   1.554 -0.9707 -1.3753  2.0530
  934MPD2    H113665   3.611   4.569   1.532 -0.7595 -0.5339  0.2210
  934MPD2    H213666   3.870   4.633   1.860  1.7687 -4.3173  1.4182
  934MPD2    H313667   3.670   4.679   1.737  0.1866  1.0757 -1.6483
  934MPD2     N13668   3.740   4.389   1.403 -0.0450 -0.4592 -0.0066
  934MPD2    H513669   3.656   4.429   1.362 -0.6235  0.8782  2.5488
  934MPD2    N113670   4.044   4.434   1.783  0.0924  0.5066 -0.6254
  934MPD2    H713671   4.065   4.494   1.863  2.3544 -0.7771 -0.2651
  935MPD2     C13672   4.044   3.649   0.748 -0.3459  0.0805 -0.7856
  935MPD2    C113673   3.909   3.645   0.755 -0.1036 -0.4324 -0.7011
  935MPD2    C213674   3.841   3.741   0.829  0.1634 -0.0021  0.4294
  935MPD2    C313675   3.911   3.837   0.896  0.3663  0.5716 -0.3051
  935MPD2    C413676   4.048   3.847   0.886  0.9233 -0.3723 -0.3739
  935MPD2    C513677   4.110   3.751   0.815  0.3649 -0.0279  0.0805
  935MPD2     H13678   3.735   3.732   0.845  0.1560  0.5355  0.6878
  935MPD2    H113679   4.107   3.918   0.945  2.0602 -0.2782 -1.6280
  935MPD2    H213680   4.111   3.583   0.693  0.9868 -0.2384  1.2107
  935MPD2    H313681   4.218   3.759   0.807 -0.0495  2.3026 -2.9672
  935MPD2     N13682   3.849   3.943   0.971 -0.0747 -0.1122  0.2428
  935MPD2    H513683   3.917   4.003   1.016  0.2516 -0.0333 -0.3600
  935MPD2    N113684   3.831   3.548   0.685  0.5499  0.4787 -0.3110
  935MPD2    H713685   3.730   3.552   0.695  0.4759 -1.8826 -0.0413
  936MPD2     C13686   2.487   2.076  12.735 -0.1004  0.0573  0.7118
  936MPD2    C113687   2.504   1.997  12.845 -0.1342  0.9060 -0.2152
  936MPD2    C213688   2.630   1.972  12.890  0.3276  0.3621 -0.7397
  936MPD2    C313689   2.738   2.009  12.825 -0.3931 -0.5833 -0.4417
  936MPD2    C413690   2.720   2.086  12.711 -0.5513  0.3085 -0.3139
  936MPD2    C513691   2.602   2.123  12.670  0.0884  0.7476 -0.4523
  936MPD2     H13692   2.642   1.909  12.977  1.2242  3.0559  1.0925
  936MPD2    H113693   2.802   2.111  12.645  0.1090 -3.0283 -0.7887
  936MPD2    H213694   2.389   2.095  12.692  0.2491  0.5282  0.1224
  936MPD2    H313695   2.604   2.175  12.575  1.7203  0.5483 -0.5257
  936MPD2     N13696   2.869   1.968  12.861 -0.1022 -0.5135 -0.2337
  936MPD2    H513697   2.943   1.979  12.793  1.2583 -1.9869  0.9999
  936MPD2    N113698   2.406   1.917  12.896  1.0254 -0.2904 -0.4707
  936MPD2    H713699   2.430   1.850  12.968  2.2250  0.8113  0.1394
  937MPD2     C13700   0.356   2.923  11.821 -0.0204 -0.2848  0.6103
  937MPD2    C113701   0.413   3.042  11.796 -0.4675 -0.0613  0.8682
  937MPD2    C213702   0.479   3.054  11.676  0.4491 -0.2577  0.2600
  937MPD2    C313703   0.500   2.948  11.590 -0.1862  0.5272 -0.1825
  937MPD2    C413704   0.443   2.823  11.627 -0.3012  0.3413 -0.2751
  937MPD2    C513705   0.372   2.817  11.743  0.0344 -0.3445 -0.1981
  937MPD2     H13706   0.505   3.154  11.642  0.0345 -0.3717 -0.3970
  937MPD2    H113707   0.456   2.740  11.558  0.2722  0.6146 -0.4992
  937MPD2    H213708   0.286   2.907  11.902 -1.5377  0.3724 -0.5709
  937MPD2    H313709   0.317   2.726  11.767 -0.8985  0.4304  0.6305
  937MPD2     N13710   0.557   2.953  11.461  0.5748  0.3109 -0.0310
  937MPD2    H513711   0.562   2.867  11.407 -0.0787  0.6999 -0.7178
  937MPD2    N113712   0.368   3.167  11.857 -0.0287  0.3981 -0.6587
  937MPD2    H713713   0.414   3.249  11.818  1.2464 -0.5867 -1.2371
  938MPD2     C13714   3.112   4.305   0.450 -0.1514 -0.6742 -0.4917
  938MPD2    C113715   3.182   4.292   0.574  0.4044 -0.0850  0.2770
  938MPD2    C213716   3.165   4.179   0.648 -0.2292  0.1257  0.0947
  938MPD2    C313717   3.071   4.087   0.619 -0.0782 -0.5651  0.4915
  938MPD2    C413718   2.999   4.101   0.496  0.7248  0.1729  0.0367
  938MPD2    C513719   3.023   4.213   0.419 -0.2550  0.6967  0.0182
  938MPD2     H13720   3.223   4.178   0.739  0.6086  0.1760 -0.4381
  938MPD2    H113721   2.922   4.034   0.460  0.6657  1.5958 -2.4815
  938MPD2    H213722   3.126   4.392   0.388  1.6613 -0.7485 -0.1744
  938MPD2    H313723   2.959   4.233   0.334 -0.6827 -0.4461  0.0734
  938MPD2     N13724   3.036   3.976   0.699 -0.1120 -0.0196  0.2215
  938MPD2    H513725   2.940   3.943   0.693  1.3339 -4.2363 -0.1742
  938MPD2    N113726   3.257   4.403   0.633  0.1449 -0.5212 -0.0688
  938MPD2    H713727   3.307   4.374   0.717 -0.9007  2.5296  1.5919
  939MPD2     C13728   4.369   0.282   1.548  0.3650  0.6549 -0.3137
  939MPD2    C113729   4.272   0.332   1.468  0.2809 -0.1735 -0.1048
  939MPD2    C213730   4.265   0.289   1.339  0.5233 -0.3918 -0.3458
  939MPD2    C313731   4.344   0.188   1.297  0.5600 -0.4219  0.5013
  939MPD2    C413732   4.442   0.132   1.377 -0.7931  0.0510 -0.2809
  939MPD2    C513733   4.454   0.177   1.508 -0.0799  0.4966 -1.0782
  939MPD2     H13734   4.201   0.325   1.259 -1.0191 -3.4766 -0.5277
  939MPD2    H113735   4.525   0.075   1.337 -0.7714 -0.0922 -0.0273
  939MPD2    H213736   4.373   0.310   1.653  3.4213 -0.2672 -0.1805
  939MPD2    H313737   4.532   0.145   1.576 -1.4894 -2.9908 -1.0891
  939MPD2     N13738   4.319   0.144   1.165  0.2157 -0.1583  0.2990
  939MPD2    H513739   4.262   0.209   1.111  0.7733 -0.2850 -0.4497
  939MPD2    N113740   4.189   0.435   1.521 -0.2315  0.2346  0.3261
  939MPD2    H713741   4.180   0.448   1.621  2.5558 -1.4255  0.7743
  940MPD2     C13742   3.563   1.190  13.079  0.7466 -0.4059 -0.1968
  940MPD2    C113743   3.671   1.117  13.038  0.2312 -0.0931 -0.3513
  940MPD2    C213744   3.682   1.076  12.904  0.2291 -0.6780 -0.3988
  940MPD2    C313745   3.603   1.129  12.808 -0.1150 -0.6481  0.3557
  940MPD2    C413746   3.492   1.204  12.856  0.6236  0.2463  0.2371
  940MPD2    C513747   3.476   1.232  12.987  0.1575 -0.1662 -0.5521
  940MPD2     H13748   3.765   1.013  12.872 -0.5664 -2.1050  0.3135
  940MPD2    H113749   3.429   1.250  12.781 -0.5371 -2.6034 -0.5321
  940MPD2    H213750   3.560   1.238  13.176  0.9429 -0.0267 -0.3765
  940MPD2    H313751   3.393   1.300  13.005 -1.3403 -1.7457 -1.5189
  940MPD2     N13752   3.611   1.097  12.663 -0.1130 -0.2650 -0.0051
  940MPD2    H513753   3.533   1.135  12.610  0.6676  0.1045 -0.9076
  940MPD2    N113754   3.764   1.066  13.127  0.4963 -0.1049 -0.5944
  940MPD2    H713755   3.835   1.004  13.089  0.8146 -1.1370  1.6691
  941MPD2     C13756   2.846   0.882  10.413  0.4511 -0.0159 -0.0691
  941MPD2    C113757   2.882   0.788  10.317  0.8623  0.0813  0.0276
  941MPD2    C213758   2.794   0.679  10.298  0.3925 -0.8246 -0.0693
  941MPD2    C313759   2.689   0.656  10.388  0.6227  0.2071  0.5658
  941MPD2    C413760   2.662   0.750  10.490  0.0617  0.3680 -0.4133
  941MPD2    C513761   2.744   0.853  10.500  1.1544 -0.7587  0.5933
  941MPD2     H13762   2.796   0.611  10.213  2.0576 -0.2070 -0.5220
  941MPD2    H113763   2.582   0.740  10.562 -0.4161 -1.6744 -1.2383
  941MPD2    H213764   2.897   0.976  10.424 -1.6140  0.7921  2.7851
  941MPD2    H313765   2.727   0.933  10.571  0.7734  1.6979 -2.2593
  941MPD2     N13766   2.605   0.543  10.376 -0.4152 -0.2875 -0.5111
  941MPD2    H513767   2.523   0.542  10.436 -0.1353 -2.0214 -0.1350
  941MPD2    N113768   2.975   0.819  10.216  0.0798 -0.0141 -0.5286
  941MPD2    H713769   2.987   0.756  10.138 -1.0153 -0.1335 -0.5964
  942MPD2     C13770   2.938   3.065   9.112 -0.0999  0.2717  0.4019
  942MPD2    C113771   2.942   2.930   9.140  1.0851 -0.4929 -0.6721
  942MPD2    C213772   3.066   2.869   9.129 -0.1903  0.1281  0.5492
  942MPD2    C313773   3.178   2.938   9.088  0.0938 -0.3541 -0.7102
  942MPD2    C413774   3.169   3.070   9.055 -0.3595 -0.1538 -0.2791
  942MPD2    C513775   3.049   3.135   9.080  0.1211  0.5704 -0.1415
  942MPD2     H13776   3.063   2.761   9.138  0.8638  0.2344  2.0966
  942MPD2    H113777   3.260   3.120   9.024 -0.8995  0.1207 -1.4386
  942MPD2    H213778   2.847   3.124   9.117 -0.1508  0.2846 -0.6265
  942MPD2    H313779   3.039   3.241   9.057 -1.2410  0.5132  0.1936
  942MPD2     N13780   3.306   2.881   9.069  0.5536 -0.0651  0.3496
  942MPD2    H513781   3.376   2.947   9.036 -1.2993  1.2635 -0.9285
  942MPD2    N113782   2.822   2.858   9.181 -0.0515  0.1207  0.6233
  942MPD2    H713783   2.841   2.760   9.202 -0.4725 -0.2150 -0.5318
  943MPD2     C13784   1.224   0.080  10.171  0.6790  0.1779 -0.2199
  943MPD2    C113785   1.126   4.708  10.186 -0.1745  0.0831 -0.6227
  943MPD2    C213786   1.115   4.652  10.319  0.0264  0.8092 -0.5834
  943MPD2    C313787   1.200   4.682  10.430  0.6978 -0.7383  0.1829
  943MPD2    C413788   1.292   0.058  10.407  0.3046 -0.0580 -0.3006
  943MPD2    C513789   1.295   0.122  10.284 -0.7011  0.0048  0.2670
  943MPD2     H13790   1.034   4.583  10.341  0.7863  0.4739  1.1562
  943MPD2    H113791   1.356   0.090  10.489  1.8501 -1.2088 -1.0432
  943MPD2    H213792   1.249   0.128  10.077 -0.2058  2.0108  0.4726
  943MPD2    H313793   1.359   0.208  10.272 -1.4566  0.8223  2.0627
  943MPD2     N13794   1.184   4.627  10.559 -0.2144 -0.1314 -0.1985
  943MPD2    H513795   1.220   4.672  10.643  0.1246 -0.1672 -0.3255
  943MPD2    N113796   1.055   4.672  10.074  0.2660 -0.2622  0.1591
  943MPD2    H713797   1.094   4.718   9.992 -0.9194 -0.3866 -0.4618
  944MPD2     C13798   0.457   3.354  10.755 -0.0105  0.3626 -0.2951
  944MPD2    C113799   0.494   3.486  10.767  0.1365 -0.3168 -0.2687
  944MPD2    C213800   0.507   3.541  10.891 -0.1329  0.9455  0.7558
  944MPD2    C313801   0.483   3.467  11.010 -0.0275  0.5578 -1.2470
  944MPD2    C413802   0.457   3.334  10.991  0.2359 -0.1826 -0.5615
  944MPD2    C513803   0.444   3.280  10.872  0.1869 -0.0798 -0.3509
  944MPD2     H13804   0.547   3.642  10.899  0.8864  0.5368  0.7544
  944MPD2    H113805   0.430   3.270  11.074 -0.8016 -0.2894 -0.9891
  944MPD2    H213806   0.432   3.305  10.661  0.0302  0.3173 -0.2826
  944MPD2    H313807   0.422   3.174  10.874  2.2151 -0.5123 -0.1815
  944MPD2     N13808   0.509   3.526  11.140  0.0835 -0.3444 -0.6299
  944MPD2    H513809   0.540   3.622  11.139  0.1305 -0.3577 -0.4708
  944MPD2    N113810   0.515   3.552  10.648  0.5208 -0.3393 -0.1188
  944MPD2    H713811   0.527   3.490  10.569  0.5332 -0.3752 -0.0889
    1TCq1    O113812   4.219   0.074  14.165  0.0289 -0.0874  0.4217
    1TCq1    C113813   4.298   4.691  14.176  0.3696 -0.5992  0.2822
    1TCq1    O213814   4.269   4.581  14.134 -0.0310  0.4505 -0.3096
    1TCq1    C213815   4.411   4.719  14.255 -0.0254  0.0298 -0.0186
    1TCq1    C313816   4.457   4.610  14.327  0.1032 -0.2949 -0.0869
    1TCq1    C413817   4.540   4.625  14.431 -0.0734  0.4577  0.2235
    1TCq1    C513818   4.567   0.032  14.470 -0.7578 -0.5713 -0.5896
    1TCq1    C613819   4.526   0.145  14.405 -0.0803  0.4219  0.3273
    1TCq1    C713820   4.449   0.125  14.293 -0.5322 -0.3890 -0.0934
    1TCq1    C813821   4.549   0.275  14.468 -0.0665  0.2990  0.3945
    1TCq1    O413822   4.613   0.275  14.571  0.3676 -0.1315 -0.3272
    1TCq1    C913823   4.578   4.521  14.529 -0.2682 -0.3414  0.2761
    1TCq1    O513824   4.681   4.543  14.598 -0.4492 -0.3204  0.4701
    1TCq1    O613825   4.522   4.407  14.516 -0.5133 -0.1902  0.9370
    1TCq1    H113826   4.257   0.148  14.217  1.2764 -1.3530  1.3185
    1TCq1    H213827   4.424   4.517  14.281 -1.2518  0.7333 -1.1876
    1TCq1    H313828   4.627   0.050  14.559 -0.6711  3.3606 -1.4386
    1TCq1    H413829   4.416   0.209  14.234 -1.0131 -1.3396 -1.1777
    2MPD2     C13830   4.506   0.774  14.510 -0.2850  0.0357 -0.7554
    2MPD2    C113831   4.449   0.741  14.387 -0.0881  0.1549 -0.5400
    2MPD2    C213832   4.449   0.612  14.351  0.3043 -0.4663  0.0427
    2MPD2    C313833   4.500   0.513  14.432 -0.2447 -0.1140  0.4532
    2MPD2    C413834   4.557   0.553  14.551 -0.1964  0.1990 -0.1724
    2MPD2    C513835   4.558   0.681  14.594 -0.1882 -0.3296  0.3561
    2MPD2     H13836   4.394   0.582  14.263 -0.2102 -0.2594  0.2901
    2MPD2    H113837   4.585   0.475  14.621  2.4894  0.8319 -0.5434
    2MPD2    H213838   4.510   0.881  14.527 -0.0827 -0.4479  2.1223
    2MPD2    H313839   4.590   0.707  14.694 -1.3047  0.1752  0.5786
    2MPD2     N13840   4.488   0.379  14.403  0.1221 -0.2524  0.1052
    2MPD2    H513841   4.421   0.357  14.331  2.9583 -1.7023 -2.0966
    2MPD2    N113842   4.406   0.846  14.299 -0.5074 -0.2000  0.3621
    2MPD2    H713843   4.433   0.942  14.320  1.9844 -0.6871 -0.5305
    3TMC2    C113844   4.339   0.961  14.109 -0.3008 -0.1101 -0.2611
    3TMC2    C213845   4.328   1.068  14.184  0.1848 -0.2995 -0.2538
    3TMC2    C313846   4.339   1.186  14.120 -0.0762  0.3568  0.2425
    3TMC2    C413847   4.338   0.959  13.972 -0.6014 -1.2571  0.0618
    3TMC2    C513848   4.330   1.082  13.909 -0.4096  0.0439 -0.2249
    3TMC2    C613849   4.338   1.196  13.984 -0.4394 -0.0176  0.0273
    3TMC2     C13850   4.349   0.833  14.175  0.1930  0.2106  0.2911
    3TMC2     O13851   4.302   0.738  14.117 -0.1808 -0.0029 -0.5630
    3TMC2     H13852   4.316   1.071  14.291  2.4128 -2.7890  0.0593
    3TMC2    H113853   4.339   0.866  13.917  3.5131 -0.7155 -0.8331
    3TMC2    H213854   4.340   1.296  13.943 -1.4232  0.9017  2.2215
    3TMC2    C713855   4.320   1.086  13.763  0.8293 -0.5758 -0.4476
    3TMC2    C813856   4.332   1.307  14.201 -0.8175  0.2049  0.2220
    3TMC2    O113857   4.315   0.980  13.706  0.1446 -0.4088  0.4352
    3TMC2    O213858   4.285   1.407  14.155  0.0976  0.5411  0.3007
    3TMC2    O513859   4.429   1.295  14.290 -0.4311  0.2134 -0.0003
    3TMC2    H513860   4.474   1.208  14.294 -0.4234  0.1743 -0.9963
    4MPD2     C13861   3.168   1.840  13.418 -0.7925  0.0746 -0.3852
    4MPD2    C113862   3.223   1.944  13.339  0.0150 -0.0136  0.0517
    4MPD2    C213863   3.367   1.949  13.328 -0.9157 -0.4557  0.3623
    4MPD2    C313864   3.446   1.849  13.380 -0.1641 -0.2722 -0.3687
    4MPD2    C413865   3.384   1.748  13.453 -0.7960  0.1212  0.1852
    4MPD2    C513866   3.251   1.745  13.472  0.0590  0.6520  0.7827
    4MPD2     H13867   3.417   2.023  13.267 -0.2466  0.1614  1.6398
    4MPD2    H113868   3.437   1.686  13.525  0.3326 -1.0803 -1.6744
    4MPD2    H213869   3.063   1.845  13.447 -0.7620 -0.4803 -0.1764
    4MPD2    H313870   3.210   1.672  13.541  1.4792 -1.0605 -0.1760
    4MPD2     N13871   3.583   1.854  13.365 -0.0203 -0.1152 -0.6757
    4MPD2    H513872   3.619   1.928  13.306  0.1825  0.0287 -0.3631
    4MPD2    N113873   3.132   2.040  13.281  0.0654  0.2583 -0.2863
    4MPD2    H713874   3.039   2.040  13.322  0.4464  1.4039  0.5761
    5TCq2    C113875   3.671   1.758  13.413 -0.1868 -0.2658 -0.2947
    5TCq2    O213876   3.648   1.658  13.478  0.5309 -0.3572  0.1820
    5TCq2    C213877   3.812   1.809  13.404  0.1381 -0.0025 -0.6338
    5TCq2    C313878   3.848   1.934  13.369 -0.1848 -0.1745  0.1590
    5TCq2    C413879   3.982   1.968  13.380  0.0400  0.2193  0.1225
    5TCq2    C513880   4.076   1.873  13.417  0.1373  0.6456  0.2719
    5TCq2    C613881   4.038   1.742  13.410  0.3444  0.3001  0.4740
    5TCq2    C713882   3.905   1.706  13.410  0.6114  0.3947 -0.0908
    5TCq2    C813883   4.122   1.639  13.467  0.1521  0.3031  0.0328
    5TCq2    O413884   4.218   1.662  13.536 -0.3419 -0.0746 -0.2417
    5TCq2    C913885   4.014   2.108  13.383 -0.2841  0.2171 -0.6491
    5TCq2    O513886   4.134   2.133  13.418 -0.5929  0.1668  0.0712
    5TCq2    O613887   3.919   2.188  13.383 -0.4851 -0.7446  0.3337
    5TCq2    H213888   3.778   2.011  13.338  0.5425  0.3269 -0.2262
    5TCq2    H313889   4.181   1.894  13.432 -0.0398  1.5024  0.2962
    5TCq2    H413890   3.872   1.609  13.446  0.2842 -0.0154 -1.4781
    6MPD1     C13891   2.196   3.784  13.328  0.1519  0.0683  0.0789
    6MPD1    C113892   2.129   3.663  13.358  0.1786 -0.4288  0.0734
    6MPD1    C213893   2.209   3.549  13.355  0.0099 -0.0061 -0.1950
    6MPD1    C313894   2.348   3.554  13.369  0.0668 -0.6212  0.2920
    6MPD1    C413895   2.409   3.681  13.357  0.2744  0.0947  0.2734
    6MPD1    C513896   2.330   3.793  13.327  0.1164  0.8478  0.1586
    6MPD1     H13897   2.156   3.455  13.360  2.4612 -1.3571  0.2907
    6MPD1    H113898   2.517   3.693  13.355  0.2387  0.6084  1.2427
    6MPD1    H213899   2.140   3.874  13.305 -2.9380 -1.2133  2.7848
    6MPD1    H313900   2.377   3.890  13.335 -0.3313  1.2149 -1.8510
    6MPD1     N13901   2.429   3.445  13.396  0.2070  0.8103  0.3365
    6MPD1    H513902   2.526   3.470  13.410  0.7472 -1.1338  0.1233
    6MPD1    N113903   1.989   3.655  13.353  0.2598  0.4057 -0.0953
    6MPD1    H613904   1.947   3.743  13.381  0.5374 -0.1302  1.9775
    6MPD1    H713905   1.956   3.581  13.414  1.4334  0.4420  0.5886
    7MPD2     C13906   2.699   2.641  13.680  0.6619 -0.0201 -0.2689
    7MPD2    C113907   2.662   2.668  13.551 -0.4930 -0.0789 -0.4902
    7MPD2    C213908   2.686   2.570  13.456  0.0208 -0.3655 -0.1336
    7MPD2    C313909   2.752   2.455  13.484 -0.2933  0.2973 -0.8802
    7MPD2    C413910   2.782   2.424  13.617 -0.1937 -0.2474 -0.5432
    7MPD2    C513911   2.756   2.523  13.709  0.0100  0.1366  0.7710
    7MPD2     H13912   2.658   2.593  13.354 -1.8247 -2.6363 -0.1168
    7MPD2    H113913   2.828   2.332  13.652  0.4233  0.4389  0.4383
    7MPD2    H213914   2.680   2.716  13.756 -0.5092 -1.8761  1.2656
    7MPD2    H313915   2.768   2.495  13.813  2.3251 -1.4144  0.0917
    7MPD2     N13916   2.780   2.359  13.385 -1.0037  0.7248 -0.1065
    7MPD2    H513917   2.825   2.274  13.418 -0.6821  0.2473 -1.7714
    7MPD2    N113918   2.609   2.792  13.507  0.2909  0.7545 -0.0006
    7MPD2    H713919   2.599   2.798  13.406  0.0381  0.6501  0.0184
    8TMC3    C113920   2.821   2.272  13.173  0.1148  0.5855  0.4092
    8TMC3    C213921   2.938   2.219  13.229  0.8840 -0.3279  0.2477
    8TMC3    C313922   3.055   2.220  13.158  0.4070  0.4183 -0.1576
    8TMC3    C413923   2.819   2.312  13.042  0.4229  0.0634  0.4520
    8TMC3    C513924   2.936   2.317  12.979  0.2416 -0.5430  0.0125
    8TMC3    C613925   3.056   2.276  13.037 -0.4160 -0.4814 -0.6132
    8TMC3     C13926   2.756   2.375  13.253 -0.5459 -0.4814  0.1339
    8TMC3     O13927   2.713   2.470  13.190  0.9234  0.5287  1.2054
    8TMC3     H13928   2.932   2.181  13.331  3.0687 -1.9601 -0.2321
    8TMC3    H113929   2.736   2.351  12.985  1.7285  1.1737 -0.6793
    8TMC3    H213930   3.152   2.287  12.989  0.4591 -0.9235  1.0314
    8TMC3    C713931   2.958   2.453  12.924 -0.6417 -0.0264  0.4610
    8TMC3    C813932   3.166   2.129  13.186  0.4777  1.1080 -0.3197
    8TMC3    O113933   3.050   2.475  12.847  0.5161  0.4909  0.0946
    8TMC3    O213934   3.274   2.142  13.127 -0.0677  0.2683  0.2445
    9TMC3    C113935   2.505   3.222  13.415  0.1255  0.1097 -0.8129
    9TMC3    C213936   2.584   3.228  13.307 -0.2028  1.0072  0.7071
    9TMC3    C313937   2.670   3.128  13.294 -0.7654 -0.4170 -0.0108
    9TMC3    C413938   2.498   3.119  13.504  0.1984 -0.6338  0.7719
    9TMC3    C513939   2.595   3.018  13.493  0.1453 -0.4185 -0.2652
    9TMC3    C613940   2.678   3.024  13.389  0.0064  0.4979 -0.0169
    9TMC3     C13941   2.392   3.310  13.426 -0.0530  0.4987  0.1406
    9TMC3     O13942   2.286   3.260  13.449 -0.0231 -0.0618 -0.3947
    9TMC3     H13943   2.586   3.303  13.229  0.6040 -1.0977 -1.3080
    9TMC3    H113944   2.430   3.107  13.588 -1.8724 -1.6894 -1.0724
    9TMC3    H213945   2.763   2.956  13.386  1.8252  2.7569 -0.2762
    9TMC3    C713946   2.586   2.901  13.579  0.2112 -0.2770  0.3433
    9TMC3    C813947   2.719   3.106  13.160 -0.0201 -0.2201  0.0539
    9TMC3    O113948   2.591   2.921  13.698 -0.5824  0.4005 -0.1902
    9TMC3    O213949   2.767   3.198  13.095 -0.3256  0.9685 -0.1551
   10MPD2     C13950   2.958   2.751  12.878  0.1483  0.0775 -0.0188
   10MPD2    C113951   2.881   2.687  12.977  0.3798  0.0707 -0.3984
   10MPD2    C213952   2.796   2.765  13.051  0.0039  0.3573 -0.1435
   10MPD2    C313953   2.808   2.906  13.046  0.0318  0.5673 -0.7516
   10MPD2    C413954   2.909   2.969  12.970  0.5152 -0.3783 -0.4645
   10MPD2    C513955   2.980   2.884  12.886  0.6288 -0.5321 -0.1669
   10MPD2     H13956   2.730   2.707  13.115  1.3433 -0.2261  0.7169
   10MPD2    H113957   2.929   3.075  12.976  0.1988 -0.1897 -2.5822
   10MPD2    H213958   3.034   2.706  12.816  0.7977  0.2107  0.6807
   10MPD2    H313959   3.059   2.925  12.823 -0.2715  0.1026 -0.8797
   10MPD2     N13960   2.718   2.970  13.129  0.0951 -0.5265  0.1452
   10MPD2    H513961   2.654   2.909  13.178  0.5195 -0.4695  0.7708
   10MPD2    N113962   2.882   2.549  12.987 -0.1462 -0.0230  0.6400
   10MPD2    H713963   2.815   2.513  13.055 -1.9366  1.2603 -0.4464
   11MPD2     C13964   4.264   1.144  13.473 -0.0759 -0.5118 -0.4135
   11MPD2    C113965   4.254   1.236  13.580 -0.6997 -0.0939 -0.0123
   11MPD2    C213966   4.216   1.368  13.553  0.8312  0.0378  0.2120
   11MPD2    C313967   4.160   1.396  13.428 -0.3278 -0.4221 -0.2740
   11MPD2    C413968   4.161   1.301  13.327  0.1605 -0.1307 -0.3596
   11MPD2    C513969   4.226   1.179  13.349 -0.1130 -1.1754 -0.4523
   11MPD2     H13970   4.220   1.444  13.630  0.3007  0.4908 -0.2079
   11MPD2    H113971   4.113   1.326  13.233  1.0278  1.4786 -0.3819
   11MPD2    H213972   4.310   1.046  13.480 -0.0058 -0.4443  0.1172
   11MPD2    H313973   4.224   1.108  13.267 -0.7602  0.6752 -2.0475
   11MPD2     N13974   4.100   1.522  13.395  0.4051  0.5386 -0.0006
   11MPD2    H513975   4.047   1.538  13.310  0.9869 -0.6836 -0.5909
   11MPD2    N113976   4.295   1.213  13.714 -0.0127  0.1522  0.1041
   11MPD2    H713977   4.285   1.289  13.779  1.6488 -0.1042  0.6519
    1MPD1     C13978   1.025   2.088  16.907  0.2672 -0.3062 -0.4669
    1MPD1    C113979   1.150   2.043  16.962 -0.1193  0.0926 -1.3075
    1MPD1    C213980   1.242   2.148  16.976  0.0162  0.1451  0.1657
    1MPD1    C313981   1.202   2.282  16.952 -0.3038  0.4897 -0.2074
    1MPD1    C413982   1.073   2.311  16.922  0.2545  0.3986 -0.2976
    1MPD1    C513983   0.984   2.209  16.895  0.5095  0.0384 -0.2638
    1MPD1     H13984   1.346   2.125  16.998 -0.2931 -1.3847  0.0369
    1MPD1    H113985   1.050   2.416  16.914  3.0151  0.9128 -1.4402
    1MPD1    H213986   0.952   2.009  16.889  0.4177 -1.0656  2.1964
    1MPD1    H313987   0.884   2.231  16.860 -0.6074 -1.8900  1.7971
    1MPD1     N13988   1.297   2.387  16.965 -0.6166 -0.6216 -0.4753
    1MPD1    H513989   1.272   2.481  16.936 -0.2800 -0.7930 -1.3252
    1MPD1    N113990   1.187   1.909  16.980  0.5158 -0.1000 -0.2272
    1MPD1    H613991   1.108   1.857  17.019 -0.4692  2.6586  1.4504
    1MPD1    H713992   1.253   1.907  17.057  1.1780 -0.5501 -0.7941
    2MPD1     C13993   2.034   2.738  17.564 -0.2699  0.2301 -0.0508
    2MPD1    C113994   2.047   2.604  17.526 -0.0072  0.1698 -0.6222
    2MPD1    C213995   1.987   2.563  17.409 -0.7119 -0.0795  0.1408
    2MPD1    C313996   1.906   2.643  17.329 -0.0749  0.6796  0.6887
    2MPD1    C413997   1.881   2.774  17.373 -0.1229  0.3265 -0.1651
    2MPD1    C513998   1.949   2.815  17.486  0.4952 -0.2783 -0.2540
    2MPD1     H13999   2.003   2.458  17.388 -0.2257 -0.3727  1.9922
    2MPD1    H114000   1.818   2.841  17.315  0.0766  0.5652 -0.1063
    2MPD1    H214001   2.083   2.778  17.651  0.5598 -0.3302 -0.2631
    2MPD1    H314002   1.943   2.921  17.507 -0.7093 -0.9939  2.9836
    2MPD1     N14003   1.846   2.593  17.208  0.6479 -0.3831  0.1369
    2MPD1    H514004   1.855   2.493  17.196  1.0921 -0.1762 -1.2474
    2MPD1    N114005   2.151   2.533  17.591 -0.6727  0.1846 -0.2014
    2MPD1    H614006   2.166   2.438  17.556  0.7110 -0.3178  1.7875
    2MPD1    H714007   2.136   2.543  17.691 -0.3181 -0.0817 -0.1240
    3TMC3    C114008   1.711   2.600  17.015  0.2362  0.6155  0.4677
    3TMC3    C214009   1.703   2.657  16.891  0.5042  0.2419 -0.3277
    3TMC3    C314010   1.594   2.622  16.812  0.2745  0.0125 -0.4472
    3TMC3    C414011   1.613   2.515  17.065 -0.0332 -0.4063  0.5519
    3TMC3    C514012   1.504   2.490  16.985 -0.4790  0.4132 -0.8571
    3TMC3    C614013   1.493   2.536  16.852 -0.7710  0.2051  0.1559
    3TMC3     C14014   1.781   2.678  17.113  0.5171  0.1321 -0.4159
    3TMC3     O14015   1.801   2.797  17.089 -0.3030  0.1883 -0.2941
    3TMC3     H14016   1.775   2.731  16.860  0.6125 -0.5747 -1.9787
    3TMC3    H114017   1.604   2.486  17.169 -3.1516  1.1544  0.7261
    3TMC3    H214018   1.409   2.513  16.788  0.1632  0.4579 -1.1694
    3TMC3    C714019   1.422   2.379  17.028  0.0599  0.2139  0.1007
    3TMC3    C814020   1.584   2.678  16.678  0.3716  0.0699 -0.3169
    3TMC3    O114021   1.459   2.305  17.115 -0.0403 -0.2961 -0.0114
    3TMC3    O214022   1.470   2.668  16.631 -0.3051 -0.1726 -0.3555
    4MPD1     C14023   1.758   2.849  16.232 -0.1738  0.1919 -0.3100
    4MPD1    C114024   1.865   2.838  16.318 -0.6608 -0.0852  1.1838
    4MPD1    C214025   1.842   2.810  16.451 -0.3527 -0.6870 -0.1261
    4MPD1    C314026   1.718   2.773  16.497 -0.3740  0.7659  0.2675
    4MPD1    C414027   1.615   2.777  16.408  0.0898 -0.6664  0.2930
    4MPD1    C514028   1.637   2.815  16.278 -0.6973  0.1326  0.2448
    4MPD1     H14029   1.919   2.815  16.527  0.8457  0.7316 -1.4437
    4MPD1    H114030   1.513   2.750  16.435 -0.6766  1.8129 -0.1659
    4MPD1    H214031   1.763   2.883  16.130  2.1425  0.8266  0.0250
    4MPD1    H314032   1.550   2.830  16.215 -0.3174  0.0567 -0.2937
    4MPD1     N14033   1.702   2.720  16.627  0.0645  0.2439 -0.0349
    4MPD1    H514034   1.782   2.701  16.686 -0.6993  0.5942  1.1177
    4MPD1    N114035   1.991   2.853  16.262  0.1972 -0.3877 -0.1215
    4MPD1    H614036   2.005   2.812  16.170  0.7247 -1.5749  0.4869
    4MPD1    H714037   2.071   2.834  16.323  0.3064 -1.3939 -0.5693
    1TCq1    O114038   3.197   2.629  12.675 -0.1212 -0.1036 -0.0567
    1TCq1    C114039   3.265   2.591  12.563 -0.5202  0.4773 -0.3137
    1TCq1    O214040   3.275   2.666  12.467  0.7814  0.2420 -0.0267
    1TCq1    C214041   3.204   2.460  12.538 -0.1291 -0.4954  0.5715
    1TCq1    C314042   3.231   2.359  12.625 -0.4698 -0.6196 -0.7209
    1TCq1    C414043   3.144   2.253  12.629 -0.7601  0.3781  0.4487
    1TCq1    C514044   3.061   2.232  12.526 -0.5968  0.4969 -1.0661
    1TCq1    C614045   3.043   2.331  12.431 -0.4253 -0.5291  0.2630
    1TCq1    C714046   3.107   2.448  12.444 -0.1957  0.0372 -0.0873
    1TCq1    C814047   2.912   2.333  12.376 -0.1866  0.2583 -0.6154
    1TCq1    O414048   2.829   2.247  12.412  0.2084  0.7330 -0.5575
    1TCq1    C914049   3.186   2.145  12.707  0.1256  0.6211 -0.6875
    1TCq1    O514050   3.115   2.036  12.708  0.1119  0.1218 -0.2581
    1TCq1    O614051   3.309   2.145  12.739 -0.1897  0.4204 -0.5589
    1TCq1    H114052   3.168   2.550  12.725  1.3128 -0.3013  0.4552
    1TCq1    H214053   3.292   2.375  12.712 -1.7226  0.5907 -0.0715
    1TCq1    H314054   3.011   2.137  12.516 -1.5240  0.9690 -0.9067
    1TCq1    H414055   3.068   2.534  12.391  0.3426  0.2415 -0.1548
    2MPD1     C14056   2.565   2.541  12.057  0.4333 -0.1655 -0.2984
    2MPD1    C114057   2.679   2.623  12.063 -0.4413 -0.6148 -0.5714
    2MPD1    C214058   2.789   2.573  12.126 -0.1158 -0.5846  0.3405
    2MPD1    C314059   2.787   2.458  12.203  0.4390 -0.5537 -0.2425
    2MPD1    C414060   2.675   2.381  12.193 -0.4850  0.5946 -0.6468
    2MPD1    C514061   2.560   2.430  12.132 -0.5058 -0.2360  0.1173
    2MPD1     H14062   2.882   2.629  12.121 -0.6704  0.4224  1.5031
    2MPD1    H114063   2.662   2.286  12.244 -0.5738  0.7954 -0.2932
    2MPD1    H214064   2.482   2.589  12.006  0.5467  0.6442  0.2841
    2MPD1    H314065   2.463   2.381  12.139 -0.7737  0.2379 -0.3439
    2MPD1     N14066   2.908   2.417  12.269  0.2922  0.1864 -0.0972
    2MPD1    H514067   2.989   2.470  12.239  0.6403 -0.6657 -0.6538
    2MPD1    N114068   2.692   2.740  11.987  1.0885 -0.5201 -0.2880
    2MPD1    H614069   2.598   2.774  11.970  1.3316  0.1322 -0.3204
    2MPD1    H714070   2.754   2.810  12.027  1.0844  0.0569 -1.2799
    1TCq1    O114071   3.317   1.706  17.483  0.4587 -0.1430 -0.5374
    1TCq1    C114072   3.268   1.809  17.553  0.7163  0.2141 -0.7016
    1TCq1    O214073   3.341   1.907  17.587  0.1154 -0.1710  0.2834
    1TCq1    C214074   3.192   1.741  17.654  0.4438  0.4384  0.1319
    1TCq1    C314075   3.081   1.662  17.637  0.2511  0.1914 -0.4244
    1TCq1    C414076   3.036   1.597   0.052 -0.3363 -0.3167  0.4952
    1TCq1    C514077   3.083   1.623   0.175 -0.5322 -0.1706  0.1829
    1TCq1    C614078   3.196   1.702   0.180 -0.9946  0.4118 -0.6167
    1TCq1    C714079   3.237   1.776   0.079 -0.2803  0.4625  0.3943
    1TCq1    C814080   3.251   1.737   0.308  0.6639 -0.3698  0.3195
    1TCq1    O414081   3.341   1.817   0.314 -0.8133  0.4499 -0.4539
    1TCq1    C914082   2.918   1.513   0.041  0.3216 -0.6715 -0.1940
    1TCq1    O514083   2.879   1.462   0.149 -0.0212  0.0140 -0.6237
    1TCq1    O614084   2.862   1.507  17.630  0.8410  0.2671 -0.0811
    1TCq1    H114085   3.250   1.641  17.453  0.2461 -1.0115  1.8055
    1TCq1    H214086   3.051   1.632  17.537  0.3743 -2.3822  0.3130
    1TCq1    H314087   3.028   1.574   0.254 -1.4703 -1.4241 -1.2391
    1TCq1    H414088   3.331   1.828   0.098 -0.9906  1.5386  0.9900
    2MPD1     C14089   3.230   1.711   0.833  0.1848  0.1527 -0.2950
    2MPD1    C114090   3.121   1.644   0.783  0.3966 -0.0554 -0.2582
    2MPD1    C214091   3.105   1.645   0.644  0.8779  0.3127 -0.6891
    2MPD1    C314092   3.199   1.700   0.555 -0.0097 -0.0093  0.5406
    2MPD1    C414093   3.311   1.746   0.608  0.6472 -0.0388 -0.0732
    2MPD1    C514094   3.325   1.755   0.746 -0.7458  0.5804  0.3240
    2MPD1     H14095   3.020   1.596   0.599  0.0901 -0.6677  1.8687
    2MPD1    H114096   3.396   1.784   0.553  1.3476 -1.3646  0.0952
    2MPD1    H214097   3.249   1.735   0.937 -1.9038  0.3038  0.0470
    2MPD1    H314098   3.421   1.791   0.782 -1.8681  3.4455  0.4564
    2MPD1     N14099   3.175   1.689   0.411  0.3293  0.5813  0.0590
    2MPD1    H514100   3.090   1.638   0.387  1.2233 -0.1672 -1.5224
    2MPD1    N114101   3.016   1.607   0.869  0.6234  0.3282  0.1664
    2MPD1    H614102   2.977   1.523   0.826  0.0643  1.1593 -0.9306
    2MPD1    H714103   3.037   1.584   0.966  0.1960 -0.4008  0.0874
    1MPD1     C14104   4.582   1.712  12.272  0.5634  0.4590  0.6831
    1MPD1    C114105   4.532   1.817  12.353  0.5475  0.0046  0.0972
    1MPD1    C214106   4.541   1.943  12.314 -0.5120  0.3756 -0.0273
    1MPD1    C314107   4.609   1.976  12.198 -0.1211 -0.4840  0.2381
    1MPD1    C414108   4.665   1.873  12.127 -0.3494 -0.7258  0.2347
    1MPD1    C514109   4.663   1.745  12.167 -0.0733 -0.2441  0.1708
    1MPD1     H14110   4.513   2.024  12.381 -1.3281  0.0408  0.0366
    1MPD1    H114111   0.005   1.883  12.041 -1.5286 -2.0240 -0.7921
    1MPD1    H214112   4.576   1.610  12.309  0.3788  0.1520 -0.1933
    1MPD1    H314113   4.707   1.664  12.110 -1.3702 -0.9394  0.1565
    1MPD1     N14114   4.635   2.114  12.164  0.4174  0.1699 -0.0963
    1MPD1    H514115   4.603   2.188  12.227 -1.4645 -1.6658  1.0803
    1MPD1    N114116   4.451   1.783  12.467  0.1352  0.0586 -0.4728
    1MPD1    H614117   4.446   1.855  12.540  0.4407  2.3093 -2.6739
    1MPD1    H714118   4.470   1.687  12.496 -0.1585 -0.3252 -1.5777
    2MPD1     C14119   3.494   3.057  11.303  0.8029 -0.4511 -0.4729
    2MPD1    C114120   3.627   3.025  11.309  0.1382 -0.5068  0.7577
    2MPD1    C214121   3.662   2.899  11.269 -0.1575 -0.8097  0.4439
    2MPD1    C314122   3.569   2.810  11.210  0.2287  0.4838 -0.6865
    2MPD1    C414123   3.434   2.846  11.211 -0.0764 -0.3754 -0.3930
    2MPD1    C514124   3.401   2.968  11.263  0.3344 -0.2875 -0.7998
    2MPD1     H14125   3.765   2.868  11.268 -1.1857 -4.1861  0.0168
    2MPD1    H114126   3.345   2.786  11.197  0.1574 -1.1086  1.2808
    2MPD1    H214127   3.463   3.156  11.332  2.2427  0.4982 -2.1734
    2MPD1    H314128   3.296   2.993  11.268  0.3328 -1.1534  3.2086
    2MPD1     N14129   3.602   2.682  11.150 -0.0099 -0.0080 -0.0989
    2MPD1    H514130   3.519   2.639  11.111  1.4720 -0.9918 -2.1456
    2MPD1    N114131   3.723   3.099  11.375 -0.5533 -1.1622  0.0992
    2MPD1    H614132   3.820   3.080  11.348 -0.1552  1.3596 -0.2608
    2MPD1    H714133   3.701   3.198  11.363 -1.5874 -1.2825  1.0353
    3MPD1     C14134   3.008   2.187  10.797  0.0563 -0.2817  0.8940
    3MPD1    C114135   3.020   2.322  10.834 -0.3166 -0.6536 -0.1459
    3MPD1    C214136   3.147   2.372  10.842  0.1133 -0.3087  0.1603
    3MPD1    C314137   3.262   2.295  10.831  0.9161 -0.2414  0.9252
    3MPD1    C414138   3.246   2.156  10.805  0.1567 -0.3052  0.0232
    3MPD1    C514139   3.116   2.105  10.783  0.1660  0.1960  0.3228
    3MPD1     H14140   3.155   2.477  10.869 -0.2929  0.6199 -3.3176
    3MPD1    H114141   3.325   2.082  10.813 -0.3378 -0.8889 -0.4008
    3MPD1    H214142   2.908   2.148  10.782 -0.2857  0.2318  1.8632
    3MPD1    H314143   3.095   1.999  10.782 -4.0462  1.0675 -2.9811
    3MPD1     N14144   3.388   2.356  10.856 -0.2077  0.5051  0.1929
    3MPD1    H514145   3.390   2.454  10.885 -0.0380  0.7901 -0.7946
    3MPD1    N114146   2.913   2.407  10.823  0.3833  0.4265 -0.0834
    3MPD1    H614147   2.919   2.475  10.899  0.6176 -2.4862  2.5010
    3MPD1    H714148   2.823   2.361  10.830 -0.0003  1.3381  1.0881
    4MPD2     C14149   4.377   2.734  11.843 -0.7333  0.1675 -0.2833
    4MPD2    C114150   4.515   2.718  11.825  0.0377 -0.6303  0.3075
    4MPD2    C214151   4.578   2.761  11.711  0.3814  0.0327 -0.7621
    4MPD2    C314152   4.496   2.809  11.606  0.0315  0.3239  0.1243
    4MPD2    C414153   4.360   2.818  11.627 -0.5510  0.8305  0.4713
    4MPD2    C514154   4.301   2.797  11.748 -0.2651  0.6512  0.6320
    4MPD2     H14155   4.685   2.757  11.697  0.2416 -1.8464 -1.2825
    4MPD2    H114156   4.294   2.852  11.548  1.1370  1.0074 -0.8729
    4MPD2    H214157   4.327   2.710  11.936  0.0613  2.8990  0.8676
    4MPD2    H314158   4.196   2.809  11.769 -0.6643 -0.4034 -0.7227
    4MPD2     N14159   4.534   2.854  11.474 -0.2382 -0.3283 -0.1761
    4MPD2    H514160   4.463   2.880  11.406 -0.8825  1.1166  1.0590
    4MPD2    N114161   4.598   2.655  11.921  0.1661  0.2188 -0.2182
    4MPD2    H714162   4.693   2.637  11.891  0.1381 -0.7364  0.2658
    5TMC3    C114163   4.671   2.508  12.079  0.5182  0.8487 -0.3416
    5TMC3    C214164   4.634   2.378  12.099 -0.3370  0.2653  0.5864
    5TMC3    C314165   0.015   2.296  12.057  0.1213 -0.0329 -0.4233
    5TMC3    C414166   0.065   2.552  12.035  1.1210 -0.5121 -0.2824
    5TMC3    C514167   0.161   2.465  11.992  0.7758  0.2998  0.5061
    5TMC3    C614168   0.134   2.334  12.001  0.2755 -0.2860 -0.6513
    5TMC3     C14169   4.564   2.594  12.036  0.1413 -0.0216  0.0330
    5TMC3     O14170   4.453   2.563  12.075  0.2470 -0.1870  0.7307
    5TMC3     H14171   4.534   2.345  12.125 -0.4909  0.7069  0.5570
    5TMC3    H114172   0.087   2.657  12.045  1.5091 -0.6072 -0.1205
    5TMC3    H214173   0.207   2.257  11.977  0.1534 -0.8435  0.7278
    5TMC3    C714174   0.191   2.515  11.869  0.0076 -0.9360 -0.5756
    5TMC3    C814175   4.715   2.155  12.058 -0.1749 -0.5096  0.2541
    5TMC3    O114176   0.109   2.591  11.814 -0.5506  0.2310 -0.3077
    5TMC3    O214177   0.033   2.087  11.967  0.0563  0.6239 -0.0165
    6TMC3    C114178   3.732   2.510  11.033  0.1218 -0.8045 -0.0511
    6TMC3    C214179   3.611   2.456  10.987 -1.4166 -0.1832 -0.2875
    6TMC3    C314180   3.620   2.374  10.876 -0.6014 -0.2148  0.4185
    6TMC3    C414181   3.853   2.483  10.981 -0.5163  0.9921 -0.5256
    6TMC3    C514182   3.859   2.402  10.878 -0.1531  0.2222 -0.2402
    6TMC3    C614183   3.743   2.354  10.826  0.8422 -0.0467  0.1634
    6TMC3     C14184   3.729   2.631  11.132  0.6398  0.1062 -0.2864
    6TMC3     O14185   3.841   2.675  11.166  0.5279  0.5536  0.0870
    6TMC3     H14186   3.522   2.465  11.048 -1.5593  0.8533 -0.6574
    6TMC3    H114187   3.937   2.538  11.021 -0.2388  1.6101 -1.9705
    6TMC3    H214188   3.750   2.305  10.730  0.5500 -1.5699  0.9100
    6TMC3    C714189   3.986   2.386  10.798 -0.9295 -0.0807  0.3771
    6TMC3    C814190   3.509   2.305  10.816  0.6443  0.8244  0.0655
    6TMC3    O114191   3.986   2.305  10.709 -0.3684 -0.5625 -0.5591
    6TMC3    O214192   3.544   2.201  10.757 -0.1221 -0.0623  0.9551
    7MPD2     C14193   0.389   2.461  11.385  0.1450 -0.4010 -0.7810
    7MPD2    C114194   0.292   2.542  11.440 -0.1877 -0.3362  0.0366
    7MPD2    C214195   0.263   2.545  11.577  0.1482  0.2419 -0.1777
    7MPD2    C314196   0.325   2.461  11.663  0.0181 -0.0683  0.6206
    7MPD2    C414197   0.427   2.389  11.609  0.4943 -0.4240  0.1095
    7MPD2    C514198   0.470   2.394  11.474  0.5493 -0.2503 -0.7363
    7MPD2     H14199   0.196   2.623  11.611 -0.4413 -0.2876 -0.1278
    7MPD2    H114200   0.478   2.317  11.672  0.3384  1.7923  2.7760
    7MPD2    H214201   0.414   2.458  11.280  1.6227 -2.1053 -0.3606
    7MPD2    H314202   0.549   2.329  11.437  0.9388 -1.0694  1.5375
    7MPD2     N14203   0.296   2.450  11.804 -0.1499 -0.0392 -0.5796
    7MPD2    H514204   0.339   2.380  11.863 -2.5802 -0.2757  0.9237
    7MPD2    N114205   0.226   2.635  11.359 -0.2751  0.3161 -0.1356
    7MPD2    H714206   0.162   2.699  11.404 -0.4265 -0.3223  0.5659
    8TMC3    C114207   0.132   2.737  11.174  0.4392 -0.1733 -0.0882
    8TMC3    C214208   0.033   2.684  11.092  0.6601 -0.8166  0.3607
    8TMC3    C314209   4.625   2.713  11.114 -0.7996 -0.4031 -0.0577
    8TMC3    C414210   0.102   2.832  11.269  0.4809  0.1430 -0.5735
    8TMC3    C514211   4.694   2.853  11.298 -0.5559 -1.0801  0.5604
    8TMC3    C614212   4.589   2.796  11.217 -0.8830  0.9153  0.8773
    8TMC3     C14213   0.223   2.633  11.225 -0.3539  0.4856  0.3921
    8TMC3     O14214   0.266   2.561  11.136 -0.0353 -0.2285  0.1393
    8TMC3     H14215   0.048   2.602  11.023 -0.1156 -1.3605  0.8384
    8TMC3    H114216   0.188   2.871  11.322 -0.6892 -2.1919  3.0806
    8TMC3    H214217   4.486   2.815  11.245 -1.1553 -1.2035  1.3714
    8TMC3    C714218   4.666   2.856  11.437  0.6420  0.1120  0.4021
    8TMC3    C814219   4.520   2.633  11.057  0.0414 -0.2488  0.3260
    8TMC3    O114220   0.045   2.827  11.503 -0.2892  0.3653 -0.2331
    8TMC3    O214221   4.419   2.619  11.126  0.2561  0.2199 -0.5823
    9MPD2     C14222   4.504   2.433  10.747 -0.2581 -0.1538 -0.6221
    9MPD2    C114223   4.459   2.505  10.858  0.7337  0.0002 -0.3006
    9MPD2    C214224   4.328   2.512  10.880  0.2162 -0.1822 -0.2009
    9MPD2    C314225   4.234   2.444  10.807  0.2264 -0.2830 -0.3287
    9MPD2    C414226   4.275   2.370  10.704 -0.1241  0.4094  0.1748
    9MPD2    C514227   4.408   2.368  10.669 -0.2556 -0.1256 -0.1333
    9MPD2     H14228   4.295   2.573  10.963 -0.3575 -0.1499 -0.4519
    9MPD2    H114229   4.207   2.315  10.639  0.3783 -0.5170  0.4305
    9MPD2    H214230   4.610   2.428  10.724  0.1684 -1.6477  1.6489
    9MPD2    H314231   4.443   2.291  10.601 -0.7060 -0.6147  0.1870
    9MPD2     N14232   4.098   2.466  10.844  0.1397 -0.0681 -0.0388
    9MPD2    H514233   4.080   2.541  10.910  1.6142 -0.4921  0.8405
    9MPD2    N114234   4.552   2.562  10.940 -0.2933  0.1725 -0.1884
    9MPD2    H714235   4.646   2.552  10.902  1.0547  0.1036  3.1476
    1MPD1     C14236   0.511   1.591   0.418 -0.1752  0.6384 -0.2108
    1MPD1    C114237   0.379   1.577   0.407  0.5597  0.4247  0.4240
    1MPD1    C214238   0.319   1.617   0.282  0.5705  0.3149  0.7737
    1MPD1    C314239   0.402   1.671   0.182 -0.8073  0.0285 -0.4716
    1MPD1    C414240   0.533   1.690   0.204 -0.6918 -0.6764 -0.6698
    1MPD1    C514241   0.596   1.643   0.316 -0.0147  0.2141  0.3560
    1MPD1     H14242   0.211   1.625   0.274  0.6005 -0.4444 -0.2540
    1MPD1    H114243   0.593   1.733   0.125 -0.8973 -1.8180 -1.4489
    1MPD1    H214244   0.554   1.578   0.517  2.0219  3.0184 -0.8529
    1MPD1    H314245   0.701   1.669   0.322  0.2227 -0.4490 -0.8179
    1MPD1     N14246   0.348   1.726   0.060 -0.1433 -0.5417 -0.0261
    1MPD1    H514247   0.420   1.738  17.689 -0.9568 -3.1611 -1.2748
    1MPD1    N114248   0.299   1.530   0.511  0.1000  0.4407 -0.0734
    1MPD1    H614249   0.353   1.473   0.575 -1.2565 -0.8381 -0.0734
    1MPD1    H714250   0.221   1.481   0.467  1.8358 -2.0030 -0.4109
    2MPD1     C14251   4.281   2.008  17.046 -0.0200  0.5473  0.6592
    2MPD1    C114252   4.321   2.116  17.119 -0.4778 -0.5854 -0.3775
    2MPD1    C214253   4.415   2.098  17.215  0.1513  0.3877 -0.4034
    2MPD1    C314254   4.457   1.967  17.246  0.1250 -0.4685 -0.6290
    2MPD1    C414255   4.409   1.857  17.181 -0.1091  0.1191 -0.2322
    2MPD1    C514256   4.317   1.879  17.079 -0.0008 -0.4665 -0.2768
    2MPD1     H14257   4.462   2.184  17.262 -0.7004  0.0685  1.0350
    2MPD1    H114258   4.446   1.756  17.193 -1.1158 -0.1327  0.7294
    2MPD1    H214259   4.204   2.020  16.970  0.8740 -0.3967 -0.4111
    2MPD1    H314260   4.283   1.791  17.026  1.2652  0.4930 -2.6871
    2MPD1     N14261   4.570   1.954  17.332 -0.0976  0.1733 -0.0079
    2MPD1    H514262   4.597   2.045  17.368 -0.0952  0.0706  0.2481
    2MPD1    N114263   4.293   2.247  17.086 -0.0649  0.3881 -0.2527
    2MPD1    H614264   4.196   2.258  17.054  0.2422 -1.0219 -1.6711
    2MPD1    H714265   4.307   2.324  17.152  1.8104 -1.3921  1.4116
    3TCq2    C114266   4.638   1.841  17.370 -0.2351  0.2127 -1.0151
    3TCq2    O214267   4.618   1.720  17.353 -0.4877  0.6572  0.2750
    3TCq2    C214268   0.038   1.865  17.454  0.2481  0.4997  0.1805
    3TCq2    C314269   0.080   1.994  17.454 -0.0654  0.4789 -0.7471
    3TCq2    C414270   0.185   2.021  17.528 -0.6207 -0.0145 -0.3211
    3TCq2    C514271   0.243   1.923  17.603 -0.0138  0.7656  0.0308
    3TCq2    C614272   0.199   1.794  17.592  0.1573 -0.7095  0.0164
    3TCq2    C714273   0.081   1.761  17.533 -0.5700  0.4626 -0.9316
    3TCq2    C814274   0.221   1.732   0.017  0.3362  0.7937 -0.6164
    3TCq2    O414275   0.118   1.703   0.076 -0.2449 -0.5443 -0.2911
    3TCq2    C914276   0.229   2.159  17.529  0.6202 -0.2975 -0.2064
    3TCq2    O514277   0.214   2.230  17.429 -0.4279 -0.5753  0.0669
    3TCq2    O614278   0.285   2.201  17.631 -0.4325  0.6589  0.3364
    3TCq2    H214279   0.039   2.069  17.388  0.5437 -0.0685 -1.7465
    3TCq2    H314280   0.337   1.939  17.655 -0.2549  1.2877  0.3024
    3TCq2    H414281   0.031   1.666  17.548 -1.8144  1.0580 -1.3655
    1TCq1    O114282   2.527   0.049  12.316  0.2305  0.1949 -0.0328
    1TCq1    C114283   2.518   0.060  12.450  0.2632 -0.2348 -0.2470
    1TCq1    O214284   2.479   4.694  12.525 -0.1663 -0.0889 -0.1356
    1TCq1    C214285   2.509   0.200  12.492  0.2563 -0.2139 -0.0969
    1TCq1    C314286   2.612   0.282  12.457  0.5333  0.0047  0.2248
    1TCq1    C414287   2.625   0.396  12.532  0.0430  0.2300 -0.1743
    1TCq1    C514288   2.532   0.429  12.631 -0.1240 -0.2280  0.1309
    1TCq1    C614289   2.430   0.344  12.657 -0.4650  0.5618 -0.0099
    1TCq1    C714290   2.421   0.224  12.594 -0.3551 -0.2065  0.4269
    1TCq1    C814291   2.320   0.382  12.740 -0.1818 -0.3737 -0.3313
    1TCq1    O414292   2.213   0.329  12.713 -0.1029 -0.5525 -0.2269
    1TCq1    C914293   2.724   0.496  12.509  0.4341  0.5436 -0.2004
    1TCq1    O514294   2.749   0.578  12.600  0.3267  0.4635  0.4463
    1TCq1    O614295   2.806   0.475  12.416  0.1476 -0.3325 -0.1685
    1TCq1    H114296   2.513   0.138  12.277 -1.0306  0.5836  1.2937
    1TCq1    H214297   2.691   0.256  12.386  1.4265  2.2734  0.4037
    1TCq1    H314298   2.542   0.530  12.671  0.1578 -0.3493  0.3665
    1TCq1    H414299   2.333   0.162  12.606  0.2138 -1.1367 -0.1313
    2MPD2     C14300   2.129   0.505  12.939 -0.4003  0.2568 -0.3038
    2MPD2    C114301   2.264   0.532  12.934 -0.4809 -0.3521  0.0765
    2MPD2    C214302   2.314   0.624  13.015 -0.5265  0.2480 -0.4036
    2MPD2    C314303   2.238   0.694  13.107  0.1878  0.4505  0.4111
    2MPD2    C414304   2.109   0.657  13.119 -0.1670 -0.0218  0.6098
    2MPD2    C514305   2.054   0.561  13.036  0.7809  0.1114 -0.1641
    2MPD2     H14306   2.419   0.651  13.015 -0.8217  1.4098 -0.7903
    2MPD2    H114307   2.042   0.715  13.181  0.7020  0.8733  0.7114
    2MPD2    H214308   2.081   0.427  12.880 -0.9502 -0.5109  1.1590
    2MPD2    H314309   1.952   0.528  13.048  1.1779 -1.3889 -0.9691
    2MPD2     N14310   2.299   0.797  13.189  0.3482  0.1877 -0.0725
    2MPD2    H514311   2.397   0.812  13.167  0.5994 -1.9687 -0.4405
    2MPD2    N114312   2.357   0.465  12.844  0.5928 -0.0931 -0.2431
    2MPD2    H714313   2.455   0.482  12.864  0.4788 -0.6014  0.7277
    3TCq1    O114314   2.713   0.795  13.372  0.5959 -0.5326  0.3206
    3TCq1    C114315   2.718   0.923  13.410  0.1806  0.1045  0.5305
    3TCq1    O214316   2.818   0.990  13.422  0.1180 -0.2014  0.0698
    3TCq1    C214317   2.585   0.964  13.427 -0.2531  0.2009 -0.0661
    3TCq1    C314318   2.552   1.023  13.546 -0.1420 -0.9741 -0.0029
    3TCq1    C414319   2.419   1.039  13.580  0.3561 -0.8148  0.6120
    3TCq1    C514320   2.318   1.001  13.496 -0.6066  0.2868  0.1012
    3TCq1    C614321   2.350   0.923  13.385 -0.6179 -0.3908  0.8812
    3TCq1    C714322   2.482   0.904  13.355  0.5324  0.1932 -0.6601
    3TCq1    C814323   2.246   0.866  13.300 -0.2498 -0.4420 -0.6338
    3TCq1    O414324   2.129   0.882  13.333 -0.1542  0.4040  0.3739
    3TCq1    C914325   2.391   1.107  13.707 -0.5946 -0.0680  0.3449
    3TCq1    O514326   2.482   1.185  13.752 -0.0799  0.1465 -0.1649
    3TCq1    O614327   2.269   1.107  13.724 -0.3221 -0.2173 -0.2367
    3TCq1    H114328   2.623   0.757  13.375  1.3881 -2.2715  2.4923
    3TCq1    H214329   2.626   1.057  13.619  1.1142 -1.0231 -1.2566
    3TCq1    H314330   2.212   1.022  13.506 -1.2802 -2.3491 -1.5244
    3TCq1    H414331   2.512   0.856  13.262  1.3417 -1.4296  0.4385
    1MPD2     C14332   1.654   1.407  14.793  0.4673 -0.3107 -0.1782
    1MPD2    C114333   1.600   1.305  14.721  0.6877 -0.1770 -0.7746
    1MPD2    C214334   1.659   1.176  14.738  0.2457 -0.0069  0.7790
    1MPD2    C314335   1.773   1.156  14.810 -0.0976 -0.1929 -0.6289
    1MPD2    C414336   1.843   1.267  14.862 -0.5860  0.3027 -0.1133
    1MPD2    C514337   1.778   1.389  14.854 -0.6156 -0.0959 -0.0067
    1MPD2     H14338   1.614   1.088  14.694 -0.2728  0.2846  0.7328
    1MPD2    H114339   1.935   1.254  14.918 -0.9297  0.9631  0.5909
    1MPD2    H214340   1.614   1.508  14.786  0.2886 -0.4189 -0.6706
    1MPD2    H314341   1.825   1.471  14.907  0.9364  0.0030 -1.5314
    1MPD2     N14342   1.832   1.029  14.809 -0.3746  0.2405  0.0872
    1MPD2    H514343   1.930   1.020  14.832 -0.4999 -0.3361  0.4012
    1MPD2    N114344   1.490   1.336  14.641  0.0924 -0.2398 -0.2143
    1MPD2    H714345   1.473   1.436  14.633 -1.0526 -0.4360 -0.2733
    2TMC3    C114346   1.303   1.300  14.502  0.8253 -0.5910  0.8706
    2TMC3    C214347   1.262   1.206  14.414 -0.3910  0.1837  0.1565
    2TMC3    C314348   1.232   1.260  14.293  0.4473  0.2040 -0.0786
    2TMC3    C414349   1.295   1.434  14.488  0.5691  0.0901 -0.0879
    2TMC3    C514350   1.255   1.486  14.371 -0.2953 -0.5041  0.2170
    2TMC3    C614351   1.234   1.395  14.269 -0.1666  0.2813 -0.3944
    2TMC3     C14352   1.406   1.243  14.587 -0.5326 -0.5606  0.4557
    2TMC3     O14353   1.423   1.121  14.572 -0.4500 -0.1255 -0.0530
    2TMC3     H14354   1.252   1.101  14.441  0.9986 -0.5013 -1.9888
    2TMC3    H114355   1.311   1.498  14.575 -0.7486  0.9237 -0.4633
    2TMC3    H214356   1.225   1.429  14.167  1.2424 -1.4848 -1.1056
    2TMC3    C714357   1.262   1.628  14.337 -0.4949  0.8800  0.0077
    2TMC3    C814358   1.301   1.183  14.186 -0.2908 -0.1155 -0.9540
    2TMC3    O114359   1.198   1.665  14.238 -0.9482  0.2947 -0.1283
    2TMC3    O214360   1.263   1.208  14.074  0.2437 -0.3282  0.1515
    3TCq1    O114361   1.667   2.557  15.112 -0.0772  0.5383  0.0017
    3TCq1    C114362   1.575   2.460  15.129 -0.7267 -0.3004  0.3214
    3TCq1    O214363   1.466   2.472  15.175 -0.0120 -0.5693 -0.5035
    3TCq1    C214364   1.617   2.363  15.029 -0.7897 -0.2682 -0.0203
    3TCq1    C314365   1.736   2.304  15.045 -0.4409 -0.3363 -0.7287
    3TCq1    C414366   1.764   2.190  14.959 -0.1534  0.2061 -0.0778
    3TCq1    C514367   1.673   2.145  14.865 -0.0125  0.1719  0.5183
    3TCq1    C614368   1.553   2.207  14.863  0.0486 -0.4447  0.7224
    3TCq1    C714369   1.523   2.317  14.941 -0.5285 -0.3252 -0.1025
    3TCq1    C814370   1.472   2.196  14.742  0.1448 -0.3866  0.7191
    3TCq1    O414371   1.391   2.288  14.727  0.2702  0.3340  0.0280
    3TCq1    C914372   1.880   2.105  14.980 -0.5212  0.4458 -0.4405
    3TCq1    O514373   1.871   1.979  14.965 -0.2634  0.2615 -0.7019
    3TCq1    O614374   1.988   2.170  14.970  0.1308 -0.2521 -0.6265
    3TCq1    H114375   1.736   2.542  15.044  0.2668  1.0116  0.2431
    3TCq1    H214376   1.788   2.323  15.139 -1.4224 -0.7476 -0.1005
    3TCq1    H314377   1.703   2.067  14.796 -0.5374 -0.3601  0.8944
    3TCq1    H414378   1.425   2.364  14.947 -0.0386  0.6443  0.2309
    4MPD2     C14379   1.352   2.108  14.481  0.0121 -0.4206  0.2545
    4MPD2    C114380   1.410   2.021  14.572 -0.1433  0.1091 -0.7980
    4MPD2    C214381   1.405   1.885  14.547 -0.2933  0.6871 -0.5616
    4MPD2    C314382   1.342   1.838  14.433  1.0110  0.0141  0.1606
    4MPD2    C414383   1.300   1.920  14.339  0.3580 -0.2654 -0.5775
    4MPD2    C514384   1.302   2.058  14.367 -0.2129 -1.0894 -0.4062
    4MPD2     H14385   1.461   1.818  14.610 -3.0450  0.1981  1.3431
    4MPD2    H114386   1.269   1.888  14.240  1.4952 -1.3428 -0.5907
    4MPD2    H214387   1.344   2.214  14.505  0.7246 -0.2672 -0.1756
    4MPD2    H314388   1.267   2.120  14.285 -0.5905  0.4158  0.9130
    4MPD2     N14389   1.334   1.701  14.430 -0.6480  0.6948 -0.0865
    4MPD2    H514390   1.383   1.652  14.505 -1.1626  1.9760  1.0801
    4MPD2    N114391   1.479   2.068  14.690 -0.6831 -0.3201  0.3637
    4MPD2    H714392   1.520   1.997  14.749  0.9339 -0.2771 -0.7252
    5TMC2    C114393   1.791   0.712  14.525 -0.0427 -0.0796 -0.5548
    5TMC2    C214394   1.917   0.739  14.479 -0.4021 -0.1117  0.3610
    5TMC2    C314395   2.010   0.793  14.563 -0.7990  0.5470  0.0355
    5TMC2    C414396   1.747   0.737  14.656  0.2609 -0.3301  0.6747
    5TMC2    C514397   1.837   0.808  14.733 -0.3205  0.4384  0.0072
    5TMC2    C614398   1.962   0.839  14.683 -0.7411  0.4875  0.1454
    5TMC2     C14399   1.683   0.736  14.435 -0.2629 -0.8843  0.4476
    5TMC2     O14400   1.569   0.748  14.486 -0.0995 -0.2151 -0.0935
    5TMC2     H14401   1.944   0.706  14.380  0.1131 -0.8626  0.7450
    5TMC2    H114402   1.649   0.703  14.690 -0.3393  1.6954  1.0128
    5TMC2    H214403   2.035   0.896  14.740 -2.6119  1.1568  1.8552
    5TMC2    C714404   1.763   0.910  14.795 -0.2012 -0.1668  0.8247
    5TMC2    C814405   2.143   0.728  14.557 -0.2345  0.3864 -0.3831
    5TMC2    O114406   1.644   0.890  14.816 -0.0005 -0.2725 -0.0978
    5TMC2    O214407   2.209   0.719  14.659  0.0068 -0.3301  0.0300
    5TMC2    O514408   2.172   0.686  14.431 -0.7984 -0.4816 -0.2515
    5TMC2    H514409   2.130   0.734  14.355 -0.8723  1.0895  0.7833
    6MPD2     C14410   1.488   0.994  14.047 -0.1728 -1.1112 -0.3488
    6MPD2    C114411   1.484   1.004  14.181 -0.0344 -0.3043 -0.2111
    6MPD2    C214412   1.558   0.931  14.265 -0.0298  0.2775  0.2065
    6MPD2    C314413   1.641   0.832  14.220  0.1793 -0.3737 -0.3802
    6MPD2    C414414   1.653   0.824  14.085  0.4010  0.2029 -0.1825
    6MPD2    C514415   1.576   0.899  14.003  0.5872  0.4493  0.3843
    6MPD2     H14416   1.545   0.955  14.370 -0.7084  1.7667 -0.2238
    6MPD2    H114417   1.720   0.760  14.029 -1.7082 -1.9547 -0.2429
    6MPD2    H214418   1.424   1.051  13.980 -0.3818 -1.4119 -0.4038
    6MPD2    H314419   1.578   0.884  13.896 -0.5920 -0.1024  0.4377
    6MPD2     N14420   1.714   0.741  14.305 -0.3854  0.2020  0.6178
    6MPD2    H514421   1.790   0.685  14.266  0.3747  1.2579  0.6007
    6MPD2    N114422   1.405   1.104  14.241  0.2656 -0.1958  0.0601
    6MPD2    H714423   1.424   1.128  14.338 -2.0204 -0.1133  0.4861
  945NH3     N114424   2.676   4.384   7.605  0.0485 -0.7434  0.2816
  945NH3     H214425   2.704   4.327   7.684  0.6551 -1.7978 -0.7021
  945NH3     H314426   2.576   4.394   7.598  0.0366 -0.7747  0.3977
  945NH3     H414427   2.703   4.481   7.623 -1.1308 -0.4884  0.6649
  946SOD     NA14428   1.096   1.145  13.940  0.2454  0.2465 -0.0073
  947SOD     NA14429   3.477   1.336  16.884  0.0012  0.7444 -0.2213
  948SOD     NA14430   3.118   1.238  14.664  0.4931 -0.1050 -0.2780
  949SOD     NA14431   0.405   0.155  10.755  0.8993 -0.4771  0.0757
  950SOD     NA14432   3.163   0.501   9.685  0.2554 -0.1644 -0.0070
  951SOD     NA14433   0.209   2.677   1.951 -0.2644  0.6667  0.4106
  952SOD     NA14434   1.368   0.369  12.685 -0.5162  0.5813 -0.2213
  953SOD     NA14435   4.231   3.754   2.242 -0.2672  0.2589 -0.7292
  954SOD     NA14436   2.124   1.014  11.207 -0.5067  0.4645  0.2594
  955SOD     NA14437   3.763   4.231  12.846  0.0555 -0.4839 -0.0082
  956SOD     NA14438   0.055   3.546   0.820  0.3437  0.0245 -0.2726
  957SOD     NA14439   1.405   4.189  10.759 -0.2054  0.0390 -0.3784
  958SOD     NA14440   1.863   1.768  14.991 -0.0161  0.2250 -0.2125
  959SOD     NA14441   0.031   3.583  15.381  0.5135 -0.2176 -0.5316
  960SOD     NA14442   0.275   2.412  17.601  0.2802 -0.3744  0.4604
  961SOD     NA14443   0.933   1.021  11.097 -0.4775 -0.2601 -0.4702
  962SOD     NA14444   3.497   2.173  11.719  0.0943 -0.5627 -0.7509
  963SOD     NA14445   2.679   3.137  16.686 -0.2382 -0.4583  0.0077
  964SOD     NA14446   2.887   0.650  12.298 -0.1808 -0.2943 -0.4662
  965SOD     NA14447   0.395   1.228  15.690 -0.4007 -0.3334  0.1623
  966SOD     NA14448   1.408   0.884  14.882 -0.0822 -0.3256 -0.2499
  967SOD     NA14449   3.933   0.375   0.876  0.5136 -0.3463 -0.4926
  968SOD     NA14450   3.797   1.231  10.725  0.3113  0.0377 -0.2019
  969SOD     NA14451   1.694   4.304  10.479 -0.3720 -0.1569 -0.0643
  970SOD     NA14452   1.108   0.286   8.208 -0.4181  0.1858  0.2181
  971SOD     NA14453   2.615   0.970  11.795 -0.2126  0.1623  0.1397
  972SOD     NA14454   1.703   2.019  11.977 -0.1519 -0.0951 -0.0242
  973SOD     NA14455   3.687   0.161  13.991 -0.2329  0.0319  0.0695
  974SOD     NA14456   4.472   3.676  12.304  0.2104 -0.2218 -0.2684
  975SOD     NA14457   1.173   2.022   1.874  0.0494 -0.2985 -0.8641
  976SOD     NA14458   2.711   0.738  12.050  0.0910 -0.2199  0.1454
  977SOD     NA14459   2.422   0.883  11.991 -0.1633  0.3219 -0.2493
  978SOD     NA14460   1.097   3.588   1.240 -0.0765 -0.1441  0.0064
  979SOD     NA14461   1.101   4.183  14.424  0.4418  0.6956  0.0869
  980SOD     NA14462   4.333   3.499  14.144 -0.2277  0.2615 -0.2247
  981SOD     NA14463   3.740   1.121   0.384 -0.2187 -0.1287  0.1753
  982SOD     NA14464   2.426   0.196  16.804 -0.0297 -0.0922 -0.4710
  983SOD     NA14465   1.791   3.341  17.033 -0.1493 -0.0849 -0.4643
  984SOD     NA14466   1.419   0.606  11.105  0.3436 -0.1767  0.4065
  985SOD     NA14467   0.492   2.526   1.184 -0.1667  0.1888  0.5912
  986SOD     NA14468   1.965   2.347   8.753 -0.1683  0.0456 -0.1095
  987SOD     NA14469   1.745   0.223  11.285 -0.4795 -0.1519  0.2603
  988SOD     NA14470   2.334   4.469  10.640  0.4433  0.5495  0.1315
  989SOD     NA14471   2.200   2.021   3.991 -0.0258 -0.3636  0.5314
  990SOD     NA14472   2.823   1.732   7.678  0.1694 -0.3015 -0.1909
  991SOD     NA14473   3.261   1.000  13.295 -0.7816 -0.1302  0.6117
  992SOD     NA14474   2.049   1.949  14.831  0.0846  0.2405  0.0052
  993SOD     NA14475   1.705   4.642  11.195 -0.3183 -0.4026  0.0062
  994SOD     NA14476   3.244   0.952   3.044 -0.5587  0.1740  0.0220
  995SOD     NA14477   3.187   1.902  12.547  0.2784  0.5682  0.1126
  996SOD     NA14478   1.133   2.200   1.592 -0.0151  0.0981 -0.4243
  997SOD     NA14479   1.000   4.347  10.311 -0.1595  0.3482  0.1377
  998SOD     NA14480   4.445   4.467   1.151  0.3478 -0.0418 -0.5961
  999SOD     NA14481   4.422   1.826   7.566  0.0832 -0.7974  0.2944
 1000SOD     NA14482   2.370   0.753   6.132 -0.3808  0.2142  0.2564
 1001SOD     NA14483   2.129   3.614   8.726 -0.6092  0.0422  0.0429
 1002SOD     NA14484   4.429   1.711  14.853  0.2429  0.0436  0.2421
 1003SOD     NA14485   0.023   3.521   1.275 -0.2148  0.1075 -0.0467
 1004SOD     NA14486   4.033   1.826  12.578  0.3244 -0.0257 -0.0250
 1005SOD     NA14487   2.103   3.204  12.526  0.1228 -0.2117  0.2677
 1006SOD     NA14488   4.071   1.667  16.227  0.1231 -0.2996  0.0604
 1007SOD     NA14489   3.962   2.484  17.285  0.2506  0.6829  0.1583
 1008SOD     NA14490   3.395   4.331  13.944 -0.4174  0.2248 -0.0270
 1009SOD     NA14491   3.930   4.422   3.385  0.0083 -0.4081 -0.4296
 1010SOD     NA14492   3.402   2.435  16.315  0.2874  0.4458  0.0452
 1011SOD     NA14493   3.463   4.398  12.318 -0.0990  0.2581 -0.0546
 1012SOL     OW14494   4.625   2.158   2.294 -0.0551 -0.4900 -0.7717
 1012SOL    HW114495   4.587   2.209   2.223 -1.8783 -0.3547  0.3027
 1012SOL    HW214496   4.549   2.168   2.351 -1.4280 -2.9940 -2.1791
 1013SOL     OW14497   3.153   3.505   3.887  0.4624 -0.0449  0.1773
 1013SOL    HW114498   3.156   3.592   3.848 -0.3249 -0.4572 -0.8137
 1013SOL    HW214499   3.132   3.529   3.977 -0.8006  2.0943 -0.6992
 1014SOL     OW14500   3.575   1.092   7.493 -0.1446  0.1422  0.6437
 1014SOL    HW114501   3.557   1.003   7.520 -0.5740  0.2669  0.7575
 1014SOL    HW214502   3.493   1.130   7.525 -0.2409 -0.5598  1.2157
 1015SOL     OW14503   3.391   3.275   5.866 -0.0069  0.2676 -0.1421
 1015SOL    HW114504   3.385   3.316   5.953  0.9333  1.2121 -0.5175
 1015SOL    HW214505   3.477   3.310   5.844 -0.0408 -0.9467 -2.1724
 1016SOL     OW14506   1.059   1.869   3.496  0.1762 -0.6492 -0.4127
 1016SOL    HW114507   1.065   1.897   3.587 -0.1515 -2.6642  0.2423
 1016SOL    HW214508   1.021   1.948   3.458 -1.2716 -2.0899 -1.9864
 1017SOL     OW14509   0.698   0.480   3.299 -0.1129  0.1991  0.7891
 1017SOL    HW114510   0.718   0.387   3.295  0.4946  0.3841 -0.3403
 1017SOL    HW214511   0.721   0.526   3.218  0.5143 -1.6932 -0.1025
 1018SOL     OW14512   4.648   4.628   6.027 -0.2505  0.2771  0.2247
 1018SOL    HW114513   4.586   4.700   6.034 -2.6247 -1.5292 -1.9032
 1018SOL    HW214514   4.626   4.589   5.942  1.0216 -1.9743  0.9348
 1019SOL     OW14515   1.121   3.328  11.983  0.3090 -0.1877  0.3454
 1019SOL    HW114516   1.093   3.236  11.982  1.1949 -0.4833  2.3506
 1019SOL    HW214517   1.206   3.321  11.940  0.1962 -1.3324  0.2985
 1020SOL     OW14518   2.062   1.001   3.012  0.0719  0.1694 -0.1167
 1020SOL    HW114519   2.003   1.060   2.965  0.3883  0.3068 -0.3371
 1020SOL    HW214520   2.095   0.942   2.944  1.3548  1.6132 -0.7169
 1021SOL     OW14521   3.623   3.450   8.103 -0.2373  0.2059  0.5379
 1021SOL    HW114522   3.717   3.436   8.092 -0.1243  0.1402  1.5797
 1021SOL    HW214523   3.602   3.534   8.062 -2.7020 -0.4912  0.3648
 1022SOL     OW14524   0.732   0.480  12.271 -0.1616 -0.2672 -0.6229
 1022SOL    HW114525   0.705   0.478  12.179  1.4731 -0.4947 -1.1125
 1022SOL    HW214526   0.819   0.520  12.263  0.1814 -0.8139  0.4837
 1023SOL     OW14527   3.414   4.060   5.218 -0.2905  0.0394  0.2765
 1023SOL    HW114528   3.445   4.150   5.221 -1.2705  0.4298 -1.1908
 1023SOL    HW214529   3.376   4.049   5.305 -2.4915  1.6849 -0.4830
 1024SOL     OW14530   0.802   4.485   3.439  0.3356  0.2012 -0.4409
 1024SOL    HW114531   0.805   4.581   3.441 -0.6479  0.2442 -1.0828
 1024SOL    HW214532   0.819   4.472   3.346 -1.9879  1.6615 -1.0758
 1025SOL     OW14533   4.502   1.383   2.160  0.0286 -0.0476  0.5542
 1025SOL    HW114534   4.479   1.352   2.248  2.5264  0.5314  1.4158
 1025SOL    HW214535   4.508   1.302   2.110  1.1036  0.7506 -0.6178
 1026SOL     OW14536   2.058   0.009  10.455 -0.1216 -0.0804 -0.2951
 1026SOL    HW114537   2.072   0.103  10.465 -2.2492  0.3478 -1.4328
 1026SOL    HW214538   2.092   4.711  10.542  0.4021  0.5898 -0.3219
 1027SOL     OW14539   1.984   3.565   9.231  0.0123  0.1768 -0.3905
 1027SOL    HW114540   1.967   3.589   9.322  2.4746 -0.4059  0.2058
 1027SOL    HW214541   2.048   3.495   9.237 -3.3698 -2.7891  0.9944
 1028SOL     OW14542   2.256   4.079   7.937  0.2520 -0.2039  0.3663
 1028SOL    HW114543   2.242   3.984   7.945 -0.7359  0.0361  1.4450
 1028SOL    HW214544   2.278   4.102   8.027  0.0488 -0.9883  0.6183
 1029SOL     OW14545   3.039   1.883   5.270 -0.3881  0.3158  0.3077
 1029SOL    HW114546   3.001   1.938   5.339  0.6051  0.6225  0.6169
 1029SOL    HW214547   2.986   1.805   5.284  0.0214  0.3856  2.2144
 1030SOL     OW14548   2.691   0.735   7.318 -0.0651 -0.0193 -0.8020
 1030SOL    HW114549   2.663   0.644   7.313  1.6741 -0.5030 -1.5912
 1030SOL    HW214550   2.686   0.748   7.412 -0.5540  1.6317 -1.0460
 1031SOL     OW14551   3.447   1.564   7.718 -0.2178 -0.5999  0.5864
 1031SOL    HW114552   3.489   1.500   7.777  1.9767  2.5107  2.3977
 1031SOL    HW214553   3.356   1.537   7.721 -0.3417 -0.1956  0.4699
 1032SOL     OW14554   1.895   4.109   5.142  0.0926  0.5152  0.2595
 1032SOL    HW114555   1.800   4.106   5.132  0.1899  1.8961 -1.1312
 1032SOL    HW214556   1.914   4.049   5.213  1.0293  1.6809  0.9970
 1033SOL     OW14557   2.262   3.083   7.196 -0.4150 -0.3524 -0.2246
 1033SOL    HW114558   2.347   3.075   7.152 -0.0880 -0.7899  0.4737
 1033SOL    HW214559   2.256   3.176   7.216 -0.1455 -0.4220  0.1779
 1034SOL     OW14560   0.452   0.486   4.233  0.1027 -0.2891  0.2213
 1034SOL    HW114561   0.506   0.460   4.158 -0.3567  0.1298 -0.2436
 1034SOL    HW214562   0.368   0.504   4.192  0.5336 -1.5244 -1.2449
 1035SOL     OW14563   4.081   1.618   0.678  1.0832 -0.0399 -0.1164
 1035SOL    HW114564   4.117   1.704   0.655  0.5849  0.6118  1.5899
 1035SOL    HW214565   4.091   1.608   0.772  0.8887 -3.5483 -0.4877
 1036SOL     OW14566   3.957   2.036   8.067  0.2617  0.6067  0.4516
 1036SOL    HW114567   4.044   1.994   8.067 -0.2261 -0.4054  0.5693
 1036SOL    HW214568   3.973   2.128   8.089  0.7483  0.7730 -0.6138
 1037SOL     OW14569   1.125   0.117   3.488  0.2776  0.2241 -0.0308
 1037SOL    HW114570   1.204   0.152   3.448 -0.2666  0.0425 -1.2648
 1037SOL    HW214571   1.147   0.025   3.505  1.4873  0.6992  0.9564
 1038SOL     OW14572   2.196   3.320   5.482  0.3116  0.6541 -0.8804
 1038SOL    HW114573   2.289   3.298   5.477  0.1398 -0.3711  0.3940
 1038SOL    HW214574   2.152   3.250   5.434  2.2214 -1.2283  0.1102
 1039SOL     OW14575   2.935   4.651  15.323 -0.2152 -0.1053  0.1832
 1039SOL    HW114576   2.872   4.589  15.287 -0.1057 -1.6943  2.6829
 1039SOL    HW214577   2.888   4.705  15.386 -0.8906 -2.6259  1.8781
 1040SOL     OW14578   4.033   4.010   3.075 -0.3447  0.2223 -0.9277
 1040SOL    HW114579   4.064   4.022   3.165  1.3136  1.4017 -1.6544
 1040SOL    HW214580   4.070   3.923   3.058  1.5741  0.8685 -0.0353
 1041SOL     OW14581   1.586   1.202   6.617 -0.1637 -0.4630  0.0653
 1041SOL    HW114582   1.537   1.184   6.536 -0.6256 -2.4900  0.7992
 1041SOL    HW214583   1.584   1.297   6.604  0.3786 -0.1766  2.1063
 1042SOL     OW14584   1.776   0.000   4.143  0.7374  0.5653  0.1953
 1042SOL    HW114585   1.760   4.667   4.069  0.7311 -0.0556  0.6812
 1042SOL    HW214586   1.847   0.057   4.113  0.6410  0.3294 -0.4721
 1043SOL     OW14587   2.361   1.013   7.012 -0.3865  0.4067  0.8364
 1043SOL    HW114588   2.382   1.064   6.934  3.3785 -0.1090  1.4750
 1043SOL    HW214589   2.384   1.078   7.078  0.5322 -0.0688  0.9929
 1044SOL     OW14590   4.082   4.370   5.918 -0.4295 -0.0093  0.2351
 1044SOL    HW114591   4.144   4.338   5.853  0.3205 -0.3428  1.1218
 1044SOL    HW214592   3.995   4.344   5.886  0.3553 -1.4555 -0.7319
 1045SOL     OW14593   4.565   0.928  15.086 -0.2234 -0.1795 -0.2580
 1045SOL    HW114594   4.561   0.994  15.017  0.6924  0.0353 -0.1081
 1045SOL    HW214595   4.544   0.984  15.161  0.0925 -0.2456 -0.1196
 1046SOL     OW14596   2.681   2.115   5.605 -0.3594  0.3271  0.1607
 1046SOL    HW114597   2.751   2.070   5.557 -1.8396 -0.5342 -1.1986
 1046SOL    HW214598   2.703   2.092   5.695  0.4989  0.5700  0.0090
 1047SOL     OW14599   3.969   0.101   5.649 -0.6832  0.1257  0.2043
 1047SOL    HW114600   4.007   0.178   5.691  2.6126 -0.3332 -1.9510
 1047SOL    HW214601   3.972   0.141   5.562 -0.3521 -0.1810  0.0758
 1048SOL     OW14602   4.356   2.371   2.261 -0.1081  0.4372 -0.6439
 1048SOL    HW114603   4.390   2.371   2.350 -3.0819 -2.4787  0.4882
 1048SOL    HW214604   4.403   2.450   2.232 -1.4175  2.1618  1.9215
 1049SOL     OW14605   4.302   0.390   7.438 -0.1452  0.2032 -0.3151
 1049SOL    HW114606   4.328   0.332   7.366 -0.0679 -1.2461  0.8874
 1049SOL    HW214607   4.306   0.338   7.518 -0.7507 -1.5366 -1.4094
 1050SOL     OW14608   0.881   3.968   1.614  0.2302  0.1335 -0.2232
 1050SOL    HW114609   0.954   3.992   1.557 -0.2477 -0.2969 -1.0165
 1050SOL    HW214610   0.808   3.995   1.559  1.5994  0.1845 -2.0007
 1051SOL     OW14611   4.163   1.986   2.171 -0.2463  0.3118 -0.4982
 1051SOL    HW114612   4.089   2.014   2.225  1.7014  1.9888  1.3037
 1051SOL    HW214613   4.177   2.069   2.125 -0.1616 -0.1917 -1.3781
 1052SOL     OW14614   0.827   0.401  15.509  0.0128  0.1906 -1.1179
 1052SOL    HW114615   0.851   0.424  15.598 -0.3527  0.9041 -1.2011
 1052SOL    HW214616   0.806   0.308  15.512 -0.6810  0.3379 -1.2281
 1053SOL     OW14617   1.351   4.476   7.396  0.5727  0.8054  0.3484
 1053SOL    HW114618   1.367   4.412   7.327  1.0924  0.8288  0.4432
 1053SOL    HW214619   1.428   4.533   7.390  0.1298  1.6857  2.7437
 1054SOL     OW14620   1.970   4.316   7.446 -0.8910 -0.3978  0.1819
 1054SOL    HW114621   2.059   4.287   7.470 -1.2631 -0.6228  1.2709
 1054SOL    HW214622   1.987   4.391   7.389  0.3571 -1.6623 -1.1226
 1055SOL     OW14623   2.216   2.797   3.589 -0.5143  0.4035 -0.1418
 1055SOL    HW114624   2.248   2.874   3.542 -1.8701  1.8286  1.2700
 1055SOL    HW214625   2.296   2.746   3.597  0.4037  1.8006 -0.4380
 1056SOL     OW14626   2.302   3.377   0.425 -0.4317  0.5553  0.7794
 1056SOL    HW114627   2.288   3.346   0.335 -2.6115  0.3257  1.1874
 1056SOL    HW214628   2.238   3.322   0.471  1.4495  0.4516  3.2501
 1057SOL     OW14629   1.313   4.235   4.916 -0.8052 -0.2814 -0.9751
 1057SOL    HW114630   1.285   4.151   4.954 -0.4074  0.1727  0.3048
 1057SOL    HW214631   1.231   4.283   4.906 -0.9636 -0.6172 -1.3091
 1058SOL     OW14632   4.442   4.635  15.451 -0.3911  0.1276  0.1796
 1058SOL    HW114633   4.456   4.546  15.483 -0.2162 -0.4980 -1.6425
 1058SOL    HW214634   4.487   4.617  15.368  1.7451  2.0355  0.9088
 1059SOL     OW14635   1.780   4.579  16.037 -0.1839 -0.3905  0.2763
 1059SOL    HW114636   1.767   4.657  15.983 -1.9081 -1.4516 -0.8516
 1059SOL    HW214637   1.817   4.516  15.976 -0.7420 -0.4976  0.0421
 1060SOL     OW14638   2.389   0.006  15.916  0.5248 -0.8681 -0.1091
 1060SOL    HW114639   2.479   4.723  15.883  0.5525  2.2137 -0.7080
 1060SOL    HW214640   2.332   4.714  15.841  3.1154 -0.1227 -2.2508
 1061SOL     OW14641   3.733   3.403   1.482  0.4237  0.2827  0.4741
 1061SOL    HW114642   3.659   3.369   1.532  2.6065 -0.7186  2.9999
 1061SOL    HW214643   3.734   3.341   1.409  0.1296 -0.5530  1.1813
 1062SOL     OW14644   2.274   1.606   4.954  0.1818  0.6297 -0.6234
 1062SOL    HW114645   2.242   1.693   4.930  0.1605  0.3359 -1.6480
 1062SOL    HW214646   2.315   1.622   5.039 -0.5349 -0.2665 -0.0983
 1063SOL     OW14647   2.453   3.812   5.038  0.0114  0.1288  0.4981
 1063SOL    HW114648   2.372   3.862   5.026  1.2644  2.0239 -0.0549
 1063SOL    HW214649   2.451   3.784   5.130  0.2850 -0.8978  0.1886
 1064SOL     OW14650   2.036   3.073  15.907  0.4827 -0.5600  0.1802
 1064SOL    HW114651   2.051   3.121  15.826 -0.1400 -0.0300  0.3750
 1064SOL    HW214652   2.027   2.984  15.873 -2.2832 -0.5190  0.8523
 1065SOL     OW14653   3.684   2.415  16.657  0.0483  0.1818 -0.4483
 1065SOL    HW114654   3.745   2.476  16.615  2.3719 -2.3277 -0.6835
 1065SOL    HW214655   3.744   2.358  16.704 -0.5760  0.7269  0.9919
 1066SOL     OW14656   0.706   3.363   4.378 -0.3950 -0.2827 -0.2520
 1066SOL    HW114657   0.794   3.378   4.343 -0.3387  1.3295  0.6021
 1066SOL    HW214658   0.718   3.285   4.433 -0.5303  1.6584  2.5378
 1067SOL     OW14659   1.419   3.126   9.630 -0.4033 -0.1036  0.0470
 1067SOL    HW114660   1.488   3.090   9.575  3.1088  3.9320  1.8056
 1067SOL    HW214661   1.376   3.182   9.565 -0.0666 -0.6083 -0.6083
 1068SOL     OW14662   3.118   4.115   4.487 -0.1592 -0.2415  0.0369
 1068SOL    HW114663   3.052   4.178   4.516  1.4281  1.4752 -0.0844
 1068SOL    HW214664   3.156   4.170   4.418 -0.1253 -2.8474 -2.0272
 1069SOL     OW14665   4.351   2.675  15.594 -0.7868  0.3254 -0.4256
 1069SOL    HW114666   4.394   2.757  15.621 -2.4917  1.6999 -1.8635
 1069SOL    HW214667   4.334   2.699  15.503 -0.4840  1.9050 -0.0698
 1070SOL     OW14668   1.739   1.109   4.316 -0.4696  0.4338 -0.2144
 1070SOL    HW114669   1.697   1.165   4.250 -2.1172  1.1209  1.4190
 1070SOL    HW214670   1.659   1.072   4.352 -0.9671 -0.3016 -2.0618
 1071SOL     OW14671   3.797   0.404   7.069  0.4358 -0.4075 -0.1253
 1071SOL    HW114672   3.778   0.447   6.986  0.2839  0.7895  0.5195
 1071SOL    HW214673   3.725   0.438   7.123 -0.4734 -1.0548 -0.9491
 1072SOL     OW14674   2.608   2.612   7.055  0.0662 -0.0763 -0.3611
 1072SOL    HW114675   2.571   2.617   7.143 -0.9445 -2.9887 -0.6056
 1072SOL    HW214676   2.537   2.650   7.004 -0.2586 -0.2073 -0.0091
 1073SOL     OW14677   1.985   2.053  14.640  0.3769  0.3903 -0.0993
 1073SOL    HW114678   1.902   2.013  14.615 -0.5284  2.2285 -0.0254
 1073SOL    HW214679   1.992   2.118  14.570  0.6460 -0.3774 -0.7838
 1074SOL     OW14680   4.022   4.373   5.354 -0.3846 -0.4607  0.0943
 1074SOL    HW114681   3.965   4.316   5.301  0.9995 -2.1909  0.4890
 1074SOL    HW214682   3.954   4.408   5.411  0.2501 -0.4581  0.8444
 1075SOL     OW14683   4.685   2.129   3.283 -0.1921 -0.0289 -0.2187
 1075SOL    HW114684   4.607   2.096   3.240 -1.5108  2.7970 -0.0009
 1075SOL    HW214685   0.029   2.134   3.216 -0.4263  0.1266 -0.4480
 1076SOL     OW14686   0.068   0.454   8.381 -0.5007 -0.6516 -0.2769
 1076SOL    HW114687   0.116   0.466   8.464 -0.3810 -1.6499 -0.2037
 1076SOL    HW214688   4.712   0.414   8.414 -1.4683  1.4724 -0.0829
 1077SOL     OW14689   2.386   1.876   6.716  0.3628  0.2558  0.1374
 1077SOL    HW114690   2.377   1.962   6.757  0.5721  0.0248  0.6660
 1077SOL    HW214691   2.480   1.870   6.699  0.3045 -2.4702  0.8209
 1078SOL     OW14692   1.367   0.010   1.630 -0.4217 -0.3023 -0.1709
 1078SOL    HW114693   1.419   0.074   1.582  0.7423 -1.7947 -0.8973
 1078SOL    HW214694   1.401   0.041   1.714  3.4985 -0.8082 -1.5693
 1079SOL     OW14695   1.118   1.227   8.240  0.1117  0.1412 -0.1507
 1079SOL    HW114696   1.056   1.168   8.283 -0.1037 -0.9777 -2.0396
 1079SOL    HW214697   1.066   1.304   8.218 -0.5144 -0.0601  0.6252
 1080SOL     OW14698   0.170   0.281  16.182 -0.2559 -0.1021 -0.9966
 1080SOL    HW114699   0.193   0.252  16.093  1.4698  0.3170 -0.6890
 1080SOL    HW214700   0.075   0.291  16.172 -0.3400 -0.1983 -0.3121
 1081SOL     OW14701   2.102   1.857   4.121 -0.4847  0.8268 -0.1077
 1081SOL    HW114702   2.053   1.782   4.088 -1.0870  3.1254 -4.5282
 1081SOL    HW214703   2.107   1.827   4.212 -1.8381 -0.4227 -0.4519
 1082SOL     OW14704   4.032   0.330  11.104 -0.4555 -0.0293  0.1293
 1082SOL    HW114705   4.009   0.300  11.016 -0.7547 -1.1106  0.5831
 1082SOL    HW214706   4.112   0.381  11.089  0.3521 -2.0287 -2.1893
 1083SOL     OW14707   4.039   4.662   8.861  0.0341 -0.5753 -0.4574
 1083SOL    HW114708   3.991   4.656   8.944 -0.0750  0.5840 -0.4477
 1083SOL    HW214709   3.958   4.673   8.812 -0.7609  0.1560  1.0251
 1084SOL     OW14710   4.212   4.042   3.812  0.5052  0.2194 -0.6807
 1084SOL    HW114711   4.293   4.004   3.844 -0.7332 -2.5957 -0.9080
 1084SOL    HW214712   4.159   4.047   3.891  0.1083 -0.4559 -0.9006
 1085SOL     OW14713   1.180   1.831   2.186 -0.5527 -0.3091  0.6138
 1085SOL    HW114714   1.223   1.847   2.270 -1.9614 -1.3741  1.5489
 1085SOL    HW214715   1.149   1.915   2.152  3.5677  0.2046 -1.8068
 1086SOL     OW14716   0.793   1.820   6.244 -0.0516  0.0584 -0.6446
 1086SOL    HW114717   0.727   1.882   6.212 -0.7901 -0.9395 -1.0451
 1086SOL    HW214718   0.864   1.876   6.275 -2.8918  3.5698 -0.4904
 1087SOL     OW14719   0.415   4.480   0.015 -0.3287 -0.1014  0.7689
 1087SOL    HW114720   0.338   4.423   0.022  0.0979 -0.5902  1.4516
 1087SOL    HW214721   0.391   4.555   0.070 -2.2327 -0.2515  0.1414
 1088SOL     OW14722   0.286   0.158   4.205  0.3749  0.2682  0.1972
 1088SOL    HW114723   0.327   0.126   4.125  0.1134 -1.8401  0.9022
 1088SOL    HW214724   0.241   0.241   4.189  0.5630  0.5410  1.0673
 1089SOL     OW14725   3.168   3.682  13.806 -0.1833 -0.4677  0.3528
 1089SOL    HW114726   3.144   3.724  13.723  0.4084 -1.6812 -0.4275
 1089SOL    HW214727   3.105   3.611  13.795  0.6279 -1.4160  1.9950
 1090SOL     OW14728   0.982   1.634   4.243 -0.0142 -0.1211  0.0225
 1090SOL    HW114729   0.961   1.611   4.334  0.8316 -0.1562  0.2094
 1090SOL    HW214730   0.968   1.551   4.197 -0.2350 -0.5391  0.8309
 1091SOL     OW14731   3.950   2.766   7.363 -0.2671  0.1010  0.1180
 1091SOL    HW114732   3.956   2.676   7.394  1.6489  1.2355  3.0300
 1091SOL    HW214733   3.876   2.758   7.303  0.3858  0.7024 -0.7618
 1092SOL     OW14734   3.963   0.803   6.138  0.0541 -0.2873 -0.2480
 1092SOL    HW114735   3.994   0.893   6.145 -2.1921  0.5669 -1.3916
 1092SOL    HW214736   3.900   0.796   6.209  1.1818  3.1661  1.0712
 1093SOL     OW14737   1.166   2.784   2.570 -0.6115  0.0320  0.1399
 1093SOL    HW114738   1.090   2.743   2.529 -1.8067  4.8116 -2.3955
 1093SOL    HW214739   1.134   2.794   2.660  1.7473 -1.3592  1.1472
 1094SOL     OW14740   3.480   0.185   5.770  0.3038 -0.1747 -0.2217
 1094SOL    HW114741   3.546   0.244   5.806 -0.1558 -0.0844  0.4651
 1094SOL    HW214742   3.398   0.202   5.817  0.4078  0.8529 -0.4259
 1095SOL     OW14743   0.769   1.896  13.484  0.2562 -0.2411 -0.1567
 1095SOL    HW114744   0.697   1.929  13.538  0.7428  0.0862  0.3049
 1095SOL    HW214745   0.715   1.846  13.424 -0.1616 -0.1990  0.1853
 1096SOL     OW14746   1.678   0.239   8.627  0.3579  0.6000 -0.3872
 1096SOL    HW114747   1.630   0.161   8.653  1.1911  0.8106  1.7054
 1096SOL    HW214748   1.767   0.223   8.657  0.0570 -0.4819 -0.0728
 1097SOL     OW14749   1.133   1.002  14.698 -0.3283  0.1901  0.1447
 1097SOL    HW114750   1.200   0.963  14.754  0.4767 -0.3107 -1.1546
 1097SOL    HW214751   1.093   0.922  14.663  1.6646 -1.6720  2.1587
 1098SOL     OW14752   0.439   1.630   9.077 -0.4981  0.2314 -0.2950
 1098SOL    HW114753   0.349   1.662   9.073  0.1841  1.7091 -3.7680
 1098SOL    HW214754   0.433   1.535   9.083  0.8880  0.1828  0.4232
 1099SOL     OW14755   0.299   0.006   7.407  0.3051 -0.2986  0.5550
 1099SOL    HW114756   0.320   0.074   7.471 -1.3681  0.8791 -0.1564
 1099SOL    HW214757   0.235   4.675   7.452 -1.2556  0.4900 -0.7090
 1100SOL     OW14758   0.855   3.057   9.453 -0.0549 -0.2465 -0.2562
 1100SOL    HW114759   0.842   2.994   9.523 -0.2054  1.5255  1.3233
 1100SOL    HW214760   0.768   3.095   9.462 -0.8221 -1.4728 -2.6914
 1101SOL     OW14761   4.632   1.545   2.331  0.1424  0.2747 -0.3795
 1101SOL    HW114762   4.596   1.621   2.287 -0.2380  0.5775  0.4489
 1101SOL    HW214763   4.574   1.483   2.288 -0.1636  0.7407 -0.6298
 1102SOL     OW14764   4.032   2.441   1.956 -0.4452  0.1024  0.0387
 1102SOL    HW114765   4.086   2.427   1.878  1.0375  0.7429  0.9457
 1102SOL    HW214766   3.947   2.414   1.921 -0.1320  0.2045 -0.8204
 1103SOL     OW14767   2.166   4.159   9.400  1.1581 -0.0595  0.6521
 1103SOL    HW114768   2.161   4.232   9.338  1.9238 -0.0463  0.5978
 1103SOL    HW214769   2.138   4.198   9.482  1.7715  0.4900  0.5997
 1104SOL     OW14770   0.281   2.413   6.902 -0.1232 -0.3990 -0.0148
 1104SOL    HW114771   0.191   2.386   6.880  0.3713 -1.0549 -1.1954
 1104SOL    HW214772   0.286   2.413   6.998 -0.6274  0.4065  0.0109
 1105SOL     OW14773   0.568   1.902   2.465  0.2863  0.4161 -0.7782
 1105SOL    HW114774   0.605   1.833   2.520 -2.9615  0.4375  1.3822
 1105SOL    HW214775   0.579   1.863   2.378  2.5343  1.0343 -0.7805
 1106SOL     OW14776   3.162   0.376   2.842 -0.0982  0.0420  0.2464
 1106SOL    HW114777   3.139   0.330   2.922 -2.1165  0.9821  0.1913
 1106SOL    HW214778   3.219   0.307   2.807  1.4693  0.8930  1.1210
 1107SOL     OW14779   0.694   0.814   3.385  0.2736 -0.0250 -0.3722
 1107SOL    HW114780   0.707   0.884   3.322 -0.1228 -0.7824 -1.2916
 1107SOL    HW214781   0.683   0.748   3.317 -1.4261  0.6959 -0.7960
 1108SOL     OW14782   2.765   3.956   5.486 -0.4083  0.1630  0.4518
 1108SOL    HW114783   2.729   4.044   5.494 -0.4105  0.2674 -0.8090
 1108SOL    HW214784   2.855   3.980   5.508  0.2645 -0.1143 -2.0628
 1109SOL     OW14785   0.636   2.307  16.782 -0.5263  0.2484  0.5630
 1109SOL    HW114786   0.598   2.383  16.737 -1.4055  0.3036  1.3977
 1109SOL    HW214787   0.562   2.297  16.842 -2.0565  0.9998 -1.2058
 1110SOL     OW14788   4.109   1.555   8.668  0.4439 -0.4452  0.1528
 1110SOL    HW114789   4.162   1.599   8.735 -0.8108  0.4507  0.5671
 1110SOL    HW214790   4.173   1.530   8.601  1.0241  3.1665 -0.6345
 1111SOL     OW14791   4.368   1.693   2.516  0.1085 -0.1804  0.0692
 1111SOL    HW114792   4.374   1.735   2.430  0.6570  0.1125  0.2491
 1111SOL    HW214793   4.295   1.632   2.512  0.4422 -0.4575 -1.5764
 1112SOL     OW14794   4.205   0.746   5.952 -0.0385  0.2961 -0.5138
 1112SOL    HW114795   4.262   0.821   5.971  2.1109 -0.9402 -2.1742
 1112SOL    HW214796   4.193   0.701   6.036 -0.8948 -3.1266 -2.4862
 1113SOL     OW14797   2.226   3.414   4.866  0.1832 -0.0840  0.0546
 1113SOL    HW114798   2.173   3.342   4.901 -0.6600  0.2459 -0.5547
 1113SOL    HW214799   2.296   3.421   4.931 -1.4660  2.1014  1.6169
 1114SOL     OW14800   4.029   0.865   5.288 -0.4413  0.4329  0.3796
 1114SOL    HW114801   4.031   0.791   5.348  0.7285 -0.0484 -0.2536
 1114SOL    HW214802   4.106   0.919   5.302 -2.2411  3.1644 -0.1607
 1115SOL     OW14803   4.270   0.226   7.661 -0.0796  0.6793  0.2217
 1115SOL    HW114804   4.203   0.165   7.628  0.6394  0.7710 -1.3879
 1115SOL    HW214805   4.337   0.162   7.682 -0.2797  0.2101 -0.5798
 1116SOL     OW14806   3.460   2.248  12.303  0.1515  0.1940  0.1868
 1116SOL    HW114807   3.421   2.165  12.276  0.1964 -0.4687  2.2253
 1116SOL    HW214808   3.525   2.213  12.363  1.7703 -1.6436 -2.6125
 1117SOL     OW14809   3.163   2.935   0.697  0.0566 -0.1448 -0.9436
 1117SOL    HW114810   3.074   2.900   0.697  0.0385 -0.0910 -0.4502
 1117SOL    HW214811   3.141   3.019   0.738 -1.6193 -0.1477 -1.7998
 1118SOL     OW14812   2.219   4.695   7.568  0.8669  0.5814  0.1104
 1118SOL    HW114813   2.289   0.035   7.554  0.6790  0.9092  0.7061
 1118SOL    HW214814   2.227   4.680   7.662  0.6189  1.6802  0.3094
 1119SOL     OW14815   2.141   1.530   3.474 -0.2877  0.6913 -0.1458
 1119SOL    HW114816   2.147   1.609   3.420  0.4679 -0.5925 -1.9251
 1119SOL    HW214817   2.226   1.496   3.447 -1.9234 -1.8417 -2.0394
 1120SOL     OW14818   2.358   2.658   2.520  0.2142 -0.2575 -0.1405
 1120SOL    HW114819   2.436   2.705   2.551  1.8646 -3.3387  0.3755
 1120SOL    HW214820   2.292   2.725   2.541 -0.7332 -1.4897  0.7883
 1121SOL     OW14821   2.715   0.127   7.038  0.4427  0.6154  0.5715
 1121SOL    HW114822   2.695   0.043   7.081  0.2863 -0.2858 -1.2846
 1121SOL    HW214823   2.636   0.171   7.067  0.0149  0.9272 -1.1350
 1122SOL     OW14824   0.022   1.861  16.162  0.0767  0.1694 -0.4240
 1122SOL    HW114825   4.682   1.800  16.199  0.8432 -0.6768 -0.4607
 1122SOL    HW214826   0.007   1.844  16.069 -2.4613  0.5627 -0.1048
 1123SOL     OW14827   4.199   0.924   7.404  0.3702 -0.6678  0.0082
 1123SOL    HW114828   4.153   0.882   7.332 -2.4071  0.4429  1.1246
 1123SOL    HW214829   4.131   0.975   7.449  1.2191  0.1109  0.4048
 1124SOL     OW14830   3.619   1.367   5.088  0.1739  0.4479 -0.0682
 1124SOL    HW114831   3.593   1.277   5.066 -0.3089  0.4789  0.3860
 1124SOL    HW214832   3.609   1.364   5.183 -2.7889 -1.1933 -0.4199
 1125SOL     OW14833   0.051   2.222  16.701 -0.4431 -0.3673  0.9992
 1125SOL    HW114834   0.109   2.298  16.694 -0.8086 -0.3428 -2.0342
 1125SOL    HW214835   4.702   2.242  16.642 -0.7851  3.6631  2.7782
 1126SOL     OW14836   3.389   2.211   3.973  0.2778 -0.4472  0.2719
 1126SOL    HW114837   3.307   2.232   3.928 -0.2013 -0.3046  1.2235
 1126SOL    HW214838   3.369   2.138   4.031 -0.6665 -0.3192  0.1135
 1127SOL     OW14839   0.860   3.953  16.846 -0.0150 -0.3313 -0.6368
 1127SOL    HW114840   0.856   3.878  16.905  2.6680 -0.9133 -1.2057
 1127SOL    HW214841   0.780   3.941  16.795 -0.4547 -1.0142  0.2075
 1128SOL     OW14842   0.142   0.420   7.158  0.1533  0.2443 -0.0317
 1128SOL    HW114843   0.090   0.474   7.098  0.5191  1.7556  1.0066
 1128SOL    HW214844   0.175   0.484   7.221 -0.0739 -0.3332  0.6720
 1129SOL     OW14845   3.023   0.892   9.532 -0.2645  0.0871  0.1207
 1129SOL    HW114846   3.097   0.845   9.570 -0.3171 -0.3548 -0.3178
 1129SOL    HW214847   3.006   0.969   9.585  0.0568 -0.9436  1.7239
 1130SOL     OW14848   3.803   3.652   6.559 -0.0983  0.4514  0.7023
 1130SOL    HW114849   3.893   3.653   6.590 -0.1482 -0.7105  0.8819
 1130SOL    HW214850   3.807   3.567   6.514 -0.6436  1.0850 -0.5351
 1131SOL     OW14851   3.609   4.390  13.958 -0.4940 -0.8358 -0.4236
 1131SOL    HW114852   3.684   4.450  13.950 -1.7069  0.5086 -1.8526
 1131SOL    HW214853   3.651   4.305  13.970  2.2749  0.7391  0.9602
 1132SOL     OW14854   4.460   3.997   4.571 -0.3462  0.1657 -0.3806
 1132SOL    HW114855   4.436   4.072   4.625  0.4403 -0.6560  1.1097
 1132SOL    HW214856   4.392   4.002   4.504 -0.7197  2.1324  0.1632
 1133SOL     OW14857   3.459   2.425  15.883 -0.1936 -0.2902 -0.2423
 1133SOL    HW114858   3.509   2.393  15.808 -1.6829 -2.2051 -0.4508
 1133SOL    HW214859   3.378   2.453  15.840  0.2252  1.8428  0.3602
 1134SOL     OW14860   4.095   1.816   5.845  0.1113  0.0179  0.6805
 1134SOL    HW114861   4.170   1.823   5.786 -0.3180 -1.8850 -0.0753
 1134SOL    HW214862   4.047   1.899   5.838  0.4213  0.1839  0.5247
 1135SOL     OW14863   0.594   2.112  10.491 -0.3363  0.4755 -0.2866
 1135SOL    HW114864   0.623   2.133  10.579  1.0405  0.6092 -0.7824
 1135SOL    HW214865   0.555   2.027  10.514 -1.3402  0.9494 -0.2442
 1136SOL     OW14866   3.319   4.519  16.449  0.0057  0.5486 -0.4214
 1136SOL    HW114867   3.228   4.506  16.476  0.2216 -1.1042 -0.4901
 1136SOL    HW214868   3.353   4.465  16.520 -1.6587 -0.6703 -0.5530
 1137SOL     OW14869   2.194   4.252   1.808 -0.4310  0.2958 -0.1243
 1137SOL    HW114870   2.108   4.294   1.804 -1.1852 -1.1751  0.5699
 1137SOL    HW214871   2.260   4.320   1.819  1.1846 -1.6365  2.0039
 1138SOL     OW14872   3.799   2.709  13.441  0.1867  0.2118  0.3194
 1138SOL    HW114873   3.862   2.638  13.427  1.2810  1.5009 -1.2710
 1138SOL    HW214874   3.730   2.660  13.486  0.8880 -0.6881  0.4081
 1139SOL     OW14875   1.271   1.979   6.334  0.4962  0.3387  0.5550
 1139SOL    HW114876   1.186   1.951   6.302  0.9808  0.5172 -0.8868
 1139SOL    HW214877   1.260   1.961   6.428  0.8118  1.0064  0.7216
 1140SOL     OW14878   3.509   3.150  14.680 -0.1515 -0.2350 -0.4636
 1140SOL    HW114879   3.500   3.127  14.587 -0.4123  1.2115 -0.7932
 1140SOL    HW214880   3.534   3.242  14.676  2.6467 -0.9557  0.2302
 1141SOL     OW14881   4.622   4.069   3.267  0.6448  0.3472  0.4353
 1141SOL    HW114882   4.647   4.148   3.316  0.2540  0.4135  0.5291
 1141SOL    HW214883   4.630   4.099   3.177 -2.3609  3.6592  1.2823
 1142SOL     OW14884   0.122   1.984   8.702  0.1598 -0.1098  0.5371
 1142SOL    HW114885   0.174   2.033   8.638 -1.4243  1.3673  0.3585
 1142SOL    HW214886   0.049   2.047   8.701  0.3371  0.1004  0.6466
 1143SOL     OW14887   2.728   1.301  17.216  0.4036  0.0424  0.2127
 1143SOL    HW114888   2.746   1.278  17.307  1.2464 -1.3377 -0.3045
 1143SOL    HW214889   2.654   1.361  17.230  0.2640 -0.3890  1.3428
 1144SOL     OW14890   0.564   3.476  15.305  0.0194  0.3062  0.0752
 1144SOL    HW114891   0.579   3.387  15.274 -0.2193 -0.4623  2.1778
 1144SOL    HW214892   0.474   3.479  15.335  0.2622  1.7680  0.6824
 1145SOL     OW14893   4.560   3.324  13.017  0.3141 -0.2617 -0.0991
 1145SOL    HW114894   4.607   3.406  13.033  1.4771 -0.9243 -0.0963
 1145SOL    HW214895   4.603   3.274  12.947  0.8461 -0.8143  0.6209
 1146SOL     OW14896   0.766   2.723   6.108  0.4137 -0.4114  0.5069
 1146SOL    HW114897   0.704   2.710   6.179 -1.1802 -1.3033 -1.0546
 1146SOL    HW214898   0.704   2.713   6.036  2.5877  0.9130 -1.5609
 1147SOL     OW14899   1.344   0.571   3.143  0.6793  0.3739 -0.2767
 1147SOL    HW114900   1.302   0.657   3.149  0.5090  0.2670  0.0924
 1147SOL    HW214901   1.299   0.529   3.070 -0.3101  0.3514  0.3441
 1148SOL     OW14902   0.097   4.338   7.532  0.0772  0.3980  0.2039
 1148SOL    HW114903   0.003   4.325   7.525 -0.3221  1.4395  3.3793
 1148SOL    HW214904   0.133   4.249   7.535 -1.7939 -0.3329  0.7245
 1149SOL     OW14905   1.411   3.321   4.441 -0.1325  0.5209 -0.2816
 1149SOL    HW114906   1.320   3.308   4.413 -0.5709  1.5446  0.6777
 1149SOL    HW214907   1.409   3.415   4.457 -0.5684  0.5380 -0.4232
 1150SOL     OW14908   0.906   3.844  11.419 -0.1771  0.3420 -0.0628
 1150SOL    HW114909   0.991   3.801  11.411 -0.6801 -0.4389 -1.3933
 1150SOL    HW214910   0.916   3.880  11.507  0.7856  1.5519 -0.6808
 1151SOL     OW14911   4.643   0.401   4.530 -0.0944 -0.2703 -0.3023
 1151SOL    HW114912   4.663   0.309   4.549  1.6729  0.4527  1.3733
 1151SOL    HW214913   4.578   0.387   4.461 -1.8374 -2.5820  1.8069
 1152SOL     OW14914   3.103   2.180   9.366 -0.0175  0.6141  0.1446
 1152SOL    HW114915   3.078   2.091   9.392  0.7210 -0.3253 -2.3703
 1152SOL    HW214916   3.119   2.178   9.272 -2.4252 -0.2504 -0.2364
 1153SOL     OW14917   4.611   1.185   4.146 -0.1689 -0.3803 -0.3221
 1153SOL    HW114918   4.585   1.249   4.080  0.5365 -0.9714 -1.1711
 1153SOL    HW214919   4.701   1.217   4.154 -1.0255  1.8950  0.2281
 1154SOL     OW14920   3.422   0.461   2.113  0.4216  0.1317  0.4342
 1154SOL    HW114921   3.451   0.532   2.171 -0.6069  0.7955  0.1341
 1154SOL    HW214922   3.503   0.410   2.107 -1.2690 -2.3635 -1.1714
 1155SOL     OW14923   3.442   2.094  15.423 -0.5309 -0.6484 -0.3288
 1155SOL    HW114924   3.432   2.150  15.346 -1.1037 -0.4207 -0.0884
 1155SOL    HW214925   3.519   2.139  15.459 -1.1418 -1.6262  2.2035
 1156SOL     OW14926   0.913   1.815   7.427  0.4923  0.5287  0.6647
 1156SOL    HW114927   0.926   1.858   7.511 -1.1434 -0.5950  1.5067
 1156SOL    HW214928   0.859   1.883   7.387 -1.5491 -1.1778  0.5203
 1157SOL     OW14929   2.043   2.768  11.639  0.1418 -0.3785 -0.5037
 1157SOL    HW114930   2.064   2.702  11.705 -3.5449  0.8744  1.9427
 1157SOL    HW214931   2.021   2.842  11.697  1.6194  2.2418 -3.3095
 1158SOL     OW14932   0.506   1.369   8.510  0.1816  0.2487 -0.1274
 1158SOL    HW114933   0.422   1.415   8.508 -0.1167 -0.2527  0.5639
 1158SOL    HW214934   0.480   1.282   8.481 -0.1371  0.8262 -1.5369
 1159SOL     OW14935   0.314   1.583   7.675  0.1332 -0.0730 -0.3094
 1159SOL    HW114936   0.339   1.615   7.762  0.1579  2.9652 -1.4408
 1159SOL    HW214937   0.342   1.491   7.675  0.8960  0.1439  1.6964
 1160SOL     OW14938   1.046   4.331   1.713 -0.0603  0.2180 -1.0705
 1160SOL    HW114939   1.091   4.404   1.671 -0.5825  0.7630 -0.6943
 1160SOL    HW214940   1.120   4.280   1.745 -0.6517  0.8338  1.3280
 1161SOL     OW14941   0.010   0.422   4.833  0.0262  0.2725  0.3812
 1161SOL    HW114942   4.675   0.448   4.762  0.8150  1.2546  0.0703
 1161SOL    HW214943   0.003   0.328   4.821  0.5379  0.1990  0.6615
 1162SOL     OW14944   3.835   3.253   6.014  0.3075  0.4323 -0.1873
 1162SOL    HW114945   3.812   3.319   6.079  1.4608  0.8446 -0.1855
 1162SOL    HW214946   3.775   3.186   6.045  0.3018 -0.4104 -2.0256
 1163SOL     OW14947   1.783   0.177  15.576 -0.3592  0.5677  0.0629
 1163SOL    HW114948   1.838   0.240  15.529  0.4779  0.7884  1.3447
 1163SOL    HW214949   1.713   0.156  15.514 -1.6588  0.4234  1.5784
 1164SOL     OW14950   0.550   4.718  12.627  0.7696  0.1571 -0.4101
 1164SOL    HW114951   0.540   4.648  12.563 -2.0257 -0.1543  0.3471
 1164SOL    HW214952   0.536   0.068  12.568  0.6258 -0.8647 -1.6692
 1165SOL     OW14953   0.528   0.223   6.888 -0.4027 -0.5613  0.4295
 1165SOL    HW114954   0.457   0.284   6.909  0.2187 -0.2671  1.6829
 1165SOL    HW214955   0.476   0.143   6.882  1.2253 -1.4310 -1.8565
 1166SOL     OW14956   4.122   3.021   3.553  0.1766  0.2751 -0.6981
 1166SOL    HW114957   4.160   3.069   3.627  0.4181  2.3473 -2.1936
 1166SOL    HW214958   4.049   2.975   3.594 -0.6078  0.5567 -1.7945
 1167SOL     OW14959   2.493   1.476   8.671 -0.3800 -0.5691  0.1619
 1167SOL    HW114960   2.586   1.487   8.687 -0.4958  1.0387 -0.2269
 1167SOL    HW214961   2.454   1.479   8.758 -1.4048  1.1570 -0.3468
 1168SOL     OW14962   4.569   2.644   5.087 -0.0910 -0.4920  0.1737
 1168SOL    HW114963   4.644   2.612   5.037 -0.4566 -0.4257 -0.4146
 1168SOL    HW214964   4.527   2.561   5.111 -0.3955 -1.0864 -2.4928
 1169SOL     OW14965   0.732   0.782   4.979  0.5508 -0.1130  0.1036
 1169SOL    HW114966   0.804   0.723   5.004  1.3719 -0.7980 -3.8364
 1169SOL    HW214967   0.778   0.835   4.913  2.4496 -2.1263 -0.2065
 1170SOL     OW14968   0.865   0.546  16.990  0.2970  0.2787 -0.1530
 1170SOL    HW114969   0.785   0.498  17.011 -0.9927  2.3755 -0.1791
 1170SOL    HW214970   0.935   0.491  17.023  0.6782 -0.7735 -2.7206
 1171SOL     OW14971   2.197   4.558   0.421  0.0789 -0.3909 -0.6264
 1171SOL    HW114972   2.263   4.627   0.408  0.1919 -0.5569 -0.9360
 1171SOL    HW214973   2.152   4.553   0.336 -1.3496 -0.6245  0.1472
 1172SOL     OW14974   3.172   3.724   2.536 -0.6117 -0.3489  0.1213
 1172SOL    HW114975   3.154   3.816   2.517  1.6069  0.4493  1.8117
 1172SOL    HW214976   3.110   3.681   2.478 -1.2817 -0.1273  0.6652
 1173SOL     OW14977   3.495   3.384   5.361 -0.2553 -0.0998 -0.4365
 1173SOL    HW114978   3.400   3.377   5.351 -0.2580  3.2240 -2.6716
 1173SOL    HW214979   3.522   3.381   5.269 -0.0298 -0.5832 -0.3560
 1174SOL     OW14980   2.251   0.536  16.476 -0.1989 -0.0614 -0.0661
 1174SOL    HW114981   2.210   0.622  16.484  1.0301  0.3434  1.7568
 1174SOL    HW214982   2.185   0.493  16.421 -0.2160 -2.8475  2.1260
 1175SOL     OW14983   1.074   3.077  12.111  0.2944  0.1236  0.0086
 1175SOL    HW114984   1.024   3.001  12.080  0.8000 -1.3568  2.8637
 1175SOL    HW214985   1.139   3.035  12.168  1.8865  2.6237  0.0333
 1176SOL     OW14986   2.239   4.026   6.095 -0.1342  0.3613 -0.1380
 1176SOL    HW114987   2.259   3.993   6.182  0.0789  2.6208  0.6808
 1176SOL    HW214988   2.266   4.118   6.104  0.6493  0.2978 -1.8382
 1177SOL     OW14989   1.333   3.118   4.922  0.5543 -0.3539 -0.1577
 1177SOL    HW114990   1.329   3.130   4.827  0.2067  1.4761  0.0901
 1177SOL    HW214991   1.413   3.157   4.958  0.2654  0.2649 -0.1809
 1178SOL     OW14992   2.006   1.369   3.205  0.1666 -0.8568 -0.2922
 1178SOL    HW114993   1.916   1.374   3.238  0.4591  0.1774  0.3415
 1178SOL    HW214994   2.055   1.396   3.283 -0.3588 -1.7386  0.3434
 1179SOL     OW14995   2.574   3.637   8.495  0.5836  0.2388  0.0146
 1179SOL    HW114996   2.585   3.582   8.573 -0.0306  0.3359  0.1711
 1179SOL    HW214997   2.584   3.578   8.421 -2.6923  0.9782 -1.0420
 1180SOL     OW14998   2.843   0.389   7.700 -0.1777 -0.0848 -0.4354
 1180SOL    HW114999   2.748   0.399   7.711  0.0661  0.9207  0.7103
 1180SOL    HW215000   2.854   0.424   7.612 -0.5192 -0.2822 -0.5565
 1181SOL     OW15001   0.932   1.957   5.807 -0.2437 -0.1487 -0.2059
 1181SOL    HW115002   0.921   2.040   5.853 -0.1680 -0.6058  0.6438
 1181SOL    HW215003   0.838   1.941   5.804 -0.1549 -0.9217  1.0076
 1182SOL     OW15004   3.882   4.020  12.460  0.5126  0.6066 -0.3787
 1182SOL    HW115005   3.814   4.046  12.522  0.8217  0.9380 -0.1792
 1182SOL    HW215006   3.933   3.947  12.495 -3.2077 -1.2615  1.1462
 1183SOL     OW15007   4.271   4.100  12.869 -0.2542 -0.2908 -0.4729
 1183SOL    HW115008   4.224   4.039  12.925  1.9070 -0.3076  1.3377
 1183SOL    HW215009   4.235   4.185  12.892  1.9721  0.7738 -0.9237
 1184SOL     OW15010   1.371   0.944   3.727  0.2598 -0.7297 -0.3062
 1184SOL    HW115011   1.371   0.855   3.761 -0.4325  0.3965  2.6773
 1184SOL    HW215012   1.465   0.956   3.711  0.0900  2.0441  0.7544
 1185SOL     OW15013   1.262   1.721   6.692  0.4313 -0.0286  0.2016
 1185SOL    HW115014   1.179   1.732   6.645  0.3268  0.5964  0.5310
 1185SOL    HW215015   1.327   1.737   6.624  0.6011  0.3423  0.4542
 1186SOL     OW15016   3.764   2.038   0.371  1.0607 -0.1305 -0.6966
 1186SOL    HW115017   3.668   2.036   0.375  1.0325  0.5674 -1.0408
 1186SOL    HW215018   3.766   2.133   0.368  0.4716 -0.0846  0.4846
 1187SOL     OW15019   1.639   3.913   5.485  0.3313 -0.3547 -0.2048
 1187SOL    HW115020   1.613   3.989   5.536 -0.1996  0.3959 -1.5844
 1187SOL    HW215021   1.730   3.941   5.472  0.2217  0.3472  0.5634
 1188SOL     OW15022   2.666   1.836   6.780 -0.0487  0.4835  0.6620
 1188SOL    HW115023   2.741   1.893   6.796 -0.3892  1.2851 -0.6549
 1188SOL    HW215024   2.635   1.842   6.870  0.0057  2.3166  0.5676
 1189SOL     OW15025   2.993   1.408   8.522 -0.1184 -0.1068 -0.5241
 1189SOL    HW115026   2.947   1.469   8.464 -0.9359  2.4904  2.8265
 1189SOL    HW215027   3.087   1.426   8.518 -0.1390  0.0925 -0.1294
 1190SOL     OW15028   2.100   4.661   0.675  0.2567  0.3635 -0.1997
 1190SOL    HW115029   2.151   0.004   0.721  0.0497  1.0235 -0.9461
 1190SOL    HW215030   2.117   4.686   0.584  0.7675 -0.6439 -0.3742
 1191SOL     OW15031   4.342   1.218   5.586 -0.5472  0.0860 -0.3443
 1191SOL    HW115032   4.260   1.206   5.633 -0.6149  2.1938  0.0829
 1191SOL    HW215033   4.312   1.251   5.501 -1.6787  1.1736  0.4891
 1192SOL     OW15034   1.198   1.142  13.081  0.4408  0.0923 -0.2240
 1192SOL    HW115035   1.289   1.114  13.071  0.9044  1.2603  0.7725
 1192SOL    HW215036   1.209   1.225  13.034 -0.3501  1.8306  2.6562
 1193SOL     OW15037   3.432   1.917   2.398  0.1984  0.0538  0.1311
 1193SOL    HW115038   3.503   1.922   2.333 -0.5984 -3.2605 -0.9884
 1193SOL    HW215039   3.357   1.919   2.339  0.1220 -1.5823  0.1614
 1194SOL     OW15040   0.446   3.352   2.522  0.4488 -1.1176  0.1266
 1194SOL    HW115041   0.520   3.400   2.486 -0.0862 -1.1355 -1.0125
 1194SOL    HW215042   0.489   3.270   2.545  3.9028  0.6745  0.0412
 1195SOL     OW15043   0.156   1.501   1.344 -0.1430 -0.1993  0.4551
 1195SOL    HW115044   0.167   1.554   1.265  0.5769 -3.4130 -1.6261
 1195SOL    HW215045   0.247   1.481   1.367  0.8913  1.1301 -2.5062
 1196SOL     OW15046   1.704   3.645  16.501  0.4326  0.4305 -0.1546
 1196SOL    HW115047   1.646   3.698  16.555 -0.2245 -0.3963 -0.0337
 1196SOL    HW215048   1.772   3.617  16.562  3.4221 -1.7356 -4.4667
 1197SOL     OW15049   2.949   3.171   6.101 -0.2346 -0.3774  0.2639
 1197SOL    HW115050   2.884   3.112   6.139  0.9777 -2.6215 -1.1064
 1197SOL    HW215051   2.959   3.111   6.027 -3.5688 -0.2187 -0.3146
 1198SOL     OW15052   3.880   0.726   6.912 -0.2018 -0.4992  0.2140
 1198SOL    HW115053   3.931   0.689   6.841  0.7489 -0.5403  0.9180
 1198SOL    HW215054   3.820   0.786   6.868  2.1628  0.3872 -1.7768
 1199SOL     OW15055   0.693   2.581  10.123 -0.1295  0.1587 -0.0906
 1199SOL    HW115056   0.710   2.533  10.203 -1.0684  1.1974  0.7322
 1199SOL    HW215057   0.642   2.653  10.160 -1.1117 -0.9517  0.7165
 1200SOL     OW15058   1.401   3.791   3.116 -0.2914 -0.8763  0.2590
 1200SOL    HW115059   1.337   3.753   3.056  0.3772 -0.4288 -0.7377
 1200SOL    HW215060   1.399   3.884   3.093 -1.6509 -0.8399  0.5334
 1201SOL     OW15061   1.039   3.450  15.700  0.2642  0.5828 -0.2622
 1201SOL    HW115062   1.072   3.461  15.789 -0.2723 -1.2413  0.1667
 1201SOL    HW215063   1.014   3.359  15.714  2.7989 -0.0373  0.1942
 1202SOL     OW15064   3.545   2.608  13.467  0.3339  0.4499  0.2964
 1202SOL    HW115065   3.482   2.549  13.425 -1.9663  1.9406  1.6502
 1202SOL    HW215066   3.556   2.560  13.549 -0.8556  0.9515  0.7569
 1203SOL     OW15067   1.848   0.210   2.272 -0.6569  0.1298 -0.4671
 1203SOL    HW115068   1.919   0.217   2.336 -1.2452  0.2847  0.1677
 1203SOL    HW215069   1.861   0.277   2.204  0.0949 -0.5039 -0.9534
 1204SOL     OW15070   3.796   1.838   8.045  0.6277  0.0537 -0.1282
 1204SOL    HW115071   3.796   1.828   8.140 -0.6654 -0.4659 -0.1833
 1204SOL    HW215072   3.855   1.912   8.030  1.2820 -0.5360 -0.4717
 1205SOL     OW15073   4.641   1.472   8.154  0.2115 -0.1317  0.4735
 1205SOL    HW115074   4.694   1.393   8.160  0.4628 -0.1380 -1.9432
 1205SOL    HW215075   4.625   1.488   8.061 -1.8988  0.2116  0.8904
 1206SOL     OW15076   2.082   4.470   0.866 -0.5095 -0.0568 -0.2162
 1206SOL    HW115077   1.995   4.490   0.830 -1.7374  0.1835  2.8886
 1206SOL    HW215078   2.133   4.530   0.811 -0.4394 -0.4882 -0.6167
 1207SOL     OW15079   4.639   1.266   6.575 -0.5574 -0.0783 -0.0820
 1207SOL    HW115080   4.708   1.200   6.569 -1.1063 -0.9208  3.0830
 1207SOL    HW215081   4.682   1.351   6.585 -0.3440 -0.1633 -0.2917
 1208SOL     OW15082   1.374   0.392   1.668  0.1175  0.2500 -0.1456
 1208SOL    HW115083   1.384   0.485   1.686 -0.3960  0.1532  0.6098
 1208SOL    HW215084   1.291   0.398   1.620 -0.6613 -1.1597  1.0358
 1209SOL     OW15085   3.629   1.391   3.102 -0.6436  0.0361 -0.2579
 1209SOL    HW115086   3.674   1.322   3.054  0.2751  1.4347 -1.4038
 1209SOL    HW215087   3.584   1.330   3.160  0.4044 -1.5684 -1.1477
 1210SOL     OW15088   0.339   2.654  16.464 -0.0665  0.4089  0.0111
 1210SOL    HW115089   0.245   2.654  16.450 -0.2929  0.6547  1.5404
 1210SOL    HW215090   0.374   2.645  16.376 -1.4893  0.3525 -0.5497
 1211SOL     OW15091   2.449   4.143   3.566  0.8162 -0.2726  0.2601
 1211SOL    HW115092   2.411   4.204   3.503  1.9230  1.5883  1.4076
 1211SOL    HW215093   2.468   4.204   3.636  0.2236 -2.3324  2.2231
 1212SOL     OW15094   0.369   3.711   9.339  0.4467  0.0010 -0.6322
 1212SOL    HW115095   0.346   3.802   9.318 -1.3172 -0.3607 -0.2731
 1212SOL    HW215096   0.289   3.659   9.336  0.3794 -0.0230  1.5709
 1213SOL     OW15097   0.226   1.722   7.449 -0.0908 -0.1526 -0.7097
 1213SOL    HW115098   0.223   1.814   7.476  0.9551  0.0045 -1.1567
 1213SOL    HW215099   0.273   1.697   7.528 -0.4311  1.6927  0.0913
 1214SOL     OW15100   1.295   1.757   7.957 -0.9498  0.6404 -0.3075
 1214SOL    HW115101   1.314   1.752   8.051 -1.6610 -0.0560 -0.1991
 1214SOL    HW215102   1.211   1.711   7.951 -0.5905 -0.0837  0.1503
 1215SOL     OW15103   1.524   2.294  10.279 -0.2757  0.2751 -0.2770
 1215SOL    HW115104   1.575   2.292  10.199  0.6880  1.2032  0.3147
 1215SOL    HW215105   1.552   2.376  10.321  0.6151  0.0588 -0.4538
 1216SOL     OW15106   2.337   1.712   5.202  0.5184 -0.2995  0.2883
 1216SOL    HW115107   2.262   1.771   5.203  1.6689  1.1088  1.4966
 1216SOL    HW215108   2.414   1.766   5.216  0.4935 -0.5984  1.5629
 1217SOL     OW15109   3.121   0.685   8.261 -0.2156 -0.3017 -0.0823
 1217SOL    HW115110   3.094   0.725   8.344 -1.5736 -0.3103 -0.5121
 1217SOL    HW215111   3.108   0.762   8.205  0.0533 -0.2181 -0.0278
 1218SOL     OW15112   1.623   1.026   2.270  0.1954 -0.1019  0.8503
 1218SOL    HW115113   1.527   1.024   2.271  0.1817  0.0678 -0.1379
 1218SOL    HW215114   1.637   0.950   2.214  2.6435 -0.3824  1.8656
 1219SOL     OW15115   0.118   1.771   4.759  0.3124  0.0300 -0.3456
 1219SOL    HW115116   0.060   1.833   4.714 -1.9684 -2.0099 -0.2294
 1219SOL    HW215117   0.072   1.758   4.842 -0.9678  0.2233 -1.0174
 1220SOL     OW15118   2.427   0.582   6.522  0.0500 -0.0719  0.8477
 1220SOL    HW115119   2.462   0.529   6.450  0.2619  1.5534 -0.2331
 1220SOL    HW215120   2.334   0.564   6.510  0.6040 -2.5918  0.3093
 1221SOL     OW15121   2.560   4.615   2.665 -0.2618 -0.0612  0.2276
 1221SOL    HW115122   2.565   4.536   2.718  0.8777 -1.2247 -1.6371
 1221SOL    HW215123   2.509   4.588   2.589 -2.7237  0.0836  1.8291
 1222SOL     OW15124   3.333   4.627  16.201  0.2332 -0.2386 -0.1348
 1222SOL    HW115125   3.348   4.572  16.278  0.0666 -0.0399  0.0402
 1222SOL    HW215126   3.238   4.616  16.199 -0.1291  2.3704  2.9287
 1223SOL     OW15127   2.816   3.315  14.009 -0.0213 -0.8109 -0.1628
 1223SOL    HW115128   2.860   3.242  13.965  1.5978  0.5563 -0.8213
 1223SOL    HW215129   2.733   3.277  14.035 -0.5508 -0.2297 -1.0273
 1224SOL     OW15130   1.800   3.520  16.886  0.3600  0.1145 -0.0639
 1224SOL    HW115131   1.783   3.612  16.908  1.0007  0.2649 -0.1957
 1224SOL    HW215132   1.866   3.530  16.818  2.4080  2.2251  2.2222
 1225SOL     OW15133   0.877   1.101   7.384  0.6295 -0.1017  0.2057
 1225SOL    HW115134   0.805   1.041   7.363  0.7657 -0.6616  1.3169
 1225SOL    HW215135   0.917   1.054   7.457  0.4290  0.2889  0.5649
 1226SOL     OW15136   0.441   3.691   3.974 -0.4868  0.2392  0.9302
 1226SOL    HW115137   0.423   3.643   4.055 -0.8119 -0.5818  0.3725
 1226SOL    HW215138   0.407   3.643   3.899  2.8058  1.7700 -1.5639
 1227SOL     OW15139   4.122   3.444   4.895 -0.2584 -0.0745 -0.3027
 1227SOL    HW115140   4.119   3.387   4.972  0.3833  0.3692  0.0506
 1227SOL    HW215141   4.033   3.425   4.866 -0.0111 -0.6401 -0.7023
 1228SOL     OW15142   3.546   1.959   2.063  0.2929  0.3337  0.3553
 1228SOL    HW115143   3.543   2.052   2.084  0.3918  0.4513 -0.1597
 1228SOL    HW215144   3.632   1.933   2.097 -0.0351 -0.6089  0.4547
 1229SOL     OW15145   1.956   4.365   9.072 -0.5524  0.0131  0.4071
 1229SOL    HW115146   1.969   4.447   9.120 -0.8425 -1.7478  3.4802
 1229SOL    HW215147   1.920   4.313   9.144  0.1122 -2.3348 -0.9460
 1230SOL     OW15148   1.448   2.767   9.796  0.3378 -0.2956 -0.1111
 1230SOL    HW115149   1.410   2.833   9.854  0.5272 -1.1437  0.9876
 1230SOL    HW215150   1.390   2.776   9.721  1.2633  1.0084 -0.6767
 1231SOL     OW15151   4.706   2.175   7.779  0.1659 -0.2179  0.1454
 1231SOL    HW115152   0.057   2.220   7.818 -1.1268  1.9238  0.1227
 1231SOL    HW215153   4.647   2.157   7.852 -1.6662  2.4171 -0.6822
 1232SOL     OW15154   3.198   1.905  14.466 -0.4152 -0.6423 -0.7759
 1232SOL    HW115155   3.117   1.868  14.433 -1.0743  1.5459 -1.6456
 1232SOL    HW215156   3.260   1.891  14.395  2.8409  1.4675  1.5971
 1233SOL     OW15157   4.638   2.167   1.804  0.2146 -0.1466 -0.4237
 1233SOL    HW115158   4.556   2.213   1.816 -0.3128 -1.6636  1.6901
 1233SOL    HW215159   4.686   2.224   1.743  0.0679  1.2546  0.7878
 1234SOL     OW15160   1.479   2.170   4.261  0.0842 -0.2480 -0.0809
 1234SOL    HW115161   1.546   2.109   4.230  1.0278  0.2520  0.9437
 1234SOL    HW215162   1.542   2.221   4.312 -2.2195  1.4473  1.0303
 1235SOL     OW15163   3.463   2.366  16.519  0.0760 -0.3416 -0.0526
 1235SOL    HW115164   3.547   2.358  16.563 -1.4818  1.3730  3.2936
 1235SOL    HW215165   3.407   2.321  16.582 -0.0878 -0.3314 -0.1907
 1236SOL     OW15166   3.415   1.526  10.063  0.3112  0.1590 -0.4867
 1236SOL    HW115167   3.386   1.522  10.154  0.7850 -1.9515 -0.4365
 1236SOL    HW215168   3.366   1.451  10.029  1.5040 -0.2633 -1.2910
 1237SOL     OW15169   1.226   1.391   6.639  0.5003 -0.4280 -0.3262
 1237SOL    HW115170   1.177   1.465   6.676 -2.1663 -3.4344  2.1784
 1237SOL    HW215171   1.282   1.355   6.708 -0.7258  0.2526  1.0227
 1238SOL     OW15172   2.112   4.210   1.219 -0.2466  0.0026 -0.0007
 1238SOL    HW115173   2.160   4.156   1.282 -2.5142 -0.4046  1.3579
 1238SOL    HW215174   2.080   4.281   1.274  0.9009 -1.2358  2.2617
 1239SOL     OW15175   0.621   3.787   8.943 -0.3695 -0.3700 -0.3275
 1239SOL    HW115176   0.664   3.704   8.922  0.0674 -0.2598  0.1251
 1239SOL    HW215177   0.661   3.840   8.873  0.8266 -1.6339 -0.6023
 1240SOL     OW15178   1.553   3.921  12.004  0.2200 -0.2937 -0.8200
 1240SOL    HW115179   1.568   4.015  12.015 -1.6817  0.0856 -1.3713
 1240SOL    HW215180   1.473   3.935  11.953  1.8808 -1.9631 -3.9196
 1241SOL     OW15181   2.649   4.545   9.937  0.3383 -0.2162  0.3115
 1241SOL    HW115182   2.715   4.476   9.945  0.0459 -0.4558  0.6806
 1241SOL    HW215183   2.646   4.575   9.846 -0.2806 -2.2104 -0.3111
 1242SOL     OW15184   4.592   2.447   8.898  0.1025  0.1755 -0.3170
 1242SOL    HW115185   4.580   2.514   8.966  0.4205 -0.4298  0.3410
 1242SOL    HW215186   4.673   2.399   8.919 -0.4173 -0.5769 -0.0404
 1243SOL     OW15187   1.979   2.172   7.521 -0.3898 -0.0549 -0.3393
 1243SOL    HW115188   2.003   2.083   7.545 -1.2090 -0.2525 -0.2430
 1243SOL    HW215189   1.899   2.152   7.472  1.6065 -0.8870 -3.2875
 1244SOL     OW15190   1.864   4.664  16.923  0.5615  0.4617  0.5832
 1244SOL    HW115191   1.790   4.724  16.937  0.3232  0.1029  0.8649
 1244SOL    HW215192   1.940   4.716  16.952 -0.0299  1.0869  1.0204
 1245SOL     OW15193   1.927   0.324   4.463 -0.5528  0.0805 -0.0849
 1245SOL    HW115194   2.004   0.366   4.425  0.5553 -1.5166  0.4187
 1245SOL    HW215195   1.875   0.398   4.497 -0.6151 -0.9058  1.9494
 1246SOL     OW15196   0.117   2.574   1.564  0.2326  0.2906  0.4479
 1246SOL    HW115197   0.026   2.591   1.539  0.0487 -0.3080  0.7005
 1246SOL    HW215198   0.117   2.478   1.573 -2.2068  0.3690  1.1759
 1247SOL     OW15199   4.431   2.857  12.424  0.2475 -0.3389  0.4786
 1247SOL    HW115200   4.391   2.872  12.510 -1.7231 -0.0571 -0.4661
 1247SOL    HW215201   4.353   2.865  12.368 -0.2107  0.3099  1.2011
 1248SOL     OW15202   0.328   0.862   3.568  0.1285 -0.0107  0.2372
 1248SOL    HW115203   0.326   0.831   3.477  1.2450  0.1062  0.1788
 1248SOL    HW215204   0.404   0.919   3.560  1.0191 -0.9645  1.9479
 1249SOL     OW15205   3.750   3.373   3.814  0.0233  0.3616  0.0113
 1249SOL    HW115206   3.835   3.392   3.774 -0.0039  0.4814  0.0094
 1249SOL    HW215207   3.703   3.352   3.733 -0.5942 -1.2158  0.7825
 1250SOL     OW15208   3.877   1.266   4.471  0.1925  0.2788  0.3900
 1250SOL    HW115209   3.972   1.256   4.471  0.0278 -1.1177 -4.7894
 1250SOL    HW215210   3.861   1.239   4.561 -0.5095  1.9618  0.7819
 1251SOL     OW15211   2.947   0.189  13.633 -0.2488  0.4649  0.1232
 1251SOL    HW115212   3.037   0.202  13.602 -0.0566 -0.8851  0.0942
 1251SOL    HW215213   2.949   0.093  13.634  1.8977  0.5001 -0.3210
 1252SOL     OW15214   0.433   4.009   7.841 -0.1403 -0.4727 -0.4434
 1252SOL    HW115215   0.419   3.920   7.807  3.5114 -0.8796 -0.8701
 1252SOL    HW215216   0.443   4.060   7.761  0.0494  1.2833  0.6976
 1253SOL     OW15217   1.970   3.528   7.134  0.2473  0.6713  0.1728
 1253SOL    HW115218   1.891   3.581   7.140  0.5412  0.8978  2.1271
 1253SOL    HW215219   1.929   3.446   7.109  0.5264  0.5001  0.2734
 1254SOL     OW15220   0.858   2.826  12.327 -0.0918 -0.6238 -0.2354
 1254SOL    HW115221   0.863   2.907  12.378  1.9171  0.8927 -2.8361
 1254SOL    HW215222   0.937   2.781  12.355  0.2251 -0.1741 -0.4098
 1255SOL     OW15223   2.824   4.688   4.385 -0.5123  0.1798  0.1704
 1255SOL    HW115224   2.862   4.605   4.355 -1.7712  0.4418 -2.1418
 1255SOL    HW215225   2.836   4.672   4.479 -2.1677 -4.1371 -0.3362
 1256SOL     OW15226   3.083   3.386   2.411 -0.0117 -0.0814  0.4570
 1256SOL    HW115227   3.055   3.454   2.472  0.3792  0.7920 -0.3369
 1256SOL    HW215228   3.175   3.369   2.430 -0.0454 -0.8286 -0.0298
 1257SOL     OW15229   3.990   1.236  16.089  0.1619 -0.1803  0.5722
 1257SOL    HW115230   4.036   1.179  16.151 -0.1632 -1.4073 -0.3191
 1257SOL    HW215231   3.949   1.167  16.037  0.0244 -0.2376  0.7586
 1258SOL     OW15232   2.721   1.302   6.669 -0.3829 -0.0835 -0.2162
 1258SOL    HW115233   2.676   1.263   6.744  0.9349 -0.5692  0.3394
 1258SOL    HW215234   2.779   1.230   6.644 -1.7575 -1.3444  0.2343
 1259SOL     OW15235   2.338   2.397  11.569 -0.5265 -0.8933  0.1361
 1259SOL    HW115236   2.418   2.348  11.550 -1.1577 -1.6147 -0.6460
 1259SOL    HW215237   2.308   2.397  11.478  4.0903  1.4501 -1.3809
 1260SOL     OW15238   2.026   4.717  12.270 -0.3546  0.1051 -0.1205
 1260SOL    HW115239   1.972   4.663  12.213 -0.2139  0.0760 -0.2257
 1260SOL    HW215240   1.962   0.031  12.330  0.4828 -1.4073  1.7320
 1261SOL     OW15241   3.536   4.627   2.386 -0.5149 -0.5111  0.1583
 1261SOL    HW115242   3.601   4.569   2.426 -0.3632  0.9230  2.0324
 1261SOL    HW215243   3.504   4.568   2.319  2.3810  0.4550 -2.0353
 1262SOL     OW15244   3.080   2.504   9.405  0.0683 -0.0442 -0.0866
 1262SOL    HW115245   3.057   2.589   9.442  0.4555 -0.0454  0.1574
 1262SOL    HW215246   3.087   2.443   9.478 -0.9575 -0.6901 -0.5274
 1263SOL     OW15247   4.600   3.404   6.811 -0.2610  0.2249  0.6191
 1263SOL    HW115248   4.653   3.470   6.767 -1.7999  0.6854 -0.5543
 1263SOL    HW215249   4.660   3.382   6.882 -0.9375 -1.8262  0.5514
 1264SOL     OW15250   0.700   3.580   5.576 -0.0802  0.1586  0.2597
 1264SOL    HW115251   0.773   3.624   5.620  0.0612  0.3494 -0.1634
 1264SOL    HW215252   0.631   3.646   5.569 -0.1272  0.1860  0.9404
 1265SOL     OW15253   1.811   3.909   4.647  0.2239  0.2313 -0.2597
 1265SOL    HW115254   1.875   3.977   4.665  0.2674  0.4689 -1.3476
 1265SOL    HW215255   1.830   3.894   4.555 -2.3820 -1.3231 -0.5365
 1266SOL     OW15256   1.360   3.206   5.426 -0.0352 -0.1929  0.4187
 1266SOL    HW115257   1.432   3.269   5.430 -1.4597  1.5820 -1.6907
 1266SOL    HW215258   1.391   3.153   5.353 -1.8993  0.1872 -0.6571
 1267SOL     OW15259   2.269   0.447  15.375  0.5174  0.3401 -0.5394
 1267SOL    HW115260   2.349   0.497  15.364 -1.2510  2.9310 -1.6231
 1267SOL    HW215261   2.236   0.482  15.458  1.8993 -2.4824  1.2069
 1268SOL     OW15262   2.660   1.300  11.115  0.6536  0.3616  0.2965
 1268SOL    HW115263   2.729   1.360  11.144 -1.1924  1.8830  1.5256
 1268SOL    HW215264   2.657   1.326  11.023  2.0597 -0.3951  0.0363
 1269SOL     OW15265   3.681   3.568   3.997 -0.0180  0.2586 -0.1139
 1269SOL    HW115266   3.600   3.586   3.950 -0.7605 -1.2864  0.5862
 1269SOL    HW215267   3.711   3.488   3.955  1.9726  0.3894  1.0413
 1270SOL     OW15268   4.286   4.313   5.311 -0.7182  0.2916 -0.7134
 1270SOL    HW115269   4.197   4.347   5.316 -0.2474  1.2163  1.3551
 1270SOL    HW215270   4.342   4.390   5.316 -0.5766  0.0587  1.3362
 1271SOL     OW15271   2.107   3.527   7.632  0.3434  0.0352 -0.6053
 1271SOL    HW115272   2.176   3.490   7.687  1.4917  1.0877 -1.3297
 1271SOL    HW215273   2.061   3.446   7.613 -0.1429  0.2915 -0.5281
 1272SOL     OW15274   2.122   2.762   7.702 -0.8108  0.0538 -0.2071
 1272SOL    HW115275   2.105   2.705   7.627 -0.4632 -3.0983  2.1502
 1272SOL    HW215276   2.191   2.717   7.750 -1.0853 -1.8925 -1.6679
 1273SOL     OW15277   0.823   3.860   6.013  0.0635  0.1717  0.7173
 1273SOL    HW115278   0.747   3.807   5.987  0.3061  0.0013  0.3692
 1273SOL    HW215279   0.850   3.915   5.940  0.7846 -0.6793  0.3376
 1274SOL     OW15280   0.311   0.944  11.055 -0.0037 -0.6641 -0.3577
 1274SOL    HW115281   0.347   0.891  11.126 -0.1598 -2.2911 -1.4837
 1274SOL    HW215282   0.370   0.924  10.982  1.1078 -0.2510  0.4271
 1275SOL     OW15283   4.645   0.423   7.446  0.6525  0.0880  0.1002
 1275SOL    HW115284   4.636   0.437   7.352  0.3644  1.4873  0.3328
 1275SOL    HW215285   4.652   0.328   7.441 -0.2760 -0.0675  1.5771
 1276SOL     OW15286   2.815   1.464   4.765 -0.0197 -0.2216  0.4081
 1276SOL    HW115287   2.759   1.540   4.746 -0.9587 -1.7442 -3.0187
 1276SOL    HW215288   2.841   1.485   4.854  0.2521 -0.5907  0.4176
 1277SOL     OW15289   3.071   0.728  14.302 -0.1937 -0.1808 -0.6674
 1277SOL    HW115290   3.090   0.679  14.222  0.6841  0.0415 -0.6006
 1277SOL    HW215291   3.096   0.819  14.290  0.8042 -0.1661  1.4712
 1278SOL     OW15292   0.550   1.279   7.455  1.1310 -0.1356 -0.0785
 1278SOL    HW115293   0.553   1.374   7.440 -0.9009 -0.1001 -0.1814
 1278SOL    HW215294   0.617   1.257   7.389 -0.0871 -1.7555 -0.7693
 1279SOL     OW15295   3.853   4.158   3.741  0.0806 -0.2216 -0.7350
 1279SOL    HW115296   3.761   4.185   3.740  0.1607  0.2743  3.9781
 1279SOL    HW215297   3.865   4.148   3.835 -1.2653 -0.0959 -0.5399
 1280SOL     OW15298   4.501   0.498  15.197 -0.5014  0.8930 -0.2561
 1280SOL    HW115299   4.550   0.416  15.201 -0.0090  1.1499 -1.2529
 1280SOL    HW215300   4.556   0.556  15.145  1.2422 -2.2050 -1.8457
 1281SOL     OW15301   0.493   3.575   6.576 -0.5668  0.3863 -0.2095
 1281SOL    HW115302   0.413   3.537   6.541 -0.3535 -0.6207  0.3776
 1281SOL    HW215303   0.508   3.648   6.516  1.3235  0.4542  0.3399
 1282SOL     OW15304   1.581   3.981   4.785  0.5071 -0.0672  0.3422
 1282SOL    HW115305   1.580   3.889   4.812  0.6661  0.1409  1.0449
 1282SOL    HW215306   1.662   3.980   4.734  0.7893 -0.4495  0.7953
 1283SOL     OW15307   4.605   1.951   1.957  0.5881  0.2046 -0.1604
 1283SOL    HW115308   4.571   1.872   1.915 -1.2995  0.4655  0.8268
 1283SOL    HW215309   4.588   2.018   1.891  0.4891 -1.0352 -1.3769
 1284SOL     OW15310   2.989   0.067   8.767  0.3214 -0.1584 -0.0899
 1284SOL    HW115311   2.969   0.159   8.747 -0.4725 -0.3370 -0.1137
 1284SOL    HW215312   2.902   0.034   8.788 -0.6156  1.7205 -0.9800
 1285SOL     OW15313   1.963   1.151   4.476  0.0731 -0.4544 -0.2189
 1285SOL    HW115314   1.903   1.152   4.402 -1.9009 -0.6699  1.3776
 1285SOL    HW215315   1.901   1.159   4.548  0.4112  0.4311 -0.0376
 1286SOL     OW15316   2.012   3.923  11.102 -0.5287 -0.8350  0.3229
 1286SOL    HW115317   2.100   3.918  11.138 -0.2315  1.4379 -0.1273
 1286SOL    HW215318   2.017   3.898  11.009 -0.3551 -0.1422  0.1456
 1287SOL     OW15319   0.267   2.449   3.737  0.3265 -0.5822  0.2885
 1287SOL    HW115320   0.227   2.364   3.754  1.2363 -1.4140 -1.6199
 1287SOL    HW215321   0.344   2.420   3.688  2.1308  1.8287  1.7129
 1288SOL     OW15322   3.137   0.652   2.805  0.0457 -0.0566  0.3224
 1288SOL    HW115323   3.139   0.556   2.807  3.0638  0.0297  1.3842
 1288SOL    HW215324   3.069   0.660   2.872  1.2440  1.9155  1.3197
 1289SOL     OW15325   2.068   3.210   0.480 -0.2462  0.6421 -0.0917
 1289SOL    HW115326   1.976   3.188   0.465  0.0626 -0.5803 -0.2264
 1289SOL    HW215327   2.078   3.218   0.575  1.0251 -1.7213 -0.0415
 1290SOL     OW15328   3.057   1.294  14.049  0.7024 -0.4345 -0.2799
 1290SOL    HW115329   3.086   1.203  14.055 -0.3351 -0.7173  0.2650
 1290SOL    HW215330   2.964   1.277  14.038  0.5656  0.6447 -0.8396
 1291SOL     OW15331   2.475   0.400   1.865  0.2823  0.6165 -0.2092
 1291SOL    HW115332   2.564   0.426   1.889 -0.3658 -0.0776  2.9603
 1291SOL    HW215333   2.479   0.305   1.855  1.0461  0.5001  1.1708
 1292SOL     OW15334   2.877   3.764   8.115  0.0996 -0.1006  0.0773
 1292SOL    HW115335   2.871   3.670   8.096  0.3561 -0.1487  0.2506
 1292SOL    HW215336   2.792   3.789   8.152 -0.1552  2.0927 -1.9446
 1293SOL     OW15337   0.927   4.076   6.614  0.3463 -0.8458  0.4072
 1293SOL    HW115338   0.842   4.034   6.630  1.5392 -1.9189  3.9805
 1293SOL    HW215339   0.899   4.167   6.615  0.1030 -0.9173  0.1838
 1294SOL     OW15340   4.489   2.764   6.566 -0.1076  0.4928  0.4430
 1294SOL    HW115341   4.520   2.852   6.585  3.8158 -0.9303  0.6190
 1294SOL    HW215342   4.435   2.779   6.489  0.0670 -1.2728 -0.0254
 1295SOL     OW15343   1.283   3.052   1.855 -0.3141 -0.5298  0.4242
 1295SOL    HW115344   1.241   3.025   1.937  0.5087 -1.5711  0.5120
 1295SOL    HW215345   1.371   3.017   1.872 -0.3048 -0.3300  0.7990
 1296SOL     OW15346   1.680   4.281  10.254  0.1168 -0.6936  0.1335
 1296SOL    HW115347   1.599   4.330  10.237  0.3601 -1.2222 -2.4702
 1296SOL    HW215348   1.697   4.234  10.172 -3.1457  1.7368 -1.9485
 1297SOL     OW15349   1.178   3.801   6.425 -0.4265  0.4296 -0.0156
 1297SOL    HW115350   1.158   3.740   6.495 -0.0361  0.2439 -0.0706
 1297SOL    HW215351   1.092   3.823   6.388  0.0388  0.1589 -1.2639
 1298SOL     OW15352   3.715   2.046   8.449  0.5661  1.0206 -0.3477
 1298SOL    HW115353   3.735   2.130   8.407 -1.4172  1.4206 -0.4739
 1298SOL    HW215354   3.759   2.054   8.534  1.3435  1.4600 -0.7907
 1299SOL     OW15355   4.447   4.698   4.865 -0.4706  0.2354 -0.3733
 1299SOL    HW115356   4.486   4.687   4.778 -1.8535  0.3613 -1.0153
 1299SOL    HW215357   4.528   0.014   4.897  0.8774 -3.5969  1.0437
 1300SOL     OW15358   4.275   1.548  16.255 -0.5492 -0.4496 -0.2560
 1300SOL    HW115359   4.362   1.587  16.263 -0.9248  0.0996  1.1197
 1300SOL    HW215360   4.283   1.472  16.313  1.7496  0.8514  1.0956
 1301SOL     OW15361   2.457   2.629   4.690 -0.1590 -0.2813  0.5245
 1301SOL    HW115362   2.467   2.560   4.755 -0.0929 -0.6573  0.1129
 1301SOL    HW215363   2.407   2.582   4.624  1.3822 -0.6390 -0.3786
 1302SOL     OW15364   0.611   4.645  14.500  0.3301 -0.5396  0.8066
 1302SOL    HW115365   0.626   4.651  14.595 -0.1831  1.3453  0.7536
 1302SOL    HW215366   0.692   4.675  14.461 -0.2326  0.3125  0.2970
 1303SOL     OW15367   2.501   3.811   2.666  0.7649 -0.1613 -0.3445
 1303SOL    HW115368   2.529   3.890   2.619  1.6297 -1.0561 -1.3153
 1303SOL    HW215369   2.584   3.768   2.687  1.6496  2.2507  1.1262
 1304SOL     OW15370   1.680   4.278  16.868  0.2373  0.2902 -0.7408
 1304SOL    HW115371   1.762   4.325  16.880  0.2067 -0.7109  3.5407
 1304SOL    HW215372   1.620   4.351  16.883 -1.9075 -2.0366  2.0597
 1305SOL     OW15373   3.456   1.062   6.288  0.8129  0.5599  0.4004
 1305SOL    HW115374   3.419   1.062   6.376  0.5933 -1.3864  0.2930
 1305SOL    HW215375   3.515   1.137   6.299  1.7804  0.2416 -2.5693
 1306SOL     OW15376   0.209   0.478   2.144  0.2879 -0.5029 -0.4175
 1306SOL    HW115377   0.126   0.431   2.134 -1.5571  2.7809 -0.7265
 1306SOL    HW215378   0.274   0.412   2.122  0.5513  0.0486 -1.3135
 1307SOL     OW15379   2.826   0.183  17.364 -0.6071  0.5178  0.2991
 1307SOL    HW115380   2.750   0.229  17.400  0.4948  1.3012  1.6218
 1307SOL    HW215381   2.854   0.245  17.296 -2.4182 -0.2815 -1.1630
 1308SOL     OW15382   3.316   2.639  13.677  0.2113  0.0328 -0.3516
 1308SOL    HW115383   3.411   2.642  13.691  0.4942  0.4360 -2.3482
 1308SOL    HW215384   3.298   2.549  13.703  0.3404  0.3980  1.0089
 1309SOL     OW15385   1.071   4.295   4.741 -0.3420 -0.6306 -1.0025
 1309SOL    HW115386   1.011   4.308   4.667  0.0969 -2.6705 -1.7106
 1309SOL    HW215387   1.002   4.270   4.802 -0.7081 -0.1613 -1.2189
 1310SOL     OW15388   0.070   3.804   6.037  0.0250 -0.0554  0.0566
 1310SOL    HW115389   0.054   3.819   5.944 -0.4606 -2.9053 -0.3495
 1310SOL    HW215390   0.023   3.720   6.045  0.7651 -0.3994  0.7888
 1311SOL     OW15391   1.224   0.456   2.429  0.1514  0.0946 -0.1868
 1311SOL    HW115392   1.251   0.546   2.411  2.3304 -1.2158 -3.2514
 1311SOL    HW215393   1.286   0.390   2.398  0.6713 -0.2475  1.5253
 1312SOL     OW15394   0.627   4.090  14.860 -0.5301  0.3096 -0.0694
 1312SOL    HW115395   0.687   4.029  14.816  0.3670  1.1061  0.0384
 1312SOL    HW215396   0.660   4.085  14.950 -0.0830 -0.1399 -0.2529
 1313SOL     OW15397   1.644   2.017  13.146  0.2560 -0.4099  0.3441
 1313SOL    HW115398   1.715   1.964  13.109  0.8359 -0.2182  1.1790
 1313SOL    HW215399   1.599   2.042  13.065 -0.8566  2.7843  1.9586
 1314SOL     OW15400   4.514   3.750  11.886 -0.2259  0.3472  0.0324
 1314SOL    HW115401   4.455   3.826  11.885 -1.0742 -0.3265 -1.1866
 1314SOL    HW215402   4.593   3.802  11.898 -0.3749  0.1560  1.7900
 1315SOL     OW15403   1.793   0.862   5.436 -0.2653 -0.6962 -0.4491
 1315SOL    HW115404   1.879   0.871   5.395 -1.0916  1.0711 -1.8214
 1315SOL    HW215405   1.793   0.947   5.479 -1.2658 -1.6538  1.4380
 1316SOL     OW15406   2.203   3.615   7.300  0.2220 -0.0351 -0.4642
 1316SOL    HW115407   2.127   3.613   7.243 -0.6027  0.9004  0.5963
 1316SOL    HW215408   2.166   3.670   7.369  0.9622  0.0535 -0.1332
 1317SOL     OW15409   1.881   1.785   7.473 -0.3081  0.3907 -0.1345
 1317SOL    HW115410   1.822   1.728   7.423  1.7347 -1.2083 -0.7123
 1317SOL    HW215411   1.830   1.793   7.554  0.8042  0.5265  0.5520
 1318SOL     OW15412   3.666   0.939   3.533  0.3231 -0.3996 -0.5621
 1318SOL    HW115413   3.585   0.928   3.583  0.0690  0.6907 -0.7376
 1318SOL    HW215414   3.707   0.853   3.542 -1.3666 -1.2437 -0.9650
 1319SOL     OW15415   1.704   4.564  15.550 -0.0311 -0.2206  0.4963
 1319SOL    HW115416   1.787   4.517  15.542  0.7513  1.3915 -0.7653
 1319SOL    HW215417   1.644   4.491  15.532 -0.6384  0.2036  0.8061
 1320SOL     OW15418   0.309   2.082  10.782 -0.4791  0.5286  0.4803
 1320SOL    HW115419   0.352   2.067  10.867  2.8524 -0.9183 -1.4758
 1320SOL    HW215420   0.381   2.057  10.723 -0.9374  2.4494 -0.8759
 1321SOL     OW15421   1.374   1.277   3.748 -0.1380  0.3974  0.5748
 1321SOL    HW115422   1.392   1.240   3.662 -4.0979  1.0900 -0.5641
 1321SOL    HW215423   1.400   1.368   3.731 -0.5134  0.0521 -1.8415
 1322SOL     OW15424   0.007   3.040   1.780 -0.0650 -0.3466 -0.4367
 1322SOL    HW115425   4.664   3.087   1.829  0.6909  2.3775 -1.9844
 1322SOL    HW215426   4.703   3.071   1.694  2.0575 -0.3075 -1.1169
 1323SOL     OW15427   1.829   2.115  10.286  0.2211 -0.3209  0.0237
 1323SOL    HW115428   1.847   2.195  10.236 -0.1623 -1.0113 -1.2127
 1323SOL    HW215429   1.911   2.116  10.336 -0.2445  0.4927  0.7708
 1324SOL     OW15430   4.171   2.695   4.708 -0.5086  0.6437 -0.2156
 1324SOL    HW115431   4.149   2.607   4.676 -0.5435  0.1428  1.1924
 1324SOL    HW215432   4.235   2.674   4.776 -0.0062 -3.1377 -1.8450
 1325SOL     OW15433   0.764   4.301  10.373  0.1229  0.4485 -0.4660
 1325SOL    HW115434   0.765   4.211  10.405  1.2679 -0.2488 -2.4692
 1325SOL    HW215435   0.669   4.314  10.367 -0.0280 -0.0168  0.7754
 1326SOL     OW15436   4.546   1.450   7.343  0.1180  0.2483  0.0065
 1326SOL    HW115437   4.630   1.450   7.388 -0.6394  2.1318  1.4188
 1326SOL    HW215438   4.558   1.383   7.276 -0.0796  1.2640 -1.0391
 1327SOL     OW15439   2.154   2.504   2.810 -0.1087  0.4357  0.2513
 1327SOL    HW115440   2.139   2.447   2.886  0.8424 -1.5209 -1.0478
 1327SOL    HW215441   2.249   2.504   2.813 -0.0918  0.1014 -0.3145
 1328SOL     OW15442   1.430   1.339   8.317 -0.2456  0.1330 -0.2067
 1328SOL    HW115443   1.431   1.358   8.223  0.7800 -2.0706 -0.6412
 1328SOL    HW215444   1.522   1.323   8.336 -0.0190  1.8976  0.1102
 1329SOL     OW15445   0.855   4.718   8.299 -0.3096  0.1202  0.3207
 1329SOL    HW115446   0.927   0.028   8.247 -1.8855  0.4913 -1.5960
 1329SOL    HW215447   0.786   0.049   8.264  1.7350  0.8899 -2.4629
 1330SOL     OW15448   4.636   0.153   7.501 -0.3608 -0.0913 -0.6308
 1330SOL    HW115449   4.581   0.127   7.575 -1.0933  0.4482 -0.9816
 1330SOL    HW215450   4.713   0.100   7.521 -0.3605 -0.5303 -1.7899
 1331SOL     OW15451   2.799   1.668   7.174  0.4046 -0.0138  0.3225
 1331SOL    HW115452   2.829   1.707   7.092  0.3162 -0.6394 -0.0086
 1331SOL    HW215453   2.874   1.695   7.228  0.3671  0.4786  0.1289
 1332SOL     OW15454   0.292   4.523  13.449  0.1975  0.4097 -0.6056
 1332SOL    HW115455   0.334   4.451  13.404  0.0087 -1.4696  2.2049
 1332SOL    HW215456   0.291   4.586  13.377  1.7263  1.6847  0.4855
 1333SOL     OW15457   3.339   1.024   8.483  0.1968  0.1721 -0.4482
 1333SOL    HW115458   3.365   0.967   8.555 -1.7443 -2.3567 -1.7682
 1333SOL    HW215459   3.424   1.031   8.439  1.2744 -0.0428  1.6055
 1334SOL     OW15460   0.940   0.554   2.662 -0.7042  0.5626 -0.5366
 1334SOL    HW115461   0.918   0.564   2.570  1.2863  0.5940 -1.0122
 1334SOL    HW215462   0.989   0.634   2.683 -1.0698  0.5252  0.4411
 1335SOL     OW15463   1.320   0.477   2.692  0.4905  0.0903 -0.1616
 1335SOL    HW115464   1.259   0.487   2.618 -1.0666 -1.6291  0.9016
 1335SOL    HW215465   1.359   0.563   2.675  0.9704 -0.2258 -0.6232
 1336SOL     OW15466   0.083   1.004   0.240 -0.1319  0.0411  0.2699
 1336SOL    HW115467   4.715   1.009   0.216 -0.3934  1.7342  1.6240
 1336SOL    HW215468   0.127   1.007   0.156 -0.4214  1.1111  0.1638
 1337SOL     OW15469   1.314   2.899  14.292 -0.2043  0.0022 -0.2992
 1337SOL    HW115470   1.262   2.913  14.212  1.3500  0.4054 -1.2324
 1337SOL    HW215471   1.392   2.857  14.255 -0.4742  0.6456 -1.6126
 1338SOL     OW15472   3.751   1.281   7.419  0.0750  0.1436 -0.0694
 1338SOL    HW115473   3.734   1.340   7.492 -1.5194 -0.5881  0.1531
 1338SOL    HW215474   3.704   1.202   7.448 -0.0543 -0.1454 -1.0657
 1339SOL     OW15475   3.119   2.477   4.611  0.0954  0.1036  0.1238
 1339SOL    HW115476   3.050   2.516   4.558  0.7689 -0.2619 -1.0216
 1339SOL    HW215477   3.160   2.546   4.664  0.0067  0.1169  0.1739
 1340SOL     OW15478   2.972   1.606   7.571 -0.1677 -0.4904  0.5727
 1340SOL    HW115479   3.043   1.591   7.633  0.7249  4.0299  0.6502
 1340SOL    HW215480   3.020   1.604   7.488 -1.5156 -2.5774 -0.1861
 1341SOL     OW15481   3.996   4.430  16.698  0.1274  0.1076  0.2626
 1341SOL    HW115482   3.926   4.493  16.714 -0.4994 -0.0757 -1.6990
 1341SOL    HW215483   4.056   4.481  16.644 -0.5709 -1.2255 -1.7502
 1342SOL     OW15484   2.362   0.993   1.898 -0.0137 -0.3240 -0.0990
 1342SOL    HW115485   2.324   0.933   1.961  1.1221 -1.0267 -0.0848
 1342SOL    HW215486   2.434   0.936   1.871  0.2338  0.1569 -0.4663
 1343SOL     OW15487   1.766   2.851   3.741 -0.0354 -0.3104  0.6185
 1343SOL    HW115488   1.834   2.845   3.674 -0.7714 -1.8148  0.0088
 1343SOL    HW215489   1.787   2.774   3.794 -2.0485 -0.0210  1.8318
 1344SOL     OW15490   0.830   2.169   9.283  0.2616  0.2184 -0.1810
 1344SOL    HW115491   0.782   2.251   9.287  2.7359  1.6265  0.5949
 1344SOL    HW215492   0.781   2.103   9.332 -3.8557  3.0028 -0.5341
 1345SOL     OW15493   1.482   0.105   6.843  0.2112 -0.4858  0.0984
 1345SOL    HW115494   1.508   0.093   6.752 -1.9930 -5.0303  0.0330
 1345SOL    HW215495   1.392   0.137   6.837 -0.0202 -0.8206  1.6375
 1346SOL     OW15496   3.110   3.666  14.241 -0.2285 -0.4786  0.4660
 1346SOL    HW115497   3.180   3.651  14.305  0.7890  0.8414 -0.3291
 1346SOL    HW215498   3.070   3.581  14.224 -1.1530 -0.7312  3.9227
 1347SOL     OW15499   3.885   1.613   7.234 -0.6316  0.6095  0.3766
 1347SOL    HW115500   3.965   1.599   7.283  1.1696  1.3921 -2.3143
 1347SOL    HW215501   3.845   1.529   7.255 -1.5332  1.0900  0.6144
 1348SOL     OW15502   3.117   4.584  11.810  1.2074  0.2298 -0.3110
 1348SOL    HW115503   3.167   4.516  11.854 -1.4356  0.0829  2.5228
 1348SOL    HW215504   3.049   4.593  11.877  0.3441  0.7631 -1.2469
 1349SOL     OW15505   4.578   0.415  16.202  0.4892  0.7093  0.0005
 1349SOL    HW115506   4.501   0.392  16.151 -1.0071  2.2066  1.6095
 1349SOL    HW215507   4.589   0.507  16.177 -1.1866  0.9675  0.2408
 1350SOL     OW15508   1.360   2.528   3.382 -0.2260 -0.6526 -0.8120
 1350SOL    HW115509   1.347   2.446   3.334 -1.2869 -1.0087  0.0824
 1350SOL    HW215510   1.441   2.564   3.347  0.5253  0.6584  2.2665
 1351SOL     OW15511   0.964   4.009   5.504 -0.0313 -0.2848  0.2237
 1351SOL    HW115512   0.989   4.101   5.494  0.5785 -0.4548  0.2375
 1351SOL    HW215513   1.050   3.968   5.508 -0.0028 -0.0821  1.5661
 1352SOL     OW15514   1.753   2.310   9.616  0.1582 -0.0419 -0.3835
 1352SOL    HW115515   1.687   2.245   9.593  0.0199  0.2774 -0.8970
 1352SOL    HW215516   1.809   2.263   9.678 -2.0335 -2.3977 -0.2255
 1353SOL     OW15517   1.573   0.242   0.088 -0.5173 -0.1400 -0.3253
 1353SOL    HW115518   1.483   0.273   0.086 -0.8225 -0.8614  2.4246
 1353SOL    HW215519   1.617   0.317   0.049  0.1170 -0.6109 -0.5298
 1354SOL     OW15520   2.129   1.328   7.192 -0.1785  0.2185  0.4022
 1354SOL    HW115521   2.205   1.270   7.199 -0.9355 -0.9981 -1.2957
 1354SOL    HW215522   2.093   1.299   7.108 -0.4216 -0.1052  0.6169
 1355SOL     OW15523   0.777   0.768   8.304  0.0110 -0.5411  0.1169
 1355SOL    HW115524   0.695   0.779   8.256  0.2809  1.4954  0.1167
 1355SOL    HW215525   0.791   0.673   8.304 -1.1589 -0.7271 -1.7323
 1356SOL     OW15526   0.807   4.593  13.016  0.0383  0.2411  0.2504
 1356SOL    HW115527   0.716   4.621  13.005  0.6295  1.3402 -1.7218
 1356SOL    HW215528   0.858   4.668  13.046  1.3431 -0.7114  0.4254
 1357SOL     OW15529   4.615   0.090   8.380 -0.2179  0.2556  0.3524
 1357SOL    HW115530   4.547   0.073   8.445  2.0861 -2.0892  2.1363
 1357SOL    HW215531   4.589   0.171   8.335  0.7379  1.3448  1.7932
 1358SOL     OW15532   4.639   3.868   2.793  0.4444 -0.8737 -0.2108
 1358SOL    HW115533   4.549   3.900   2.799  1.7527  2.4480  1.3216
 1358SOL    HW215534   4.640   3.851   2.698 -0.7620  1.4763 -0.6338
 1359SOL     OW15535   3.100   4.533   1.988 -0.1977 -0.0100  0.1400
 1359SOL    HW115536   3.159   4.497   1.921 -1.3129 -0.5722 -0.5473
 1359SOL    HW215537   3.080   4.459   2.045 -0.0539 -0.2955 -0.1806
 1360SOL     OW15538   0.818   1.424   3.682 -0.1427  0.1514 -0.0998
 1360SOL    HW115539   0.902   1.418   3.729  0.2264 -2.2286 -1.0662
 1360SOL    HW215540   0.768   1.436   3.763  0.4163  1.8450 -0.0047
 1361SOL     OW15541   2.671   0.543   1.611 -1.0567  0.0877  0.1205
 1361SOL    HW115542   2.713   0.472   1.563 -0.0720  0.0339  1.0632
 1361SOL    HW215543   2.582   0.510   1.602 -0.5905 -1.8709  2.6206
 1362SOL     OW15544   1.999   3.734   8.542 -0.5215  0.3650  0.3151
 1362SOL    HW115545   1.926   3.788   8.572  0.2252  0.6347  1.6954
 1362SOL    HW215546   2.011   3.752   8.449 -0.7686 -0.4422  0.1315
 1363SOL     OW15547   4.697   3.969  11.927 -0.0569 -0.0269 -0.0093
 1363SOL    HW115548   4.719   4.058  11.900 -0.8907 -0.5205 -2.3258
 1363SOL    HW215549   0.054   3.926  11.903  0.8176  0.7422  1.5864
 1364SOL     OW15550   1.545   1.491   7.451 -0.1480  0.2938  0.7207
 1364SOL    HW115551   1.463   1.454   7.482 -0.3646  0.0170 -0.2037
 1364SOL    HW215552   1.596   1.471   7.530  0.7450  0.2287  0.1294
 1365SOL     OW15553   3.574   1.373  10.277 -0.3419  0.6491  0.1072
 1365SOL    HW115554   3.627   1.452  10.292  2.7398 -1.6465  1.2692
 1365SOL    HW215555   3.489   1.417  10.283 -0.5224  0.5168 -1.5413
 1366SOL     OW15556   3.911   0.217   3.156  0.4575 -0.0683 -0.1747
 1366SOL    HW115557   3.872   0.304   3.161 -1.2415 -0.9522  1.7280
 1366SOL    HW215558   3.999   0.252   3.141  0.2029 -0.4442 -2.5216
 1367SOL     OW15559   1.638   1.751  14.316 -0.1548  0.5124 -0.5898
 1367SOL    HW115560   1.657   1.839  14.283 -0.5928  1.1259  0.7863
 1367SOL    HW215561   1.576   1.720  14.251 -1.0504  1.8578 -0.3699
 1368SOL     OW15562   4.231   0.052   5.383  0.1378 -0.0529 -0.4589
 1368SOL    HW115563   4.280   0.085   5.307  0.8545 -2.2204 -0.9384
 1368SOL    HW215564   4.152   0.105   5.380  0.9133  1.1295  0.1139
 1369SOL     OW15565   0.240   2.615   3.093  0.5241 -0.4016 -0.3117
 1369SOL    HW115566   0.261   2.539   3.147  0.5758 -0.2368 -0.0952
 1369SOL    HW215567   0.323   2.660   3.078  0.8710 -0.6812  0.7642
 1370SOL     OW15568   4.036   0.889  12.566 -0.0802 -0.1883 -0.7650
 1370SOL    HW115569   4.005   0.872  12.477 -1.3772  1.8458 -0.7053
 1370SOL    HW215570   3.957   0.922  12.607  0.1288  0.9923 -1.2957
 1371SOL     OW15571   4.720   1.016  17.643  0.7165 -0.1819 -0.1304
 1371SOL    HW115572   0.090   1.029  17.653  0.8088 -1.1808  0.2127
 1371SOL    HW215573   4.714   0.932  17.598  0.5225 -0.6628  0.8039
 1372SOL     OW15574   4.169   3.852   2.053  0.0559  0.2691 -0.4736
 1372SOL    HW115575   4.125   3.935   2.072 -1.4293 -0.7004  0.2943
 1372SOL    HW215576   4.242   3.878   1.997 -1.2431  0.2796 -2.1291
 1373SOL     OW15577   4.020   2.038   3.055  0.3917  0.4147 -0.2358
 1373SOL    HW115578   3.925   2.030   3.050  0.4917 -0.7491 -0.4163
 1373SOL    HW215579   4.050   2.107   2.996  0.8171  0.8948  0.5361
 1374SOL     OW15580   0.402   2.322  16.971 -0.0619 -0.3025  0.3694
 1374SOL    HW115581   0.385   2.304  17.064  0.0805  2.7543  0.9760
 1374SOL    HW215582   0.412   2.417  16.978  0.2556 -0.2306 -1.0346
 1375SOL     OW15583   3.735   0.131   9.715 -0.0318  0.0222 -0.6426
 1375SOL    HW115584   3.807   0.086   9.670 -0.0870  0.1340 -0.8450
 1375SOL    HW215585   3.781   0.202   9.760  0.2355  0.2905 -1.3336
 1376SOL     OW15586   2.412   1.281  11.259 -0.1504 -0.2378 -0.4529
 1376SOL    HW115587   2.375   1.369  11.264  3.0833  1.0700 -0.2491
 1376SOL    HW215588   2.490   1.301  11.208  2.2633 -1.4568  2.7465
 1377SOL     OW15589   0.337   2.936   2.944  0.4169 -0.0681  0.0148
 1377SOL    HW115590   0.327   3.029   2.922  2.0732  0.3518  1.0082
 1377SOL    HW215591   0.391   2.947   3.022 -0.7262  1.4311  0.6025
 1378SOL     OW15592   2.072   4.423   4.014  0.5533 -0.4342 -0.2991
 1378SOL    HW115593   1.994   4.407   3.961  0.9615  0.9164 -1.2993
 1378SOL    HW215594   2.110   4.499   3.970 -1.2674  0.4050 -0.4083
 1379SOL     OW15595   3.057   0.969   2.920 -0.2485 -0.6236 -0.8380
 1379SOL    HW115596   3.026   0.922   2.842 -2.1354 -0.4649 -0.1794
 1379SOL    HW215597   2.976   0.989   2.966  1.3352 -1.3353  2.2220
 1380SOL     OW15598   4.719   0.831  16.640 -0.2086 -0.1815  0.1203
 1380SOL    HW115599   4.719   0.807  16.733  1.0528  0.8102  0.3824
 1380SOL    HW215600   0.082   0.805  16.611 -0.2493 -0.2475  0.0550
 1381SOL     OW15601   4.436   0.516  13.489 -0.0629  0.3843 -0.4006
 1381SOL    HW115602   4.523   0.540  13.455  0.5914 -2.2503 -0.5577
 1381SOL    HW215603   4.404   0.603  13.513  1.4660  0.0687  2.7897
 1382SOL     OW15604   1.456   0.482  10.920 -0.1266  0.0591 -0.5774
 1382SOL    HW115605   1.486   0.408  10.868 -0.9100  0.1509 -1.1590
 1382SOL    HW215606   1.467   0.558  10.863 -0.1566  0.0893 -0.5431
 1383SOL     OW15607   3.751   0.738   6.308  1.0013 -0.7961  0.3071
 1383SOL    HW115608   3.783   0.727   6.398 -1.6394 -1.2969  1.1696
 1383SOL    HW215609   3.707   0.654   6.299 -0.4758  0.2170 -1.7767
 1384SOL     OW15610   1.768   3.947   7.078 -0.4199  0.1479  0.2725
 1384SOL    HW115611   1.810   4.033   7.078  0.1120 -0.1096  1.3414
 1384SOL    HW215612   1.747   3.929   6.987  1.0794  2.0114 -0.4289
 1385SOL     OW15613   4.283   0.582  17.309 -0.0034  0.6364 -0.4148
 1385SOL    HW115614   4.312   0.545  17.226  0.9616  0.1556  0.1482
 1385SOL    HW215615   4.233   0.661  17.288 -4.1851 -2.0215 -0.4236
 1386SOL     OW15616   3.000   1.496   2.582  0.2352 -1.0292  0.1259
 1386SOL    HW115617   3.065   1.470   2.516  0.0013  0.4207 -0.6757
 1386SOL    HW215618   2.971   1.415   2.622  0.8075 -0.7409  1.1298
 1387SOL     OW15619   0.473   1.007   5.441  0.1679  0.1168 -0.3485
 1387SOL    HW115620   0.564   0.983   5.421 -0.0767 -0.6073 -0.5714
 1387SOL    HW215621   0.448   0.938   5.502  0.9512 -1.0908 -1.4011
 1388SOL     OW15622   2.045   0.975   8.177  0.1298  0.4477  0.3161
 1388SOL    HW115623   2.128   1.001   8.137 -0.0575  0.2803 -0.1803
 1388SOL    HW215624   2.037   1.035   8.251 -2.2264  1.7368 -0.9894
 1389SOL     OW15625   0.668   0.053   8.912  0.0052 -0.3348 -0.1891
 1389SOL    HW115626   0.701   0.142   8.906  0.1174 -0.3905 -0.4097
 1389SOL    HW215627   0.748   0.003   8.893  0.1205 -0.2793  0.1655
 1390SOL     OW15628   0.331   3.065  12.654 -0.1941 -0.0711 -0.0811
 1390SOL    HW115629   0.393   3.023  12.714  1.0256 -0.0929 -1.3395
 1390SOL    HW215630   0.311   3.135  12.716 -1.8773 -0.9395  0.3573
 1391SOL     OW15631   1.104   2.115   6.581  0.2462 -0.1580 -0.3377
 1391SOL    HW115632   1.146   2.078   6.659  1.3752 -0.0211 -0.8832
 1391SOL    HW215633   1.092   2.201   6.622  2.5592  0.3211 -0.6584
 1392SOL     OW15634   3.709   0.925   5.718 -0.1169  0.0028 -0.0350
 1392SOL    HW115635   3.778   0.932   5.784 -2.4146 -4.1150  2.7599
 1392SOL    HW215636   3.713   0.833   5.694  1.7463 -0.7782  3.2901
 1393SOL     OW15637   2.799   3.339  16.718 -0.3209 -0.0367 -0.6062
 1393SOL    HW115638   2.755   3.418  16.748  0.9326 -0.1641  1.6081
 1393SOL    HW215639   2.892   3.362  16.723 -0.7753  1.7052 -0.2494
 1394SOL     OW15640   3.146   4.214   3.907 -0.2424 -0.2524  0.2483
 1394SOL    HW115641   3.136   4.306   3.930  1.8658  0.3216 -1.2438
 1394SOL    HW215642   3.080   4.170   3.962 -0.4540 -0.3213 -0.0639
 1395SOL     OW15643   3.954   2.330   5.767  0.1811 -0.0509  0.1715
 1395SOL    HW115644   3.958   2.424   5.747  1.8576  0.1101  1.2864
 1395SOL    HW215645   3.864   2.304   5.746 -0.1055 -0.8572  2.4614
 1396SOL     OW15646   1.649   3.068   4.079 -0.7660 -0.3715  0.1150
 1396SOL    HW115647   1.701   3.136   4.035  0.1810  0.4226  2.4280
 1396SOL    HW215648   1.567   3.115   4.094  0.0290  0.2511  2.4296
 1397SOL     OW15649   1.022   3.231   0.932 -0.2175  0.5170  0.4051
 1397SOL    HW115650   1.072   3.149   0.931  0.4937  0.9679 -2.7440
 1397SOL    HW215651   1.040   3.258   0.842  0.7695 -1.7763 -0.0935
 1398SOL     OW15652   1.443   0.798   7.369  0.2605 -0.5513 -0.0675
 1398SOL    HW115653   1.382   0.725   7.363  0.3535 -0.6923  0.6469
 1398SOL    HW215654   1.387   0.874   7.383 -0.3115 -1.2924  1.5871
 1399SOL     OW15655   3.479   0.473   6.444  0.4909 -0.5209 -0.2011
 1399SOL    HW115656   3.564   0.451   6.483  0.3362  0.0827  0.4819
 1399SOL    HW215657   3.426   0.484   6.523 -0.5939 -0.7864 -0.8874
 1400SOL     OW15658   2.614   4.708   9.300  0.1515  0.4153  0.1888
 1400SOL    HW115659   2.563   4.705   9.381  0.6958  0.5267  0.5372
 1400SOL    HW215660   2.698   0.011   9.336 -1.1924  3.3034  1.0412
 1401SOL     OW15661   2.921   4.475   9.037 -0.1910 -0.2212  0.6370
 1401SOL    HW115662   2.945   4.563   9.066  0.1216  0.4978 -1.7693
 1401SOL    HW215663   2.831   4.475   9.070 -1.0445 -0.3980 -1.6847
 1402SOL     OW15664   0.091   0.985   4.071 -0.0948  0.3056  0.2638
 1402SOL    HW115665   0.130   1.003   3.986  2.3255 -0.5047  1.2290
 1402SOL    HW215666   0.008   1.033   4.068 -0.0264  0.4412  0.5514
 1403SOL     OW15667   4.722   2.415   5.656 -0.4171 -0.6418 -0.1983
 1403SOL    HW115668   4.722   2.427   5.562  1.1520 -2.1311 -0.3994
 1403SOL    HW215669   4.643   2.361   5.650 -1.3157  0.7591 -0.7878
 1404SOL     OW15670   0.808   3.375   1.669 -0.7296  0.2970  0.0676
 1404SOL    HW115671   0.805   3.304   1.733 -0.7070 -1.2434 -1.6519
 1404SOL    HW215672   0.883   3.351   1.615 -0.6079 -0.7762  0.7081
 1405SOL     OW15673   1.922   2.157   8.921 -0.5969 -0.1920  0.7341
 1405SOL    HW115674   1.954   2.068   8.937 -0.8865 -0.2004  1.2704
 1405SOL    HW215675   1.914   2.174   9.015 -3.0139  1.5235  0.1933
 1406SOL     OW15676   3.837   3.287   1.991 -0.2209  0.6608  0.0010
 1406SOL    HW115677   3.777   3.359   1.971  0.5240  1.1975 -0.3206
 1406SOL    HW215678   3.827   3.244   1.906  1.1994 -1.7727  1.0749
 1407SOL     OW15679   1.318   4.382   3.236 -0.0188 -0.0953 -0.2473
 1407SOL    HW115680   1.261   4.314   3.272  0.1494 -0.2705 -0.3107
 1407SOL    HW215681   1.393   4.369   3.294 -0.0840  3.1840  0.5804
 1408SOL     OW15682   3.137   1.369  11.494 -0.1731 -0.1395  0.0698
 1408SOL    HW115683   3.044   1.388  11.503  0.3450  2.5418 -0.3627
 1408SOL    HW215684   3.132   1.277  11.468  2.6984 -0.3905  0.4640
 1409SOL     OW15685   0.408   2.933   3.212 -0.0235  0.2949 -0.9711
 1409SOL    HW115686   0.371   2.868   3.272  1.7671 -0.6508 -0.8981
 1409SOL    HW215687   0.350   3.005   3.237 -0.1847 -0.6771  1.5341
 1410SOL     OW15688   0.534   1.588  16.169 -0.1358 -0.0530  0.1917
 1410SOL    HW115689   0.498   1.499  16.179 -0.2863 -0.0358 -0.1637
 1410SOL    HW215690   0.549   1.601  16.262  3.4325 -0.1801 -0.3908
 1411SOL     OW15691   0.744   3.039   0.121 -0.1640 -0.1861  0.6308
 1411SOL    HW115692   0.657   3.016   0.153 -0.2472  1.2768  1.4607
 1411SOL    HW215693   0.759   3.110   0.184 -0.7171 -1.1824  1.8688
 1412SOL     OW15694   4.237   3.179   4.168  0.8570  0.1116  0.1911
 1412SOL    HW115695   4.205   3.249   4.110  0.0090 -0.6174 -0.2119
 1412SOL    HW215696   4.286   3.234   4.230  0.9289  0.4944 -0.2024
 1413SOL     OW15697   1.769   2.849   9.260  0.0752  0.2123  0.0605
 1413SOL    HW115698   1.861   2.829   9.242 -0.6653 -0.0472 -3.2885
 1413SOL    HW215699   1.754   2.906   9.185  1.2888  2.3326  1.4345
 1414SOL     OW15700   2.154   0.412   6.642  0.4438 -0.1471  0.6492
 1414SOL    HW115701   2.176   0.439   6.731  2.9051 -0.3808  0.1138
 1414SOL    HW215702   2.061   0.392   6.646  0.5165 -1.2306 -2.8269
 1415SOL     OW15703   0.257   2.747   3.360 -0.2554  0.0951  0.0201
 1415SOL    HW115704   0.177   2.711   3.397  0.1621  0.8578  1.6867
 1415SOL    HW215705   0.257   2.709   3.272  0.4509 -0.7713  0.3891
 1416SOL     OW15706   0.931   1.131   9.756 -0.5946 -0.4921 -0.4836
 1416SOL    HW115707   0.979   1.132   9.674  1.5798 -2.0892  0.7626
 1416SOL    HW215708   0.988   1.188   9.808 -0.0885 -2.6493  1.3237
 1417SOL     OW15709   0.605   1.090   1.167 -0.1725 -0.0603  0.0288
 1417SOL    HW115710   0.597   1.050   1.253 -1.7754  0.4977  0.1528
 1417SOL    HW215711   0.678   1.146   1.192 -0.8825  0.2536  1.4347
 1418SOL     OW15712   3.977   1.623   3.400 -0.0300 -0.2122 -0.2956
 1418SOL    HW115713   3.959   1.659   3.313 -0.1172 -1.2192 -0.6904
 1418SOL    HW215714   3.952   1.533   3.381 -1.7483  0.5506 -1.7357
 1419SOL     OW15715   2.214   4.039   4.692 -0.2151 -0.0386  0.0906
 1419SOL    HW115716   2.265   4.116   4.715  0.8451 -1.5392  2.7771
 1419SOL    HW215717   2.145   4.074   4.635  0.5485  0.1444 -0.7101
 1420SOL     OW15718   1.824   4.711  10.304 -0.3631 -0.0520 -0.5143
 1420SOL    HW115719   1.778   0.039  10.370 -0.7643  0.2850 -1.0664
 1420SOL    HW215720   1.881   4.660  10.362 -0.8937  0.0295  0.0778
 1421SOL     OW15721   1.613   3.079  11.509  0.2152 -0.3392 -0.7382
 1421SOL    HW115722   1.524   3.094  11.477 -0.0343  1.5884  0.8640
 1421SOL    HW215723   1.601   3.006  11.570  1.4266 -0.9057 -1.1826
 1422SOL     OW15724   3.529   4.204   7.039 -0.1961  0.2501 -0.7942
 1422SOL    HW115725   3.471   4.129   7.028 -0.2448 -0.0840  1.6522
 1422SOL    HW215726   3.571   4.179   7.121  0.7509 -0.4157 -1.4833
 1423SOL     OW15727   1.833   0.195   1.446  0.5316 -0.7563  0.1894
 1423SOL    HW115728   1.790   0.269   1.403 -1.3744 -1.4938  0.8406
 1423SOL    HW215729   1.822   0.222   1.537  1.7819  0.9460 -0.1632
 1424SOL     OW15730   0.780   1.622  16.366 -0.0786  0.0925 -0.1314
 1424SOL    HW115731   0.851   1.671  16.324  0.6564 -1.1031 -0.2763
 1424SOL    HW215732   0.767   1.679  16.443 -0.6007  2.2989 -1.8445
 1425SOL     OW15733   1.383   0.313   7.482 -0.1029  0.2381 -0.9775
 1425SOL    HW115734   1.361   0.341   7.571 -2.1298 -0.3173 -1.3191
 1425SOL    HW215735   1.462   0.365   7.465  0.5023 -1.3033 -2.8164
 1426SOL     OW15736   3.702   1.377   5.372  0.7121 -0.3870  0.5251
 1426SOL    HW115737   3.750   1.420   5.301 -0.3020  1.4877  0.9688
 1426SOL    HW215738   3.733   1.407   5.457  0.0934 -0.7554  0.8800
 1427SOL     OW15739   1.216   2.871   3.032 -0.0089  0.0716 -0.1660
 1427SOL    HW115740   1.197   2.853   3.124  1.6198 -0.5292  0.0476
 1427SOL    HW215741   1.281   2.804   3.012 -0.4851 -1.1213  2.3286
 1428SOL     OW15742   3.649   3.060   1.595 -0.1173  0.4113  0.5651
 1428SOL    HW115743   3.611   3.120   1.658  1.1674  1.2313  0.5695
 1428SOL    HW215744   3.610   2.978   1.623 -1.7721  2.5202  4.3923
 1429SOL     OW15745   1.292   3.172   9.232 -0.3847  0.3151  0.4240
 1429SOL    HW115746   1.332   3.259   9.232  2.0328 -0.7762  0.9256
 1429SOL    HW215747   1.239   3.199   9.307  0.5227 -0.4114  1.3337
 1430SOL     OW15748   2.560   1.148   4.107  0.1083  0.0397 -0.1255
 1430SOL    HW115749   2.520   1.180   4.026 -0.5097 -0.9451 -0.2237
 1430SOL    HW215750   2.510   1.192   4.176 -0.7845 -0.1965 -0.6104
 1431SOL     OW15751   0.010   3.351   7.034  0.0480  0.2201 -0.0135
 1431SOL    HW115752   4.720   3.265   7.072 -1.6385  0.4159 -0.1901
 1431SOL    HW215753   0.104   3.367   7.025 -0.4267  2.7575 -0.4472
 1432SOL     OW15754   0.360   3.011   7.901 -0.0385  0.2000  0.1079
 1432SOL    HW115755   0.336   2.919   7.888 -1.7021  0.3114  2.4183
 1432SOL    HW215756   0.425   3.021   7.831  1.2919 -3.2814  0.8604
 1433SOL     OW15757   1.373   4.586   9.914 -0.5557  0.0554  0.5111
 1433SOL    HW115758   1.326   4.534   9.849 -0.5492 -0.0607  0.6016
 1433SOL    HW215759   1.337   4.675   9.906  0.1207  0.2366 -0.6057
 1434SOL     OW15760   3.049   0.594   6.282 -0.4676 -0.2799  0.2197
 1434SOL    HW115761   2.978   0.545   6.242  0.1007 -0.7087 -0.2542
 1434SOL    HW215762   3.066   0.531   6.353 -0.5655  0.1754  0.6520
 1435SOL     OW15763   1.276   4.118   4.670 -0.0070 -0.1437 -0.3944
 1435SOL    HW115764   1.201   4.177   4.680  0.0260 -0.4391  1.7118
 1435SOL    HW215765   1.326   4.147   4.747 -1.9323 -0.5594  1.0200
 1436SOL     OW15766   1.772   3.489  12.197 -0.3905  0.1668  0.0563
 1436SOL    HW115767   1.855   3.525  12.228 -0.5215 -0.5020  1.1833
 1436SOL    HW215768   1.740   3.546  12.127 -1.2622  0.6718  0.8760
 1437SOL     OW15769   4.609   3.215   3.066 -0.0437 -0.0218 -0.0934
 1437SOL    HW115770   4.667   3.226   2.991 -0.2067 -0.0933 -0.2295
 1437SOL    HW215771   4.593   3.306   3.093  0.7042 -0.0719  0.5116
 1438SOL     OW15772   4.206   3.476   2.487 -0.3267 -0.3427 -0.1672
 1438SOL    HW115773   4.258   3.551   2.457 -1.9385  0.4745 -0.9321
 1438SOL    HW215774   4.253   3.404   2.446 -1.1536 -0.4475 -0.9523
 1439SOL     OW15775   4.136   4.518   4.847  0.3319 -0.0256 -0.3892
 1439SOL    HW115776   4.195   4.490   4.917  0.0015 -1.2371 -0.6070
 1439SOL    HW215777   4.055   4.468   4.856 -0.2032  1.1186  1.1964
 1440SOL     OW15778   4.111   1.962   9.468 -0.2818 -0.2572 -0.4324
 1440SOL    HW115779   4.183   2.013   9.505 -0.0306 -0.2337 -0.9510
 1440SOL    HW215780   4.100   2.014   9.389 -1.8242  0.3660  0.1921
 1441SOL     OW15781   2.003   3.848   2.583  1.0245  0.4741 -0.2168
 1441SOL    HW115782   1.954   3.930   2.594 -0.2092 -0.4918  1.4594
 1441SOL    HW215783   1.945   3.781   2.620  1.2365  0.6726  0.4659
 1442SOL     OW15784   4.166   3.977   3.321 -0.0997 -0.2668  0.2928
 1442SOL    HW115785   4.202   4.005   3.405 -2.1733  1.0922  0.7414
 1442SOL    HW215786   4.103   3.912   3.353 -1.1369  1.5494  1.9407
 1443SOL     OW15787   2.698   2.099  13.848  0.3385 -0.0476  0.2108
 1443SOL    HW115788   2.617   2.049  13.847  1.0648 -1.2142 -0.0872
 1443SOL    HW215789   2.713   2.101  13.754 -1.5518 -0.9506 -0.0954
 1444SOL     OW15790   0.842   1.447   4.408  0.4295  0.2112 -0.2361
 1444SOL    HW115791   0.804   1.370   4.365 -2.2204  0.1808  2.1374
 1444SOL    HW215792   0.893   1.398   4.472  1.7049  0.6288 -0.9405
 1445SOL     OW15793   1.182   2.094  10.033  0.0163  0.2157 -0.2458
 1445SOL    HW115794   1.094   2.094   9.996  0.0619 -0.6813 -0.3493
 1445SOL    HW215795   1.181   2.031  10.104 -0.9757  0.2114 -0.2610
 1446SOL     OW15796   1.997   2.787   5.910 -0.0880 -0.0619  0.5060
 1446SOL    HW115797   1.987   2.697   5.943 -2.4377 -0.3512 -1.0329
 1446SOL    HW215798   1.912   2.829   5.915 -0.5308 -0.7962 -0.6837
 1447SOL     OW15799   0.918   2.889   6.283  0.1198  0.0299  0.4878
 1447SOL    HW115800   0.851   2.916   6.346  0.0263 -2.5688  1.4921
 1447SOL    HW215801   0.883   2.828   6.218 -1.1894 -0.1872  1.3902
 1448SOL     OW15802   3.828   3.409   6.423  0.0983  0.7433  0.5419
 1448SOL    HW115803   3.907   3.418   6.370  0.1065 -0.6457  0.3014
 1448SOL    HW215804   3.765   3.428   6.353 -2.0038 -0.0435  2.2145
 1449SOL     OW15805   1.092   1.723   4.767  0.4646  0.1809  0.3153
 1449SOL    HW115806   1.156   1.792   4.787  1.3223  0.0130 -1.8423
 1449SOL    HW215807   1.062   1.761   4.684 -1.3568 -0.0654  0.8735
 1450SOL     OW15808   0.571   0.457  16.323  0.0392  0.0359  0.3000
 1450SOL    HW115809   0.495   0.509  16.297  0.9403  1.4035  0.3980
 1450SOL    HW215810   0.620   0.461  16.241 -0.0417 -1.2180  0.1975
 1451SOL     OW15811   1.713   4.585  10.087  0.1500  0.2168 -0.2026
 1451SOL    HW115812   1.802   4.593  10.055  0.1120 -1.3662 -0.6921
 1451SOL    HW215813   1.730   4.637  10.166 -1.0804 -0.2332  0.3609
 1452SOL     OW15814   4.171   2.264   7.348  0.0531 -0.3852 -0.3573
 1452SOL    HW115815   4.185   2.178   7.388  1.9217  0.4886  0.8745
 1452SOL    HW215816   4.252   2.274   7.297 -0.3214  0.3877 -0.7969
 1453SOL     OW15817   2.158   1.328   2.686 -0.4805 -0.2121 -0.3548
 1453SOL    HW115818   2.081   1.309   2.633  0.3622 -1.5447 -1.1201
 1453SOL    HW215819   2.109   1.343   2.767 -2.1228 -0.5420 -1.3007
 1454SOL     OW15820   3.249   1.379   2.106  0.1199 -0.1370 -0.2523
 1454SOL    HW115821   3.299   1.418   2.035 -0.1189 -0.3437 -0.5335
 1454SOL    HW215822   3.280   1.288   2.102 -1.4360 -0.6511 -0.6007
 1455SOL     OW15823   4.520   1.968   5.532 -0.3016 -0.2260  0.2911
 1455SOL    HW115824   4.602   1.985   5.485  0.5855 -0.0342  1.9365
 1455SOL    HW215825   4.457   1.973   5.459 -0.2725  1.6622  0.4173
 1456SOL     OW15826   4.318   1.933   6.474 -0.3571  0.4434 -0.1849
 1456SOL    HW115827   4.273   2.006   6.432  0.2524 -0.2094 -1.9712
 1456SOL    HW215828   4.305   1.867   6.406 -0.1157  1.0638 -0.8370
 1457SOL     OW15829   2.983   3.128   8.332  0.2611 -0.1145 -0.4875
 1457SOL    HW115830   2.987   3.131   8.427  0.4995 -0.0293 -0.4994
 1457SOL    HW215831   2.928   3.204   8.313 -1.4569 -0.8739  1.4848
 1458SOL     OW15832   1.739   0.703   4.019  0.3830  0.0229 -0.2731
 1458SOL    HW115833   1.708   0.774   3.963 -1.5225  1.1761  2.2743
 1458SOL    HW215834   1.822   0.688   3.973  0.3036  1.3087 -0.8379
 1459SOL     OW15835   3.983   3.474   3.682  0.0767  0.3016 -0.1780
 1459SOL    HW115836   3.958   3.513   3.598  0.1820 -0.6376 -0.6428
 1459SOL    HW215837   4.046   3.541   3.711 -2.4324  2.2836  0.7775
 1460SOL     OW15838   4.026   4.103   2.471 -0.4614 -0.2881  0.2242
 1460SOL    HW115839   4.055   4.175   2.416 -1.6500 -0.3148 -0.4224
 1460SOL    HW215840   3.931   4.114   2.474 -0.1072  2.8722 -0.2141
 1461SOL     OW15841   2.609   2.493   3.337 -0.1613  0.2756 -0.0253
 1461SOL    HW115842   2.682   2.459   3.388  0.7900 -0.5982 -1.9899
 1461SOL    HW215843   2.603   2.431   3.265  0.0106  1.7385 -1.3110
 1462SOL     OW15844   1.864   2.751   3.109  0.4295  0.3302 -0.4938
 1462SOL    HW115845   1.817   2.672   3.081 -1.4057  0.9536  0.7774
 1462SOL    HW215846   1.952   2.725   3.137 -0.3894 -1.7295  0.1804
 1463SOL     OW15847   3.887   3.084   1.805  0.3294  0.2039  0.0109
 1463SOL    HW115848   3.893   3.079   1.710 -3.2609  0.0651 -0.2128
 1463SOL    HW215849   3.871   2.992   1.827  2.6025 -0.6666 -1.8929
 1464SOL     OW15850   1.786   3.299   7.089 -0.1215 -0.0441  0.4635
 1464SOL    HW115851   1.736   3.288   7.008 -1.3134 -0.0884  1.2041
 1464SOL    HW215852   1.811   3.208   7.107 -0.1435 -0.0347  0.5412
 1465SOL     OW15853   0.269   1.901  16.242 -0.4236  0.5373 -0.1809
 1465SOL    HW115854   0.191   1.898  16.187  0.3661 -1.0640 -1.2160
 1465SOL    HW215855   0.322   1.839  16.191  1.2274  3.0636 -1.5575
 1466SOL     OW15856   2.578   3.827   7.088 -0.4753  0.0197 -0.1895
 1466SOL    HW115857   2.564   3.771   7.165  0.4392 -1.4472 -1.0942
 1466SOL    HW215858   2.494   3.870   7.083 -1.0688 -0.7225  2.9586
 1467SOL     OW15859   0.173   3.150  15.324  0.1290 -0.1952 -0.0464
 1467SOL    HW115860   0.173   3.107  15.239  0.3419  0.1080 -0.1982
 1467SOL    HW215861   0.201   3.073  15.374 -1.3316 -2.0212 -2.0495
 1468SOL     OW15862   3.978   2.745  15.621 -0.1764 -0.6451  0.1970
 1468SOL    HW115863   3.923   2.669  15.598 -1.7231  1.3364 -2.7173
 1468SOL    HW215864   3.935   2.804  15.559 -1.1842 -1.9037 -0.3258
 1469SOL     OW15865   2.084   0.744   4.118 -0.4163  0.1643 -0.1412
 1469SOL    HW115866   2.078   0.839   4.107  1.7557  0.1757 -1.2999
 1469SOL    HW215867   2.179   0.740   4.107 -0.4134  1.0074 -0.4767
 1470SOL     OW15868   4.372   4.140   6.474  1.2208  0.1765  0.0503
 1470SOL    HW115869   4.447   4.155   6.416 -0.2724  0.5323 -1.7856
 1470SOL    HW215870   4.305   4.175   6.415  0.6448 -0.4005  0.3550
 1471SOL     OW15871   0.173   1.746  16.471  0.0127  0.2302  0.5278
 1471SOL    HW115872   0.209   1.782  16.390  1.4089  1.8315  1.8554
 1471SOL    HW215873   0.171   1.827  16.522  1.1138 -0.3039  1.4177
 1472SOL     OW15874   0.915   1.006   8.030  0.0391 -0.4216  0.4179
 1472SOL    HW115875   0.912   1.042   8.119  1.3898  1.9769 -0.5060
 1472SOL    HW215876   0.935   0.912   8.032  1.0197 -0.3158 -4.0945
 1473SOL     OW15877   3.752   0.541  10.146  0.0515  0.3388  0.1395
 1473SOL    HW115878   3.749   0.500  10.232  0.0958  0.6154  0.2740
 1473SOL    HW215879   3.677   0.601  10.152 -1.5675 -1.7198  0.4403
 1474SOL     OW15880   1.728   2.471  10.278  0.5235  0.2028 -0.3218
 1474SOL    HW115881   1.785   2.423  10.218  1.7614  0.9406  0.2736
 1474SOL    HW215882   1.744   2.556  10.237  2.1421  0.5652  1.0747
 1475SOL     OW15883   2.856   3.772   3.298  0.1576  0.7533 -0.6061
 1475SOL    HW115884   2.761   3.780   3.303  0.0544 -0.3834 -0.5936
 1475SOL    HW215885   2.883   3.831   3.368  1.5011 -1.2165  0.5278
 1476SOL     OW15886   3.159   1.237  15.103 -0.4196  0.0351 -0.0463
 1476SOL    HW115887   3.207   1.304  15.153  1.2854 -0.2083 -1.3549
 1476SOL    HW215888   3.074   1.280  15.091  0.0023  0.9192  0.0755
 1477SOL     OW15889   0.157   3.604   2.990  0.4798  0.1681  0.1351
 1477SOL    HW115890   0.064   3.599   2.966  0.6852 -2.1298 -0.1463
 1477SOL    HW215891   0.187   3.610   2.899 -2.2749 -0.8479 -0.8576
 1478SOL     OW15892   1.548   3.409   5.566 -0.0085 -0.7618 -0.1330
 1478SOL    HW115893   1.635   3.436   5.596 -0.7696 -0.4140  1.7962
 1478SOL    HW215894   1.544   3.441   5.476 -0.4515  0.5401  0.3552
 1479SOL     OW15895   0.383   0.383   3.708  0.3313 -0.2922  0.6608
 1479SOL    HW115896   0.459   0.434   3.736  0.1175  1.8894 -2.7359
 1479SOL    HW215897   0.414   0.366   3.619  0.7242  2.4287  0.2495
 1480SOL     OW15898   1.046   4.182  14.711 -0.2093  0.5101 -0.0156
 1480SOL    HW115899   1.077   4.258  14.760  2.2147 -0.3821 -0.1902
 1480SOL    HW215900   1.042   4.121  14.785  0.8814  1.0105  0.4537
 1481SOL     OW15901   2.770   2.557   5.508 -0.0833 -0.5227  0.4957
 1481SOL    HW115902   2.736   2.597   5.588 -0.6550  1.2409 -0.6435
 1481SOL    HW215903   2.803   2.639   5.472 -1.3390 -0.2428 -0.0142
 1482SOL     OW15904   0.543   1.226   8.778  0.2659 -0.2464 -0.0385
 1482SOL    HW115905   0.604   1.294   8.750  0.2928  0.6462  2.1498
 1482SOL    HW215906   0.487   1.271   8.841 -0.4062  1.7323 -2.0376
 1483SOL     OW15907   2.320   0.895  10.320 -0.3294 -0.5607  0.4790
 1483SOL    HW115908   2.412   0.912  10.297 -0.4031 -1.0004 -0.1521
 1483SOL    HW215909   2.270   0.885  10.239  1.9175  0.0860 -0.9927
 1484SOL     OW15910   2.236   2.666   0.451 -0.1155 -0.1110 -0.1511
 1484SOL    HW115911   2.211   2.692   0.540  1.2364 -2.4802  0.9415
 1484SOL    HW215912   2.321   2.707   0.437  0.8938 -0.6991  4.1269
 1485SOL     OW15913   4.284   2.500   4.310  0.1737 -0.5226 -0.1140
 1485SOL    HW115914   4.355   2.449   4.273  0.1075 -1.5909  1.2401
 1485SOL    HW215915   4.220   2.429   4.319 -1.3524  1.4013  4.0955
 1486SOL     OW15916   3.032   3.811   1.614  0.4618  0.1723  0.4143
 1486SOL    HW115917   3.115   3.764   1.622 -0.0251 -0.1768  3.3546
 1486SOL    HW215918   2.978   3.758   1.672 -0.3346  0.5300  0.0047
 1487SOL     OW15919   4.232   1.003   8.806  0.7393 -0.1133 -0.3618
 1487SOL    HW115920   4.291   0.953   8.749 -0.9339 -1.0871 -1.2327
 1487SOL    HW215921   4.277   1.087   8.805  0.7636 -0.1157  1.6417
 1488SOL     OW15922   3.672   2.657   3.756  0.3539 -0.2582 -0.2833
 1488SOL    HW115923   3.693   2.646   3.848 -2.1862 -2.3378  0.0723
 1488SOL    HW215924   3.597   2.597   3.747 -0.3300  0.3971  1.0024
 1489SOL     OW15925   4.566   2.968   6.794  0.6532  0.4860 -0.4754
 1489SOL    HW115926   4.623   3.045   6.788  1.5177 -0.1576 -0.6008
 1489SOL    HW215927   4.483   2.999   6.829  0.7379 -0.7545  0.8426
 1490SOL     OW15928   0.861   1.401   9.362  0.1124  0.5412 -0.6561
 1490SOL    HW115929   0.845   1.493   9.338 -1.2753  0.3827 -0.3212
 1490SOL    HW215930   0.846   1.354   9.280  0.1061  1.8859 -1.4309
 1491SOL     OW15931   2.310   4.639   5.659  0.2106 -0.2526 -0.2903
 1491SOL    HW115932   2.226   4.614   5.699  1.4384  0.8806  2.9502
 1491SOL    HW215933   2.295   4.626   5.565 -1.9147 -1.1343  0.1539
 1492SOL     OW15934   1.537   0.251   4.062  1.2887  0.2404 -0.3938
 1492SOL    HW115935   1.615   0.291   4.023  0.6881  0.9279 -0.8704
 1492SOL    HW215936   1.582   0.194   4.125 -1.7673 -1.1853  0.4853
 1493SOL     OW15937   3.201   2.806   3.547 -0.3520  0.4271 -0.3330
 1493SOL    HW115938   3.108   2.785   3.551 -0.8030  2.1530 -1.7898
 1493SOL    HW215939   3.208   2.891   3.590 -2.0196  0.9845 -1.1799
 1494SOL     OW15940   2.673   0.768   2.229  0.5197  0.1529 -0.0624
 1494SOL    HW115941   2.702   0.828   2.160 -2.1417  0.7833 -0.6221
 1494SOL    HW215942   2.686   0.685   2.184  0.0474 -0.8645  1.6739
 1495SOL     OW15943   0.420   2.157   6.030  0.1876  0.4454 -0.2608
 1495SOL    HW115944   0.444   2.243   6.065  0.0800  0.3020  0.1697
 1495SOL    HW215945   0.367   2.124   6.102  1.5437 -3.0713 -0.8651
 1496SOL     OW15946   1.706   3.958   3.111 -0.2295 -0.5913  0.6186
 1496SOL    HW115947   1.684   3.904   3.035 -1.8311  0.1780  0.5349
 1496SOL    HW215948   1.801   3.966   3.106 -0.1556 -0.6332  2.1301
 1497SOL     OW15949   2.319   0.558   9.512  0.1449  0.1583 -0.0259
 1497SOL    HW115950   2.393   0.611   9.485  0.4038 -1.0337 -1.7027
 1497SOL    HW215951   2.279   0.525   9.431 -1.2940 -0.1061  0.7953
 1498SOL     OW15952   0.761   3.910  10.859  0.1128  0.5838 -0.0620
 1498SOL    HW115953   0.780   3.956  10.777 -2.6564  0.1969 -0.9052
 1498SOL    HW215954   0.705   3.843  10.820  0.4555  0.3417 -0.1351
 1499SOL     OW15955   0.866   1.572   7.300  0.1262  0.0041  0.5999
 1499SOL    HW115956   0.813   1.580   7.221  0.6286  3.2964  0.6058
 1499SOL    HW215957   0.890   1.662   7.322  0.6197 -0.0740  0.3958
 1500SOL     OW15958   3.948   3.972   4.874  0.6212 -0.5980 -0.0143
 1500SOL    HW115959   4.013   3.962   4.804 -0.2553  1.3736 -1.0834
 1500SOL    HW215960   3.902   3.888   4.871  0.0052 -0.2909  0.8120
 1501SOL     OW15961   2.700   0.322   3.066 -0.2186 -0.1427  0.5858
 1501SOL    HW115962   2.769   0.347   3.004  0.7340  1.1551  2.1338
 1501SOL    HW215963   2.716   0.378   3.143 -0.8151  1.7550 -0.6692
 1502SOL     OW15964   3.811   1.848   7.103 -0.3228  0.4006 -0.4529
 1502SOL    HW115965   3.716   1.838   7.104 -0.1493 -1.0609  0.8799
 1502SOL    HW215966   3.845   1.785   7.166 -0.8990 -0.2451 -0.7928
 1503SOL     OW15967   0.310   2.455   2.682 -0.0355 -0.0229 -0.3431
 1503SOL    HW115968   0.393   2.463   2.728  0.0036 -2.5555 -0.0021
 1503SOL    HW215969   0.318   2.360   2.676  1.0848 -0.1343  3.2762
 1504SOL     OW15970   1.512   0.856   6.688  0.0211 -0.1331  0.1981
 1504SOL    HW115971   1.549   0.777   6.728 -2.3401 -0.2205  2.2287
 1504SOL    HW215972   1.547   0.925   6.745  0.0560  0.6563 -0.7732
 1505SOL     OW15973   2.937   1.375  14.297 -0.2658  0.0794  0.2007
 1505SOL    HW115974   2.973   1.346  14.213 -0.2476  1.0688 -0.1422
 1505SOL    HW215975   3.010   1.360  14.357 -0.0514  0.4925  0.0441
 1506SOL     OW15976   0.865   2.316   7.659 -0.3324 -0.0015  0.0221
 1506SOL    HW115977   0.936   2.305   7.597 -0.1192  0.2245  0.2257
 1506SOL    HW215978   0.876   2.246   7.724  1.9361 -0.9525 -1.4166
 1507SOL     OW15979   2.336   0.200   6.667  0.2963  0.1434  0.6780
 1507SOL    HW115980   2.307   0.285   6.633 -0.8227 -0.3006  0.5325
 1507SOL    HW215981   2.266   0.141   6.639  0.4565  0.1088  0.3400
 1508SOL     OW15982   3.888   0.235   8.669 -0.1151 -0.0367  0.2824
 1508SOL    HW115983   3.849   0.150   8.692  2.2106 -1.5009 -1.1558
 1508SOL    HW215984   3.916   0.261   8.756 -1.8694  2.0128  0.2161
 1509SOL     OW15985   1.849   4.653   7.499 -0.1554  0.1240 -0.4120
 1509SOL    HW115986   1.886   4.705   7.569  2.2857 -0.3888 -1.3313
 1509SOL    HW215987   1.924   4.604   7.466 -0.3818  2.1610 -4.0077
 1510SOL     OW15988   1.952   4.379   1.632 -0.0248 -0.0896  0.5665
 1510SOL    HW115989   1.992   4.464   1.614 -1.2694 -0.0109 -1.7235
 1510SOL    HW215990   1.875   4.397   1.686 -0.1050 -0.4248  0.5605
 1511SOL     OW15991   1.939   2.037   5.811  0.0242  0.4662  1.0082
 1511SOL    HW115992   1.983   2.032   5.896  2.3440  0.7013 -0.1947
 1511SOL    HW215993   1.923   2.131   5.803  0.3017  0.6457  2.6208
 1512SOL     OW15994   1.893   4.139  10.503  0.4308 -0.4378 -0.3355
 1512SOL    HW115995   1.848   4.154  10.586 -1.5485  1.5823 -1.7700
 1512SOL    HW215996   1.956   4.070  10.522  0.1013 -0.5364  0.3845
 1513SOL     OW15997   0.432   4.423   3.272 -0.0468 -0.1001 -0.2454
 1513SOL    HW115998   0.387   4.419   3.188  4.1274  1.2439 -2.5567
 1513SOL    HW215999   0.489   4.500   3.262 -2.8832  2.3439  2.2819
 1514SOL     OW16000   4.522   3.731   8.475 -0.8697  0.2636  0.1169
 1514SOL    HW116001   4.604   3.756   8.518  1.2580  0.6154 -4.1702
 1514SOL    HW216002   4.482   3.683   8.548  2.0760 -2.3689  0.0333
 1515SOL     OW16003   3.988   1.925   6.385  0.2715  0.1598 -0.0508
 1515SOL    HW116004   4.030   1.869   6.450 -1.0083  0.6414  1.1709
 1515SOL    HW216005   4.050   1.998   6.387  1.0927 -0.5481  0.2119
 1516SOL     OW16006   3.261   1.478   3.138 -0.0697  0.3973  0.1426
 1516SOL    HW116007   3.185   1.515   3.182 -2.6094 -1.7285 -2.4921
 1516SOL    HW216008   3.323   1.507   3.205 -1.7821  1.1351  1.4209
 1517SOL     OW16009   1.242   3.501  10.634  0.0232  0.1489  0.1458
 1517SOL    HW116010   1.300   3.507  10.710  0.7870  0.3099 -0.4551
 1517SOL    HW216011   1.278   3.565  10.573  2.7158 -0.2183  1.3481
 1518SOL     OW16012   0.561   0.648  16.822  0.2591  0.1038 -0.4938
 1518SOL    HW116013   0.524   0.576  16.772  2.2718 -1.6136  0.4614
 1518SOL    HW216014   0.570   0.611  16.910 -4.0829 -0.8583 -0.4542
 1519SOL     OW16015   2.418   2.783   6.902 -0.4838  0.4498  1.1508
 1519SOL    HW116016   2.336   2.735   6.912  0.9510 -1.6002  3.1401
 1519SOL    HW216017   2.392   2.852   6.840  1.3211  1.7855  1.8833
 1520SOL     OW16018   4.646   3.058   3.276  0.2754 -0.2374 -0.0614
 1520SOL    HW116019   4.649   3.111   3.196  0.8466  0.5840  0.5017
 1520SOL    HW216020   4.596   3.121   3.328 -0.0493 -1.1835  0.7758
 1521SOL     OW16021   0.358   3.110  14.203  0.4741 -0.2480 -0.4939
 1521SOL    HW116022   0.300   3.130  14.130 -1.4218 -0.0819  1.0540
 1521SOL    HW216023   0.313   3.050  14.262 -0.9736  1.6069  0.2735
 1522SOL     OW16024   1.041   2.210   7.455 -0.1043 -0.2555 -0.5609
 1522SOL    HW116025   1.072   2.152   7.524  0.4475  0.3412 -0.3081
 1522SOL    HW216026   0.996   2.150   7.394  0.1355 -0.6615 -0.3385
 1523SOL     OW16027   2.514   4.541   7.331 -0.1100  0.5725  0.5382
 1523SOL    HW116028   2.440   4.561   7.275 -0.6716  0.5627  1.2831
 1523SOL    HW216029   2.475   4.509   7.412  0.6084  0.9308  1.0267
 1524SOL     OW16030   4.503   0.270   4.896  0.8120 -0.1243  0.7006
 1524SOL    HW116031   4.435   0.318   4.945 -1.8334 -0.3916 -2.6938
 1524SOL    HW216032   4.566   0.236   4.959  0.7444 -0.2773  0.6867
 1525SOL     OW16033   1.619   1.791  11.910 -0.5612 -0.1400 -0.5514
 1525SOL    HW116034   1.620   1.752  11.998  0.4023  0.5668 -0.2532
 1525SOL    HW216035   1.671   1.722  11.869  0.4023 -1.0081  2.0769
 1526SOL     OW16036   2.980   2.734   2.973  0.4081  0.2599  0.0307
 1526SOL    HW116037   3.003   2.801   3.037  3.0880 -0.9587  0.3225
 1526SOL    HW216038   3.028   2.768   2.897  1.2876  0.1969  0.5627
 1527SOL     OW16039   4.353   4.706   8.113  0.2397  0.2487 -0.0095
 1527SOL    HW116040   4.295   4.639   8.076 -1.4297  0.3627  2.3586
 1527SOL    HW216041   4.320   4.708   8.203 -0.6861 -0.7209 -0.3260
 1528SOL     OW16042   1.967   0.663   6.005  0.6554 -0.1762  0.4729
 1528SOL    HW116043   1.919   0.737   6.044 -1.5061 -1.0276 -0.5474
 1528SOL    HW216044   2.057   0.695   6.005  0.8090 -0.6055  1.8271
 1529SOL     OW16045   0.987   0.628   5.113 -0.2543  0.0984 -0.1718
 1529SOL    HW116046   1.017   0.654   5.026 -0.2829 -1.8949 -0.7760
 1529SOL    HW216047   1.046   0.559   5.145 -1.1042 -1.0001 -0.9926
 1530SOL     OW16048   1.649   3.324   6.861  0.3212  0.3666 -0.5678
 1530SOL    HW116049   1.610   3.288   6.782 -1.2753  1.2083 -0.1697
 1530SOL    HW216050   1.578   3.378   6.895  0.3468  0.4420 -0.6339
 1531SOL     OW16051   0.025   2.347   7.545  0.2827 -0.1576  0.5435
 1531SOL    HW116052   0.120   2.347   7.550  0.4081 -0.8662 -2.0063
 1531SOL    HW216053   0.006   2.327   7.637 -3.2173 -3.6184 -0.9219
 1532SOL     OW16054   1.964   4.183   5.609 -0.5170 -0.0732 -0.0990
 1532SOL    HW116055   2.053   4.148   5.598 -0.7572  0.5180 -3.9352
 1532SOL    HW216056   1.964   4.220   5.697  0.3015 -2.2607  0.8133
 1533SOL     OW16057   0.231   0.520   4.658 -0.2496 -0.4738 -0.4898
 1533SOL    HW116058   0.204   0.501   4.568 -0.2297 -1.8026 -0.2126
 1533SOL    HW216059   0.182   0.455   4.709  1.5747 -2.8669 -1.8454
 1534SOL     OW16060   1.037   2.343   9.513 -0.5086 -0.4409 -0.0971
 1534SOL    HW116061   1.118   2.327   9.561 -0.8262 -3.2841 -0.4940
 1534SOL    HW216062   0.978   2.277   9.550 -2.2641  1.6165  0.7574
 1535SOL     OW16063   1.414   0.076  17.209  0.4111 -0.2102 -0.1028
 1535SOL    HW116064   1.375   0.155  17.174  0.2342  1.0339  2.9058
 1535SOL    HW216065   1.434   0.018  17.135  0.6032 -0.9995  0.5761
 1536SOL     OW16066   3.100   4.201   4.924  0.5531  0.1167 -0.8251
 1536SOL    HW116067   3.046   4.151   4.864 -1.5052  1.0995  0.2170
 1536SOL    HW216068   3.145   4.127   4.966 -2.2061 -1.1104 -0.0361
 1537SOL     OW16069   1.012   2.622   5.953  0.0391  0.1714  0.3930
 1537SOL    HW116070   0.979   2.692   6.010 -1.5324 -2.1059  2.2581
 1537SOL    HW216071   1.030   2.556   6.020  0.7331  0.4982  0.5297
 1538SOL     OW16072   0.791   0.225  13.914  0.0301  0.1547  0.0010
 1538SOL    HW116073   0.852   0.291  13.879  1.4464  1.2726  4.5756
 1538SOL    HW216074   0.713   0.271  13.944 -0.1727  0.3584 -0.8393
 1539SOL     OW16075   3.802   0.570   5.130 -0.0290 -0.2581  0.2738
 1539SOL    HW116076   3.833   0.602   5.215 -0.8354 -0.0099  0.4749
 1539SOL    HW216077   3.755   0.648   5.102 -0.5054 -0.8291 -0.5024
 1540SOL     OW16078   0.338   3.639   0.476 -0.8155  0.2719 -0.2608
 1540SOL    HW116079   0.399   3.655   0.404  1.7915  0.3825  2.0102
 1540SOL    HW216080   0.295   3.560   0.444  1.1829 -2.0168  2.8461
 1541SOL     OW16081   3.545   0.430   7.180  0.1292 -0.0139  0.4559
 1541SOL    HW116082   3.504   0.516   7.173  1.6422  0.5829 -1.2493
 1541SOL    HW216083   3.474   0.371   7.204 -0.9374  0.4121 -1.6387
 1542SOL     OW16084   1.413   2.815   5.693  0.8225 -0.6432  0.2568
 1542SOL    HW116085   1.340   2.807   5.754  0.5642  0.3297  0.0642
 1542SOL    HW216086   1.371   2.852   5.615 -0.5065 -0.1977  1.2000
 1543SOL     OW16087   0.688   1.134   4.012  0.0804 -0.2773  1.0422
 1543SOL    HW116088   0.771   1.107   4.051  1.0143  1.6497  0.3779
 1543SOL    HW216089   0.625   1.067   4.037  1.5716 -1.5210  1.4566
 1544SOL     OW16090   2.697   1.366   3.464 -0.4899  0.7330 -0.3542
 1544SOL    HW116091   2.769   1.428   3.458  0.1741 -0.0496 -0.4325
 1544SOL    HW216092   2.695   1.340   3.372  1.5055  0.7330 -0.3912
 1545SOL     OW16093   1.842   0.241   9.587 -0.0962 -0.4823 -0.1052
 1545SOL    HW116094   1.796   0.315   9.626 -0.5145 -1.5416  1.4318
 1545SOL    HW216095   1.914   0.289   9.546 -1.3121  1.1563 -0.3019
 1546SOL     OW16096   1.216   3.265   7.840  0.6054  0.0289 -0.3852
 1546SOL    HW116097   1.287   3.285   7.778 -0.4225  1.7042 -1.0332
 1546SOL    HW216098   1.254   3.312   7.915  0.7684  1.3156 -1.2658
 1547SOL     OW16099   1.962   4.592   9.964 -0.2812 -0.2419 -0.0452
 1547SOL    HW116100   2.034   4.535   9.991  0.1768  1.7151  2.7356
 1547SOL    HW216101   1.992   4.616   9.876  0.3396 -0.4737  0.1054
 1548SOL     OW16102   1.910   2.662  14.668  0.4472  0.1428 -0.4332
 1548SOL    HW116103   1.914   2.756  14.646  2.8460  0.1569  0.0620
 1548SOL    HW216104   1.899   2.627  14.579  1.3163 -0.9725 -0.0983
 1549SOL     OW16105   2.092   0.251   3.417  0.3560  0.1161 -0.1788
 1549SOL    HW116106   2.058   0.335   3.386  0.2255 -0.1594 -0.7799
 1549SOL    HW216107   2.009   0.220   3.454  1.5854 -1.8145  0.9257
 1550SOL     OW16108   1.512   4.436  10.411  0.0519  0.1830 -0.2189
 1550SOL    HW116109   1.441   4.383  10.448 -0.7416  1.7576  0.5582
 1550SOL    HW216110   1.469   4.503  10.358  0.0485  0.0184 -0.4214
 1551SOL     OW16111   0.801   3.922   6.924  0.3583  0.2191  0.3974
 1551SOL    HW116112   0.834   3.833   6.939 -1.4947 -0.5606 -0.0635
 1551SOL    HW216113   0.841   3.961   7.001 -0.3660  0.4095  0.6737
 1552SOL     OW16114   2.376   4.264   4.710 -0.0162 -0.2295  0.1373
 1552SOL    HW116115   2.334   4.348   4.728 -1.5515 -0.7090 -1.1738
 1552SOL    HW216116   2.466   4.296   4.702 -0.5596  1.4556  0.7438
 1553SOL     OW16117   0.924   4.654   4.721  0.5152 -0.2166  0.2828
 1553SOL    HW116118   0.847   4.602   4.743 -1.0443  1.7275 -0.6956
 1553SOL    HW216119   0.943   4.682   4.811  0.4180 -1.0382  0.5625
 1554SOL     OW16120   2.719   3.442  16.982  0.3597 -0.3548  0.2220
 1554SOL    HW116121   2.654   3.453  16.913  0.4849 -0.2354  0.1228
 1554SOL    HW216122   2.803   3.463  16.942  0.4161  0.4636  0.7704
 1555SOL     OW16123   0.076   4.278  12.317 -0.2881  0.3734  0.1190
 1555SOL    HW116124   4.722   4.318  12.352 -0.7057  0.0255 -0.4218
 1555SOL    HW216125   0.134   4.316  12.384  1.7413 -1.5041 -0.5756
 1556SOL     OW16126   3.591   1.302   8.677 -0.4184 -0.0885  0.4743
 1556SOL    HW116127   3.658   1.281   8.741  0.3390 -1.8965 -0.9402
 1556SOL    HW216128   3.513   1.273   8.725  0.2965 -2.1631  0.3766
 1557SOL     OW16129   3.655   4.692   7.569  0.0950 -0.4405  0.2789
 1557SOL    HW116130   3.671   0.024   7.493  1.3988 -1.9762 -0.6004
 1557SOL    HW216131   3.624   0.022   7.641  1.1961 -2.1045  2.0143
 1558SOL     OW16132   2.610   4.202   7.235 -0.3392 -0.4644  0.4423
 1558SOL    HW116133   2.565   4.174   7.155 -0.7072  0.0294  0.4797
 1558SOL    HW216134   2.553   4.186   7.309 -0.7792  0.5789  0.3346
 1559SOL     OW16135   2.118   0.006   2.258  0.1275  0.1170 -0.2265
 1559SOL    HW116136   2.153   4.681   2.332  0.7327  1.6662  0.5060
 1559SOL    HW216137   2.125   0.095   2.291 -1.3617  0.8121 -1.7941
 1560SOL     OW16138   2.341   3.310   8.104 -0.3001 -0.5996  0.0516
 1560SOL    HW116139   2.283   3.364   8.157  0.8700  0.0927  0.6164
 1560SOL    HW216140   2.287   3.307   8.025  0.1963 -0.1349 -0.3057
 1561SOL     OW16141   3.725   1.706   2.660  0.0507 -0.3870  0.1869
 1561SOL    HW116142   3.659   1.775   2.653 -1.6985 -2.1646 -0.9602
 1561SOL    HW216143   3.686   1.637   2.713 -1.4746 -0.4810 -1.0595
 1562SOL     OW16144   0.739   2.392   4.834 -0.3548 -0.5083 -0.9067
 1562SOL    HW116145   0.830   2.366   4.816 -0.6733 -1.4672 -1.1178
 1562SOL    HW216146   0.706   2.402   4.745 -0.2107  1.0575 -0.7809
 1563SOL     OW16147   4.018   4.046  10.603  0.2897 -0.3224 -1.0559
 1563SOL    HW116148   4.083   4.077  10.540 -1.3187  0.9660 -2.0804
 1563SOL    HW216149   3.939   4.038  10.549 -0.6466 -0.8628  0.3985
 1564SOL     OW16150   1.632   3.567   9.715  0.3096  0.5382 -0.0464
 1564SOL    HW116151   1.670   3.482   9.691  0.2717  0.4697  0.1406
 1564SOL    HW216152   1.547   3.542   9.750 -0.9639  0.8626 -2.9111
 1565SOL     OW16153   1.327   3.826   2.527 -0.1642 -0.6872 -0.2917
 1565SOL    HW116154   1.385   3.776   2.585 -2.0635 -0.6818  1.6025
 1565SOL    HW216155   1.257   3.761   2.527  0.9120 -1.8422  0.2386
 1566SOL     OW16156   2.472   4.057   5.575  0.0180 -1.2404 -0.1113
 1566SOL    HW116157   2.497   4.041   5.666 -0.6418  0.9963  0.4670
 1566SOL    HW216158   2.543   4.113   5.543 -0.2728 -0.1165  1.2301
 1567SOL     OW16159   1.682   4.191   8.340 -0.3813 -0.0704  0.2679
 1567SOL    HW116160   1.698   4.164   8.250 -5.4068  1.5116 -1.0857
 1567SOL    HW216161   1.603   4.238   8.313  1.7251  2.2478 -1.8680
 1568SOL     OW16162   1.248   0.095  16.009 -0.1003  0.4911 -0.0550
 1568SOL    HW116163   1.260   0.093  16.104  2.4266  1.5269 -0.3534
 1568SOL    HW216164   1.334   0.102  15.968  0.2697  1.2058  0.8475
 1569SOL     OW16165   2.838   4.201  13.296  0.2381 -0.4931  0.0749
 1569SOL    HW116166   2.770   4.136  13.280 -1.2677  1.2451 -0.6134
 1569SOL    HW216167   2.861   4.251  13.218 -2.1733  0.6487  0.1062
 1570SOL     OW16168   4.560   2.007   0.948 -0.3777 -0.7488 -0.2506
 1570SOL    HW116169   4.550   2.012   0.853  1.3211  0.6803 -0.3676
 1570SOL    HW216170   4.469   2.025   0.972  1.3615  0.8127  5.2143
 1571SOL     OW16171   2.685   2.727  10.705 -0.2981  0.0075 -0.1400
 1571SOL    HW116172   2.651   2.660  10.646 -2.0948  2.0555 -1.4229
 1571SOL    HW216173   2.617   2.733  10.772  0.1444 -1.6059  0.4496
 1572SOL     OW16174   3.578   0.317  16.399  0.6536  0.1576 -0.1017
 1572SOL    HW116175   3.578   0.222  16.412 -2.9687  0.1316 -0.4125
 1572SOL    HW216176   3.536   0.305  16.314  0.9204 -1.2898 -0.0253
 1573SOL     OW16177   3.322   3.771   4.434 -0.5006 -0.1829  0.3446
 1573SOL    HW116178   3.280   3.747   4.517  1.1596  0.7073  1.4278
 1573SOL    HW216179   3.367   3.688   4.416  1.2394  0.6906  0.6914
 1574SOL     OW16180   0.994   3.484  14.745 -0.0036 -0.0296 -0.6725
 1574SOL    HW116181   0.946   3.401  14.746 -0.8735  0.4989  1.0597
 1574SOL    HW216182   0.978   3.504  14.837 -0.1970 -0.9142 -0.5132
 1575SOL     OW16183   0.434   0.051   6.496  0.2245  0.3242  0.2862
 1575SOL    HW116184   0.456   4.704   6.555  0.8766 -1.8438 -2.6010
 1575SOL    HW216185   0.344   0.028   6.475  1.0661 -1.3710 -1.4913
 1576SOL     OW16186   0.691   0.979   6.225  0.4429  0.1242 -0.1822
 1576SOL    HW116187   0.656   1.067   6.211 -0.1620  0.1221  1.2827
 1576SOL    HW216188   0.784   0.999   6.215  0.4945  0.0936  0.2644
 1577SOL     OW16189   0.741   4.586  10.633 -0.0103  0.2850  0.5250
 1577SOL    HW116190   0.749   4.636  10.714  0.5322  2.8839 -1.1181
 1577SOL    HW216191   0.727   4.658  10.571  1.8370  0.4847  0.3367
 1578SOL     OW16192   4.049   1.519  16.055 -0.4261  0.3236  0.7908
 1578SOL    HW116193   4.029   1.426  16.070  1.0328  0.1174  1.4712
 1578SOL    HW216194   3.962   1.548  16.028 -0.1209 -0.4908 -1.1179
 1579SOL     OW16195   2.115   0.688   2.280  0.1471  0.0770 -1.3948
 1579SOL    HW116196   2.134   0.642   2.198 -0.1283  0.5840 -1.7463
 1579SOL    HW216197   2.193   0.663   2.329 -1.0999 -1.2512 -0.1215
 1580SOL     OW16198   4.033   4.399   4.287 -0.2183  0.0391 -0.1609
 1580SOL    HW116199   4.085   4.321   4.268  0.2560 -0.1238  1.8368
 1580SOL    HW216200   4.060   4.420   4.377 -1.3028 -0.0351  0.1821
 1581SOL     OW16201   1.389   1.808   1.309  0.8639  0.4893 -0.7671
 1581SOL    HW116202   1.445   1.854   1.247  0.9507 -0.7087 -1.5900
 1581SOL    HW216203   1.310   1.862   1.308  0.0297 -0.7415 -1.1380
 1582SOL     OW16204   1.724   3.366   7.663  0.1227  0.2729 -0.7880
 1582SOL    HW116205   1.699   3.457   7.678 -0.7354  0.0010 -0.5767
 1582SOL    HW216206   1.711   3.372   7.568 -3.2215  0.3189 -0.3409
 1583SOL     OW16207   2.810   4.145  17.371 -0.2967  0.0027  0.1643
 1583SOL    HW116208   2.815   4.157  17.276 -0.3515 -0.2736  0.1264
 1583SOL    HW216209   2.722   4.114  17.394 -0.3881  0.7808  0.8619
 1584SOL     OW16210   1.520   3.850   5.946 -0.0041 -0.0237 -0.3094
 1584SOL    HW116211   1.469   3.773   5.971  2.9337 -1.0705  2.4027
 1584SOL    HW216212   1.447   3.891   5.900 -1.2605  0.4697  2.1197
 1585SOL     OW16213   4.644   0.200   8.708 -0.1756 -0.5985 -0.0850
 1585SOL    HW116214   4.633   0.105   8.715  0.5275 -0.8230 -2.1919
 1585SOL    HW216215   0.013   0.213   8.719 -0.3305  1.5332 -1.3376
 1586SOL     OW16216   3.327   1.574   4.496 -0.1733 -0.4388 -0.7105
 1586SOL    HW116217   3.395   1.514   4.527  0.2864 -0.3030 -1.4377
 1586SOL    HW216218   3.261   1.553   4.562 -0.8642  1.3908 -0.7996
 1587SOL     OW16219   2.885   0.846  11.181  0.0378 -0.5159  0.5596
 1587SOL    HW116220   2.909   0.890  11.100 -1.3538 -0.2515  0.2873
 1587SOL    HW216221   2.802   0.800  11.167  1.3715 -1.7534 -3.2038
 1588SOL     OW16222   4.272   4.052   3.543 -0.2460 -0.1946 -0.2020
 1588SOL    HW116223   4.250   4.055   3.636  0.1196  0.1298 -0.1306
 1588SOL    HW216224   4.356   4.006   3.548 -2.3232 -3.9891 -0.0884
 1589SOL     OW16225   0.426   1.293  10.809 -0.5706 -0.3516  0.4621
 1589SOL    HW116226   0.393   1.277  10.898 -1.0508 -0.5200  0.2552
 1589SOL    HW216227   0.477   1.212  10.806 -1.5793 -1.0002  0.5428
 1590SOL     OW16228   4.530   1.202   1.953  0.5621  0.3836 -0.5161
 1590SOL    HW116229   4.468   1.154   1.898  0.0080 -1.2623  1.5768
 1590SOL    HW216230   4.578   1.246   1.882  1.0900 -0.0421 -0.4258
 1591SOL     OW16231   3.655   2.095   6.080 -0.3537 -0.4169 -0.3500
 1591SOL    HW116232   3.642   2.010   6.039  2.0516 -0.9998  0.0907
 1591SOL    HW216233   3.665   2.149   6.001 -0.8634  1.2990  0.7563
 1592SOL     OW16234   0.805   1.179   7.841  0.3273 -0.2817 -0.2147
 1592SOL    HW116235   0.740   1.132   7.789 -0.1411  0.8430 -0.6295
 1592SOL    HW216236   0.842   1.112   7.899 -0.0606  0.3748  0.7916
 1593SOL     OW16237   0.014   0.498   0.943 -0.2160 -0.0590  0.2981
 1593SOL    HW116238   4.674   0.484   1.012  0.2220  0.7447  0.8727
 1593SOL    HW216239   0.090   0.457   0.984 -0.6329 -2.6851 -1.5716
 1594SOL     OW16240   4.406   3.508   3.940  0.1458 -0.4325 -0.1518
 1594SOL    HW116241   4.314   3.487   3.957 -0.2145  1.4485  0.3212
 1594SOL    HW216242   4.424   3.459   3.861 -0.6505  0.0554 -0.6368
 1595SOL     OW16243   4.463   0.190  11.171  0.6216 -0.6355  0.1421
 1595SOL    HW116244   4.533   0.154  11.116  1.7309 -0.2774  1.3284
 1595SOL    HW216245   4.392   0.126  11.170  1.6571 -1.7698 -0.5166
 1596SOL     OW16246   1.030   4.456  12.585 -0.6885  0.3954  0.1368
 1596SOL    HW116247   1.048   4.437  12.677  0.5204  0.0121 -0.1768
 1596SOL    HW216248   0.960   4.521  12.594 -2.1782 -1.4433  1.6673
 1597SOL     OW16249   4.337   1.279   3.988 -0.3457 -0.1057  0.7604
 1597SOL    HW116250   4.372   1.338   4.055 -1.8684 -0.4211  1.8298
 1597SOL    HW216251   4.273   1.226   4.037  1.0093 -0.7094  1.8696
 1598SOL     OW16252   1.137   3.231   4.447  0.4476 -0.0736 -0.1013
 1598SOL    HW116253   1.134   3.206   4.539  0.7063 -0.7461 -0.2764
 1598SOL    HW216254   1.081   3.158   4.420  0.4138 -0.1008  0.0420
 1599SOL     OW16255   3.501   2.010   6.900  0.2840  0.6611 -0.0682
 1599SOL    HW116256   3.421   2.018   6.848  0.0546  1.4498  0.3999
 1599SOL    HW216257   3.484   1.931   6.951 -1.5921 -0.2774 -2.1584
 1600SOL     OW16258   3.524   3.511   6.399 -0.5002 -0.0668 -0.0713
 1600SOL    HW116259   3.436   3.547   6.405 -0.3777  0.6779 -2.6435
 1600SOL    HW216260   3.566   3.548   6.476  0.1718 -1.3162  0.1697
 1601SOL     OW16261   1.740   3.448   1.501  0.4009 -0.3552  0.5929
 1601SOL    HW116262   1.673   3.516   1.486 -0.9402 -2.0208 -0.9466
 1601SOL    HW216263   1.692   3.395   1.564 -1.6809  1.2922  0.4026
 1602SOL     OW16264   2.597   1.800  16.199 -0.3410 -0.1037 -0.2931
 1602SOL    HW116265   2.510   1.806  16.160 -0.6049  1.4362  0.5452
 1602SOL    HW216266   2.582   1.840  16.285 -1.3587  0.6878 -0.8284
 1603SOL     OW16267   1.263   1.172   2.857  0.4072  0.0489  0.2431
 1603SOL    HW116268   1.207   1.210   2.789 -0.3616 -0.0164  0.8377
 1603SOL    HW216269   1.326   1.126   2.801 -1.1048 -0.4787 -1.0461
 1604SOL     OW16270   1.212   3.728   4.359 -0.0840  0.2409 -0.3356
 1604SOL    HW116271   1.172   3.761   4.278 -2.8486  0.0604  0.9303
 1604SOL    HW216272   1.206   3.804   4.417  1.6546  0.2649 -0.1907
 1605SOL     OW16273   3.603   3.423   5.770 -0.3569 -0.3993 -0.0829
 1605SOL    HW116274   3.684   3.464   5.800 -0.9024 -0.8584  2.0101
 1605SOL    HW216275   3.557   3.500   5.738 -1.6677 -0.5386  1.4396
 1606SOL     OW16276   4.115   4.706   5.891 -0.0288  0.6362  0.1588
 1606SOL    HW116277   4.029   0.020   5.908 -0.0897 -0.2149  1.7978
 1606SOL    HW216278   4.097   4.616   5.865 -0.8449  0.9757 -0.4735
 1607SOL     OW16279   4.293   0.333   8.814  0.0872  0.4312  0.3027
 1607SOL    HW116280   4.324   0.245   8.835 -0.6154  0.6467  2.2453
 1607SOL    HW216281   4.301   0.326   8.719  2.0047  0.2506  0.4772
 1608SOL     OW16282   2.905   3.916  15.477 -0.1956  0.3790 -0.1006
 1608SOL    HW116283   2.972   3.848  15.487 -0.3125  0.1981 -0.5332
 1608SOL    HW216284   2.863   3.911  15.563  1.2562  0.2571  0.5967
 1609SOL     OW16285   3.974   0.192   1.141 -0.2938 -0.2345 -0.2797
 1609SOL    HW116286   3.976   0.153   1.053  2.2646 -0.7087 -0.0145
 1609SOL    HW216287   3.907   0.259   1.128 -1.1751 -1.2996 -1.2228
 1610SOL     OW16288   0.365   1.769   1.429  0.2843 -0.2399 -0.4067
 1610SOL    HW116289   0.362   1.688   1.378 -0.4301 -0.2004 -0.4246
 1610SOL    HW216290   0.416   1.832   1.378  2.5978  0.5170  2.8693
 1611SOL     OW16291   0.146   1.387   5.255  0.8178  0.0489 -0.2500
 1611SOL    HW116292   0.189   1.466   5.222  0.8231 -1.2580 -3.3691
 1611SOL    HW216293   0.213   1.319   5.249 -0.2216 -1.0607  0.5096
 1612SOL     OW16294   4.036   2.830  14.304 -0.3703 -0.3040  0.1299
 1612SOL    HW116295   4.097   2.900  14.281  0.2770 -0.5270  1.1693
 1612SOL    HW216296   4.021   2.786  14.220 -1.5350 -0.9103  0.6395
 1613SOL     OW16297   0.380   2.872   6.849  0.2248 -0.4292 -0.5078
 1613SOL    HW116298   0.382   2.932   6.775 -0.0727  0.1627 -0.0416
 1613SOL    HW216299   0.406   2.788   6.811  2.4079  0.4818 -1.0234
 1614SOL     OW16300   2.121   1.953   1.201  0.6040  0.2907  0.3139
 1614SOL    HW116301   2.210   1.921   1.192  0.4986 -0.4027  1.7082
 1614SOL    HW216302   2.093   1.941   1.110 -2.1577  1.2247  1.0496
 1615SOL     OW16303   4.605   3.709  15.528  0.3388  0.3538  0.4220
 1615SOL    HW116304   4.537   3.681  15.588 -2.2233  1.8719 -1.7664
 1615SOL    HW216305   4.584   3.802  15.521 -0.1100  0.1822 -0.5775
 1616SOL     OW16306   0.431   0.413  11.171 -0.4164  0.1808 -0.4519
 1616SOL    HW116307   0.405   0.427  11.261  1.2499  0.5840 -0.0347
 1616SOL    HW216308   0.522   0.385  11.177  0.0569  1.3410 -2.1813
 1617SOL     OW16309   1.043   0.066   4.518 -0.8959 -0.6951 -0.4071
 1617SOL    HW116310   0.998   0.026   4.593 -1.0388 -0.3936 -0.3314
 1617SOL    HW216311   1.135   0.059   4.541 -0.6394 -2.1154 -1.8495
 1618SOL     OW16312   2.960   0.382  10.327  0.1382  0.0595 -0.4224
 1618SOL    HW116313   2.906   0.412  10.254 -1.6882 -0.6001  0.6674
 1618SOL    HW216314   2.923   0.420  10.407  0.8554  0.5832 -0.3320
 1619SOL     OW16315   2.738   1.253   5.519  0.0274 -0.1816 -0.3377
 1619SOL    HW116316   2.680   1.316   5.562  0.7265 -0.0813  0.4663
 1619SOL    HW216317   2.787   1.230   5.598 -0.9529  0.5112  0.4748
 1620SOL     OW16318   0.586   1.119   4.998 -0.1065 -0.1979 -0.2310
 1620SOL    HW116319   0.541   1.044   4.959 -0.6343 -0.4982  0.9339
 1620SOL    HW216320   0.654   1.136   4.933  0.6979 -1.1296  0.3655
 1621SOL     OW16321   1.882   4.599  15.324 -0.0682 -0.2891  0.2589
 1621SOL    HW116322   1.822   4.597  15.249  0.5129 -1.3673 -0.1778
 1621SOL    HW216323   1.947   4.667  15.306  0.0615 -0.0898  1.4978
 1622SOL     OW16324   4.439   0.465   0.487 -0.5284  0.4080  0.1114
 1622SOL    HW116325   4.374   0.407   0.525 -2.3277  1.4508 -1.3809
 1622SOL    HW216326   4.496   0.501   0.555 -1.4103 -0.1032  1.1109
 1623SOL     OW16327   1.666   4.091   3.849  0.3063 -0.4554  0.2272
 1623SOL    HW116328   1.626   4.010   3.882  1.0661 -1.8413 -2.2133
 1623SOL    HW216329   1.755   4.080   3.882  1.2243  0.7949 -1.8349
 1624SOL     OW16330   0.162   1.008   5.500 -0.3411  0.1004  0.0901
 1624SOL    HW116331   0.129   0.965   5.579 -0.7006 -1.5749 -0.9720
 1624SOL    HW216332   0.251   0.984   5.526 -0.2028 -0.4295 -0.8991
 1625SOL     OW16333   2.688   1.002   8.553 -0.3894 -0.1002  0.3133
 1625SOL    HW116334   2.770   1.035   8.515 -0.3813 -1.8201 -1.1364
 1625SOL    HW216335   2.636   1.082   8.560 -0.3149  0.2552 -3.2681
 1626SOL     OW16336   0.108   0.590   0.708 -0.1759  0.1607 -0.0984
 1626SOL    HW116337   0.109   0.558   0.798  2.9779 -0.9282 -0.5051
 1626SOL    HW216338   0.018   0.622   0.717 -0.1608  0.1845 -0.0281
 1627SOL     OW16339   4.427   0.915   5.600 -0.3954 -0.6826 -0.0795
 1627SOL    HW116340   4.411   1.000   5.559 -0.0724  0.2555  1.7450
 1627SOL    HW216341   4.487   0.875   5.536 -1.4475  0.8322 -2.0194
 1628SOL     OW16342   1.404   0.528   4.493  0.3071 -0.5796  0.0556
 1628SOL    HW116343   1.325   0.560   4.537  0.1635 -0.4501 -0.2917
 1628SOL    HW216344   1.389   0.579   4.413 -0.0896 -2.2126 -0.9071
 1629SOL     OW16345   0.757   1.544   8.569  0.2743 -0.3069  0.4061
 1629SOL    HW116346   0.713   1.592   8.639 -0.7357 -0.9648  0.2414
 1629SOL    HW216347   0.685   1.485   8.543 -1.0953  1.0352  1.1647
 1630SOL     OW16348   4.433   0.976   4.237  0.0274 -0.5055  0.1633
 1630SOL    HW116349   4.497   1.040   4.206 -0.3069 -0.5386 -0.6052
 1630SOL    HW216350   4.450   0.914   4.166  1.8817  1.2776 -0.9871
 1631SOL     OW16351   1.723   3.344   8.072 -0.4638  0.4891 -0.3322
 1631SOL    HW116352   1.704   3.283   8.143  0.2401  0.7741  0.1055
 1631SOL    HW216353   1.645   3.399   8.081 -0.4443 -0.2660  4.2417
 1632SOL     OW16354   4.139   4.575   7.995  0.3209  0.4825  0.0929
 1632SOL    HW116355   4.055   4.547   8.032  0.1443 -1.9012 -2.1506
 1632SOL    HW216356   4.098   4.647   7.946 -1.0483 -0.2951  0.1065
 1633SOL     OW16357   2.797   1.948   3.015  0.3623 -0.5303  0.6662
 1633SOL    HW116358   2.874   2.003   3.028  0.2165 -1.0486  3.7056
 1633SOL    HW216359   2.804   1.936   2.920 -0.9268 -2.5977  0.8397
 1634SOL     OW16360   4.616   3.611   7.996 -0.5053 -0.4767  0.0671
 1634SOL    HW116361   4.705   3.577   8.001 -0.0337  0.5234 -1.5928
 1634SOL    HW216362   4.612   3.673   8.070  2.2591 -1.8974  1.3830
 1635SOL     OW16363   4.190   1.991   7.377 -0.1499  0.3925  0.7166
 1635SOL    HW116364   4.189   1.978   7.472 -0.6404 -1.4227  0.4769
 1635SOL    HW216365   4.111   1.941   7.356  0.3994 -0.2663  0.1934
 1636SOL     OW16366   2.013   3.704   3.574  0.4794  0.4289 -0.1715
 1636SOL    HW116367   2.069   3.768   3.529 -0.7165  2.0994  0.7139
 1636SOL    HW216368   1.944   3.691   3.509 -1.4517  2.3520  1.4807
 1637SOL     OW16369   2.202   3.894   5.236  0.1687  0.0195 -0.2926
 1637SOL    HW116370   2.236   3.864   5.151  0.0556  0.2122 -0.4053
 1637SOL    HW216371   2.118   3.850   5.243  0.0898  0.0307 -1.1075
 1638SOL     OW16372   3.913   2.328   6.029 -0.1237  0.3744  0.4621
 1638SOL    HW116373   3.895   2.236   6.047  0.4297  0.2924  0.6066
 1638SOL    HW216374   3.932   2.324   5.935  3.4485  1.1759  1.1079
 1639SOL     OW16375   3.471   1.171   7.824  0.9556 -0.1603  0.3820
 1639SOL    HW116376   3.472   1.267   7.827 -0.5311 -0.0954 -1.5980
 1639SOL    HW216377   3.555   1.168   7.870  1.2000 -2.0520 -0.2076
 1640SOL     OW16378   0.380   3.792  11.049 -0.4122  0.3204  0.2010
 1640SOL    HW116379   0.470   3.807  11.021 -0.5277 -1.3009 -1.0463
 1640SOL    HW216380   0.356   3.750  10.966  0.8356  0.5515 -0.2753
 1641SOL     OW16381   3.673   4.556   2.836 -0.5491  0.1213  0.0228
 1641SOL    HW116382   3.579   4.570   2.847 -0.5570 -0.1130  0.2853
 1641SOL    HW216383   3.715   4.641   2.830  1.4095 -1.0969 -3.0929
 1642SOL     OW16384   2.114   2.468   4.122 -0.4411  0.2319 -0.4755
 1642SOL    HW116385   2.024   2.451   4.150  0.0052  0.8307  1.3301
 1642SOL    HW216386   2.119   2.409   4.046 -2.3866  0.1314 -0.5118
 1643SOL     OW16387   0.068   2.394  14.721 -0.9590 -0.1376  0.4640
 1643SOL    HW116388   4.722   2.334  14.746 -1.5746  1.6589  3.0480
 1643SOL    HW216389   0.137   2.379  14.786 -0.4414 -1.1725 -0.3332
 1644SOL     OW16390   2.150   3.289   2.416  0.4497 -0.8464  0.7158
 1644SOL    HW116391   2.088   3.362   2.421  2.3035  0.8857 -1.5313
 1644SOL    HW216392   2.193   3.303   2.332  2.5224 -3.0144  1.4184
 1645SOL     OW16393   4.108   4.046   2.776 -0.1000 -0.2324 -0.5776
 1645SOL    HW116394   4.061   4.063   2.858  0.0591  2.4269 -1.0379
 1645SOL    HW216395   4.074   4.117   2.723 -0.8453  0.3744  0.7018
 1646SOL     OW16396   2.685   0.111   0.805  0.1210  0.5641 -0.4144
 1646SOL    HW116397   2.712   0.176   0.870  0.1894 -0.1673  0.2913
 1646SOL    HW216398   2.765   0.116   0.754 -1.0551 -0.5076 -2.3695
 1647SOL     OW16399   4.462   3.095   5.835  0.0032  0.3245 -0.9066
 1647SOL    HW116400   4.481   3.181   5.796  0.0451  1.7771  2.2999
 1647SOL    HW216401   4.438   3.109   5.926 -1.8587 -0.0301 -1.3251
 1648SOL     OW16402   2.937   1.530   4.175  0.1917 -0.1925 -0.1551
 1648SOL    HW116403   3.026   1.524   4.210  0.0430  0.6685  0.3801
 1648SOL    HW216404   2.890   1.514   4.257 -1.4189  0.4919 -0.9431
 1649SOL     OW16405   4.401   2.060   6.757  0.2908 -0.1871 -0.2608
 1649SOL    HW116406   4.354   2.143   6.760 -1.4344 -1.1806  0.1906
 1649SOL    HW216407   4.364   2.012   6.683  0.2124  0.3666 -0.5748
 1650SOL     OW16408   1.553   3.670   2.284 -0.1936  0.0891  0.1016
 1650SOL    HW116409   1.545   3.733   2.212  1.4107  0.3296  0.1491
 1650SOL    HW216410   1.624   3.617   2.250 -1.8946 -1.7728 -0.5386
 1651SOL     OW16411   3.466   0.794   7.981 -0.3024 -0.4675  0.3935
 1651SOL    HW116412   3.471   0.699   7.988  0.5905 -0.4679 -0.2682
 1651SOL    HW216413   3.558   0.818   7.970 -0.3052 -0.9892 -0.7196
 1652SOL     OW16414   2.820   3.380  12.904 -0.1784  0.0827 -0.2228
 1652SOL    HW116415   2.786   3.316  12.966 -0.9090 -0.7551 -1.4648
 1652SOL    HW216416   2.907   3.343  12.892 -1.7424 -3.4863 -0.6469
 1653SOL     OW16417   1.715   1.873   6.501  0.1447  0.0627 -0.2670
 1653SOL    HW116418   1.725   1.795   6.447  0.4890  1.4922 -2.2974
 1653SOL    HW216419   1.791   1.925   6.475  0.8475 -0.0491  1.5840
 1654SOL     OW16420   3.298   2.873   7.849 -0.4807 -0.2029 -0.1899
 1654SOL    HW116421   3.225   2.811   7.844  1.1323 -2.0308 -1.1309
 1654SOL    HW216422   3.273   2.945   7.791 -0.0999 -2.1028 -2.7288
 1655SOL     OW16423   3.856   2.386   4.816 -0.1608  0.1569 -0.2535
 1655SOL    HW116424   3.886   2.298   4.794  0.8678  0.4339  0.0357
 1655SOL    HW216425   3.856   2.420   4.727 -0.6416  0.6974 -0.0449
 1656SOL     OW16426   4.720   2.770   8.656  0.0205 -0.0842  0.0055
 1656SOL    HW116427   0.045   2.851   8.666 -0.8769  0.5572 -0.7584
 1656SOL    HW216428   4.666   2.752   8.733  1.9587  3.9419  2.2680
 1657SOL     OW16429   2.069   2.443   0.518 -0.3911 -0.0179 -0.1325
 1657SOL    HW116430   2.069   2.450   0.613 -0.4361  2.5414 -0.3238
 1657SOL    HW216431   2.109   2.525   0.489  1.6439 -1.7719 -2.3423
 1658SOL     OW16432   4.494   1.971   7.741  0.4652 -0.2902 -0.0642
 1658SOL    HW116433   4.559   1.969   7.811  0.8310  0.7387 -0.3773
 1658SOL    HW216434   4.417   2.016   7.775  1.1172  0.6329  0.1780
 1659SOL     OW16435   3.383   3.901   7.009 -0.4752 -0.0455 -0.2794
 1659SOL    HW116436   3.470   3.884   7.045  0.0426  2.4407 -0.3324
 1659SOL    HW216437   3.335   3.849   7.072  1.7623 -0.9572  0.6759
 1660SOL     OW16438   3.715   0.769  14.333  0.5083  0.1490  0.1521
 1660SOL    HW116439   3.661   0.830  14.282  2.7406  1.6371 -0.4418
 1660SOL    HW216440   3.735   0.706  14.264  1.2560 -0.2125  0.7009
 1661SOL     OW16441   3.528   1.783   8.267  0.1271  0.0996 -0.0332
 1661SOL    HW116442   3.620   1.785   8.292 -0.1309 -1.3172  1.0583
 1661SOL    HW216443   3.503   1.814   8.355 -3.5743 -1.3389 -0.5619
 1662SOL     OW16444   4.188   0.066   0.135  0.1850  0.9542  0.0887
 1662SOL    HW116445   4.107   0.116   0.140  0.3856  1.1542  1.3501
 1662SOL    HW216446   4.177   0.012   0.057  0.6451  0.1654  0.5646
 1663SOL     OW16447   2.406   3.649   2.203  0.3659  0.0217  0.1136
 1663SOL    HW116448   2.454   3.730   2.220  2.0390 -0.7765 -0.7102
 1663SOL    HW216449   2.448   3.620   2.122  1.4103  1.0876  0.2663
 1664SOL     OW16450   2.202   4.666   1.740  0.1469 -0.0284  0.6105
 1664SOL    HW116451   2.263   4.608   1.785  0.6407  0.5367  0.6696
 1664SOL    HW216452   2.138   4.655   1.810 -0.9852  0.4022 -0.3358
 1665SOL     OW16453   2.221   2.339  10.188 -0.6518 -0.4071 -0.5929
 1665SOL    HW116454   2.269   2.286  10.125  1.2708  0.3044  0.2526
 1665SOL    HW216455   2.277   2.330  10.265 -0.0724 -0.1438 -0.9826
 1666SOL     OW16456   1.258   1.996  10.268  0.2149 -0.1313 -0.4357
 1666SOL    HW116457   1.275   2.021  10.359  1.4215 -0.7833 -0.4824
 1666SOL    HW216458   1.267   1.902  10.278 -0.5416  0.0369  1.8283
 1667SOL     OW16459   2.464   4.038  13.991  0.4003 -0.0570 -0.2059
 1667SOL    HW116460   2.419   3.966  14.035  1.7018  0.2023  1.5602
 1667SOL    HW216461   2.526   4.060  14.061 -0.8177  0.8107  0.5996
 1668SOL     OW16462   3.604   3.112   1.989  0.6914  0.0695  0.3382
 1668SOL    HW116463   3.546   3.188   1.998 -1.1428 -1.2614 -0.2583
 1668SOL    HW216464   3.689   3.151   2.009  0.1574  2.0360 -1.1915
 1669SOL     OW16465   1.664   0.165  10.452  0.3188  1.1126  0.6080
 1669SOL    HW116466   1.612   0.242  10.475  0.9324  1.7051  0.0049
 1669SOL    HW216467   1.643   0.101  10.520  0.0120  0.6178  0.0442
 1670SOL     OW16468   2.370   1.491   6.320  0.1220  0.1444  0.3522
 1670SOL    HW116469   2.422   1.438   6.260  2.4569 -0.0140  2.5047
 1670SOL    HW216470   2.439   1.516   6.381  0.9340  0.2917 -0.6411
 1671SOL     OW16471   1.398   4.203   8.788 -0.3195 -0.6377 -0.3168
 1671SOL    HW116472   1.437   4.217   8.874  0.1204 -2.3069 -0.2416
 1671SOL    HW216473   1.441   4.267   8.732 -1.0960 -0.4867 -0.7355
 1672SOL     OW16474   3.760   0.210  14.894 -0.1760  0.7942  0.2141
 1672SOL    HW116475   3.728   0.248  14.812  0.1698 -0.3180 -0.4370
 1672SOL    HW216476   3.851   0.236  14.893 -0.2074  0.8890 -0.0620
 1673SOL     OW16477   3.644   0.074   3.837 -0.2419 -0.4073  0.0729
 1673SOL    HW116478   3.635   0.019   3.915  1.7118  1.5623  1.6738
 1673SOL    HW216479   3.726   0.120   3.852  0.0215 -0.6137 -0.7142
 1674SOL     OW16480   2.057   0.430   3.080  0.0564 -0.3765 -0.5247
 1674SOL    HW116481   1.992   0.395   3.142 -0.2174  0.8039 -0.1510
 1674SOL    HW216482   2.119   0.449   3.151 -0.4574  2.5221 -0.8455
 1675SOL     OW16483   1.270   0.970   9.767 -0.1355 -0.1682 -0.4279
 1675SOL    HW116484   1.209   1.017   9.824  0.6396  0.1193  0.1590
 1675SOL    HW216485   1.209   0.926   9.707  1.8482 -3.1637 -0.2385
 1676SOL     OW16486   1.214   2.360   5.536 -0.2905 -0.3127 -0.1401
 1676SOL    HW116487   1.175   2.281   5.574  0.1284 -0.3961  0.1059
 1676SOL    HW216488   1.152   2.425   5.570  0.7594 -0.0205  1.1813
 1677SOL     OW16489   2.975   0.606  11.030  0.6990  0.1080 -0.2307
 1677SOL    HW116490   2.894   0.556  11.043  2.1697 -2.2311 -0.1362
 1677SOL    HW216491   2.978   0.639  11.120 -0.5403 -0.1923 -0.0729
 1678SOL     OW16492   3.429   4.646   2.710  0.2879 -0.5668  0.5304
 1678SOL    HW116493   3.373   4.570   2.726  0.6844 -0.7995  0.8237
 1678SOL    HW216494   3.451   4.633   2.618 -0.6520  0.4938  0.1699
 1679SOL     OW16495   1.642   3.699   9.351 -0.1454  0.0134 -0.0061
 1679SOL    HW116496   1.562   3.750   9.343  0.6733  1.6975  2.5034
 1679SOL    HW216497   1.704   3.772   9.361  0.1004 -0.0671 -0.8868
 1680SOL     OW16498   2.684   2.502  11.683 -0.1902  0.3797 -0.0732
 1680SOL    HW116499   2.712   2.482  11.594  1.3231  1.8350  0.0829
 1680SOL    HW216500   2.669   2.414  11.718 -1.9775  0.5205 -0.4526
 1681SOL     OW16501   0.091   1.040   4.369 -0.5430 -0.1304  0.0336
 1681SOL    HW116502   0.089   0.946   4.388 -1.3695 -0.5637 -2.2587
 1681SOL    HW216503   0.105   1.039   4.275  1.9911  0.0630  0.3947
 1682SOL     OW16504   2.327   2.703   6.250  0.5125  0.4001 -0.0467
 1682SOL    HW116505   2.235   2.683   6.232  0.6674 -1.1869  0.8496
 1682SOL    HW216506   2.362   2.654   6.175  0.9541  0.8634 -0.1422
 1683SOL     OW16507   4.009   2.298   7.653  0.4387 -0.1024  0.4139
 1683SOL    HW116508   4.055   2.378   7.626 -0.2062  0.0496 -0.2137
 1683SOL    HW216509   3.935   2.343   7.692  0.8679  0.8022  0.1844
 1684SOL     OW16510   2.527   4.318  16.808 -0.6935 -0.2712  0.4713
 1684SOL    HW116511   2.444   4.293  16.849 -0.4583  0.6366  1.4965
 1684SOL    HW216512   2.492   4.368  16.734  1.1267  0.1660 -0.0826
 1685SOL     OW16513   3.507   1.093   0.378  0.4095  0.1027 -0.1327
 1685SOL    HW116514   3.446   1.039   0.328  1.7405  0.3136 -2.0040
 1685SOL    HW216515   3.489   1.081   0.471  1.1556  0.3299  0.0433
 1686SOL     OW16516   2.371   1.124   6.546 -0.3494  0.4086  0.1333
 1686SOL    HW116517   2.465   1.109   6.547 -0.3836  0.0444 -1.4827
 1686SOL    HW216518   2.349   1.125   6.452  1.4113  0.7242 -0.2696
 1687SOL     OW16519   2.383   4.483  13.154  0.2995 -0.3304  0.0119
 1687SOL    HW116520   2.296   4.521  13.165  1.1220  1.0690  1.5863
 1687SOL    HW216521   2.428   4.494  13.237 -1.2388 -0.4172  0.8470
 1688SOL     OW16522   2.662   1.271   2.834  0.0528  0.0582  0.9888
 1688SOL    HW116523   2.744   1.224   2.849  0.5537  0.2650 -1.0212
 1688SOL    HW216524   2.633   1.285   2.924 -1.2202 -1.2484  0.7813
 1689SOL     OW16525   4.279   1.655   7.145  0.3736  0.3547  0.2036
 1689SOL    HW116526   4.214   1.723   7.126 -0.3041 -1.0508 -2.5511
 1689SOL    HW216527   4.235   1.577   7.111  2.8659 -1.7554  1.8308
 1690SOL     OW16528   2.245   4.256   7.180 -0.0416 -0.1396 -0.1362
 1690SOL    HW116529   2.234   4.327   7.118  2.8490 -0.5058 -1.0751
 1690SOL    HW216530   2.229   4.181   7.122  1.0374  0.6514 -1.4429
 1691SOL     OW16531   0.761   0.804  16.975 -0.2323 -0.4256 -0.1688
 1691SOL    HW116532   0.806   0.724  17.002  0.2358 -1.1331 -3.0084
 1691SOL    HW216533   0.689   0.771  16.921  1.0105  2.3867 -3.5453
 1692SOL     OW16534   3.202   1.741   6.948  0.3607 -0.1202 -0.0564
 1692SOL    HW116535   3.291   1.764   6.921  0.7364 -2.3201 -0.7139
 1692SOL    HW216536   3.216   1.646   6.943  2.6754  0.2272 -0.1904
 1693SOL     OW16537   0.586   3.901   1.782 -0.2698 -0.2324 -0.1208
 1693SOL    HW116538   0.601   3.952   1.702 -0.2025 -0.8790 -0.5186
 1693SOL    HW216539   0.677   3.882   1.804 -0.0382  0.3505 -0.5744
 1694SOL     OW16540   1.491   3.195   7.347 -0.1632  0.1164 -0.7437
 1694SOL    HW116541   1.497   3.146   7.266 -0.2914 -0.1180 -0.6115
 1694SOL    HW216542   1.416   3.157   7.393  0.1605 -2.5789 -2.4691
 1695SOL     OW16543   1.979   4.202   4.148  0.5099 -0.2702  0.0774
 1695SOL    HW116544   2.012   4.125   4.103  1.4641  0.4073 -0.3785
 1695SOL    HW216545   2.040   4.269   4.118 -0.5001  0.5485 -0.1587
 1696SOL     OW16546   1.587   2.874  15.667 -0.1320 -0.7840  0.3265
 1696SOL    HW116547   1.501   2.903  15.634  1.1044  1.2559 -1.1545
 1696SOL    HW216548   1.609   2.795  15.617 -1.8932 -1.0262 -0.0862
 1697SOL     OW16549   2.040   0.230  15.976 -0.2724 -0.8522  0.2705
 1697SOL    HW116550   2.093   0.183  16.040  0.6953 -0.3096 -0.1230
 1697SOL    HW216551   2.059   0.174  15.900  0.7689  0.1495 -0.1980
 1698SOL     OW16552   4.295   3.498   6.257  0.3187 -0.0244  0.4612
 1698SOL    HW116553   4.370   3.469   6.206 -0.3689  0.7541 -1.0041
 1698SOL    HW216554   4.300   3.591   6.235 -2.1562  0.5228  2.1317
 1699SOL     OW16555   4.481   4.109  16.259 -0.2416  0.0531  0.1751
 1699SOL    HW116556   4.479   4.153  16.345 -0.4104  0.0424  0.1765
 1699SOL    HW216557   4.392   4.121  16.225 -0.1933 -3.5322 -1.1278
 1700SOL     OW16558   1.275   4.545   6.970 -0.3961 -0.1233 -0.0712
 1700SOL    HW116559   1.369   4.537   6.952  0.0410  0.5709  1.8871
 1700SOL    HW216560   1.223   4.556   6.891 -0.8996  1.5871  0.5032
 1701SOL     OW16561   2.785   0.030   2.602  0.1895  0.5985 -0.2607
 1701SOL    HW116562   2.706   4.701   2.601  2.0905 -2.1979 -0.7891
 1701SOL    HW216563   2.753   0.120   2.604 -1.9003 -0.1188 -2.5857
 1702SOL     OW16564   1.402   2.713   6.270  0.1904 -0.2117 -0.1276
 1702SOL    HW116565   1.403   2.618   6.281 -1.1072 -0.2881 -0.7106
 1702SOL    HW216566   1.351   2.744   6.344 -1.4236  0.5463 -1.5625
 1703SOL     OW16567   1.130   2.522  14.996 -0.1098  0.1935 -0.2796
 1703SOL    HW116568   1.073   2.547  14.924 -1.2746 -2.0407 -0.1155
 1703SOL    HW216569   1.185   2.601  14.998 -1.1953  0.8870  2.1262
 1704SOL     OW16570   2.535   2.029   6.085 -0.6232  0.0949 -0.5598
 1704SOL    HW116571   2.526   2.044   6.179 -3.0158  0.2652 -0.8207
 1704SOL    HW216572   2.482   1.951   6.069  1.7435 -2.1541  2.4451
 1705SOL     OW16573   4.411   3.838  12.441 -0.1848  0.0911 -0.7065
 1705SOL    HW116574   4.465   3.795  12.508 -0.5152  1.2834  0.3109
 1705SOL    HW216575   4.425   3.929  12.465 -0.0691 -0.5209  1.6217
 1706SOL     OW16576   0.252   0.518  15.907 -0.0828  0.2649 -0.5229
 1706SOL    HW116577   0.326   0.572  15.936  1.8822 -1.8390 -1.6586
 1706SOL    HW216578   0.288   0.430  15.916  0.8513  0.6224 -0.8458
 1707SOL     OW16579   0.737   3.491   1.956  0.6118  0.0264 -0.1587
 1707SOL    HW116580   0.703   3.580   1.959 -2.1233 -1.0630  1.2367
 1707SOL    HW216581   0.724   3.477   1.863  1.2513  1.0781 -0.3995
 1708SOL     OW16582   2.116   0.712   8.269 -0.0279 -0.2589 -0.0284
 1708SOL    HW116583   2.166   0.793   8.265 -1.1346  0.4842  1.0330
 1708SOL    HW216584   2.104   0.702   8.364 -1.4335 -3.4539 -0.5202
 1709SOL     OW16585   2.832   1.929  13.348 -0.2887  0.0378  0.0926
 1709SOL    HW116586   2.842   1.893  13.259  0.1416  1.0341 -0.2640
 1709SOL    HW216587   2.866   1.852  13.394  1.3052  1.0291  0.5776
 1710SOL     OW16588   4.308   0.797   5.135 -0.5134  0.1159  0.9692
 1710SOL    HW116589   4.249   0.725   5.110 -1.1139  1.1788 -0.7542
 1710SOL    HW216590   4.327   0.842   5.052 -0.8894 -3.1238 -0.8814
 1711SOL     OW16591   2.245   1.111  11.373  0.3577  0.2090  0.2260
 1711SOL    HW116592   2.315   1.168  11.341  0.8895 -1.4835 -1.5900
 1711SOL    HW216593   2.270   1.088  11.462 -0.9837  0.1428  0.5848
 1712SOL     OW16594   1.781   0.554  16.036  0.2066  0.5324 -0.4318
 1712SOL    HW116595   1.856   0.604  16.069  1.4823 -1.8382  0.2654
 1712SOL    HW216596   1.712   0.597  16.086  0.1236  2.1996 -1.9865
 1713SOL     OW16597   4.667   4.190  16.082  0.8922 -0.1738 -0.2326
 1713SOL    HW116598   4.582   4.158  16.111  0.5551  2.0757  1.2721
 1713SOL    HW216599   4.715   4.179  16.164 -0.3628  0.1954  0.5530
 1714SOL     OW16600   3.284   3.682   1.602 -0.3463 -0.2487  0.0300
 1714SOL    HW116601   3.277   3.703   1.509  0.6102  0.5118  0.1228
 1714SOL    HW216602   3.375   3.711   1.612  0.4405 -2.3005 -1.0833
 1715SOL     OW16603   1.257   3.621  15.333  0.6067  0.7661 -0.3442
 1715SOL    HW116604   1.227   3.645  15.245  0.1270  0.3257 -0.2990
 1715SOL    HW216605   1.240   3.528  15.348 -0.4104  0.9170 -0.5199
 1716SOL     OW16606   0.539   4.606   9.391 -0.4268  0.4643  0.8559
 1716SOL    HW116607   0.557   4.648   9.307  0.2162 -2.2120 -0.3651
 1716SOL    HW216608   0.618   4.613   9.443  0.1595  1.3035 -0.1491
 1717SOL     OW16609   0.113   3.484   7.723  0.0357 -0.4184 -0.0310
 1717SOL    HW116610   0.058   3.474   7.801  1.0225 -1.1677  0.5556
 1717SOL    HW216611   0.185   3.423   7.739  0.9461  0.6309 -0.1417
 1718SOL     OW16612   2.547   0.988   1.179 -0.0459 -0.3281  0.0951
 1718SOL    HW116613   2.544   0.894   1.157 -1.2288 -0.4889  0.9552
 1718SOL    HW216614   2.640   1.003   1.165  0.0721 -0.8635  0.2928
 1719SOL     OW16615   4.415   1.968   4.540  0.0321  0.3198  0.1918
 1719SOL    HW116616   4.345   1.909   4.570  0.1377 -0.9674 -2.0615
 1719SOL    HW216617   4.363   2.040   4.504  1.1404  0.8434 -0.3499
 1720SOL     OW16618   0.930   0.800  15.990  0.4826 -0.2958 -0.8588
 1720SOL    HW116619   0.887   0.848  15.920  0.4423  1.8413  0.6181
 1720SOL    HW216620   1.008   0.773  15.943  0.5653  0.2473 -1.0243
 1721SOL     OW16621   4.579   0.772  16.441 -0.0238 -0.9227  0.0531
 1721SOL    HW116622   4.660   0.779  16.389 -0.6035 -0.2031 -0.7451
 1721SOL    HW216623   4.607   0.770  16.533  2.5970 -0.0109 -0.7139
 1722SOL     OW16624   3.065   4.112  11.086  0.4331  0.2819  0.6829
 1722SOL    HW116625   3.134   4.173  11.112 -0.9327  1.4107  1.6007
 1722SOL    HW216626   3.111   4.028  11.089 -1.3196 -0.6424  1.6151
 1723SOL     OW16627   4.550   1.434   6.997 -0.5026 -0.1495  0.6816
 1723SOL    HW116628   4.603   1.487   7.057 -0.6914  0.4923  0.2832
 1723SOL    HW216629   4.576   1.348   7.030 -0.7876 -0.6924 -0.5432
 1724SOL     OW16630   4.283   0.491   4.273 -0.2866  0.0269 -0.1503
 1724SOL    HW116631   4.275   0.553   4.346  1.3165 -1.3550  1.1877
 1724SOL    HW216632   4.359   0.438   4.296  0.3125  0.1771 -1.7673
 1725SOL     OW16633   1.158   0.795   8.296  0.9708  0.0725 -0.3486
 1725SOL    HW116634   1.086   0.856   8.280  2.7367  2.0342 -0.9427
 1725SOL    HW216635   1.174   0.811   8.390 -0.7791  1.9611 -0.3829
 1726SOL     OW16636   0.050   0.010  12.543  0.2157  0.3002 -0.1464
 1726SOL    HW116637   0.138   4.714  12.510  0.1734  0.6770 -0.5045
 1726SOL    HW216638   0.072   0.077  12.608 -0.3112 -0.0093  0.3467
 1727SOL     OW16639   1.094   0.923   8.567  0.4772  0.2527 -0.4167
 1727SOL    HW116640   1.182   0.887   8.580  0.5597  0.4120 -0.5234
 1727SOL    HW216641   1.102   1.017   8.586 -0.3993  0.2557 -0.0612
 1728SOL     OW16642   3.121   0.902   3.256 -0.3205  0.0909 -0.0126
 1728SOL    HW116643   3.126   0.848   3.334 -1.9589  0.9334  0.6638
 1728SOL    HW216644   3.047   0.957   3.280  0.6903  1.5941 -0.3850
 1729SOL     OW16645   1.045   0.513   3.140  0.3225  0.0703  0.0780
 1729SOL    HW116646   1.099   0.471   3.073 -0.6677  1.9993 -1.9399
 1729SOL    HW216647   0.985   0.563   3.085 -0.7211 -0.8416  0.4073
 1730SOL     OW16648   2.879   0.180   7.926  0.1141 -0.6512  0.1566
 1730SOL    HW116649   2.792   0.220   7.932 -0.3738 -2.0318  2.4263
 1730SOL    HW216650   2.907   0.210   7.840  1.6603  0.1568  0.9435
 1731SOL     OW16651   2.289   0.961   5.806 -0.6218  0.2588  0.2700
 1731SOL    HW116652   2.360   1.001   5.857  0.8277 -0.8424 -0.8705
 1731SOL    HW216653   2.245   1.031   5.759  1.4157  3.0973  2.5780
 1732SOL     OW16654   3.809   2.398   8.002  0.3543 -0.4330 -0.0024
 1732SOL    HW116655   3.790   2.461   7.933  1.5054  0.4975  0.5132
 1732SOL    HW216656   3.770   2.321   7.961  2.1145 -2.4013  2.0295
 1733SOL     OW16657   2.760   4.128   4.160 -0.2194  0.2658 -0.1027
 1733SOL    HW116658   2.734   4.043   4.194  0.1398  0.8215  1.5203
 1733SOL    HW216659   2.760   4.181   4.239  0.2989  1.1972 -0.7189
 1734SOL     OW16660   3.083   2.614   3.875 -0.3507 -0.0139 -1.0613
 1734SOL    HW116661   3.080   2.645   3.966  2.4365  0.1147 -1.0002
 1734SOL    HW216662   2.992   2.603   3.847 -1.3087  3.0993  0.8601
 1735SOL     OW16663   2.312   4.348   0.132 -0.4105  0.7360  0.3253
 1735SOL    HW116664   2.285   4.256   0.129 -2.0489  1.2137 -0.1829
 1735SOL    HW216665   2.377   4.345   0.202 -0.1022  0.2116  0.0160
 1736SOL     OW16666   2.022   0.926   9.079  0.0995 -0.0467  0.5528
 1736SOL    HW116667   1.949   0.988   9.073  1.2399  1.1904 -0.6656
 1736SOL    HW216668   2.016   0.890   9.167  0.5101 -0.6625  0.3275
 1737SOL     OW16669   0.652   1.374   5.142 -0.2776  0.0964  0.4831
 1737SOL    HW116670   0.611   1.297   5.102 -2.1647  0.8761  0.8803
 1737SOL    HW216671   0.592   1.445   5.117 -0.2940  0.4003  1.3909
 1738SOL     OW16672   4.538   3.279   7.615  0.0354 -0.7159  0.0816
 1738SOL    HW116673   4.537   3.269   7.520  1.4935 -1.7758  0.1848
 1738SOL    HW216674   4.631   3.262   7.632  0.3419 -0.7945 -1.7332
 1739SOL     OW16675   2.503   1.268   5.071  0.1378 -0.0844 -0.1888
 1739SOL    HW116676   2.567   1.210   5.031 -0.3319  0.1015 -1.1906
 1739SOL    HW216677   2.430   1.209   5.091  0.2602 -0.2517 -0.2391
 1740SOL     OW16678   2.410   2.159   8.331  0.4582 -0.0673  0.3171
 1740SOL    HW116679   2.324   2.200   8.320  0.4205 -0.5489 -1.0972
 1740SOL    HW216680   2.467   2.193   8.262 -2.4615  1.2685 -1.4416
 1741SOL     OW16681   2.517   0.495   6.754  0.6341  0.9637  0.2825
 1741SOL    HW116682   2.485   0.539   6.676 -0.5271 -0.5699 -0.0844
 1741SOL    HW216683   2.435   0.498   6.803 -0.0696  2.2950 -0.9754
 1742SOL     OW16684   1.458   1.762   6.529 -0.2004 -0.6998  0.2039
 1742SOL    HW116685   1.425   1.748   6.440 -0.0607 -2.0817  0.3566
 1742SOL    HW216686   1.542   1.806   6.516 -0.4740 -0.2864 -0.1287
 1743SOL     OW16687   3.186   0.833   2.484 -0.3394  0.5579 -0.6725
 1743SOL    HW116688   3.103   0.811   2.442 -1.3900 -0.5533  2.0171
 1743SOL    HW216689   3.155   0.880   2.561 -1.4519 -0.3621 -0.5670
 1744SOL     OW16690   2.664   2.203  16.622  0.2551 -0.0514  0.0895
 1744SOL    HW116691   2.694   2.152  16.546  0.8663 -0.6700  0.7398
 1744SOL    HW216692   2.571   2.210  16.601  0.1266 -1.0467  0.3349
 1745SOL     OW16693   1.659   4.179  17.616  0.2526 -0.0020  0.0595
 1745SOL    HW116694   1.746   4.189  17.577 -0.4279  0.8903 -1.2524
 1745SOL    HW216695   1.647   4.263  17.661 -1.0676 -0.1520 -0.0067
 1746SOL     OW16696   1.429   3.328  12.701  0.9173 -0.2426 -0.0814
 1746SOL    HW116697   1.384   3.384  12.764  1.1397 -0.7325  0.5093
 1746SOL    HW216698   1.364   3.317  12.631  1.5572  1.4464 -0.9388
 1747SOL     OW16699   2.862   2.514   4.495  0.2320 -0.4192  0.2420
 1747SOL    HW116700   2.836   2.426   4.467  0.6334 -0.1438 -1.0141
 1747SOL    HW216701   2.839   2.559   4.414  1.6557  1.0445  0.6472
 1748SOL     OW16702   1.993   4.480   2.652  0.4594 -0.0197  0.3139
 1748SOL    HW116703   1.942   4.480   2.733 -0.8252  2.0415 -0.4700
 1748SOL    HW216704   2.005   4.575   2.651  0.5102 -0.0358 -1.5552
 1749SOL     OW16705   2.938   1.307   5.685 -0.0128  0.0598  0.1084
 1749SOL    HW116706   2.951   1.400   5.704 -0.9018  0.1179  0.4038
 1749SOL    HW216707   3.024   1.283   5.650 -0.1946 -0.7441  0.2345
 1750SOL     OW16708   4.655   0.370  13.252  0.0858  0.8333  0.0608
 1750SOL    HW116709   4.637   0.440  13.315  0.7493 -1.5819  2.8725
 1750SOL    HW216710   4.565   0.343  13.234  0.5096 -1.0043  0.7652
 1751SOL     OW16711   1.208   2.284   6.947  0.8245 -0.1864 -0.0645
 1751SOL    HW116712   1.211   2.209   6.888  1.3750  0.4236 -0.8088
 1751SOL    HW216713   1.281   2.262   7.005  2.5581  2.4940 -1.2269
 1752SOL     OW16714   3.896   0.345  10.529 -0.4250  0.6329  0.0277
 1752SOL    HW116715   3.807   0.354  10.497 -0.3421  0.8442 -0.1417
 1752SOL    HW216716   3.904   0.408  10.600 -0.5421 -0.1593  0.7550
 1753SOL     OW16717   2.507   0.233   7.163 -0.2459 -0.1589  0.0522
 1753SOL    HW116718   2.463   0.186   7.233 -0.9114 -0.8402 -0.8211
 1753SOL    HW216719   2.450   0.228   7.086 -0.3111  4.0249 -0.2070
 1754SOL     OW16720   1.214   4.595   4.294 -0.5942  0.1018  0.7754
 1754SOL    HW116721   1.226   4.573   4.387  0.4352 -1.7426  0.2130
 1754SOL    HW216722   1.278   4.663   4.273 -0.9620  0.2436  0.1325
 1755SOL     OW16723   0.352   0.861  17.467 -0.0572 -0.2479 -0.0831
 1755SOL    HW116724   0.282   0.797  17.482  1.3534 -1.2673  2.2638
 1755SOL    HW216725   0.415   0.793  17.442  1.4190  0.7704  0.8541
 1756SOL     OW16726   1.305   1.307  12.900 -0.0671  0.5991 -0.3715
 1756SOL    HW116727   1.274   1.323  12.811  0.3337  1.2883 -0.3897
 1756SOL    HW216728   1.398   1.303  12.880 -0.4844 -2.3290 -1.6684
 1757SOL     OW16729   2.808   2.016   2.336 -0.0549  0.1640 -0.8247
 1757SOL    HW116730   2.733   1.996   2.391  0.2669  2.0250  0.3134
 1757SOL    HW216731   2.862   1.939   2.348 -1.0623 -0.6665 -1.6306
 1758SOL     OW16732   1.133   3.724   1.910  0.0756 -0.0884  0.2890
 1758SOL    HW116733   1.091   3.755   1.990  0.9267  1.7370  0.0293
 1758SOL    HW216734   1.155   3.632   1.925 -0.6562 -0.4948 -1.0640
 1759SOL     OW16735   2.765   1.729   6.553  0.8650 -0.2969 -0.1075
 1759SOL    HW116736   2.709   1.750   6.627 -0.5448  1.8487 -1.7615
 1759SOL    HW216737   2.822   1.806   6.562  0.3257 -0.0714  1.2743
 1760SOL     OW16738   1.311   4.485   5.471 -0.1728  0.5297 -0.3742
 1760SOL    HW116739   1.316   4.418   5.402  2.4040 -0.1461  0.4501
 1760SOL    HW216740   1.220   4.505   5.450 -0.0351  1.6359  0.0751
 1761SOL     OW16741   4.068   2.753   7.661 -0.3043 -0.0844 -0.0171
 1761SOL    HW116742   4.006   2.789   7.726 -0.1209 -2.4267  1.4754
 1761SOL    HW216743   4.023   2.766   7.577  0.7414 -3.1412 -1.0269
 1762SOL     OW16744   2.181   2.763  11.394 -0.5352  0.1773  0.2734
 1762SOL    HW116745   2.226   2.846  11.410  0.9253 -0.6838  0.6394
 1762SOL    HW216746   2.135   2.759  11.478  0.2368  1.3141  0.7451
 1763SOL     OW16747   0.853   1.903   4.464  0.1095  0.2329 -0.3833
 1763SOL    HW116748   0.794   1.850   4.518 -0.1689  0.3945 -0.5255
 1763SOL    HW216749   0.933   1.853   4.480  0.7611  0.9928 -1.2958
 1764SOL     OW16750   1.616   4.678  17.390  0.0501 -0.3853  0.2717
 1764SOL    HW116751   1.542   0.009  17.364  1.5700  1.4426 -0.1059
 1764SOL    HW216752   1.692   0.000  17.354 -1.1341  0.5462 -1.0419
 1765SOL     OW16753   1.073   2.738  10.751 -0.0939 -0.1891 -0.2000
 1765SOL    HW116754   1.008   2.773  10.690  0.4305 -1.4535 -1.4779
 1765SOL    HW216755   1.142   2.803  10.769 -0.3053  0.1771 -0.7142
 1766SOL     OW16756   2.030   2.250   2.679  0.1946  0.0944  0.0248
 1766SOL    HW116757   2.037   2.291   2.765  1.8344  0.7259 -0.3945
 1766SOL    HW216758   2.016   2.325   2.622 -1.4548  1.9589  2.9182
 1767SOL     OW16759   4.496   2.853   1.498 -0.0354 -0.0489  0.1614
 1767SOL    HW116760   4.528   2.885   1.582  2.0504  2.1293 -1.4401
 1767SOL    HW216761   4.414   2.901   1.485  1.1284  1.6423 -0.8804
 1768SOL     OW16762   2.431   1.792   4.372  0.0692  0.2459  0.1731
 1768SOL    HW116763   2.343   1.825   4.392  0.4385  2.6803 -2.1589
 1768SOL    HW216764   2.470   1.804   4.458  1.8862 -2.2067 -0.3372
 1769SOL     OW16765   3.832   3.740   9.061  0.3845 -0.1142  0.6403
 1769SOL    HW116766   3.858   3.749   9.152  2.7591 -1.1686  0.0689
 1769SOL    HW216767   3.746   3.698   9.063  1.2909 -1.9429  1.4097
 1770SOL     OW16768   0.359   2.993  10.325  0.0498 -0.1730  0.3980
 1770SOL    HW116769   0.341   3.073  10.275 -2.6621 -0.6456  0.6216
 1770SOL    HW216770   0.284   2.992  10.384 -1.6809  0.1160 -1.7630
 1771SOL     OW16771   4.143   4.422   3.808 -0.1011 -0.3132  0.2806
 1771SOL    HW116772   4.167   4.504   3.765 -1.2879  0.6374  1.4292
 1771SOL    HW216773   4.138   4.368   3.729 -0.1390 -0.4678  0.3911
 1772SOL     OW16774   3.490   0.923  17.506  0.4527 -0.2814  0.0325
 1772SOL    HW116775   3.402   0.953  17.529  0.1845 -1.7860  0.9312
 1772SOL    HW216776   3.466   0.833  17.486  1.4457 -0.1511 -1.7215
 1773SOL     OW16777   3.969   1.090   6.238 -1.0377  0.2125 -0.0826
 1773SOL    HW116778   3.945   1.150   6.309 -3.1623 -0.2803 -0.4038
 1773SOL    HW216779   4.003   1.143   6.165  0.7416 -0.2723  0.3878
 1774SOL     OW16780   3.912   0.967   8.346  0.7984  0.1236  0.0898
 1774SOL    HW116781   3.867   1.051   8.344  0.6921  0.1094  2.6733
 1774SOL    HW216782   3.886   0.951   8.436 -1.6564 -1.0572 -0.8281
 1775SOL     OW16783   1.061   3.426   3.820  0.3193 -0.0149  0.1701
 1775SOL    HW116784   1.029   3.488   3.885  2.2348  0.7576  0.3844
 1775SOL    HW216785   1.043   3.469   3.736  2.1592  3.3088  1.4503
 1776SOL     OW16786   3.728   3.547   5.509 -0.1320  0.1923  0.1444
 1776SOL    HW116787   3.673   3.478   5.472 -4.0369  3.2340  0.1254
 1776SOL    HW216788   3.815   3.518   5.483 -0.0494  1.2233 -0.7386
 1777SOL     OW16789   3.755   1.196   7.887  0.1747  0.5204 -0.2630
 1777SOL    HW116790   3.755   1.250   7.967  1.7233  3.1617 -2.0325
 1777SOL    HW216791   3.823   1.240   7.836  1.6832  0.4456  1.6705
 1778SOL     OW16792   1.259   2.652   7.449 -0.1106 -0.3867 -0.3982
 1778SOL    HW116793   1.188   2.595   7.418 -0.7261 -0.7335  1.6794
 1778SOL    HW216794   1.327   2.636   7.383  0.9222 -0.2208  0.6374
 1779SOL     OW16795   2.521   4.607  12.101 -0.1502  0.1846 -0.6591
 1779SOL    HW116796   2.566   4.661  12.165 -1.4328  0.1584  0.2602
 1779SOL    HW216797   2.431   4.638  12.110 -0.5084 -0.8941 -0.5399
 1780SOL     OW16798   0.953   3.232  15.812 -0.1048  0.2592 -0.2230
 1780SOL    HW116799   0.879   3.181  15.780 -0.1271 -1.4319  2.5805
 1780SOL    HW216800   1.009   3.168  15.857 -0.3479  0.4045  0.2839
 1781SOL     OW16801   2.772   1.130   5.815  0.4100 -0.1112 -0.4726
 1781SOL    HW116802   2.683   1.146   5.845  0.8390 -1.2035  1.3531
 1781SOL    HW216803   2.800   1.212   5.774 -0.3799  0.1696 -0.4473
 1782SOL     OW16804   1.710   0.089  10.720  0.2147  0.3141  0.0900
 1782SOL    HW116805   1.797   0.125  10.736 -0.5118  0.6295  3.3070
 1782SOL    HW216806   1.726   4.721  10.740 -0.7956  0.2438  0.5859
 1783SOL     OW16807   1.253   0.047  14.892  0.2340 -0.6012 -0.4058
 1783SOL    HW116808   1.279   0.113  14.956  0.9158 -3.0960  1.8827
 1783SOL    HW216809   1.233   4.703  14.956 -1.9131  1.5241  1.1994
 1784SOL     OW16810   2.466   1.053   2.219  0.4593 -0.5378 -0.1165
 1784SOL    HW116811   2.382   1.018   2.248  1.1417 -0.6666  1.7060
 1784SOL    HW216812   2.501   0.981   2.166  0.5177 -0.0682 -0.7087
 1785SOL     OW16813   4.587   3.810   1.610  0.1096  0.2757 -0.4205
 1785SOL    HW116814   4.496   3.815   1.583 -0.2122  3.2273  1.2630
 1785SOL    HW216815   4.630   3.887   1.573 -0.4052  1.6654  1.8425
 1786SOL     OW16816   4.257   1.580   1.806 -0.5731  0.5581 -0.0328
 1786SOL    HW116817   4.346   1.574   1.842 -0.2060  0.7257 -0.9060
 1786SOL    HW216818   4.203   1.543   1.876 -1.1143  0.9602 -0.2421
 1787SOL     OW16819   4.616   0.972   9.068 -0.4387  0.3238 -0.5616
 1787SOL    HW116820   4.629   0.894   9.121 -1.4906 -0.8992 -2.1363
 1787SOL    HW216821   4.704   1.008   9.055  0.2821 -1.4458 -0.5874
 1788SOL     OW16822   0.676   3.362   2.261  0.2262 -0.0858 -0.0600
 1788SOL    HW116823   0.601   3.405   2.221 -1.9547 -1.7812  2.2140
 1788SOL    HW216824   0.755   3.406   2.230  0.0138  0.3702  0.0412
 1789SOL     OW16825   2.973   0.520   1.809  0.0041  0.1217  0.2937
 1789SOL    HW116826   3.038   0.460   1.845  0.6641  0.1043 -0.9120
 1789SOL    HW216827   3.022   0.602   1.814  0.3595  0.0826 -2.6145
 1790SOL     OW16828   2.151   1.776   6.663  0.2885 -0.6480 -0.2286
 1790SOL    HW116829   2.170   1.760   6.571  2.2791 -0.3737  0.1458
 1790SOL    HW216830   2.235   1.815   6.687 -0.0675 -1.4259  2.3155
 1791SOL     OW16831   1.623   3.240   6.236 -0.4118 -0.3969  0.3858
 1791SOL    HW116832   1.574   3.299   6.293 -0.5181  1.0327 -1.1799
 1791SOL    HW216833   1.586   3.160   6.274 -0.7762 -1.0405 -1.3087
 1792SOL     OW16834   1.914   2.756   8.335  0.4814 -0.0159  0.3571
 1792SOL    HW116835   1.914   2.713   8.421  0.1262 -0.1154  0.3096
 1792SOL    HW216836   1.973   2.691   8.296  0.8410 -0.7521  2.1177
 1793SOL     OW16837   3.895   4.623  11.511 -0.2763  0.6259  0.1386
 1793SOL    HW116838   3.945   4.629  11.430  1.4453  0.7917  1.2107
 1793SOL    HW216839   3.944   4.546  11.539  0.9482  1.3236 -0.1032
 1794SOL     OW16840   3.819   4.656   4.545 -0.5088 -0.3856 -0.9902
 1794SOL    HW116841   3.880   0.002   4.524 -1.6154  0.7606 -0.3543
 1794SOL    HW216842   3.877   4.581   4.552  0.2547  0.4197  1.2400
 1795SOL     OW16843   0.747   1.012   1.622 -0.4699 -0.8731 -0.1108
 1795SOL    HW116844   0.670   1.067   1.637 -0.3886 -1.0083  0.7595
 1795SOL    HW216845   0.743   1.003   1.527 -1.9964  1.5963 -0.2887
 1796SOL     OW16846   1.951   0.057   2.689  0.1332 -0.0017 -0.5456
 1796SOL    HW116847   2.034   0.095   2.714  0.0917 -0.0693 -0.3080
 1796SOL    HW216848   1.929   0.095   2.604  1.8189 -0.3671 -1.1371
 1797SOL     OW16849   4.122   4.452  14.525  0.8095 -0.2525 -0.0138
 1797SOL    HW116850   4.156   4.425  14.440  1.2789  0.8570 -0.1728
 1797SOL    HW216851   4.199   4.417  14.570  1.3604  0.8525 -0.1141
 1798SOL     OW16852   2.186   0.790   7.103 -1.0473 -0.0804  0.4394
 1798SOL    HW116853   2.255   0.779   7.167 -0.8381  0.8132  0.3709
 1798SOL    HW216854   2.235   0.856   7.054 -2.4405  1.6393  1.3578
 1799SOL     OW16855   4.649   2.102  11.710 -0.1830  0.4872 -0.5486
 1799SOL    HW116856   4.656   2.195  11.688  3.5182  0.4008  0.4286
 1799SOL    HW216857   4.714   2.087  11.779  0.2560  0.6986 -0.9190
 1800SOL     OW16858   4.154   2.631  14.786 -0.5180 -0.1799  0.2536
 1800SOL    HW116859   4.189   2.674  14.864  1.3731 -0.3757 -0.4945
 1800SOL    HW216860   4.234   2.595  14.748  0.9260  1.1066  2.1096
 1801SOL     OW16861   4.635   4.324  15.830  0.0805  0.6516  0.6264
 1801SOL    HW116862   4.709   4.380  15.809 -0.0194  0.6236  0.2113
 1801SOL    HW216863   4.661   4.298  15.919 -0.6942  1.2906  1.0331
 1802SOL     OW16864   4.385   1.962   1.583  0.4559  0.0931 -0.2110
 1802SOL    HW116865   4.393   1.932   1.673 -0.0935 -2.7415 -1.1092
 1802SOL    HW216866   4.315   2.026   1.591  1.2248  0.8338  0.6448
 1803SOL     OW16867   0.728   2.942   2.834  0.2981 -0.3692  0.4487
 1803SOL    HW116868   0.718   2.963   2.927  1.5076  0.6401  0.3464
 1803SOL    HW216869   0.777   2.861   2.848  2.9994  0.7339 -2.6457
 1804SOL     OW16870   4.316   2.615   9.357  0.3877  0.2250  0.0075
 1804SOL    HW116871   4.374   2.582   9.288 -0.2842  1.3424 -1.0880
 1804SOL    HW216872   4.291   2.691   9.306  0.2026  2.0398  2.7755
 1805SOL     OW16873   0.777   3.315   3.099  0.2585 -0.2573  0.2445
 1805SOL    HW116874   0.759   3.392   3.044 -2.4121  0.3283  1.9160
 1805SOL    HW216875   0.688   3.305   3.134  1.1298  0.4105  2.6590
 1806SOL     OW16876   3.986   3.501   8.960 -0.4805 -0.0819 -0.3181
 1806SOL    HW116877   3.897   3.512   8.927 -0.0719  3.0350 -0.4010
 1806SOL    HW216878   4.003   3.591   8.990  0.9090 -0.7272  0.8305
 1807SOL     OW16879   1.958   3.243   9.072 -0.0162  0.1766 -0.0516
 1807SOL    HW116880   1.936   3.167   9.018  0.3016  0.2691 -0.3135
 1807SOL    HW216881   1.978   3.204   9.157  0.8107  1.5939  0.3925
 1808SOL     OW16882   1.104   2.600  15.293 -0.4039  0.1493 -0.0640
 1808SOL    HW116883   1.061   2.592  15.208 -1.2515 -0.5016  0.4329
 1808SOL    HW216884   1.067   2.524  15.337 -0.4973  0.0305 -0.3493
 1809SOL     OW16885   3.225   1.530   2.338  0.0056 -1.0177  0.5325
 1809SOL    HW116886   3.223   1.497   2.248  2.4543  1.2317 -0.3810
 1809SOL    HW216887   3.176   1.612   2.328  1.6307 -0.3016 -1.7403
 1810SOL     OW16888   0.679   4.284  13.823 -0.8059 -0.0830 -0.3812
 1810SOL    HW116889   0.679   4.283  13.919 -1.2645 -0.3883 -0.3853
 1810SOL    HW216890   0.586   4.268  13.807 -0.6838  1.5057 -2.5984
 1811SOL     OW16891   2.990   0.099   6.281 -0.3651  0.4978  0.0008
 1811SOL    HW116892   3.055   0.119   6.349 -0.7881 -0.3124  0.6457
 1811SOL    HW216893   2.949   0.184   6.264 -0.3108  0.3755 -0.7228
 1812SOL     OW16894   2.554   4.671   3.648 -0.3713 -0.3781 -0.9274
 1812SOL    HW116895   2.531   0.038   3.663  0.2175 -0.5528  1.1379
 1812SOL    HW216896   2.529   4.662   3.556  0.5777 -1.3397 -1.0994
 1813SOL     OW16897   2.117   2.639   7.184  0.4232 -0.3245 -0.3784
 1813SOL    HW116898   2.167   2.568   7.145  1.3811 -0.0251  0.3015
 1813SOL    HW216899   2.179   2.712   7.187 -0.0324  0.1291 -1.8768
 1814SOL     OW16900   3.893   4.363   2.356  0.0841  0.1296  0.5363
 1814SOL    HW116901   3.968   4.317   2.319 -1.0396 -0.4593 -0.9936
 1814SOL    HW216902   3.814   4.319   2.325  0.5020 -0.1069 -0.1843
 1815SOL     OW16903   3.509   2.973   2.999 -0.1800  0.0122 -0.0184
 1815SOL    HW116904   3.423   2.932   2.986  0.1210 -1.0295  1.2552
 1815SOL    HW216905   3.480   3.026   3.074 -1.7294 -1.5170  0.4758
 1816SOL     OW16906   2.452   4.178   2.132 -0.0836  0.5868  0.2035
 1816SOL    HW116907   2.470   4.198   2.040  2.0328 -0.1557  0.4421
 1816SOL    HW216908   2.385   4.110   2.128  0.2752  0.2359  0.1203
 1817SOL     OW16909   0.591   1.782   7.571  0.1808 -0.8227 -0.2137
 1817SOL    HW116910   0.598   1.805   7.664 -0.6743 -1.9721  0.1402
 1817SOL    HW216911   0.660   1.716   7.565  1.3177  0.2670  0.6634
 1818SOL     OW16912   0.746   0.599   4.660  0.8478 -0.1159  0.0107
 1818SOL    HW116913   0.663   0.575   4.702  1.3315 -0.8325  0.5683
 1818SOL    HW216914   0.755   0.553   4.577  0.7099 -3.8576  2.0489
 1819SOL     OW16915   3.458   2.160   5.661  0.0600 -0.5989  0.2965
 1819SOL    HW116916   3.546   2.186   5.687  0.5416 -1.9243  0.0364
 1819SOL    HW216917   3.473   2.125   5.573 -1.1818 -0.9980  0.2430
 1820SOL     OW16918   4.199   2.195   3.214  0.4299  0.3609 -0.5792
 1820SOL    HW116919   4.181   2.143   3.293 -2.1399  0.9990 -0.7232
 1820SOL    HW216920   4.165   2.135   3.148 -1.1439 -0.4624  0.9545
 1821SOL     OW16921   3.079   0.888   4.168  0.0334  0.4431  0.6132
 1821SOL    HW116922   3.111   0.836   4.094 -0.6186 -1.6815  1.7972
 1821SOL    HW216923   3.006   0.836   4.203 -1.5497  0.8201 -2.1154
 1822SOL     OW16924   0.439   1.124   1.438 -0.1300 -0.2030 -0.0139
 1822SOL    HW116925   0.474   1.037   1.419 -0.4425 -0.4011  0.3211
 1822SOL    HW216926   0.452   1.132   1.533 -2.0798  1.2303  0.1281
 1823SOL     OW16927   0.372   1.831   6.105 -0.2778 -0.1992  0.2586
 1823SOL    HW116928   0.402   1.770   6.172  1.7869 -0.2028 -0.6797
 1823SOL    HW216929   0.453   1.872   6.075 -0.5407  0.9875  1.1546
 1824SOL     OW16930   0.287   1.000  17.232 -0.4531  0.8882 -0.0032
 1824SOL    HW116931   0.371   0.994  17.187 -0.7093  1.8296 -0.6151
 1824SOL    HW216932   0.300   0.940  17.305 -1.6707 -0.0718 -0.5589
 1825SOL     OW16933   2.601   3.065   3.890  0.4190  0.0972  0.2686
 1825SOL    HW116934   2.604   3.015   3.971  0.8580  0.3988  0.4375
 1825SOL    HW216935   2.508   3.051   3.869  0.8212 -0.3724 -1.1503
 1826SOL     OW16936   2.074   4.662   5.146 -0.3620  0.2140 -0.0727
 1826SOL    HW116937   2.029   4.724   5.088  1.6989  0.3434 -1.5705
 1826SOL    HW216938   2.002   4.611   5.181 -0.3497 -0.3305 -0.8247
 1827SOL     OW16939   3.646   3.792   7.069 -0.3983 -0.5147 -0.0658
 1827SOL    HW116940   3.646   3.701   7.041 -1.8805 -0.6687  0.4060
 1827SOL    HW216941   3.663   3.776   7.162  0.0257  0.4221  0.0184
 1828SOL     OW16942   4.660   1.349  12.172  0.7585  0.2832  0.2869
 1828SOL    HW116943   4.663   1.378  12.081  1.1627  0.3661  0.3271
 1828SOL    HW216944   0.001   1.279  12.165 -0.5499 -1.2892  3.6625
 1829SOL     OW16945   1.557   3.602  15.364  0.2201  0.1129  0.3776
 1829SOL    HW116946   1.468   3.600  15.328  0.9546 -2.4159 -1.2646
 1829SOL    HW216947   1.603   3.530  15.321 -1.6416 -1.8945  1.7291
 1830SOL     OW16948   0.809   0.504   6.124 -0.3330  0.2257  0.6681
 1830SOL    HW116949   0.762   0.579   6.161 -1.6830  0.3818 -1.3266
 1830SOL    HW216950   0.888   0.548   6.093 -0.1252 -0.7798 -0.2030
 1831SOL     OW16951   3.163   1.963   2.866  0.3293 -0.1462  0.4128
 1831SOL    HW116952   3.243   1.987   2.912  1.7929 -1.0303 -1.6494
 1831SOL    HW216953   3.168   1.867   2.859  0.4185 -0.0427 -1.1143
 1832SOL     OW16954   1.906   1.426   6.270  0.0925 -0.1211 -0.0319
 1832SOL    HW116955   1.826   1.447   6.222  0.9200  1.4986 -0.6951
 1832SOL    HW216956   1.874   1.433   6.360 -0.9928 -0.7966 -0.3609
 1833SOL     OW16957   2.345   1.927   3.679  0.7646 -0.0468  0.6395
 1833SOL    HW116958   2.355   1.926   3.774  1.1935  3.8862  0.6330
 1833SOL    HW216959   2.428   1.904   3.636  0.4737 -0.7212  0.4456
 1834SOL     OW16960   2.308   2.612   7.818  0.2740 -0.4996  0.0623
 1834SOL    HW116961   2.310   2.517   7.828 -2.5062 -0.4013  1.7311
 1834SOL    HW216962   2.348   2.638   7.901  0.5536 -0.7905  0.0142
 1835SOL     OW16963   1.966   0.064   9.742 -0.3563 -0.5692  0.2814
 1835SOL    HW116964   1.900   0.125   9.709 -0.1206 -2.0082 -2.8827
 1835SOL    HW216965   2.023   0.129   9.784 -1.3742 -0.0139  0.7818
 1836SOL     OW16966   3.035   0.508   8.967 -0.4018  0.0249 -0.7156
 1836SOL    HW116967   3.115   0.547   8.933 -0.8010 -0.5950 -2.3440
 1836SOL    HW216968   2.998   0.458   8.895  0.1677  0.5011 -1.3391
 1837SOL     OW16969   1.568   4.142  13.189  0.2881  1.1396 -0.2666
 1837SOL    HW116970   1.566   4.180  13.277  0.4565 -2.2058  1.2099
 1837SOL    HW216971   1.488   4.174  13.148  0.0015  0.9145  0.1185
 1838SOL     OW16972   1.170   2.278   8.464 -0.0955  0.3038 -0.1448
 1838SOL    HW116973   1.218   2.255   8.544 -0.7754  0.5718  0.3359
 1838SOL    HW216974   1.086   2.292   8.507  0.2232  1.0357  0.2419
 1839SOL     OW16975   1.095   0.323   7.550  0.3222  0.3208 -0.2395
 1839SOL    HW116976   1.147   0.389   7.594  1.2024 -0.9149  0.5911
 1839SOL    HW216977   1.168   0.281   7.505  1.2392  2.4514 -0.7139
 1840SOL     OW16978   3.516   2.426  12.106  0.3640  0.2172  0.2015
 1840SOL    HW116979   3.496   2.354  12.167  0.2116  0.0442 -0.0554
 1840SOL    HW216980   3.611   2.417  12.108  0.0984 -2.1460  2.3216
 1841SOL     OW16981   2.923   3.336   7.938 -0.2240  0.0154  0.3657
 1841SOL    HW116982   2.900   3.381   8.019  0.5269  1.1875 -0.0630
 1841SOL    HW216983   3.016   3.355   7.923 -0.9620  1.3492 -2.4096
 1842SOL     OW16984   3.163   4.297  13.926 -0.3538  0.1687  0.2531
 1842SOL    HW116985   3.121   4.377  13.896 -0.5391 -0.1058 -0.2259
 1842SOL    HW216986   3.106   4.226  13.894  0.6517 -0.2088 -0.6708
 1843SOL     OW16987   3.639   1.489  16.777 -0.4239 -0.2101  0.1610
 1843SOL    HW116988   3.660   1.510  16.686 -0.5900  0.8346  0.3675
 1843SOL    HW216989   3.705   1.533  16.830 -1.1723  2.1589 -0.9067
 1844SOL     OW16990   4.633   1.771   4.912 -0.0296 -0.3744  0.3999
 1844SOL    HW116991   4.599   1.861   4.915  0.2273 -0.3004  1.0092
 1844SOL    HW216992   4.604   1.743   4.998  1.8173 -0.8306  0.8686
 1845SOL     OW16993   0.935   2.121   5.347  0.2682 -0.4395 -0.2253
 1845SOL    HW116994   0.977   2.156   5.425 -1.7137 -1.2342  1.2069
 1845SOL    HW216995   0.847   2.103   5.381 -0.1660 -0.2922 -1.2810
 1846SOL     OW16996   2.005   4.157   4.508  0.1722 -0.2876 -0.1613
 1846SOL    HW116997   1.957   4.160   4.426 -0.5629  0.6901  0.3006
 1846SOL    HW216998   2.062   4.233   4.494  0.7549 -0.3872  1.6046
 1847SOL     OW16999   0.479   2.716   3.001  0.4323  0.0219 -0.2446
 1847SOL    HW117000   0.482   2.800   3.047  3.2811 -0.2753  0.0981
 1847SOL    HW217001   0.442   2.748   2.919 -0.7589 -0.6298  0.0417
 1848SOL     OW17002   2.293   4.681   6.903 -0.0643  0.0643  0.3363
 1848SOL    HW117003   2.300   0.052   6.900 -1.0119  0.1413  0.4508
 1848SOL    HW217004   2.380   4.657   6.872  0.0855  0.9263  0.0840
 1849SOL     OW17005   2.208   4.020   8.844 -0.1235 -0.6243  0.3746
 1849SOL    HW117006   2.125   4.055   8.811  1.9293  2.7208 -1.1438
 1849SOL    HW217007   2.254   4.103   8.852 -1.5193  0.1384  0.5060
 1850SOL     OW17008   0.991   2.785   5.568  0.8741  0.0027 -0.2919
 1850SOL    HW117009   1.058   2.824   5.624 -0.2403  2.1082 -0.4154
 1850SOL    HW217010   1.008   2.823   5.482 -0.5132  0.8096 -0.2212
 1851SOL     OW17011   3.692   1.026  17.634  0.1346  0.4311 -0.5465
 1851SOL    HW117012   3.649   1.090  17.691 -0.8854 -0.6662 -0.0808
 1851SOL    HW217013   3.614   0.984  17.598  0.8421 -1.4727  0.1756
 1852SOL     OW17014   1.349   1.662   6.285  0.0113 -0.4443 -0.0669
 1852SOL    HW117015   1.336   1.630   6.196 -0.4056 -0.4656  0.0015
 1852SOL    HW217016   1.260   1.657   6.319  0.1436  1.5721  0.5904
 1853SOL     OW17017   3.244   1.348   8.453  0.1559  0.1780 -0.4909
 1853SOL    HW117018   3.328   1.320   8.489 -0.1248 -2.7491 -2.0815
 1853SOL    HW217019   3.217   1.270   8.404 -1.5073  1.8014 -2.1131
 1854SOL     OW17020   0.591   2.693  11.288  0.0496 -0.2860 -0.5083
 1854SOL    HW117021   0.663   2.671  11.229 -0.7770  1.1300 -2.0403
 1854SOL    HW217022   0.538   2.614  11.278  1.3344 -1.2788  0.6128
 1855SOL     OW17023   1.408   2.170   7.845  0.5244  0.1305  0.1555
 1855SOL    HW117024   1.432   2.219   7.923  1.7071  0.0742 -0.1656
 1855SOL    HW217025   1.470   2.098   7.861 -0.6682 -0.7938  0.5889
 1856SOL     OW17026   2.431   1.204   4.689 -0.0703 -0.1519 -0.1263
 1856SOL    HW117027   2.376   1.271   4.649  0.9821  0.7444 -0.0905
 1856SOL    HW217028   2.485   1.261   4.744  1.0606  0.5752 -1.9894
 1857SOL     OW17029   1.992   0.388  15.607  0.4249 -0.5542  0.5086
 1857SOL    HW117030   2.048   0.448  15.656  1.0204  0.4960 -1.4124
 1857SOL    HW217031   1.906   0.415  15.639  1.9485  2.9851  1.6033
 1858SOL     OW17032   2.687   2.753   6.815 -0.1707 -0.1080  0.2505
 1858SOL    HW117033   2.705   2.667   6.854 -1.3664  0.3124  1.7060
 1858SOL    HW217034   2.593   2.764   6.823 -0.2685  1.2010 -2.8134
 1859SOL     OW17035   1.829   1.065  12.058  0.3320 -0.4760 -0.3621
 1859SOL    HW117036   1.754   1.105  12.102  0.0759  1.5199 -2.6412
 1859SOL    HW217037   1.864   1.012  12.130  3.1021  0.6451 -0.8933
 1860SOL     OW17038   0.312   1.681  10.699 -0.4969 -0.0697  0.4433
 1860SOL    HW117039   0.241   1.647  10.755 -1.4750 -1.7937 -1.8025
 1860SOL    HW217040   0.375   1.614  10.725 -1.9342 -0.6131  2.5618
 1861SOL     OW17041   0.427   0.421   3.414  0.1805 -0.0379 -0.1406
 1861SOL    HW117042   0.509   0.457   3.381 -0.6222  0.9714 -1.0281
 1861SOL    HW217043   0.412   0.365   3.339 -1.3918  1.1130 -0.6767
 1862SOL     OW17044   2.839   1.750   8.801 -0.0800 -0.0860  0.4475
 1862SOL    HW117045   2.926   1.720   8.777 -0.2610  0.8879 -1.4348
 1862SOL    HW217046   2.847   1.773   8.894 -0.6320  0.9180  0.2464
 1863SOL     OW17047   4.605   3.772   3.323 -0.1903 -0.3017  0.6091
 1863SOL    HW117048   4.623   3.778   3.229 -1.0726 -0.0365  0.4630
 1863SOL    HW217049   4.606   3.865   3.345 -0.0058 -0.7387  2.3987
 1864SOL     OW17050   0.272   3.701   0.134  0.9126  0.2552  0.5158
 1864SOL    HW117051   0.205   3.693   0.066  0.8976 -2.7764  0.9058
 1864SOL    HW217052   0.288   3.607   0.140  0.8290  0.2429  0.5407
 1865SOL     OW17053   2.993   0.853   2.681 -0.3705  0.7400  0.5806
 1865SOL    HW117054   2.941   0.855   2.601  1.4539  0.2349 -0.6186
 1865SOL    HW217055   3.012   0.760   2.690 -1.3655  0.5551  0.7566
 1866SOL     OW17056   2.175   0.260   5.390 -0.1014  0.8961  0.0173
 1866SOL    HW117057   2.193   0.265   5.296 -0.7485  0.5692 -0.1253
 1866SOL    HW217058   2.265   0.233   5.409 -1.3027 -2.1239  1.3709
 1867SOL     OW17059   1.039   3.873   8.748  0.0024 -0.4157 -0.3680
 1867SOL    HW117060   1.052   3.838   8.836 -1.2322 -1.2623 -0.5259
 1867SOL    HW217061   1.076   3.961   8.761 -1.0054  0.4162 -3.0576
 1868SOL     OW17062   0.381   0.519   7.627  0.6238  0.3299  0.0827
 1868SOL    HW117063   0.407   0.611   7.625  0.5080  0.3910  1.3529
 1868SOL    HW217064   0.338   0.512   7.713  1.3337  0.4964  0.4457
 1869SOL     OW17065   3.123   2.329  10.503 -0.4007 -0.4690 -0.0191
 1869SOL    HW117066   3.191   2.268  10.531 -1.8761 -1.8162  0.6143
 1869SOL    HW217067   3.163   2.416  10.505 -1.1594 -0.0952 -1.1334
 1870SOL     OW17068   3.877   4.226   8.355  0.2933 -0.2654  0.1077
 1870SOL    HW117069   3.965   4.251   8.385  1.0807 -2.1372 -0.6687
 1870SOL    HW217070   3.816   4.266   8.417  1.1746  2.1493 -0.5795
 1871SOL     OW17071   2.479   2.771  10.887 -0.0209 -0.0068  0.0087
 1871SOL    HW117072   2.526   2.773  10.971  1.7143 -0.7654 -0.9603
 1871SOL    HW217073   2.418   2.839  10.915 -1.3975 -0.9959 -0.6161
 1872SOL     OW17074   4.554   3.112   9.070  0.2852 -0.0144 -0.6248
 1872SOL    HW117075   4.497   3.147   9.138  3.5245  0.6375  1.7149
 1872SOL    HW217076   4.630   3.169   9.082  0.8349 -0.0869 -3.7669
 1873SOL     OW17077   4.470   0.706   2.832  0.2594  0.4098  0.1385
 1873SOL    HW117078   4.551   0.684   2.879 -0.6195 -1.3342  0.8122
 1873SOL    HW217079   4.498   0.783   2.781  0.0029  0.9044  0.7467
 1874SOL     OW17080   3.016   4.342  17.429  0.6216 -0.5069 -0.3273
 1874SOL    HW117081   2.951   4.272  17.429  2.7374 -2.4805  0.1472
 1874SOL    HW217082   2.962   4.406  17.382 -0.5635 -0.2298  1.4150
 1875SOL     OW17083   1.686   0.764   7.894  0.1091 -0.0510 -0.1106
 1875SOL    HW117084   1.700   0.670   7.881 -0.9649 -0.0533 -1.2387
 1875SOL    HW217085   1.700   0.782   7.987 -1.7588 -2.9699  0.7411
 1876SOL     OW17086   4.217   0.479  10.487 -0.0541  0.3551  0.0399
 1876SOL    HW117087   4.212   0.467  10.582  0.2965 -1.2050 -0.1379
 1876SOL    HW217088   4.277   0.408  10.463  0.5285  1.0094 -0.4269
 1877SOL     OW17089   1.006   0.397   6.567 -0.3000  0.3471  0.1610
 1877SOL    HW117090   0.933   0.411   6.506  1.1193 -0.5793 -1.7553
 1877SOL    HW217091   1.020   0.486   6.597 -0.9180  0.6058 -0.3179
 1878SOL     OW17092   0.869   2.657   7.905  0.1215  0.0259  0.0850
 1878SOL    HW117093   0.814   2.711   7.962  1.6185  0.6831  0.9027
 1878SOL    HW217094   0.950   2.657   7.955 -0.6141 -1.4959  1.2615
 1879SOL     OW17095   2.584   4.130   2.774  0.0712 -0.7067 -0.4034
 1879SOL    HW117096   2.584   4.105   2.682  0.6327  2.3373 -1.2388
 1879SOL    HW217097   2.656   4.080   2.810 -0.3929  1.9296  4.1881
 1880SOL     OW17098   4.637   2.863   4.309 -0.0366 -0.1492  0.3667
 1880SOL    HW117099   4.573   2.932   4.292 -0.4965 -1.0497 -1.5285
 1880SOL    HW217100   4.588   2.791   4.270 -0.5887  0.4117  0.0299
 1881SOL     OW17101   3.536   0.760   9.883  0.0523 -0.3692 -0.3703
 1881SOL    HW117102   3.561   0.670   9.905  3.2521  0.5951  0.0647
 1881SOL    HW217103   3.546   0.793   9.973 -1.0759  0.6785 -0.6286
 1882SOL     OW17104   3.971   3.143   6.855  0.0884 -0.6845 -0.3779
 1882SOL    HW117105   4.014   3.193   6.925  0.8599 -1.9395  0.0422
 1882SOL    HW217106   3.902   3.198   6.817  0.3478  0.7908  1.2819
 1883SOL     OW17107   1.922   1.888   3.345  0.2514 -0.2853 -0.0018
 1883SOL    HW117108   1.848   1.895   3.405  1.1333 -2.3993  1.3513
 1883SOL    HW217109   1.993   1.913   3.405 -0.6660  0.0008  0.9644
 1884SOL     OW17110   0.382   2.276  17.248 -0.3331 -0.4071  0.6784
 1884SOL    HW117111   0.430   2.352  17.280  1.2186 -0.9369 -0.3605
 1884SOL    HW217112   0.323   2.263  17.321  0.1544 -1.4267  0.8966
 1885SOL     OW17113   0.852   4.280   8.968 -0.6551  0.0641  0.2513
 1885SOL    HW117114   0.777   4.226   8.992 -1.8633  2.4006  1.8546
 1885SOL    HW217115   0.929   4.244   9.010 -0.2979 -0.2157 -0.6527
 1886SOL     OW17116   4.165   2.314   8.787 -1.0626 -0.0919 -0.2496
 1886SOL    HW117117   4.134   2.260   8.859 -0.2944 -0.7510 -0.4099
 1886SOL    HW217118   4.202   2.392   8.828 -0.7832 -0.6209  0.5135
 1887SOL     OW17119   2.147   1.506   3.820  0.1182  0.8490 -0.4397
 1887SOL    HW117120   2.204   1.471   3.752  1.9627  2.5050  0.2453
 1887SOL    HW217121   2.218   1.547   3.871  1.8442 -0.5855 -1.7048
 1888SOL     OW17122   3.501   3.315   2.260 -0.7378  0.4915  0.4472
 1888SOL    HW117123   3.520   3.406   2.237  1.4843  0.1072  0.8029
 1888SOL    HW217124   3.416   3.293   2.221 -1.2059  0.8329  1.2848
 1889SOL     OW17125   0.058   2.987  15.685  0.4053 -0.5943 -0.5826
 1889SOL    HW117126   0.143   2.980  15.729  0.1666  1.8500  0.2221
 1889SOL    HW217127   4.717   2.979  15.754  0.8594  1.1342  0.0314
 1890SOL     OW17128   1.373   3.091   3.580 -0.4444  0.3646 -0.0231
 1890SOL    HW117129   1.343   3.181   3.585 -2.1560 -0.1504 -1.0766
 1890SOL    HW217130   1.429   3.082   3.657  0.1746  1.1448 -0.3878
 1891SOL     OW17131   0.578   2.606   0.656  0.6793 -0.3013 -0.3014
 1891SOL    HW117132   0.584   2.696   0.689  0.3590 -0.1174 -0.7488
 1891SOL    HW217133   0.638   2.607   0.581  0.8819  1.1372 -0.1269
 1892SOL     OW17134   2.188   1.417   0.432  0.7245  0.0032  0.0687
 1892SOL    HW117135   2.231   1.490   0.387 -0.0242 -1.0501 -2.3880
 1892SOL    HW217136   2.260   1.354   0.432 -0.6854 -1.6319 -0.4477
 1893SOL     OW17137   0.356   0.848   5.622  0.1742  0.3751 -0.0168
 1893SOL    HW117138   0.366   0.778   5.686 -0.7319 -0.4129 -0.7351
 1893SOL    HW217139   0.398   0.913   5.677  0.3653  0.1377  0.1149
 1894SOL     OW17140   2.532   2.786  13.217  0.3867 -0.2495  0.4064
 1894SOL    HW117141   2.491   2.753  13.136 -1.4756  1.5499  0.6234
 1894SOL    HW217142   2.454   2.786  13.271  0.0742  1.1641 -0.0542
 1895SOL     OW17143   1.351   2.559  10.932  0.7866  0.0198  0.0359
 1895SOL    HW117144   1.272   2.541  10.982  2.2212 -3.3551  1.0776
 1895SOL    HW217145   1.413   2.543  11.003 -0.3554 -1.8458  0.6168
 1896SOL     OW17146   3.930   1.730   1.250  0.6217 -0.4179  0.4742
 1896SOL    HW117147   4.001   1.669   1.268  1.6865  0.9007  0.7200
 1896SOL    HW217148   3.891   1.740   1.337 -0.3283  1.7989 -0.1942
 1897SOL     OW17149   0.520   4.047   2.354 -0.2272 -0.2592 -0.0204
 1897SOL    HW117150   0.427   4.064   2.342 -0.2586  1.0138  2.0283
 1897SOL    HW217151   0.529   4.006   2.268  0.6927 -0.3120  0.0962
 1898SOL     OW17152   1.625   2.692   3.516 -0.2803 -0.2044 -0.2158
 1898SOL    HW117153   1.584   2.758   3.461 -1.0134  0.4153  1.0637
 1898SOL    HW217154   1.669   2.748   3.580 -1.8158  2.6659 -1.7088
 1899SOL     OW17155   0.386   3.945   5.068 -0.2045 -0.1332 -0.5889
 1899SOL    HW117156   0.448   4.011   5.098  0.0020 -1.5412  2.1595
 1899SOL    HW217157   0.382   3.965   4.975  2.9096  0.6608 -0.5632
 1900SOL     OW17158   4.338   1.020   5.285  0.5254  0.2970 -0.1482
 1900SOL    HW117159   4.313   0.942   5.234 -0.4809  0.9135 -0.5891
 1900SOL    HW217160   4.431   1.006   5.303  0.6871  2.1109  0.3272
 1901SOL     OW17161   4.553   1.919   3.112  0.3045 -0.4420  0.5657
 1901SOL    HW117162   4.538   1.929   3.018 -1.4113  0.4476  0.9343
 1901SOL    HW217163   4.575   1.826   3.116 -0.8076 -0.7176  0.1963
 1902SOL     OW17164   3.443   1.401   4.211 -0.5784 -0.2108  0.7878
 1902SOL    HW117165   3.470   1.426   4.123 -0.4373 -0.1111  0.8586
 1902SOL    HW217166   3.514   1.439   4.263  1.1478 -1.1372 -0.8937
 1903SOL     OW17167   1.875   4.715   7.003 -0.3361 -0.4171 -0.2851
 1903SOL    HW117168   1.851   4.644   6.943  0.9100 -0.2377 -0.9895
 1903SOL    HW217169   1.949   4.683   7.054 -0.2072 -0.6936 -0.6515
 1904SOL     OW17170   1.203   0.528  11.102  0.0482  0.0184  0.0880
 1904SOL    HW117171   1.111   0.539  11.126  0.1667  3.2453 -0.8585
 1904SOL    HW217172   1.190   0.504  11.010  1.2617 -2.1199  0.4851
 1905SOL     OW17173   3.778   1.420  13.316 -0.3872 -0.5018 -0.2493
 1905SOL    HW117174   3.830   1.420  13.236  1.9931 -0.4216  1.2895
 1905SOL    HW217175   3.759   1.327  13.324  0.9493 -0.9051 -1.8208
 1906SOL     OW17176   3.046   1.120   6.380  0.0620 -0.0122 -0.5178
 1906SOL    HW117177   2.991   1.152   6.309 -0.2064 -0.5571 -0.5528
 1906SOL    HW217178   3.055   1.030   6.351 -0.4308 -0.7932  1.7738
 1907SOL     OW17179   4.479   0.136   6.022  0.5990  0.3063 -0.0394
 1907SOL    HW117180   4.520   0.175   5.944  0.3616 -1.6023 -1.1121
 1907SOL    HW217181   4.459   0.211   6.078  2.5750  0.6370  0.2111
 1908SOL     OW17182   1.010   2.890   6.567  0.2470  0.3580  0.5835
 1908SOL    HW117183   0.956   2.927   6.637  0.5391 -0.9772  1.5152
 1908SOL    HW217184   0.946   2.843   6.513 -0.6942  1.8249  0.4273
 1909SOL     OW17185   0.271   2.336   5.738 -0.2897  0.7608  0.3933
 1909SOL    HW117186   0.185   2.349   5.698  0.6419  2.8001 -0.9384
 1909SOL    HW217187   0.237   2.340   5.827 -2.8800 -1.5251 -0.5121
 1910SOL     OW17188   3.691   3.718   4.875  0.1235  0.5431  0.3215
 1910SOL    HW117189   3.654   3.796   4.832 -0.9015 -0.9461 -1.4901
 1910SOL    HW217190   3.774   3.704   4.831  1.3504 -1.6597  3.3614
 1911SOL     OW17191   1.586   2.267   9.206  0.3720 -0.4310  0.0276
 1911SOL    HW117192   1.599   2.362   9.199 -1.0454 -0.2393  0.0982
 1911SOL    HW217193   1.519   2.256   9.273  1.4208  2.3167  1.5427
 1912SOL     OW17194   0.466   4.671   3.562 -0.7723  0.0758 -0.1088
 1912SOL    HW117195   0.534   4.658   3.628  0.1265  2.4932 -0.5304
 1912SOL    HW217196   0.516   4.668   3.480  0.3088  1.5394  0.4854
 1913SOL     OW17197   2.693   0.281   3.500  0.0700 -0.0295  0.6656
 1913SOL    HW117198   2.723   0.197   3.466 -0.2318  0.4605 -0.8222
 1913SOL    HW217199   2.634   0.257   3.571  1.1267  0.0522  1.5795
 1914SOL     OW17200   4.421   4.498   3.552 -0.1670  0.4043 -0.3841
 1914SOL    HW117201   4.481   4.529   3.620  1.3803 -0.5560 -1.3145
 1914SOL    HW217202   4.368   4.578   3.542 -0.2059  0.3006 -1.0272
 1915SOL     OW17203   1.619   0.693   4.945 -0.3060  0.0461  0.4224
 1915SOL    HW117204   1.592   0.682   5.036 -0.2129  1.0092  0.5614
 1915SOL    HW217205   1.696   0.637   4.938  0.6816  1.1184  2.7723
 1916SOL     OW17206   4.701   0.058   4.346  0.0413 -0.1051 -0.0461
 1916SOL    HW117207   4.691   4.691   4.322 -1.4081  0.6479 -2.2398
 1916SOL    HW217208   0.068   0.075   4.322  0.1466  0.0153  0.4303
 1917SOL     OW17209   2.337   0.717   7.527 -0.0135 -0.2431 -0.4321
 1917SOL    HW117210   2.344   0.642   7.468 -2.0829 -1.7604  1.2596
 1917SOL    HW217211   2.303   0.685   7.610 -0.9763  0.3075 -0.6071
 1918SOL     OW17212   2.200   4.540   8.377  0.4710  0.3068  0.0583
 1918SOL    HW117213   2.142   4.600   8.329 -1.3485 -0.6375  1.0751
 1918SOL    HW217214   2.276   4.596   8.391  2.1401 -2.1058  0.4426
 1919SOL     OW17215   3.697   1.497  16.094  0.5688  0.0634 -0.2187
 1919SOL    HW117216   3.707   1.480  16.000 -1.9199 -0.4652 -0.3775
 1919SOL    HW217217   3.734   1.584  16.104  2.5075 -0.6677 -0.8994
 1920SOL     OW17218   4.262   1.650  14.292 -0.4393 -0.0752 -0.0236
 1920SOL    HW117219   4.282   1.570  14.243  2.3317  1.6418 -1.7390
 1920SOL    HW217220   4.198   1.614  14.353 -0.8043 -0.0651 -0.4003
 1921SOL     OW17221   3.206   0.580   3.339  0.1258  0.1537  0.4519
 1921SOL    HW117222   3.258   0.500   3.331 -0.1678  0.0206 -0.1103
 1921SOL    HW217223   3.275   0.639   3.369 -0.8590  0.9778  1.0884
 1922SOL     OW17224   1.537   4.263  13.442 -0.4547  0.0708 -0.1359
 1922SOL    HW117225   1.447   4.263  13.475 -0.3250 -2.1210  0.2306
 1922SOL    HW217226   1.592   4.295  13.514 -0.8533  0.5653 -0.0520
 1923SOL     OW17227   4.270   0.491   0.998 -0.0880  0.0167 -0.0152
 1923SOL    HW117228   4.217   0.452   0.929  1.5169 -0.5416 -0.9554
 1923SOL    HW217229   4.299   0.574   0.962 -0.4695  0.3444  0.4316
 1924SOL     OW17230   3.599   4.574   7.906 -0.3100  0.3245  0.0142
 1924SOL    HW117231   3.684   4.608   7.932 -0.5006  1.0780 -0.3465
 1924SOL    HW217232   3.622   4.526   7.826  0.4172 -3.2221  2.3343
 1925SOL     OW17233   4.382   4.168   7.333  0.3556  0.7156 -0.2649
 1925SOL    HW117234   4.336   4.246   7.362 -0.1386 -0.1261  1.2446
 1925SOL    HW217235   4.334   4.155   7.252  1.4151 -0.5589 -0.7051
 1926SOL     OW17236   0.367   2.685   8.101 -0.0749  0.2925  0.1524
 1926SOL    HW117237   0.428   2.649   8.036  1.0003  0.1562  1.2332
 1926SOL    HW217238   0.340   2.602   8.139  2.9575  0.0701  1.8362
 1927SOL     OW17239   4.600   3.551  13.442  0.0461 -0.0255 -0.2485
 1927SOL    HW117240   4.538   3.477  13.437 -0.5285  0.4631 -0.4072
 1927SOL    HW217241   4.547   3.622  13.405 -0.5726 -1.2230 -1.6971
 1928SOL     OW17242   3.073   2.498  11.580 -0.1351  0.1300  0.0393
 1928SOL    HW117243   3.160   2.526  11.553 -1.4911  0.7182 -3.6688
 1928SOL    HW217244   3.089   2.405  11.600  0.7713  0.0045 -1.2858
 1929SOL     OW17245   3.943   3.968   8.176  0.6807  0.1181 -0.1044
 1929SOL    HW117246   4.021   3.913   8.164  1.3538  1.2919 -1.0906
 1929SOL    HW217247   3.960   4.038   8.239  0.5692  0.2025 -0.1686
 1930SOL     OW17248   1.921   3.965   2.145 -0.0093 -1.2798 -0.2765
 1930SOL    HW117249   1.968   3.934   2.222 -1.1267  0.7248  1.1937
 1930SOL    HW217250   1.871   4.035   2.188  1.0510  0.4205 -1.8422
 1931SOL     OW17251   1.461   2.174   8.915  0.0931 -0.1171 -0.4764
 1931SOL    HW117252   1.514   2.199   8.991  1.7753  1.6898 -2.2708
 1931SOL    HW217253   1.493   2.086   8.895  3.2488  1.1003 -0.6419
 1932SOL     OW17254   1.153   2.587   7.998  0.0787 -0.1486 -0.3872
 1932SOL    HW117255   1.180   2.585   7.906 -0.9295 -1.2334 -0.6605
 1932SOL    HW217256   1.159   2.495   8.026  0.6333  0.1600  0.4836
 1933SOL     OW17257   2.190   0.093   1.073  0.3992 -0.0949 -0.5246
 1933SOL    HW117258   2.138   0.105   1.152  2.1005  1.4115  0.3611
 1933SOL    HW217259   2.179   4.722   1.069  1.3952 -0.3064  1.5067
 1934SOL     OW17260   3.639   1.561   7.527 -0.0684  0.1708 -0.4118
 1934SOL    HW117261   3.561   1.578   7.581  1.5181  0.4245  1.8158
 1934SOL    HW217262   3.710   1.573   7.590  0.0408 -0.5613 -0.3943
 1935SOL     OW17263   1.103   2.532   1.362  0.2672 -0.0246 -0.4991
 1935SOL    HW117264   1.149   2.616   1.358 -0.7773  0.5889  0.3859
 1935SOL    HW217265   1.166   2.464   1.384  0.1760  0.1359  0.2480
 1936SOL     OW17266   4.211   1.741   9.802  0.6056 -0.1183 -0.0741
 1936SOL    HW117267   4.295   1.784   9.815 -0.9867  3.0078 -0.1285
 1936SOL    HW217268   4.174   1.728   9.889  1.5491  0.2780  0.3816
 1937SOL     OW17269   3.387   3.145  14.914  0.1788  0.0973 -0.1964
 1937SOL    HW117270   3.332   3.221  14.902 -1.2774 -0.8824  0.2812
 1937SOL    HW217271   3.449   3.160  14.842 -0.0268  0.3978 -0.3066
 1938SOL     OW17272   0.075   1.322   5.527 -0.1946  0.3963  0.2366
 1938SOL    HW117273   0.061   1.315   5.433 -0.2346 -0.3988  0.2992
 1938SOL    HW217274   0.036   1.239   5.554 -2.1218  1.1883 -0.0390
 1939SOL     OW17275   2.384   0.393  13.796 -0.0838  0.1571  0.0557
 1939SOL    HW117276   2.449   0.373  13.864 -1.5783 -2.9264  0.6048
 1939SOL    HW217277   2.390   0.486  13.777 -1.3305  0.4204  0.9094
 1940SOL     OW17278   2.592   3.511  15.225 -0.1579 -0.3983 -0.4456
 1940SOL    HW117279   2.606   3.517  15.319  0.8947 -0.0435 -0.6212
 1940SOL    HW217280   2.547   3.594  15.210 -1.5207 -1.3205 -1.4094
 1941SOL     OW17281   2.027   0.402   8.438  0.9096  0.1990  0.3131
 1941SOL    HW117282   2.098   0.344   8.410  0.7034 -0.5785  1.3883
 1941SOL    HW217283   2.072   0.457   8.503  3.2827  0.5226 -1.6183
 1942SOL     OW17284   0.727   1.047   3.243  0.2176  0.3133  0.7825
 1942SOL    HW117285   0.751   1.093   3.324 -0.5118  1.4943  0.3123
 1942SOL    HW217286   0.653   1.099   3.214  1.4830  1.6352 -0.0646
 1943SOL     OW17287   1.505   4.218  12.064  0.8846 -0.0848 -0.6182
 1943SOL    HW117288   1.416   4.252  12.069  0.1049 -2.5340  2.0263
 1943SOL    HW217289   1.543   4.297  12.025  0.3530  0.2716 -0.4150
 1944SOL     OW17290   2.709   2.656   0.848  0.1040 -0.6745 -0.2810
 1944SOL    HW117291   2.692   2.701   0.930  1.2481 -1.1969  0.2475
 1944SOL    HW217292   2.785   2.701   0.811 -2.2276  2.6325 -1.0361
 1945SOL     OW17293   1.240   3.223  10.553 -0.0550 -0.3383 -0.6121
 1945SOL    HW117294   1.196   3.169  10.618 -0.4876 -0.3562 -0.9196
 1945SOL    HW217295   1.242   3.306  10.599 -1.8729 -0.3604 -0.4928
 1946SOL     OW17296   4.214   0.248   4.480  0.1547  0.5803 -0.0794
 1946SOL    HW117297   4.181   0.338   4.484  0.9075  0.8184  0.8194
 1946SOL    HW217298   4.271   0.234   4.555  0.5806  2.1311 -0.1143
 1947SOL     OW17299   3.101   4.330   8.489 -0.3555  0.4650  0.1219
 1947SOL    HW117300   3.021   4.303   8.533 -0.1778  0.4081  0.4058
 1947SOL    HW217301   3.162   4.336   8.562  3.6322  1.3606 -3.2979
 1948SOL     OW17302   3.961   0.368  16.447 -0.1500 -0.1702 -0.0597
 1948SOL    HW117303   4.036   0.339  16.500 -0.2390 -1.5065 -0.6768
 1948SOL    HW217304   3.896   0.382  16.516 -0.9181 -1.0724 -0.6135
 1949SOL     OW17305   0.406   2.762   3.665  0.3797 -0.1527 -0.0560
 1949SOL    HW117306   0.329   2.735   3.616  0.9110 -1.0463 -0.3964
 1949SOL    HW217307   0.401   2.707   3.743 -1.1005  1.2884  0.8668
 1950SOL     OW17308   1.625   1.458   6.170 -0.7044 -0.2718 -0.0148
 1950SOL    HW117309   1.538   1.487   6.144 -1.0971 -1.1454  0.3249
 1950SOL    HW217310   1.642   1.385   6.111 -1.6572 -1.9563  1.7871
 1951SOL     OW17311   1.442   3.407   2.565 -0.3612 -0.0780 -0.0669
 1951SOL    HW117312   1.406   3.319   2.580 -0.8121  0.2225  0.6071
 1951SOL    HW217313   1.516   3.386   2.508 -0.2454 -1.3024  0.5433
 1952SOL     OW17314   3.041   4.632   6.068 -0.2776  0.6158  0.1936
 1952SOL    HW117315   3.082   4.563   6.121 -1.5017  0.4699  0.9342
 1952SOL    HW217316   3.019   4.688   6.143 -0.1440  0.7096  0.1631
 1953SOL     OW17317   4.592   1.203   3.611  0.7196  0.6699  0.0390
 1953SOL    HW117318   4.647   1.135   3.650  3.0762  2.0715 -0.8416
 1953SOL    HW217319   4.561   1.159   3.532  0.4142  0.4367  0.2900
 1954SOL     OW17320   0.499   4.121   9.081 -0.3208 -0.5186 -0.3086
 1954SOL    HW117321   0.490   4.216   9.074 -1.8374 -0.8252 -2.6771
 1954SOL    HW217322   0.529   4.111   8.990  1.6100 -2.1259  0.5096
 1955SOL     OW17323   0.232   2.668   5.711 -0.1311  0.0549 -0.0901
 1955SOL    HW117324   0.266   2.656   5.800  2.2023  1.1085 -0.8465
 1955SOL    HW217325   0.152   2.617   5.724 -0.5478  0.5020 -0.9404
 1956SOL     OW17326   1.711   1.713  15.528  0.0305 -0.0385  0.5354
 1956SOL    HW117327   1.768   1.685  15.456  1.0907  1.9928  0.5956
 1956SOL    HW217328   1.781   1.760  15.574  0.8667 -0.6318 -0.1290
 1957SOL     OW17329   3.540   3.785   8.261 -0.2650 -0.3905  0.3270
 1957SOL    HW117330   3.494   3.813   8.182  0.1110 -0.6161  0.0304
 1957SOL    HW217331   3.607   3.731   8.219  0.1612 -0.1293  0.6727
 1958SOL     OW17332   3.761   3.689   2.169 -0.0584  0.2905  0.0644
 1958SOL    HW117333   3.816   3.726   2.100  0.3017  0.3709  0.3921
 1958SOL    HW217334   3.819   3.654   2.237  0.1170 -1.5518 -1.0006
 1959SOL     OW17335   3.190   1.514  17.341 -0.3196 -0.1321 -0.5385
 1959SOL    HW117336   3.239   1.433  17.350  1.0475  0.8228  0.6629
 1959SOL    HW217337   3.138   1.493  17.264  2.2075 -0.9274 -2.0317
 1960SOL     OW17338   1.986   1.022   4.103 -0.0722  0.0344  0.2733
 1960SOL    HW117339   1.899   1.058   4.123  0.2537  0.0047  1.7424
 1960SOL    HW217340   2.018   1.092   4.046  0.0294  0.3166  0.6763
 1961SOL     OW17341   0.244   0.464  13.479  0.3865 -0.1705  0.3988
 1961SOL    HW117342   0.297   0.538  13.509  0.1045  0.8714 -1.6618
 1961SOL    HW217343   0.179   0.510  13.425 -0.4761 -0.5220  1.1398
 1962SOL     OW17344   1.916   1.680   4.270 -0.0705 -0.0249  0.0267
 1962SOL    HW117345   1.831   1.720   4.251 -0.0546  0.6031  1.2940
 1962SOL    HW217346   1.923   1.614   4.200  3.4480 -0.2655  0.6146
 1963SOL     OW17347   3.985   0.481   1.080 -0.4053 -0.4972  0.9631
 1963SOL    HW117348   3.985   0.495   1.175  1.3553  0.8790  0.7522
 1963SOL    HW217349   4.070   0.522   1.068  0.0189 -2.0819 -1.2760
 1964SOL     OW17350   2.109   2.084   1.542  0.0419  0.3286  0.0783
 1964SOL    HW117351   2.157   2.128   1.472  2.7469 -2.9584 -0.1284
 1964SOL    HW217352   2.130   2.134   1.621  2.5818  0.6115 -0.7791
 1965SOL     OW17353   4.063   0.583   5.785 -0.0283  0.1537 -0.1582
 1965SOL    HW117354   4.122   0.655   5.805 -1.1677  0.8118  0.8485
 1965SOL    HW217355   4.002   0.576   5.858 -2.0320  0.2528 -1.8123
 1966SOL     OW17356   3.530   2.220   2.852 -0.9701 -0.2086  0.5743
 1966SOL    HW117357   3.505   2.138   2.894  0.0991 -1.6192 -1.5957
 1966SOL    HW217358   3.450   2.270   2.834 -1.4253 -1.3459 -0.5262
 1967SOL     OW17359   2.007   2.360   5.074  0.2686  0.2839  0.0119
 1967SOL    HW117360   2.038   2.298   5.141  1.1700  2.0861  1.2822
 1967SOL    HW217361   1.918   2.374   5.106  0.2728  1.5795 -0.5494
 1968SOL     OW17362   2.006   3.540   4.103 -0.3691 -0.1881 -0.3350
 1968SOL    HW117363   2.001   3.526   4.009  0.9268  1.4159 -0.6399
 1968SOL    HW217364   1.960   3.624   4.111  2.2285  1.1419  0.7590
 1969SOL     OW17365   2.443   1.205  14.871 -0.2469 -0.0649  0.1414
 1969SOL    HW117366   2.416   1.113  14.869 -1.1909  0.1753  1.8595
 1969SOL    HW217367   2.431   1.224  14.964  2.7568 -3.2020  1.1640
 1970SOL     OW17368   0.412   0.873   6.556  0.5251 -0.4785 -0.3259
 1970SOL    HW117369   0.502   0.878   6.589  0.1041  0.4512  0.6750
 1970SOL    HW217370   0.402   0.959   6.516  0.2829 -0.1932  0.3419
 1971SOL     OW17371   0.473   2.954  16.285 -0.2015  0.2746 -0.6881
 1971SOL    HW117372   0.476   2.868  16.243  2.6894 -0.6031  1.3343
 1971SOL    HW217373   0.506   3.003  16.210  0.5215  0.1549 -0.4457
 1972SOL     OW17374   0.756   2.916   1.589  0.3262  0.7401  0.0200
 1972SOL    HW117375   0.756   2.863   1.669 -0.7598  0.1740 -0.3447
 1972SOL    HW217376   0.842   2.890   1.556  0.1128 -2.1812  1.7432
 1973SOL     OW17377   2.162   0.952  12.878 -0.0892 -1.0548 -0.3966
 1973SOL    HW117378   2.250   0.914  12.877 -0.6051 -2.2705  1.0375
 1973SOL    HW217379   2.164   1.026  12.938 -0.3379 -0.0877 -1.5826
 1974SOL     OW17380   0.735   4.692  11.660  0.1651 -0.5944  0.0235
 1974SOL    HW117381   0.808   4.639  11.628 -0.0369  0.0559 -1.4995
 1974SOL    HW217382   0.667   4.681  11.594 -0.3106  2.5583  0.0108
 1975SOL     OW17383   1.215   3.725   7.965  0.0953 -0.0634  0.3144
 1975SOL    HW117384   1.214   3.710   8.059  1.0476  3.2499  0.8412
 1975SOL    HW217385   1.145   3.663   7.942  1.3248 -1.3214 -0.0255
 1976SOL     OW17386   4.638   1.002   5.364 -0.2113 -0.7098  0.6788
 1976SOL    HW117387   0.002   0.990   5.397 -0.0723 -0.2258  0.4728
 1976SOL    HW217388   4.625   1.090   5.330 -1.0430 -0.6819  1.0804
 1977SOL     OW17389   4.674   1.015   7.667  0.2595 -0.1337 -0.5161
 1977SOL    HW117390   4.616   0.979   7.734  0.6194  0.2740  0.0143
 1977SOL    HW217391   4.658   0.971   7.584 -1.1664 -1.1792  0.3085
 1978SOL     OW17392   3.303   2.670   8.139  0.3665 -0.2831 -0.5887
 1978SOL    HW117393   3.239   2.723   8.185  0.0974 -0.9720 -0.1617
 1978SOL    HW217394   3.353   2.632   8.211 -0.0343 -1.5288 -0.9529
 1979SOL     OW17395   2.070   2.578  11.826  0.0546  0.0694 -0.2344
 1979SOL    HW117396   2.120   2.559  11.905 -0.5503  0.4002  0.2247
 1979SOL    HW217397   1.984   2.579  11.868  1.2325 -0.2705  2.2074
 1980SOL     OW17398   2.795   3.447   6.730 -0.2240 -0.1509 -0.5781
 1980SOL    HW117399   2.821   3.538   6.747 -1.4815 -0.0155  0.6200
 1980SOL    HW217400   2.728   3.433   6.797  0.5987  0.2249  0.3337
 1981SOL     OW17401   2.820   2.608  15.576 -0.0309 -0.0033  0.4531
 1981SOL    HW117402   2.797   2.530  15.626  0.9771  0.0802  1.0370
 1981SOL    HW217403   2.795   2.680  15.634 -0.3893  0.1969  0.0574
 1982SOL     OW17404   0.388   2.692   0.369  0.0189  0.0333 -0.1895
 1982SOL    HW117405   0.480   2.718   0.382 -0.6158  1.9353  0.5587
 1982SOL    HW217406   0.396   2.600   0.344 -1.1250 -0.4409  1.2272
 1983SOL     OW17407   0.031   3.364  15.447  0.4639  0.7903 -0.1470
 1983SOL    HW117408   4.718   3.299  15.506 -0.7691 -0.6865 -2.5920
 1983SOL    HW217409   0.057   3.297  15.384  0.0922  2.4109 -2.0074
 1984SOL     OW17410   1.870   0.340  10.355  0.1800  0.1722  0.6513
 1984SOL    HW117411   1.948   0.341  10.410  0.2224  0.2743  0.5899
 1984SOL    HW217412   1.814   0.275  10.397 -0.0395  0.5223  0.9077
 1985SOL     OW17413   1.931   1.817   9.524  0.0734  0.1175 -0.0540
 1985SOL    HW117414   1.919   1.762   9.447  1.6617 -0.3737  0.0568
 1985SOL    HW217415   1.941   1.905   9.488 -0.6128  0.2127 -0.0235
 1986SOL     OW17416   0.300   0.205   8.345  0.0499 -0.9363 -0.3910
 1986SOL    HW117417   0.293   0.282   8.290  1.4761  2.1351  3.6812
 1986SOL    HW217418   0.323   0.243   8.430 -0.8035 -1.0606 -0.1036
 1987SOL     OW17419   1.596   2.620   5.631 -0.7147 -0.1643  0.3435
 1987SOL    HW117420   1.535   2.689   5.657  1.7950  1.6817  1.3342
 1987SOL    HW217421   1.537   2.561   5.584  0.7683 -1.7243  0.4274
 1988SOL     OW17422   3.576   3.420  14.664  0.0551  0.4691  0.0578
 1988SOL    HW117423   3.661   3.460  14.646 -0.0960  0.4805 -0.6456
 1988SOL    HW217424   3.535   3.492  14.711 -1.3440 -2.0399  2.6580
 1989SOL     OW17425   4.147   2.261   5.329 -0.1726  0.2868  0.0204
 1989SOL    HW117426   4.091   2.318   5.382  0.0257 -1.2905  1.9063
 1989SOL    HW217427   4.155   2.301   5.242 -2.2940  2.8876  1.0395
 1990SOL     OW17428   0.835   3.831   1.862  0.0173 -0.4890  0.1659
 1990SOL    HW117429   0.873   3.886   1.794 -1.2138  2.2100  1.7065
 1990SOL    HW217430   0.889   3.756   1.837  0.4535 -0.7145  1.8268
 1991SOL     OW17431   4.458   3.752   4.756 -0.0569  0.1021  0.4271
 1991SOL    HW117432   4.455   3.818   4.688  1.4198  0.1162  0.3729
 1991SOL    HW217433   4.481   3.813   4.826 -2.2554  1.0053  0.3683
 1992SOL     OW17434   0.366   1.721   5.742  0.4629  0.3830  0.0709
 1992SOL    HW117435   0.391   1.806   5.779  0.7283  1.2167 -2.0582
 1992SOL    HW217436   0.361   1.745   5.650  0.1217 -0.8477 -0.2340
 1993SOL     OW17437   3.402   4.343  13.707 -0.0512  0.3592 -0.0207
 1993SOL    HW117438   3.380   4.378  13.620  2.4249  0.3028 -0.6692
 1993SOL    HW217439   3.497   4.355  13.705 -0.3117  2.2816 -1.4410
 1994SOL     OW17440   1.277   1.464   5.605  0.5351  0.1468 -0.1314
 1994SOL    HW117441   1.225   1.386   5.626  1.0515 -0.8734 -2.6249
 1994SOL    HW217442   1.219   1.499   5.537  1.8177  0.0629 -1.2725
 1995SOL     OW17443   0.973   3.417   9.024 -0.4793  0.2356 -0.1750
 1995SOL    HW117444   0.972   3.326   8.993  0.0180  0.4369 -0.7766
 1995SOL    HW217445   0.962   3.400   9.118 -2.8061  0.7122 -0.3815
 1996SOL     OW17446   0.414   2.748   5.078  0.3778 -0.1179 -0.5209
 1996SOL    HW117447   0.505   2.720   5.063  0.4258 -0.3737  0.2607
 1996SOL    HW217448   0.418   2.843   5.066 -0.4648 -0.3807 -2.8368
 1997SOL     OW17449   2.805   0.184   9.749 -0.0757 -0.3253  0.3965
 1997SOL    HW117450   2.736   0.248   9.728 -1.0986 -1.1562  1.2073
 1997SOL    HW217451   2.819   0.203   9.842 -0.7298 -1.3505  0.6954
 1998SOL     OW17452   1.737   0.155   9.138  0.2602 -0.5069  0.4392
 1998SOL    HW117453   1.680   0.107   9.078  1.8822 -1.4885 -0.2867
 1998SOL    HW217454   1.741   0.085   9.203  0.0644 -0.5097  0.4487
 1999SOL     OW17455   2.625   4.572   8.006 -0.0766 -0.2662  0.0820
 1999SOL    HW117456   2.638   4.623   7.926  1.4293  0.4172  0.7611
 1999SOL    HW217457   2.668   4.492   7.976  1.7223  1.2809 -1.4700
 2000SOL     OW17458   1.021   3.303   1.534 -0.3336  0.3655 -0.6524
 2000SOL    HW117459   1.049   3.222   1.492  1.6008  0.6878  0.0208
 2000SOL    HW217460   1.095   3.323   1.592  0.5532 -2.4807 -0.8189
 2001SOL     OW17461   2.024   1.239   8.784 -0.0328 -0.0950 -0.1529
 2001SOL    HW117462   2.095   1.303   8.789  1.8139 -2.4083  3.1783
 2001SOL    HW217463   2.066   1.173   8.838  2.1272  1.8732  0.5687
 2002SOL     OW17464   0.965   3.136   8.956  0.2339  0.0775 -0.0071
 2002SOL    HW117465   0.947   3.104   8.868 -0.9684 -0.8861  0.5993
 2002SOL    HW217466   0.983   3.053   9.000 -1.7465 -1.1857 -1.5814
 2003SOL     OW17467   0.452   4.352   4.581 -0.2302 -0.6908 -0.8848
 2003SOL    HW117468   0.524   4.339   4.519  0.1711  0.5991 -0.6951
 2003SOL    HW217469   0.466   4.445   4.600  1.4877 -0.9120 -1.0579
 2004SOL     OW17470   1.085   0.481  15.460  0.3911  0.0308  0.8803
 2004SOL    HW117471   1.103   0.417  15.528  0.1431  0.1031  1.0161
 2004SOL    HW217472   0.989   0.479  15.463  0.4639 -1.7806  1.4888
 2005SOL     OW17473   0.010   4.536   9.209  0.6754 -0.0688 -0.1367
 2005SOL    HW117474   0.048   4.543   9.122  0.8128  2.1424  0.1070
 2005SOL    HW217475   0.084   4.491   9.250  0.6295 -0.8022 -0.8563
 2006SOL     OW17476   0.790   3.323  10.479 -0.1576 -0.0146  0.2617
 2006SOL    HW117477   0.829   3.402  10.517  0.5410 -1.1910  1.9780
 2006SOL    HW217478   0.869   3.270  10.482 -0.5308 -0.6354 -0.9965
 2007SOL     OW17479   0.949   4.305   4.490 -0.2438 -0.2533  0.6711
 2007SOL    HW117480   0.950   4.389   4.444 -1.3717 -0.7840 -0.3077
 2007SOL    HW217481   0.936   4.246   4.417 -2.2538 -0.6099  1.3144
 2008SOL     OW17482   1.006   4.064   5.938  0.2077  0.0251 -0.3981
 2008SOL    HW117483   1.020   4.137   5.878  0.9303  1.1229  1.1111
 2008SOL    HW217484   0.929   4.099   5.983  0.3762  0.8378 -0.7398
 2009SOL     OW17485   1.860   3.954   8.667 -0.2609  0.3681  0.2824
 2009SOL    HW117486   1.803   3.981   8.739  0.8316  0.1133  1.2376
 2009SOL    HW217487   1.917   4.031   8.662 -0.9065  0.6181 -3.2517
 2010SOL     OW17488   4.449   1.204   9.105  0.3838 -0.0587 -0.0046
 2010SOL    HW117489   4.489   1.130   9.059 -1.5368  0.0883 -1.8949
 2010SOL    HW217490   4.454   1.177   9.197  2.3130  2.1348  0.5477
 2011SOL     OW17491   3.779   2.404   1.866  0.3805 -0.0306 -0.5123
 2011SOL    HW117492   3.737   2.395   1.952 -0.6725  0.5862 -0.9686
 2011SOL    HW217493   3.756   2.320   1.827  2.3520 -1.0627  0.5283
 2012SOL     OW17494   2.427   2.958   6.313  0.5798  0.2173 -0.5616
 2012SOL    HW117495   2.480   2.932   6.389  0.7039  0.7622 -0.4635
 2012SOL    HW217496   2.375   2.878   6.300  0.1069  0.2560  1.0583
 2013SOL     OW17497   3.241   4.608   4.592 -0.0605 -0.7180  0.2934
 2013SOL    HW117498   3.311   4.613   4.527 -1.4906  1.3213 -1.0531
 2013SOL    HW217499   3.258   4.519   4.623 -0.5688 -0.5568  1.0365
 2014SOL     OW17500   4.197   1.719   2.263  0.1390  0.5486  0.1259
 2014SOL    HW117501   4.279   1.691   2.222 -0.7500 -1.8629 -0.0096
 2014SOL    HW217502   4.179   1.810   2.240 -2.5015 -0.5145 -1.9252
 2015SOL     OW17503   0.551   0.976  17.130  0.4238 -0.4256  0.5106
 2015SOL    HW117504   0.567   1.017  17.045  0.0120 -0.9210  0.1912
 2015SOL    HW217505   0.641   0.971  17.161  0.6353  2.0832  0.3647
 2016SOL     OW17506   1.159   0.117   7.186 -0.0505  0.1822  0.3375
 2016SOL    HW117507   1.170   0.023   7.170 -0.3373  0.3330 -0.7350
 2016SOL    HW217508   1.086   0.129   7.126 -0.4595 -0.2799  0.7418
 2017SOL     OW17509   3.560   0.432   0.391 -0.2293  0.0045 -0.2610
 2017SOL    HW117510   3.631   0.486   0.357  0.5117 -0.9941 -0.3100
 2017SOL    HW217511   3.566   0.465   0.480  0.5225 -1.3203  0.1777
 2018SOL     OW17512   0.248   4.679  11.085  0.2778 -0.5743 -0.2027
 2018SOL    HW117513   0.312   4.685  11.015  0.4840  0.2742  0.0661
 2018SOL    HW217514   0.214   0.044  11.077 -0.8784 -1.1531 -1.8547
 2019SOL     OW17515   1.996   1.977   3.804 -0.2517 -0.3929 -0.1872
 2019SOL    HW117516   1.995   1.985   3.709 -0.6510 -0.7883 -0.2197
 2019SOL    HW217517   1.918   2.023   3.834 -0.1908 -1.3683  1.5159
 2020SOL     OW17518   4.040   0.472  10.280 -0.8015  0.2898  0.0861
 2020SOL    HW117519   4.109   0.481  10.345  1.1708 -2.3752 -1.6379
 2020SOL    HW217520   4.041   0.376  10.276  1.9270  0.3048  0.6318
 2021SOL     OW17521   3.967   2.669   0.643  0.2770 -0.0684  0.1577
 2021SOL    HW117522   3.949   2.708   0.729  0.1838 -2.4864  1.2398
 2021SOL    HW217523   3.987   2.745   0.589 -0.9303 -1.4109 -2.1524
 2022SOL     OW17524   4.004   1.633   5.530 -0.3953  0.1779  0.2582
 2022SOL    HW117525   3.974   1.620   5.620 -2.1390  0.8352 -0.2408
 2022SOL    HW217526   4.000   1.727   5.519  1.1673  0.3359  0.9050
 2023SOL     OW17527   1.804   3.096   7.617 -0.0075  0.7335  0.0758
 2023SOL    HW117528   1.834   3.042   7.691  2.4121  2.2305  0.1999
 2023SOL    HW217529   1.775   3.176   7.659  0.6728 -0.0954  2.1023
 2024SOL     OW17530   4.388   0.930   4.899  0.2109  0.2757 -0.8212
 2024SOL    HW117531   4.470   0.895   4.864 -0.7579 -1.6831 -1.1330
 2024SOL    HW217532   4.420   1.012   4.937  0.4565 -0.4557  0.5692
 2025SOL     OW17533   2.581   3.794   3.308 -0.4229  0.7644 -0.1212
 2025SOL    HW117534   2.518   3.762   3.244  0.6701  0.5719 -1.1079
 2025SOL    HW217535   2.558   3.887   3.301 -0.8709  0.7615  1.5190
 2026SOL     OW17536   4.246   1.279   5.304  0.3373 -0.0587  0.3076
 2026SOL    HW117537   4.270   1.186   5.301 -0.1761 -0.1719 -0.1661
 2026SOL    HW217538   4.158   1.268   5.268 -0.6871 -1.3927  3.1943
 2027SOL     OW17539   2.105   2.619   3.141 -0.1249  0.3018 -0.8605
 2027SOL    HW117540   2.167   2.595   3.209  0.5176  1.6921 -0.9670
 2027SOL    HW217541   2.114   2.543   3.084 -0.2277 -0.0462 -0.4125
 2028SOL     OW17542   1.439   1.471  11.088 -0.1111  0.6682  0.6199
 2028SOL    HW117543   1.442   1.404  11.156 -1.2190  0.0387  0.0489
 2028SOL    HW217544   1.382   1.535  11.129  0.9203  1.3494  0.9859
 2029SOL     OW17545   0.164   3.306   4.792  0.3604  0.2810  0.3336
 2029SOL    HW117546   0.102   3.263   4.733 -1.4217  1.3069  1.4600
 2029SOL    HW217547   0.166   3.248   4.868 -1.9503 -2.0490 -1.3819
 2030SOL     OW17548   3.136   1.485  13.864 -0.0818 -0.2680 -0.1698
 2030SOL    HW117549   3.208   1.423  13.859 -0.1381 -0.2014 -2.0830
 2030SOL    HW217550   3.089   1.441  13.934  0.0053 -0.0393  0.0303
 2031SOL     OW17551   0.400   2.415   4.811 -0.8276  0.4488  0.4509
 2031SOL    HW117552   0.331   2.479   4.791 -0.5977  0.0766 -1.5136
 2031SOL    HW217553   0.383   2.419   4.905 -3.3771  1.1690 -0.0492
 2032SOL     OW17554   2.239   2.828  10.644 -0.0363 -0.4711 -0.0434
 2032SOL    HW117555   2.229   2.765  10.716 -0.1903  0.0560  0.3983
 2032SOL    HW217556   2.264   2.775  10.569 -0.5590  0.7280 -1.0563
 2033SOL     OW17557   4.074   3.221   0.212  0.4008  0.0181 -0.0834
 2033SOL    HW117558   4.040   3.157   0.275 -2.4100  1.3100 -0.2587
 2033SOL    HW217559   4.112   3.292   0.265  2.1542  0.5836 -2.0853
 2034SOL     OW17560   1.286   2.286   9.287  0.0309 -0.1715  0.0002
 2034SOL    HW117561   1.272   2.307   9.380 -0.4815  0.7131 -0.2660
 2034SOL    HW217562   1.249   2.198   9.279  1.2264 -0.5586 -1.1717
 2035SOL     OW17563   3.625   0.795   5.233 -0.6575  0.2180  0.0391
 2035SOL    HW117564   3.701   0.805   5.290  0.6612 -0.6357 -1.5841
 2035SOL    HW217565   3.576   0.876   5.245 -2.0300 -0.4191 -1.2919
 2036SOL     OW17566   2.315   1.309  17.268  0.3482 -0.4552 -0.8022
 2036SOL    HW117567   2.324   1.359  17.186  0.0363  1.8558  0.5567
 2036SOL    HW217568   2.313   1.220  17.235  0.7817 -0.8680  0.2991
 2037SOL     OW17569   3.170   2.275  17.107 -0.0094  0.0572 -0.1044
 2037SOL    HW117570   3.252   2.316  17.080  0.2897  0.4653  1.3933
 2037SOL    HW217571   3.144   2.325  17.184  0.8311  0.0408  0.1908
 2038SOL     OW17572   0.643   2.973   6.939 -0.6142  0.5959 -0.8485
 2038SOL    HW117573   0.615   3.009   6.855  1.1902 -0.4079 -1.8945
 2038SOL    HW217574   0.653   2.879   6.921 -0.4512  0.4908 -0.1962
 2039SOL     OW17575   0.433   2.063  11.040  0.0358 -0.0711  0.6320
 2039SOL    HW117576   0.432   1.996  11.109  1.3544 -0.2412  0.4731
 2039SOL    HW217577   0.347   2.102  11.057 -0.5100 -0.4671 -1.2443
 2040SOL     OW17578   3.053   0.657  11.288  0.0432  0.2535 -0.4338
 2040SOL    HW117579   3.001   0.730  11.253 -1.2810  0.3077  1.6973
 2040SOL    HW217580   2.987   0.606  11.334  0.3762 -0.0651 -0.3157
 2041SOL     OW17581   4.392   2.901   5.186  0.0866 -0.5056  0.1222
 2041SOL    HW117582   4.439   2.823   5.215  0.9018  0.0971  0.4475
 2041SOL    HW217583   4.411   2.977   5.242 -0.0768  0.0441 -0.5711
 2042SOL     OW17584   2.948   1.634   4.989 -0.0045 -0.0133 -0.4743
 2042SOL    HW117585   2.929   1.655   5.081  3.0225 -1.3323  0.4527
 2042SOL    HW217586   2.934   1.719   4.948  0.8664  1.2852  1.9148
 2043SOL     OW17587   1.968   1.298   7.424 -0.2986 -0.2576 -0.2272
 2043SOL    HW117588   1.939   1.214   7.387  0.8918 -0.9686  0.4474
 2043SOL    HW217589   2.029   1.324   7.355 -0.1671 -1.3730 -0.5320
 2044SOL     OW17590   0.587   0.185  16.463 -0.6199 -0.2253  0.3549
 2044SOL    HW117591   0.613   0.151  16.378  0.4612  1.1650  0.1290
 2044SOL    HW217592   0.546   0.270  16.448 -0.7334 -0.1724  0.9422
 2045SOL     OW17593   1.675   0.482   7.903 -0.4261 -0.0290  0.3141
 2045SOL    HW117594   1.747   0.434   7.942 -1.9618 -2.3384  0.2931
 2045SOL    HW217595   1.647   0.413   7.842 -0.1766 -0.7650  1.0447
 2046SOL     OW17596   2.853   3.731   4.820  0.0532 -0.7374 -0.1697
 2046SOL    HW117597   2.841   3.761   4.910 -0.8556 -2.1214  0.1698
 2046SOL    HW217598   2.760   3.709   4.815 -0.2427  0.3438  0.4021
 2047SOL     OW17599   2.137   0.133   0.405  0.2673 -0.2356  0.3997
 2047SOL    HW117600   2.169   0.197   0.468  0.7998 -1.0444  0.9535
 2047SOL    HW217601   2.218   0.089   0.379 -0.3646  0.5798 -2.8778
 2048SOL     OW17602   2.394   2.948  11.681  0.3705  0.2726 -0.0989
 2048SOL    HW117603   2.433   2.866  11.713 -0.1151 -0.0413 -0.3077
 2048SOL    HW217604   2.335   2.971  11.753 -1.7502 -0.8708 -1.4606
 2049SOL     OW17605   0.529   1.996   7.194  0.3236 -0.1918  0.5360
 2049SOL    HW117606   0.513   2.022   7.285 -2.1913 -0.4445  0.1754
 2049SOL    HW217607   0.457   2.038   7.148  0.6702  1.1387  1.2057
 2050SOL     OW17608   4.260   3.857   5.338 -0.0582 -0.4669  0.3732
 2050SOL    HW117609   4.261   3.898   5.425  2.2090 -0.7406  0.4693
 2050SOL    HW217610   4.245   3.935   5.285 -1.9533 -1.9719 -1.2819
 2051SOL     OW17611   0.354   3.810   1.908  0.0062  0.2127  0.8882
 2051SOL    HW117612   0.411   3.867   1.855 -0.6561  0.9070  0.9101
 2051SOL    HW217613   0.278   3.794   1.851  0.3772 -0.0895  0.4791
 2052SOL     OW17614   1.027   2.392   5.201 -0.3092 -0.2042  0.4250
 2052SOL    HW117615   0.994   2.438   5.278 -3.1794  0.4493 -1.2065
 2052SOL    HW217616   1.034   2.300   5.226  0.3903  0.2222  1.7754
 2053SOL     OW17617   1.498   2.468   4.719  0.1071 -0.1707  0.9183
 2053SOL    HW117618   1.471   2.383   4.684 -0.3408 -0.4514  1.9294
 2053SOL    HW217619   1.549   2.443   4.796  1.1790  0.4453  0.3896
 2054SOL     OW17620   2.546   4.714  16.424 -0.3692 -0.3672 -0.3312
 2054SOL    HW117621   2.561   0.081  16.448  0.0258 -0.0783 -1.7172
 2054SOL    HW217622   2.493   0.005  16.346 -0.9060 -3.2548 -0.5497
 2055SOL     OW17623   2.781   1.240  12.923 -0.0957  0.4802 -0.3758
 2055SOL    HW117624   2.764   1.288  13.004 -1.7774 -1.2203  0.2839
 2055SOL    HW217625   2.861   1.193  12.947 -0.6107  0.2976  0.9888
 2056SOL     OW17626   2.058   2.330  14.000  0.2889 -0.3982  0.2122
 2056SOL    HW117627   2.089   2.406  13.952 -1.4516  0.6020  0.6666
 2056SOL    HW217628   2.124   2.309  14.066  0.3437 -3.4377 -0.8072
 2057SOL     OW17629   3.577   0.511   2.990 -0.3994 -0.0138  0.2591
 2057SOL    HW117630   3.508   0.455   2.955  1.0625 -2.9346  2.0508
 2057SOL    HW217631   3.586   0.586   2.932 -2.5994  0.4926  0.5624
 2058SOL     OW17632   4.313   2.962   7.633  0.4158  0.5355  0.0180
 2058SOL    HW117633   4.268   2.890   7.679  0.1844 -0.5419 -1.9017
 2058SOL    HW217634   4.384   2.973   7.696 -0.0341  1.4166  0.3620
 2059SOL     OW17635   4.524   3.785   6.745  0.0882 -0.0573 -0.1204
 2059SOL    HW117636   4.611   3.751   6.767 -0.4371 -2.1275 -1.2729
 2059SOL    HW217637   4.525   3.855   6.811  1.5523  0.9506 -1.2103
 2060SOL     OW17638   3.245   4.263   9.757 -0.3834 -0.2274  0.0559
 2060SOL    HW117639   3.218   4.324   9.688  1.3252  0.4228 -0.0474
 2060SOL    HW217640   3.340   4.270   9.742 -0.3843  1.4980  0.9328
 2061SOL     OW17641   3.376   3.453   2.934 -0.7451 -0.7582  0.6363
 2061SOL    HW117642   3.335   3.501   3.006  1.5484  0.8736  0.8592
 2061SOL    HW217643   3.427   3.388   2.982  2.1079  0.2192 -1.0399
 2062SOL     OW17644   4.582   4.018   0.398  0.7367  0.5483 -0.1505
 2062SOL    HW117645   4.674   4.039   0.415  0.8798 -2.4833  2.7345
 2062SOL    HW217646   4.542   4.104   0.383  0.8411  0.6821  0.3441
 2063SOL     OW17647   3.415   0.763  11.952  0.2204  0.1523 -0.4794
 2063SOL    HW117648   3.443   0.674  11.930  1.0430  0.4964 -0.7966
 2063SOL    HW217649   3.477   0.829  11.922  0.7421  0.4137  1.2250
 2064SOL     OW17650   4.076   3.410   4.005  0.5734 -0.6724  0.2681
 2064SOL    HW117651   4.066   3.503   3.982 -2.7471 -1.4496 -1.4622
 2064SOL    HW217652   4.014   3.404   4.077  0.0816 -1.3431 -0.2123
 2065SOL     OW17653   0.494   4.117   8.089  0.1087  0.1971  0.3681
 2065SOL    HW117654   0.460   4.047   8.144  3.8189 -0.2018  2.1105
 2065SOL    HW217655   0.450   4.086   8.009  0.7072 -0.0339  0.1335
 2066SOL     OW17656   0.440   2.194  14.164  0.3861  0.0618  0.0134
 2066SOL    HW117657   0.405   2.113  14.127  1.1631  0.3658 -1.3843
 2066SOL    HW217658   0.522   2.201  14.116 -0.3352 -0.1945 -1.2619
 2067SOL     OW17659   3.539   0.224   0.221 -0.4135 -0.5556 -0.3875
 2067SOL    HW117660   3.529   0.299   0.278  2.5375  0.3312 -1.0260
 2067SOL    HW217661   3.452   0.186   0.212 -1.7249  2.3115  0.5973
 2068SOL     OW17662   4.688   1.686   3.121  0.2578  0.3320  0.2031
 2068SOL    HW117663   4.676   1.632   3.043  3.2882 -1.9043  1.3129
 2068SOL    HW217664   0.055   1.712   3.107  0.4369  0.0507  0.8530
 2069SOL     OW17665   3.289   3.835   7.557  0.1524 -0.4834  0.1732
 2069SOL    HW117666   3.224   3.873   7.616 -0.4113  0.7702 -1.2507
 2069SOL    HW217667   3.359   3.900   7.569  1.0738 -1.5808  0.7013
 2070SOL     OW17668   2.502   1.911   2.813  0.3437 -0.2601 -0.0004
 2070SOL    HW117669   2.590   1.887   2.783  0.9109  1.4980  0.2771
 2070SOL    HW217670   2.463   1.915   2.725  2.0591  0.1830 -0.7352
 2071SOL     OW17671   1.462   2.941   9.231 -0.2201  0.5452  0.3078
 2071SOL    HW117672   1.398   2.895   9.286  0.0532  1.2700  1.2248
 2071SOL    HW217673   1.432   3.031   9.242 -0.2046  0.6404 -0.4755
 2072SOL     OW17674   4.093   1.887   1.446 -0.3391 -0.1407  0.0392
 2072SOL    HW117675   4.149   1.826   1.494  0.9077 -0.4017 -1.7542
 2072SOL    HW217676   4.003   1.865   1.470  0.2177 -2.2670  0.1310
 2073SOL     OW17677   1.435   2.389   6.731 -0.3458  0.0512 -0.1133
 2073SOL    HW117678   1.442   2.414   6.823 -0.1515  2.1096 -0.6842
 2073SOL    HW217679   1.419   2.472   6.686  1.5376  1.3928  1.7055
 2074SOL     OW17680   0.841   1.417  10.486  0.1323  0.0458  0.4166
 2074SOL    HW117681   0.827   1.365  10.565  1.1319  1.1840  1.3628
 2074SOL    HW217682   0.902   1.483  10.520  0.7365 -1.2577  1.8373
 2075SOL     OW17683   0.542   3.774   5.499 -0.0030 -0.3309  0.1919
 2075SOL    HW117684   0.595   3.758   5.420 -0.2010  1.4911 -0.3048
 2075SOL    HW217685   0.577   3.854   5.537  0.6970  0.4127 -2.0227
 2076SOL     OW17686   3.156   3.171  10.609 -0.1470  0.3265 -0.2123
 2076SOL    HW117687   3.070   3.212  10.602  0.3010  1.0974 -1.1896
 2076SOL    HW217688   3.142   3.083  10.645  1.6116  0.7169  1.4263
 2077SOL     OW17689   0.507   3.242   3.186  0.6260  0.6134  0.2125
 2077SOL    HW117690   0.461   3.324   3.205 -2.3266 -0.9366 -0.1395
 2077SOL    HW217691   0.455   3.179   3.236  1.7269  0.7324  1.5057
 2078SOL     OW17692   1.875   4.171   4.736 -0.1698  0.0087 -0.8458
 2078SOL    HW117693   1.939   4.204   4.799 -0.6064  0.9450 -0.8988
 2078SOL    HW217694   1.920   4.177   4.652  1.9062 -0.0043  0.2714
 2079SOL     OW17695   2.143   3.066   5.657 -0.0949 -0.1689  1.0410
 2079SOL    HW117696   2.134   3.093   5.565  0.7470  0.5039  1.1546
 2079SOL    HW217697   2.092   3.138   5.695  1.8184  1.7046  0.1028
 2080SOL     OW17698   4.277   4.669   6.104 -0.3769 -0.1673  0.4935
 2080SOL    HW117699   4.225   4.676   6.023 -1.3646  0.0582  1.1456
 2080SOL    HW217700   4.348   0.007   6.090  0.9888 -2.3630 -2.2878
 2081SOL     OW17701   0.682   2.764   3.830 -0.0855  0.2672 -0.2953
 2081SOL    HW117702   0.613   2.701   3.812  0.7697 -1.2822  1.9130
 2081SOL    HW217703   0.647   2.848   3.800 -2.0299 -0.1109  0.8795
 2082SOL     OW17704   2.163   3.048  13.605  0.2312  0.0709 -0.0122
 2082SOL    HW117705   2.204   3.114  13.549 -0.5955 -0.1789 -0.9134
 2082SOL    HW217706   2.210   2.966  13.591  1.2466  0.4455  1.2127
 2083SOL     OW17707   1.470   4.070   1.896  0.8751  0.1327  0.6671
 2083SOL    HW117708   1.546   4.128   1.900 -0.3830  1.8765 -0.6941
 2083SOL    HW217709   1.468   4.066   1.800 -0.5679  0.9082  0.6614
 2084SOL     OW17710   3.947   2.327   4.032  0.1805 -0.7379 -0.2601
 2084SOL    HW117711   3.853   2.347   4.036 -0.2670 -2.9417  0.3402
 2084SOL    HW217712   3.939   2.233   4.046 -0.1733 -0.2090  3.0266
 2085SOL     OW17713   2.890   0.755   2.447 -0.1245 -0.2780 -0.4619
 2085SOL    HW117714   2.893   0.661   2.433 -0.0745 -0.3454  0.0134
 2085SOL    HW217715   2.859   0.796   2.366  0.5730 -0.4021 -0.7898
 2086SOL     OW17716   0.556   2.000   6.874 -0.0967 -0.3134  0.2360
 2086SOL    HW117717   0.574   1.973   6.964  0.8532  1.6280  0.6366
 2086SOL    HW217718   0.519   2.088   6.887  0.6759 -0.0492  0.6429
 2087SOL     OW17719   1.446   3.476   9.182 -0.2472  0.0029 -0.1330
 2087SOL    HW117720   1.499   3.461   9.260  1.3039 -1.3184 -1.4434
 2087SOL    HW217721   1.504   3.507   9.112 -0.3141 -2.2774 -1.1892
 2088SOL     OW17722   1.522   2.530   5.235  0.3560  0.5233 -0.3144
 2088SOL    HW117723   1.481   2.521   5.322  1.3117 -3.6388 -0.2627
 2088SOL    HW217724   1.459   2.589   5.195 -1.2705 -0.9489  0.0513
 2089SOL     OW17725   0.226   2.885   2.039  0.3733 -0.0729  0.0270
 2089SOL    HW117726   0.286   2.908   2.110  0.9015  0.2830 -0.5340
 2089SOL    HW217727   0.236   2.973   2.002  2.0785 -1.4819 -2.8279
 2090SOL     OW17728   2.372   3.517   4.502  0.4961 -0.2617  0.1776
 2090SOL    HW117729   2.361   3.572   4.580 -0.1764 -0.1920  0.0329
 2090SOL    HW217730   2.293   3.517   4.447  1.7238  1.8064 -1.5947
 2091SOL     OW17731   3.036   3.263   7.372  0.3949  0.9667  0.1921
 2091SOL    HW117732   3.100   3.251   7.302  1.4112  2.5127  0.8333
 2091SOL    HW217733   2.966   3.202   7.350  1.3796  0.0023 -0.2510
 2092SOL     OW17734   0.983   1.291  14.075  0.3847 -0.3417  0.0427
 2092SOL    HW117735   0.954   1.382  14.067 -0.4229 -0.6697 -0.6850
 2092SOL    HW217736   0.944   1.264  14.158  0.0521 -0.8972 -0.2995
 2093SOL     OW17737   2.986   3.879  14.411 -0.0332  0.0359 -0.0308
 2093SOL    HW117738   3.009   3.819  14.341 -1.4722 -2.1038  1.3444
 2093SOL    HW217739   2.900   3.845  14.437  0.1456 -1.3724 -1.3503
 2094SOL     OW17740   2.019   3.159   8.563  0.0493  0.5132 -0.0961
 2094SOL    HW117741   2.014   3.120   8.475  1.5905 -3.0764  1.3724
 2094SOL    HW217742   2.103   3.123   8.593  0.2593 -0.3070 -1.6255
 2095SOL     OW17743   3.500   3.986   0.647 -0.2321  0.0152  0.3950
 2095SOL    HW117744   3.433   4.000   0.713  0.4179 -1.4673  1.3805
 2095SOL    HW217745   3.574   3.958   0.701  0.3536  0.2860 -0.2624
 2096SOL     OW17746   0.834   4.502   5.965 -0.0507  0.0935  0.0830
 2096SOL    HW117747   0.879   4.515   5.881  0.6200  0.4712  0.5020
 2096SOL    HW217748   0.898   4.443   6.005 -2.0288 -0.5653  2.2559
 2097SOL     OW17749   3.460   4.716  15.346  0.4787 -0.1705 -0.7596
 2097SOL    HW117750   3.431   4.671  15.267 -2.0375  2.5077 -1.3663
 2097SOL    HW217751   3.418   0.075  15.326 -0.6001 -0.4080  0.5143
 2098SOL     OW17752   0.412   1.624  14.139  0.0686  0.1564  0.1737
 2098SOL    HW117753   0.323   1.607  14.168 -0.2201  0.6508 -0.4309
 2098SOL    HW217754   0.431   1.538  14.099 -2.5990 -0.0868 -0.5254
 2099SOL     OW17755   0.485   1.855   4.502  0.0089 -0.1443 -0.0763
 2099SOL    HW117756   0.498   1.915   4.429  2.0070 -1.4904 -0.8403
 2099SOL    HW217757   0.561   1.796   4.500 -0.0036 -0.1663  0.0509
 2100SOL     OW17758   1.954   2.812   3.573  0.0422 -0.7112  0.1210
 2100SOL    HW117759   2.049   2.814   3.586  0.0379 -2.7543  0.3617
 2100SOL    HW217760   1.938   2.722   3.546 -2.2487  0.4767 -2.4918
 2101SOL     OW17761   2.745   3.826   9.296 -0.3586  0.0653 -0.1556
 2101SOL    HW117762   2.658   3.865   9.307 -0.6386 -0.6296  0.0381
 2101SOL    HW217763   2.728   3.789   9.210 -0.0709 -0.6260  0.0843
 2102SOL     OW17764   3.237   2.172   5.810  0.3257  0.0506  0.2524
 2102SOL    HW117765   3.236   2.081   5.836 -0.2621 -0.0851 -0.2318
 2102SOL    HW217766   3.323   2.183   5.769  0.8619 -2.6896  0.6799
 2103SOL     OW17767   2.024   0.396   9.488  0.3872 -0.3664 -0.2293
 2103SOL    HW117768   1.962   0.467   9.506  1.8886  0.8008  0.3194
 2103SOL    HW217769   2.104   0.438   9.519  0.8703 -1.6726  0.2918
 2104SOL     OW17770   0.299   1.010  16.408  0.6248  0.0285 -0.2499
 2104SOL    HW117771   0.370   0.953  16.378  0.7089 -0.3674  0.6865
 2104SOL    HW217772   0.351   1.074  16.456 -0.6326  0.3246  0.7221
 2105SOL     OW17773   1.910   1.180   7.923 -0.2589  0.0828 -0.4270
 2105SOL    HW117774   1.980   1.115   7.922  0.6999  1.1367 -0.7716
 2105SOL    HW217775   1.942   1.243   7.988 -0.2586  2.2326 -2.5336
 2106SOL     OW17776   2.461   1.001   3.648 -0.6479  0.0742  0.5478
 2106SOL    HW117777   2.540   1.015   3.701 -0.1077  2.0477 -0.7475
 2106SOL    HW217778   2.422   1.088   3.644  0.2131  0.4691  0.6354
 2107SOL     OW17779   1.396   3.892  13.503  0.0490  0.3302  0.0848
 2107SOL    HW117780   1.384   3.986  13.491 -0.3743  0.1351 -1.0298
 2107SOL    HW217781   1.387   3.870  13.410  1.7470  0.6858 -0.1591
 2108SOL     OW17782   3.589   1.022  11.966  0.0574 -0.1133 -0.0626
 2108SOL    HW117783   3.577   1.117  11.969 -0.9646 -0.2354 -0.5570
 2108SOL    HW217784   3.682   1.014  11.986  0.4372  1.6897 -1.0460
 2109SOL     OW17785   3.932   2.916  11.593  0.0826  0.0921 -0.3158
 2109SOL    HW117786   3.982   2.846  11.551  0.2549 -0.0698  0.1629
 2109SOL    HW217787   3.915   2.976  11.520 -3.6334  0.0373  0.5124
 2110SOL     OW17788   2.810   4.156   6.982  0.2518 -0.0060  0.5167
 2110SOL    HW117789   2.742   4.192   7.038  1.5258  0.7180  1.6131
 2110SOL    HW217790   2.877   4.148   7.050 -0.2100  0.0614  0.9734
 2111SOL     OW17791   0.725   0.543   8.612  0.0580  0.5303  0.4235
 2111SOL    HW117792   0.694   0.523   8.701  0.2023 -1.8440 -0.0640
 2111SOL    HW217793   0.806   0.589   8.631 -0.1240  0.4715  1.3510
 2112SOL     OW17794   0.221   3.396   6.746 -0.2893  0.5663  0.2570
 2112SOL    HW117795   0.300   3.370   6.698 -0.9336 -0.2762 -0.3484
 2112SOL    HW217796   0.256   3.406   6.834 -0.3410 -0.4951  0.3950
 2113SOL     OW17797   1.473   1.262   4.743 -0.7324 -0.5628 -0.2177
 2113SOL    HW117798   1.413   1.290   4.812 -1.0678  0.3584 -0.8940
 2113SOL    HW217799   1.453   1.168   4.752 -1.6608 -0.3580 -0.1539
 2114SOL     OW17800   3.270   0.009   3.524 -0.0447 -0.3636  0.2942
 2114SOL    HW117801   3.207   0.022   3.594 -1.5566  2.7755 -1.6632
 2114SOL    HW217802   3.332   4.694   3.584 -0.6201 -1.0993  0.3963
 2115SOL     OW17803   0.065   2.415   5.990  0.0976 -0.2074 -0.5703
 2115SOL    HW117804   4.704   2.399   5.950 -0.5651 -3.6911  2.3194
 2115SOL    HW217805   0.051   2.352   6.061  0.5970  1.0311  0.6295
 2116SOL     OW17806   1.783   0.643   0.722 -0.2256 -0.4497  0.0263
 2116SOL    HW117807   1.710   0.665   0.665 -0.7764 -0.2704  0.8080
 2116SOL    HW217808   1.737   0.617   0.802 -0.1738 -0.4023  0.0712
 2117SOL     OW17809   0.099   4.551  15.323 -0.1916  0.6975 -0.3665
 2117SOL    HW117810   0.170   4.509  15.371 -1.9155 -1.2410  0.4782
 2117SOL    HW217811   0.138   4.544  15.236 -0.3688 -1.0355 -0.2994
 2118SOL     OW17812   2.644   0.744   8.691  0.1568  0.0528 -0.5625
 2118SOL    HW117813   2.564   0.775   8.733 -0.1556  0.0628 -1.1671
 2118SOL    HW217814   2.678   0.820   8.643 -2.3348  1.0590 -0.7634
 2119SOL     OW17815   2.041   3.274   7.567  0.1077  0.6478 -0.4958
 2119SOL    HW117816   1.950   3.253   7.549  0.3460  0.7139 -1.7862
 2119SOL    HW217817   2.063   3.199   7.622 -0.9286 -0.1373 -1.1704
 2120SOL     OW17818   0.203   2.145   2.753  0.2083 -0.4121 -0.1249
 2120SOL    HW117819   0.270   2.174   2.813  0.2659 -0.9589  0.0804
 2120SOL    HW217820   0.238   2.058   2.734  3.4077  0.8773  0.0163
 2121SOL     OW17821   0.137   3.922   7.934 -0.1724 -0.3448  0.3789
 2121SOL    HW117822   0.223   3.961   7.947 -0.2808 -0.6402  1.9963
 2121SOL    HW217823   0.126   3.873   8.016  1.4570 -1.1671  0.1102
 2122SOL     OW17824   0.393   0.974   7.328  0.6649 -0.7888 -0.1127
 2122SOL    HW117825   0.365   0.916   7.257 -1.3851  0.8048 -0.5998
 2122SOL    HW217826   0.367   1.059   7.293 -1.9122 -0.6397  2.1663
 2123SOL     OW17827   3.236   0.303  15.157 -0.1062 -0.3125 -0.4245
 2123SOL    HW117828   3.157   0.324  15.108  0.3736  1.7295 -0.3591
 2123SOL    HW217829   3.292   0.382  15.154  0.9064 -0.9234  2.1016
 2124SOL     OW17830   2.212   4.196   7.457 -0.3228 -0.2427 -0.4454
 2124SOL    HW117831   2.274   4.131   7.489 -3.7121 -2.9561  0.5751
 2124SOL    HW217832   2.236   4.199   7.364 -0.9517 -1.5874 -0.6509
 2125SOL     OW17833   1.309   2.717   5.084  0.3973  0.2920  0.7192
 2125SOL    HW117834   1.238   2.724   5.147 -1.0575  1.8282 -1.0758
 2125SOL    HW217835   1.260   2.729   5.003 -1.3752 -1.5945  1.5347
 2126SOL     OW17836   3.585   4.032   8.830  0.1088 -0.8733 -0.0351
 2126SOL    HW117837   3.676   4.027   8.860 -0.2723 -3.6531  0.6537
 2126SOL    HW217838   3.581   3.980   8.749  1.0670 -0.3964 -0.3857
 2127SOL     OW17839   2.156   2.967   9.693  0.0590  0.3035  1.0367
 2127SOL    HW117840   2.214   2.891   9.702  0.4259  0.2659 -1.5351
 2127SOL    HW217841   2.214   3.020   9.748  1.2629  0.6654 -0.5393
 2128SOL     OW17842   0.144   3.204   8.000 -0.3281 -0.1840  0.5509
 2128SOL    HW117843   0.206   3.142   7.962 -2.1645 -1.6556 -0.0492
 2128SOL    HW217844   0.080   3.152   8.049  0.4864  1.8126  3.6937
 2129SOL     OW17845   1.408   3.432   3.461 -0.1727 -0.6401 -0.2168
 2129SOL    HW117846   1.393   3.434   3.556 -1.4797  0.8178 -0.4724
 2129SOL    HW217847   1.365   3.511   3.431  2.1144  0.1053 -1.5115
 2130SOL     OW17848   2.860   0.225  16.435  0.4403 -0.4557  0.5075
 2130SOL    HW117849   2.879   0.275  16.514 -1.5599  1.0565  0.0296
 2130SOL    HW217850   2.765   0.236  16.439  0.5669  0.1310  1.6693
 2131SOL     OW17851   1.590   0.814   5.927 -0.4457  0.7132  0.1695
 2131SOL    HW117852   1.641   0.806   5.847 -1.0725 -0.8506 -0.0717
 2131SOL    HW217853   1.557   0.725   5.941  0.8803  0.0051 -1.2883
 2132SOL     OW17854   2.664   4.537  17.641 -0.1936  1.0356  0.4227
 2132SOL    HW117855   2.736   4.570  17.696  0.7854 -2.1690  1.0659
 2132SOL    HW217856   2.680   4.560  17.550 -1.0660  1.5922  0.4122
 2133SOL     OW17857   3.778   0.655   2.381  0.0236 -0.2117  0.0887
 2133SOL    HW117858   3.862   0.650   2.426  0.5657 -1.2857 -1.0549
 2133SOL    HW217859   3.794   0.611   2.298  2.2112  1.3519 -0.3159
 2134SOL     OW17860   2.613   4.266   7.979 -0.4459  1.0049 -0.4906
 2134SOL    HW117861   2.520   4.280   7.961 -0.5624 -0.0633 -0.7356
 2134SOL    HW217862   2.614   4.283   8.073 -0.0457  0.2798 -0.3633
 2135SOL     OW17863   4.342   0.460   8.031 -0.2967  0.3703 -0.1731
 2135SOL    HW117864   4.287   0.382   8.036 -0.6117  0.5309 -1.1694
 2135SOL    HW217865   4.341   0.468   7.936  0.6438  1.3605 -0.0959
 2136SOL     OW17866   1.962   3.919   9.521  0.0841  0.6933  0.4246
 2136SOL    HW117867   1.907   3.919   9.442  2.2734 -0.5432 -1.0837
 2136SOL    HW217868   1.895   3.904   9.588 -2.6337  3.0051 -1.8027
 2137SOL     OW17869   4.122   3.042   6.400  0.2396 -0.3171 -0.3898
 2137SOL    HW117870   4.043   2.990   6.386 -0.6926  0.5419  1.6460
 2137SOL    HW217871   4.089   3.091   6.475 -2.2115 -2.4543 -0.1046
 2138SOL     OW17872   0.932   3.323   9.289  0.3628 -0.0377 -0.2399
 2138SOL    HW117873   0.971   3.300   9.374  1.3870 -0.8836 -0.9439
 2138SOL    HW217874   0.887   3.240   9.270  1.0103 -0.0623 -1.6795
 2139SOL     OW17875   2.162   4.527   3.358  0.3458 -0.4941 -0.2559
 2139SOL    HW117876   2.069   4.525   3.337 -0.0200 -0.7912  1.4001
 2139SOL    HW217877   2.199   4.576   3.284 -1.5067  2.8144  1.0651
 2140SOL     OW17878   1.486   1.065  11.261 -0.1700 -0.2578  0.0862
 2140SOL    HW117879   1.394   1.045  11.272  0.3097 -2.7195 -0.4630
 2140SOL    HW217880   1.502   1.158  11.276  0.9289 -0.3192 -0.7230
 2141SOL     OW17881   0.345   3.020   6.587  0.2667  0.3869  0.2338
 2141SOL    HW117882   0.251   3.001   6.594 -0.7134  4.4297 -2.3399
 2141SOL    HW217883   0.345   3.066   6.503  1.1303 -1.1441 -0.6188
 2142SOL     OW17884   3.685   3.049   6.520  0.0441  0.2341 -0.7743
 2142SOL    HW117885   3.726   3.070   6.604  1.1439  1.7887 -1.7043
 2142SOL    HW217886   3.610   3.109   6.516  0.7688  1.2956  1.4647
 2143SOL     OW17887   2.918   0.394   6.778 -0.2706 -0.6573 -0.1492
 2143SOL    HW117888   2.891   0.303   6.774 -2.4798  0.0692 -1.7056
 2143SOL    HW217889   2.935   0.408   6.871 -1.9699 -1.9164  0.3427
 2144SOL     OW17890   3.739   2.194  15.455  0.5066 -0.1845 -0.3405
 2144SOL    HW117891   3.725   2.271  15.400  0.4054  0.8543  1.1340
 2144SOL    HW217892   3.835   2.189  15.455  0.4202 -1.8088  0.3022
 2145SOL     OW17893   2.093   4.083   2.980 -0.5826  0.7032 -0.3467
 2145SOL    HW117894   2.158   4.114   3.044  0.8406 -2.4283 -0.2555
 2145SOL    HW217895   2.115   4.140   2.906 -0.6381 -1.7946 -2.3114
 2146SOL     OW17896   1.380   2.588  12.892 -0.1465  0.2351 -0.5804
 2146SOL    HW117897   1.430   2.530  12.834 -1.9075  0.0920 -1.9757
 2146SOL    HW217898   1.420   2.581  12.978 -2.6951 -2.5914  0.3970
 2147SOL     OW17899   1.704   2.504   4.146 -0.0681 -0.3736  0.0846
 2147SOL    HW117900   1.613   2.536   4.142 -0.0958 -0.3666  0.7090
 2147SOL    HW217901   1.737   2.550   4.223 -2.0828 -1.1228  1.4076
 2148SOL     OW17902   2.667   0.695  11.118 -0.1642  0.4733  0.1495
 2148SOL    HW117903   2.664   0.602  11.096 -1.2727  0.5369  0.0162
 2148SOL    HW217904   2.584   0.736  11.092  1.7285  3.0910 -1.8234
 2149SOL     OW17905   1.223   4.524  13.059 -0.5006  0.6258 -1.0358
 2149SOL    HW117906   1.267   4.586  13.000 -0.1005  0.1997 -1.1797
 2149SOL    HW217907   1.220   4.573  13.142  0.6923 -1.1109  0.0358
 2150SOL     OW17908   3.961   0.261   5.138 -0.1256 -0.1550  0.3908
 2150SOL    HW117909   3.894   0.207   5.095  0.9275  0.5615 -2.1392
 2150SOL    HW217910   3.963   0.337   5.080 -1.5262 -0.1461  0.3424
 2151SOL     OW17911   3.224   3.380   5.324  0.4996 -0.2966  0.6405
 2151SOL    HW117912   3.208   3.458   5.376  0.1004  1.8018 -2.6575
 2151SOL    HW217913   3.177   3.401   5.243 -0.5834 -0.3582  1.2669
 2152SOL     OW17914   2.895   1.844   1.928 -0.9464 -0.1702  0.2210
 2152SOL    HW117915   2.910   1.815   1.838  0.5110 -2.3593  1.1537
 2152SOL    HW217916   2.962   1.912   1.932 -1.9615  0.9164 -1.2721
 2153SOL     OW17917   3.597   3.057   7.890 -0.3753 -0.1309 -0.5645
 2153SOL    HW117918   3.660   2.987   7.871 -1.6494 -1.4971  0.2326
 2153SOL    HW217919   3.628   3.122   7.827  1.0475 -1.4315 -1.2314
 2154SOL     OW17920   3.642   2.990   3.667 -0.7896 -0.3236 -0.0500
 2154SOL    HW117921   3.671   3.001   3.577 -2.6222 -1.4804 -0.7713
 2154SOL    HW217922   3.619   3.081   3.689  0.6238 -0.1209  0.6073
 2155SOL     OW17923   4.052   2.501   8.090 -0.3984 -0.6870  0.3502
 2155SOL    HW117924   3.965   2.494   8.051  0.2424 -0.4469 -1.0895
 2155SOL    HW217925   4.030   2.449   8.168 -0.6203  1.5035  1.7572
 2156SOL     OW17926   3.184   3.446   8.537  0.2750  0.4520  0.3885
 2156SOL    HW117927   3.178   3.487   8.623 -0.3674  2.5475 -0.6534
 2156SOL    HW217928   3.226   3.517   8.487 -0.5724  1.2230  0.7574
 2157SOL     OW17929   2.990   0.107  12.101  0.4802  0.1655  0.4683
 2157SOL    HW117930   2.920   0.156  12.058  0.7037  1.5589  1.6682
 2157SOL    HW217931   3.075   0.137  12.068 -0.8649  2.0291 -1.3365
 2158SOL     OW17932   3.665   1.353  11.640 -0.4714  0.5900  0.1994
 2158SOL    HW117933   3.710   1.304  11.708 -0.9720  0.5113  0.4788
 2158SOL    HW217934   3.573   1.333  11.661  0.2436 -2.1568  0.6605
 2159SOL     OW17935   2.618   4.483   4.218 -0.0831  0.3485 -0.7950
 2159SOL    HW117936   2.662   4.446   4.294 -0.4189  1.6231  0.0194
 2159SOL    HW217937   2.526   4.470   4.241  0.1695 -1.7927 -1.0204
 2160SOL     OW17938   0.669   0.188   4.497  0.4183 -0.2069  0.1309
 2160SOL    HW117939   0.701   0.151   4.415 -0.1613 -0.4493  0.0066
 2160SOL    HW217940   0.724   0.266   4.502 -0.2261  0.3589 -1.3931
 2161SOL     OW17941   1.025   1.446   2.156 -0.5903 -0.0079 -0.3752
 2161SOL    HW117942   1.074   1.502   2.096  2.2829  0.4500  2.4311
 2161SOL    HW217943   0.961   1.508   2.191  1.3094  0.9840  1.2794
 2162SOL     OW17944   3.998   0.632  11.934 -0.3911 -0.7019 -0.8451
 2162SOL    HW117945   4.090   0.612  11.952 -0.9074 -2.1820  0.1478
 2162SOL    HW217946   3.951   0.558  11.973 -0.5285 -0.2036 -0.0669
 2163SOL     OW17947   4.578   3.022  15.911 -0.0613 -0.2897 -0.2882
 2163SOL    HW117948   4.533   3.045  15.992 -1.5910 -1.6960 -0.7182
 2163SOL    HW217949   4.637   3.097  15.912 -1.3688  0.7421 -1.2266
 2164SOL     OW17950   0.688   1.870   9.300 -0.1826 -0.0907 -0.3906
 2164SOL    HW117951   0.606   1.897   9.341 -0.1188  1.4813 -1.3048
 2164SOL    HW217952   0.707   1.942   9.240 -1.1648  0.7466  0.3122
 2165SOL     OW17953   0.262   3.992   5.556  0.5227 -0.5125 -0.1766
 2165SOL    HW117954   0.270   3.897   5.545 -2.3420 -0.9630  1.7249
 2165SOL    HW217955   0.270   4.006   5.650 -0.9322  1.4104 -0.3311
 2166SOL     OW17956   0.891   0.289   8.116 -0.3637  0.0367  0.4780
 2166SOL    HW117957   0.817   0.234   8.092 -0.4474  0.6574 -0.6718
 2166SOL    HW217958   0.878   0.373   8.072  0.9066  0.7229  1.4324
 2167SOL     OW17959   3.165   1.261   7.286 -0.1030  0.4314  0.1501
 2167SOL    HW117960   3.134   1.338   7.240  0.1771 -0.7558 -2.0175
 2167SOL    HW217961   3.198   1.300   7.367 -1.4418 -0.0571  0.9419
 2168SOL     OW17962   0.089   0.011   9.901  0.4386 -0.1704  0.3946
 2168SOL    HW117963   0.141   4.660   9.873 -0.0257  0.0891 -1.1601
 2168SOL    HW217964   0.004   4.716   9.862  0.6648 -1.9290  0.7935
 2169SOL     OW17965   4.349   3.933   8.499  0.5988 -0.1773 -0.2384
 2169SOL    HW117966   4.388   3.858   8.454 -1.6634 -2.2079  1.1264
 2169SOL    HW217967   4.428   3.983   8.518  1.0743 -0.7857 -0.5987
 2170SOL     OW17968   1.156   1.607   3.567  0.0245  0.4186  0.5130
 2170SOL    HW117969   1.135   1.630   3.658 -0.7393  3.5496 -0.4417
 2170SOL    HW217970   1.123   1.687   3.526  2.1941  1.8676  1.6496
 2171SOL     OW17971   2.777   0.408   1.359  0.0477 -0.1844 -0.2109
 2171SOL    HW117972   2.827   0.329   1.379 -1.3760 -1.0124  0.1082
 2171SOL    HW217973   2.740   0.383   1.274 -1.9771  0.7356  0.3935
 2172SOL     OW17974   2.443   0.282   2.650  1.0831 -0.5817  0.3141
 2172SOL    HW117975   2.428   0.201   2.601  0.6126 -1.1634  1.4133
 2172SOL    HW217976   2.467   0.338   2.576 -0.5552  0.0720  0.2914
 2173SOL     OW17977   2.283   4.440   9.452 -0.2011 -0.4613 -0.2144
 2173SOL    HW117978   2.327   4.481   9.527  1.7356 -0.9151 -1.1056
 2173SOL    HW217979   2.205   4.416   9.501 -0.7139  1.0447 -0.2810
 2174SOL     OW17980   1.039   2.146   9.127 -0.0644  0.0308  0.3010
 2174SOL    HW117981   0.970   2.170   9.189  0.1817  0.0652  0.5620
 2174SOL    HW217982   1.090   2.079   9.173  1.4148  0.7648 -0.2593
 2175SOL     OW17983   4.408   3.415   1.624  0.2132 -0.2733  0.5240
 2175SOL    HW117984   4.358   3.476   1.678  0.8931  1.8136 -1.2088
 2175SOL    HW217985   4.390   3.335   1.673 -0.6173 -0.8142 -0.6662
 2176SOL     OW17986   2.033   1.654   6.880 -0.3946 -0.1932  0.3086
 2176SOL    HW117987   2.057   1.704   6.802 -0.2548 -3.4308 -1.7392
 2176SOL    HW217988   2.108   1.597   6.898 -0.8377 -0.5008  1.1405
 2177SOL     OW17989   2.563   1.276   7.356  0.4910  0.1883 -0.0494
 2177SOL    HW117990   2.518   1.344   7.408 -0.8608 -2.3611  2.1154
 2177SOL    HW217991   2.632   1.328   7.315  0.1834  0.7003  0.0687
 2178SOL     OW17992   0.481   1.169   3.828 -0.6221 -0.1569  0.0232
 2178SOL    HW117993   0.443   1.116   3.757  1.8770 -0.7132 -0.9204
 2178SOL    HW217994   0.562   1.118   3.839 -1.2868 -0.9132  1.3459
 2179SOL     OW17995   1.605   4.233   5.331  0.1130  0.0227 -0.0503
 2179SOL    HW117996   1.682   4.287   5.317  0.4663 -0.7457 -1.0417
 2179SOL    HW217997   1.628   4.204   5.419  1.9811  0.8848 -0.2624
 2180SOL     OW17998   3.362   0.646   4.605  0.0687 -0.4258 -0.1521
 2180SOL    HW117999   3.328   0.606   4.685 -0.4385 -0.4857 -0.3945
 2180SOL    HW218000   3.357   0.740   4.619 -0.7149 -0.6478  1.0514
 2181SOL     OW18001   1.448   3.630   4.890 -0.4539 -0.4069  0.0924
 2181SOL    HW118002   1.389   3.613   4.817 -0.7860 -0.6779  0.4150
 2181SOL    HW218003   1.536   3.634   4.854 -1.1243 -1.0781 -1.5909
 2182SOL     OW18004   2.373   0.246   3.400  0.4295  0.0651 -0.3105
 2182SOL    HW118005   2.367   0.339   3.378 -0.8001  0.2632  0.8217
 2182SOL    HW218006   2.282   0.221   3.381  0.6879  0.0657 -1.5187
 2183SOL     OW18007   2.820   0.068   8.470 -0.5800  0.2380 -0.2087
 2183SOL    HW118008   2.823   4.707   8.513  1.1023  0.4187  0.0252
 2183SOL    HW218009   2.786   0.041   8.385  1.0348 -2.4253  0.0043
 2184SOL     OW18010   0.126   3.043   8.647  0.0418 -0.0780 -0.6766
 2184SOL    HW118011   0.207   3.056   8.696  2.1509 -5.6209 -2.6817
 2184SOL    HW218012   0.071   3.090   8.710 -0.0368  0.4579 -1.1443
 2185SOL     OW18013   2.927   1.322  13.508  0.0450 -0.4233  0.3494
 2185SOL    HW118014   2.996   1.257  13.520  0.2421 -0.3090 -0.1541
 2185SOL    HW218015   2.856   1.302  13.569 -0.4797  0.1863 -0.0661
 2186SOL     OW18016   3.451   1.387  10.657 -0.4677 -0.3106 -0.3118
 2186SOL    HW118017   3.543   1.411  10.651 -1.0606  1.4937 -2.1997
 2186SOL    HW218018   3.457   1.303  10.703 -3.4054  0.8536  2.2176
 2187SOL     OW18019   1.503   2.072   2.465  0.3582  0.0992  0.1233
 2187SOL    HW118020   1.538   2.140   2.407 -0.3275  0.7846  0.5185
 2187SOL    HW218021   1.545   2.096   2.547  3.5760 -1.1088 -1.1737
 2188SOL     OW18022   2.201   2.127   2.488 -0.5233 -0.2153 -0.2831
 2188SOL    HW118023   2.159   2.173   2.561 -2.8671 -0.1656 -1.6567
 2188SOL    HW218024   2.244   2.199   2.443 -0.8845  1.2996  1.7834
 2189SOL     OW18025   3.459   2.568   3.044 -0.3009 -0.0637 -0.5990
 2189SOL    HW118026   3.552   2.586   3.036 -0.2788  0.9828  2.1105
 2189SOL    HW218027   3.433   2.598   2.957  1.4917 -0.9711 -1.4372
 2190SOL     OW18028   4.689   2.410   5.375 -0.0189  0.1580  0.6272
 2190SOL    HW118029   4.597   2.434   5.358 -0.3015 -0.6992  0.9322
 2190SOL    HW218030   0.004   2.496   5.364  1.7034 -0.6121  0.8312
 2191SOL     OW18031   2.866   3.501   7.673 -0.5579 -0.0093  0.2532
 2191SOL    HW118032   2.780   3.540   7.660 -0.8609 -0.3323  1.3439
 2191SOL    HW218033   2.861   3.475   7.765 -0.6453 -1.1494 -0.0662
 2192SOL     OW18034   2.820   3.041  10.499 -0.0688  0.2209  0.6234
 2192SOL    HW118035   2.731   3.074  10.510 -0.1507 -0.0739  0.8441
 2192SOL    HW218036   2.862   3.117  10.539  0.3319  0.7446 -0.7908
 2193SOL     OW18037   2.775   3.454   5.012 -0.0136  0.6583 -0.0863
 2193SOL    HW118038   2.703   3.441   5.074  0.7167 -2.0728  0.2192
 2193SOL    HW218039   2.762   3.390   4.943 -0.5216 -1.4940  1.9921
 2194SOL     OW18040   0.407   1.008   5.843 -0.2122  0.3819 -0.1496
 2194SOL    HW118041   0.398   0.999   5.938 -0.1407 -1.4343 -0.3157
 2194SOL    HW218042   0.337   1.070   5.821  0.8331  2.1692  1.5147
 2195SOL     OW18043   1.560   3.795   7.970 -0.3207  0.7697  0.3163
 2195SOL    HW118044   1.529   3.811   8.059  0.2395 -2.3772  1.0954
 2195SOL    HW218045   1.533   3.872   7.920 -0.8686 -0.8235 -1.8372
 2196SOL     OW18046   2.503   1.500   2.397 -0.2394 -0.0684  0.2177
 2196SOL    HW118047   2.515   1.591   2.370  1.9757 -0.7169 -0.9599
 2196SOL    HW218048   2.578   1.488   2.455 -1.1396  2.4868  1.9482
 2197SOL     OW18049   0.274   1.293   5.016 -0.3995 -0.2431 -0.1215
 2197SOL    HW118050   0.299   1.230   5.083  0.6563 -0.7121 -0.9590
 2197SOL    HW218051   0.279   1.246   4.932 -1.9423 -1.0641  0.2392
 2198SOL     OW18052   1.046   2.697  11.032  0.6250  0.0700 -0.0377
 2198SOL    HW118053   1.054   2.730  10.942 -1.7587  2.4426  0.6039
 2198SOL    HW218054   1.092   2.614  11.026 -1.9278 -1.0295 -3.9405
 2199SOL     OW18055   3.987   1.018  14.729 -0.5074  0.4993 -0.0235
 2199SOL    HW118056   3.916   0.963  14.762 -0.0857 -0.9819 -1.6003
 2199SOL    HW218057   4.061   0.993  14.784  0.3939  0.1874 -1.3722
 2200SOL     OW18058   1.006   3.367   0.700  0.1091  0.0167 -0.3086
 2200SOL    HW118059   1.045   3.400   0.619 -1.2440 -0.1556 -1.0197
 2200SOL    HW218060   0.914   3.373   0.676  0.5913 -0.2743 -2.2325
 2201SOL     OW18061   1.813   3.949   6.086 -0.0439  0.1537  0.1400
 2201SOL    HW118062   1.756   3.925   6.013 -1.7030  2.4881  0.6829
 2201SOL    HW218063   1.894   3.910   6.053  0.4920  1.4380 -0.0366
 2202SOL     OW18064   1.973   1.767   2.465 -0.5990  0.2552  0.1756
 2202SOL    HW118065   1.958   1.710   2.389 -3.3930  0.6815  0.3907
 2202SOL    HW218066   1.971   1.708   2.540 -3.0130 -0.5413 -0.5243
 2203SOL     OW18067   0.163   4.692   2.890 -0.2414  0.1943  0.2149
 2203SOL    HW118068   0.215   4.680   2.811 -0.3446  1.4903 -0.0546
 2203SOL    HW218069   0.224   0.027   2.935 -1.2820  0.5602  1.1533
 2204SOL     OW18070   4.368   1.634   1.453  0.0447 -0.2943 -0.0310
 2204SOL    HW118071   4.282   1.629   1.495 -0.4358  0.9627 -0.8644
 2204SOL    HW218072   4.392   1.721   1.485 -0.1413 -0.2476 -0.0212
 2205SOL     OW18073   2.284   2.987  10.962 -0.5726 -0.0514 -0.3326
 2205SOL    HW118074   2.310   2.983  11.055 -0.4222 -0.0939 -0.3765
 2205SOL    HW218075   2.247   3.075  10.969  0.9874  0.5582  0.3232
 2206SOL     OW18076   1.074   3.410   6.851 -0.0517 -0.5743  0.3510
 2206SOL    HW118077   1.118   3.371   6.775  2.1902 -0.9292  1.8627
 2206SOL    HW218078   1.133   3.383   6.921 -1.0043  0.4544  1.5487
 2207SOL     OW18079   2.888   0.766  12.501  0.1444 -0.3601  0.1228
 2207SOL    HW118080   2.838   0.706  12.556 -2.0800  0.5033 -0.9620
 2207SOL    HW218081   2.979   0.745  12.522 -0.5697 -0.3383  3.2280
 2208SOL     OW18082   4.254   1.759   3.984 -0.2348  0.5177 -0.0180
 2208SOL    HW118083   4.261   1.701   3.908  1.1697  2.6968 -1.5592
 2208SOL    HW218084   4.260   1.845   3.944  0.1635  1.3101  1.7221
 2209SOL     OW18085   0.288   2.864   8.459  0.2693  0.3337  0.2571
 2209SOL    HW118086   0.269   2.951   8.495  0.1204  0.3564  0.1230
 2209SOL    HW218087   0.329   2.881   8.375  1.2060  0.5784  0.7575
 2210SOL     OW18088   0.857   0.984   2.983 -0.2605  0.1799  0.7795
 2210SOL    HW118089   0.818   1.028   3.058 -1.1279 -0.2604  0.5845
 2210SOL    HW218090   0.807   1.022   2.911 -0.0915 -0.2691  0.4216
 2211SOL     OW18091   2.162   2.454   8.759  0.1904 -0.4261  0.2751
 2211SOL    HW118092   2.225   2.403   8.810  1.2977  0.6614 -0.0034
 2211SOL    HW218093   2.210   2.460   8.676 -0.4578 -0.2409 -0.0848
 2212SOL     OW18094   0.267   2.423   7.178 -0.5466  0.0234 -0.1139
 2212SOL    HW118095   0.225   2.493   7.227 -0.6788  0.9355 -1.5174
 2212SOL    HW218096   0.338   2.402   7.238  0.7546 -0.0484 -1.6724
 2213SOL     OW18097   0.472   0.537  11.869  0.1483  0.4503 -0.8375
 2213SOL    HW118098   0.432   0.592  11.936 -0.4833  0.5158 -1.2768
 2213SOL    HW218099   0.394   0.490  11.840  0.9345 -1.3616  0.0172
 2214SOL     OW18100   1.952   0.830   6.796  0.3171  0.0459  0.2777
 2214SOL    HW118101   1.890   0.881   6.744  1.1972 -0.2060 -1.0223
 2214SOL    HW218102   2.032   0.880   6.783 -1.0431  1.8161 -1.2920
 2215SOL     OW18103   0.060   1.103  12.243 -0.2827  0.0582  0.2306
 2215SOL    HW118104   0.133   1.082  12.301  0.7316 -0.8098 -1.3441
 2215SOL    HW218105   0.032   1.014  12.219 -3.5515  1.5801 -1.6730
 2216SOL     OW18106   4.073   2.416   1.687  0.1911 -0.1396 -0.2820
 2216SOL    HW118107   4.024   2.495   1.667  0.5348 -0.0438 -0.7518
 2216SOL    HW218108   4.136   2.424   1.615 -1.0872  0.5901 -1.3117
 2217SOL     OW18109   0.842   1.672   9.275  0.0066 -0.6517  0.2275
 2217SOL    HW118110   0.817   1.647   9.186  1.2401 -0.0617 -0.2891
 2217SOL    HW218111   0.786   1.749   9.287 -1.8364 -1.8980 -0.2521
 2218SOL     OW18112   0.066   1.106  16.330 -0.0130  0.2079 -0.3975
 2218SOL    HW118113   0.030   1.020  16.306  0.7448 -0.5907  1.2605
 2218SOL    HW218114   0.153   1.075  16.358  0.6214  1.3639 -1.1175
 2219SOL     OW18115   3.326   4.650  11.517 -0.0947  0.2597 -0.3099
 2219SOL    HW118116   3.407   4.605  11.537 -0.4055  0.8602  2.2869
 2219SOL    HW218117   3.372   4.720  11.470  0.5820 -0.3770 -0.5781
 2220SOL     OW18118   2.546   3.917   3.985  0.2253 -0.3092 -0.2311
 2220SOL    HW118119   2.554   3.917   4.080  1.1397  2.4437 -0.3229
 2220SOL    HW218120   2.571   3.827   3.966  1.3446  0.1914 -1.1206
 2221SOL     OW18121   1.531   2.970   3.817  0.1911 -0.2718  0.1507
 2221SOL    HW118122   1.591   2.918   3.765 -0.0548 -0.0655 -0.3346
 2221SOL    HW218123   1.561   2.952   3.906 -1.8075  1.8160  1.2723
 2222SOL     OW18124   1.542   2.793  15.907 -0.3119 -0.0442  0.6774
 2222SOL    HW118125   1.595   2.714  15.899 -1.4963 -0.7602 -0.2474
 2222SOL    HW218126   1.559   2.832  15.821 -1.0540  0.1298  0.6017
 2223SOL     OW18127   2.430   4.238   1.411  0.0890  0.1721  0.2338
 2223SOL    HW118128   2.496   4.229   1.342 -1.6760  2.0064 -1.7209
 2223SOL    HW218129   2.379   4.158   1.404 -2.5744  1.9208 -0.5462
 2224SOL     OW18130   3.523   0.147   1.629  0.6837 -0.1397 -0.2496
 2224SOL    HW118131   3.578   0.217   1.594 -0.3105  0.2262 -1.1106
 2224SOL    HW218132   3.508   0.171   1.720 -2.3941 -1.1589 -0.4675
 2225SOL     OW18133   3.726   2.575  16.892 -0.3017 -0.5136  0.4082
 2225SOL    HW118134   3.690   2.518  16.824  1.5030 -1.4409  0.2290
 2225SOL    HW218135   3.684   2.659  16.875  0.3696 -0.4179 -0.7439
 2226SOL     OW18136   1.713   0.905   1.255 -0.4211 -0.0611  0.0758
 2226SOL    HW118137   1.713   0.864   1.341  0.6165  0.2163  0.2064
 2226SOL    HW218138   1.804   0.934   1.247  0.4565 -2.3493  1.8121
 2227SOL     OW18139   2.619   1.594  15.372  0.5654  0.0103 -0.2002
 2227SOL    HW118140   2.580   1.553  15.294 -1.4995  1.9069 -0.1865
 2227SOL    HW218141   2.708   1.618  15.348  0.4452 -0.6045 -1.2533
 2228SOL     OW18142   2.986   0.459  12.718  0.1453  0.1923  0.4621
 2228SOL    HW118143   2.898   0.494  12.707  0.3092  0.3290 -0.3901
 2228SOL    HW218144   3.023   0.540  12.752  1.8248 -0.2912 -0.1898
 2229SOL     OW18145   1.767   3.145   9.317  0.1269  0.0187  0.0941
 2229SOL    HW118146   1.732   3.095   9.244  1.0369  0.3659 -0.5814
 2229SOL    HW218147   1.861   3.124   9.312  0.0923 -0.0092 -0.3826
 2230SOL     OW18148   2.049   0.963   1.904  0.3170 -0.4902  0.2053
 2230SOL    HW118149   2.053   1.020   1.827  0.9844  0.9371  1.2827
 2230SOL    HW218150   2.103   0.896   1.862  0.5961  0.0691 -0.3342
 2231SOL     OW18151   1.410   4.487  12.266 -0.2912  0.1225  0.2044
 2231SOL    HW118152   1.328   4.464  12.311 -0.7681  2.6102  0.6014
 2231SOL    HW218153   1.378   4.552  12.203 -0.8371 -2.5394 -2.2765
 2232SOL     OW18154   3.350   1.035   5.597 -0.5555  0.3122 -0.0243
 2232SOL    HW118155   3.439   1.068   5.589  0.2701 -1.7810  0.6291
 2232SOL    HW218156   3.361   0.982   5.676 -0.3061  1.3159  0.6022
 2233SOL     OW18157   2.866   1.916   4.231 -0.3376 -0.4073  0.1419
 2233SOL    HW118158   2.889   1.959   4.149 -0.6807  1.8384  1.2053
 2233SOL    HW218159   2.814   1.984   4.275 -0.6155 -1.2564  1.1158
 2234SOL     OW18160   0.927   2.591   8.213  0.1683  0.6308 -0.5827
 2234SOL    HW118161   0.865   2.664   8.215 -0.2152  0.2315  1.4120
 2234SOL    HW218162   1.005   2.646   8.220  0.5036 -0.1463  1.6419
 2235SOL     OW18163   3.741   3.204   1.286  0.1179 -0.8881 -0.2710
 2235SOL    HW118164   3.766   3.170   1.200  0.6582  0.9592 -0.8484
 2235SOL    HW218165   3.708   3.119   1.315 -2.0493  0.9394  2.6112
 2236SOL     OW18166   2.946   1.057   7.535 -0.1639 -0.0106  0.3484
 2236SOL    HW118167   2.932   1.053   7.630 -1.0883 -0.5726  0.1875
 2236SOL    HW218168   2.958   1.151   7.522 -0.3665 -0.1885 -1.0595
 2237SOL     OW18169   1.019   2.050   8.873  0.3945  0.4271 -0.0390
 2237SOL    HW118170   1.010   2.115   8.943  1.8084  0.5643  0.0060
 2237SOL    HW218171   1.069   1.986   8.923 -2.7066  0.6192  3.3261
 2238SOL     OW18172   2.619   3.686   5.816  0.1449 -0.5426 -0.0989
 2238SOL    HW118173   2.564   3.607   5.812 -2.1582  1.0503 -0.0856
 2238SOL    HW218174   2.578   3.756   5.866  0.8197  1.7798 -2.7618
 2239SOL     OW18175   4.282   2.204   4.983  0.7481  0.9421 -0.0136
 2239SOL    HW118176   4.246   2.292   4.969  1.0630  1.0735 -0.0018
 2239SOL    HW218177   4.212   2.145   4.956  0.3536  1.4917 -0.1928
 2240SOL     OW18178   1.709   1.221   6.022  0.4182  0.8734 -0.2370
 2240SOL    HW118179   1.724   1.188   6.110  0.9030 -1.2780 -1.1392
 2240SOL    HW218180   1.634   1.172   5.990 -0.2744  1.2800  0.7746
 2241SOL     OW18181   0.749   3.854   6.677 -0.0566  0.3207 -0.2784
 2241SOL    HW118182   0.782   3.883   6.762 -1.2819  0.8721  0.0004
 2241SOL    HW218183   0.797   3.772   6.672  0.4586  0.6070 -0.1173
 2242SOL     OW18184   4.028   3.466   6.219 -0.2820 -0.1207  0.2715
 2242SOL    HW118185   4.032   3.561   6.210  3.3472 -0.3408 -0.4047
 2242SOL    HW218186   4.115   3.451   6.257 -0.5217 -0.7468  0.5775
 2243SOL     OW18187   4.038   4.482   4.575 -0.2356 -0.1153  0.2106
 2243SOL    HW118188   4.083   4.399   4.589  0.8708  0.2119 -1.4112
 2243SOL    HW218189   4.075   4.537   4.644  0.7776 -0.1988 -0.2632
 2244SOL     OW18190   4.320   4.327  14.373  0.1467 -0.1901  0.5172
 2244SOL    HW118191   4.387   4.370  14.426 -2.5785  3.3139  1.1115
 2244SOL    HW218192   4.362   4.287  14.297 -1.0185  0.2856 -0.3816
 2245SOL     OW18193   0.910   4.339   6.359  0.5982  0.6064 -0.6127
 2245SOL    HW118194   0.824   4.299   6.374  0.9834  0.2027  0.4441
 2245SOL    HW218195   0.880   4.430   6.361 -1.2100  0.0149 -0.5692
 2246SOL     OW18196   2.321   2.883  13.373  0.1268 -0.0934  0.1814
 2246SOL    HW118197   2.268   2.836  13.438  1.1734  1.0949  1.8933
 2246SOL    HW218198   2.253   2.929  13.324  0.2668  2.0959  2.0563
 2247SOL     OW18199   1.908   2.509   8.902 -0.5150 -0.0201 -0.0697
 2247SOL    HW118200   1.838   2.571   8.883 -1.2801 -0.7517  0.3500
 2247SOL    HW218201   1.892   2.493   8.995 -1.4178  2.1351  0.1369
 2248SOL     OW18202   3.513   0.588   2.321  0.0896  0.2560 -0.2890
 2248SOL    HW118203   3.534   0.514   2.378  1.1560  2.1781  1.8240
 2248SOL    HW218204   3.598   0.632   2.324 -0.8394  2.0246  0.2416
 2249SOL     OW18205   2.847   2.563   8.927  0.0428 -0.3445  0.6335
 2249SOL    HW118206   2.864   2.469   8.932  2.1211 -0.0993 -2.0492
 2249SOL    HW218207   2.862   2.593   9.017  0.2492 -1.7974  1.0819
 2250SOL     OW18208   3.435   2.397   6.317  0.6988  0.0474 -0.0069
 2250SOL    HW118209   3.418   2.388   6.411  0.4901  3.9635  0.3466
 2250SOL    HW218210   3.502   2.465   6.311 -0.3291  1.0649 -0.0912
 2251SOL     OW18211   3.901   1.573   4.562 -0.0508  0.5219 -0.0476
 2251SOL    HW118212   3.897   1.478   4.553 -0.7449  0.3751  1.8915
 2251SOL    HW218213   3.809   1.601   4.552 -0.0698  0.6700  0.5213
 2252SOL     OW18214   4.106   1.159   6.583 -0.2241 -0.0087  0.1936
 2252SOL    HW118215   4.028   1.107   6.603 -1.0486  1.1154 -0.0887
 2252SOL    HW218216   4.171   1.100   6.620 -1.1186 -0.5520  0.8946
 2253SOL     OW18217   1.916   3.966   5.361 -0.6119  0.3188 -0.3955
 2253SOL    HW118218   1.924   3.978   5.456  1.9665 -0.9063 -0.4539
 2253SOL    HW218219   1.921   3.870   5.361  1.6684  0.4175  1.2521
 2254SOL     OW18220   4.576   2.695   7.671  0.5077  0.3109 -0.2277
 2254SOL    HW118221   4.557   2.699   7.765  0.7770  2.2330 -0.2712
 2254SOL    HW218222   4.667   2.667   7.684  0.5457  0.7367  0.4073
 2255SOL     OW18223   4.504   3.729   7.462 -0.1457 -0.4581  0.2092
 2255SOL    HW118224   4.483   3.814   7.501  1.0124  0.4627 -1.2142
 2255SOL    HW218225   4.483   3.670   7.535  3.2603  0.1811  1.6996
 2256SOL     OW18226   2.147   4.685   8.695 -0.0230 -0.4041 -0.6643
 2256SOL    HW118227   2.197   0.023   8.747 -0.7728 -0.5581  0.2658
 2256SOL    HW218228   2.216   4.625   8.669 -0.0874 -0.6966 -0.1635
 2257SOL     OW18229   0.312   4.616   2.690  0.4434 -0.0645 -0.4804
 2257SOL    HW118230   0.296   4.603   2.596  0.5069 -1.4755 -0.2909
 2257SOL    HW218231   0.378   4.547   2.696  2.2276  1.5229 -1.9261
 2258SOL     OW18232   0.316   1.982   9.952  0.1252 -0.1130 -0.1422
 2258SOL    HW118233   0.231   1.938   9.948 -0.9652  1.9920  0.0352
 2258SOL    HW218234   0.300   2.075   9.969  1.4658  0.3047 -1.1826
 2259SOL     OW18235   4.205   3.528   0.109 -0.0318  0.5266  0.6557
 2259SOL    HW118236   4.125   3.560   0.150 -0.7197  1.1970 -1.2132
 2259SOL    HW218237   4.233   3.466   0.177 -2.4893 -1.8213 -0.4675
 2260SOL     OW18238   1.601   0.994  12.748  0.0927 -0.0035  0.7078
 2260SOL    HW118239   1.581   0.943  12.827 -0.0909  2.3041  2.1307
 2260SOL    HW218240   1.668   1.056  12.778  0.0277  0.7636 -0.7424
 2261SOL     OW18241   0.357   3.534   3.770  0.1817  0.2868 -0.4024
 2261SOL    HW118242   0.437   3.481   3.775 -0.6677 -1.0550 -1.2698
 2261SOL    HW218243   0.372   3.588   3.692  0.6057 -0.7610 -1.0531
 2262SOL     OW18244   0.296   1.349  13.920  0.7624  0.4842  0.1371
 2262SOL    HW118245   0.254   1.423  13.876 -3.0710 -1.2580  0.8507
 2262SOL    HW218246   0.213   1.308  13.946  0.4828  0.4975 -0.7276
 2263SOL     OW18247   1.144   2.908   3.693 -0.6097 -0.3485 -0.6408
 2263SOL    HW118248   1.157   2.930   3.601  0.7090  0.6403 -0.2146
 2263SOL    HW218249   1.055   2.874   3.685 -1.8540  2.2486  2.0841
 2264SOL     OW18250   4.313   0.730  16.146 -0.5143 -0.6181  0.6640
 2264SOL    HW118251   4.349   0.808  16.104 -0.5721  0.3352  2.3957
 2264SOL    HW218252   4.330   0.676  16.069  1.1076 -0.5318  0.9775
 2265SOL     OW18253   4.384   2.965   6.341 -0.1038 -0.3075 -0.1290
 2265SOL    HW118254   4.292   2.987   6.350 -0.0587 -1.2376  2.4687
 2265SOL    HW218255   4.369   2.879   6.301  3.1339 -0.4897 -0.9865
 2266SOL     OW18256   2.199   3.455  16.248  0.0441 -0.4387  0.0593
 2266SOL    HW118257   2.117   3.482  16.289 -0.9658 -3.9701  0.3110
 2266SOL    HW218258   2.167   3.377  16.203 -1.0688  0.5905 -0.9424
 2267SOL     OW18259   4.594   3.134  11.818 -0.4588 -0.1319 -0.3891
 2267SOL    HW118260   4.647   3.059  11.789  1.2651  0.1241  2.0923
 2267SOL    HW218261   4.618   3.140  11.910  2.6315  0.5658 -1.2702
 2268SOL     OW18262   1.054   2.481   7.436 -0.1613  0.4257 -0.4871
 2268SOL    HW118263   1.065   2.386   7.442  0.3793  0.5502  0.4838
 2268SOL    HW218264   0.982   2.501   7.496  1.0275 -1.5430  1.5927
 2269SOL     OW18265   1.029   3.800  12.778 -0.4560  0.2175  0.0590
 2269SOL    HW118266   1.110   3.750  12.776 -0.2596  0.4037  3.9202
 2269SOL    HW218267   1.038   3.874  12.717  1.7858  2.1415  2.7059
 2270SOL     OW18268   2.308   1.038  11.076  0.4954 -0.2758 -0.0922
 2270SOL    HW118269   2.290   1.126  11.040  1.3772 -1.4438 -3.3818
 2270SOL    HW218270   2.383   1.056  11.132 -0.1886  0.6990  0.5190
 2271SOL     OW18271   2.912   0.375   0.795 -0.4898 -0.1821  0.1461
 2271SOL    HW118272   2.963   0.297   0.815  2.3051  1.6854  0.3289
 2271SOL    HW218273   2.985   0.434   0.773 -1.6691  1.7964  1.4881
 2272SOL     OW18274   2.182   2.463   6.611  0.7064  0.4559  0.2087
 2272SOL    HW118275   2.220   2.545   6.642 -0.6951  0.3529  2.1754
 2272SOL    HW218276   2.263   2.430   6.571 -1.3395 -0.0710 -3.4581
 2273SOL     OW18277   2.827   2.833   5.536  0.0459 -0.0107  0.1080
 2273SOL    HW118278   2.778   2.796   5.610  1.0447  0.9917  1.2789
 2273SOL    HW218279   2.916   2.804   5.556  0.2067  0.3093 -0.1469
 2274SOL     OW18280   3.276   2.991   7.429 -0.0870  0.1671 -0.5494
 2274SOL    HW118281   3.346   3.055   7.436 -0.9626  1.4260 -2.8772
 2274SOL    HW218282   3.318   2.924   7.375  1.3044 -0.7248  1.6879
 2275SOL     OW18283   3.084   4.549  16.215  0.2119  0.0114 -0.3355
 2275SOL    HW118284   3.039   4.472  16.180 -1.6600  0.6733  0.6185
 2275SOL    HW218285   3.058   4.538  16.307  1.1187  0.8768  0.0258
 2276SOL     OW18286   1.135   1.201  11.872 -0.4160 -0.4347 -0.3428
 2276SOL    HW118287   1.128   1.288  11.833 -0.5252  0.0798  0.8489
 2276SOL    HW218288   1.050   1.159  11.854 -0.5289  0.2781 -1.4452
 2277SOL     OW18289   2.509   3.847   8.949  0.3847  0.2433  0.5313
 2277SOL    HW118290   2.571   3.884   9.013  2.3900 -0.3561 -1.0598
 2277SOL    HW218291   2.455   3.797   9.010  0.4786 -0.1834  0.2616
 2278SOL     OW18292   3.783   2.817   2.833 -0.2911  0.0250 -0.3432
 2278SOL    HW118293   3.786   2.727   2.801 -0.7410 -0.7634  1.8373
 2278SOL    HW218294   3.707   2.817   2.892 -0.1604  1.6938 -0.1634
 2279SOL     OW18295   4.635   3.215  15.639 -0.8286  0.4805 -0.3525
 2279SOL    HW118296   4.552   3.171  15.622 -0.7977  0.6618 -0.9859
 2279SOL    HW218297   4.698   3.146  15.661 -3.6497 -0.7583  3.8450
 2280SOL     OW18298   2.175   1.166   2.101  0.3043 -0.0019  0.0077
 2280SOL    HW118299   2.199   1.140   2.012  1.4204 -2.5913  1.0771
 2280SOL    HW218300   2.221   1.104   2.158 -0.0140 -0.2364  0.0104
 2281SOL     OW18301   2.689   3.234   7.438  0.7631 -0.1719  0.9044
 2281SOL    HW118302   2.686   3.139   7.425 -0.4980 -0.3637  2.5671
 2281SOL    HW218303   2.735   3.255   7.357 -1.5414 -0.6269 -0.4974
 2282SOL     OW18304   2.373   1.485   7.941  0.1406  0.0075  0.2730
 2282SOL    HW118305   2.393   1.430   8.017 -0.3555 -0.8969 -0.2504
 2282SOL    HW218306   2.429   1.558   7.966  1.7390 -0.0747 -3.0157
 2283SOL     OW18307   1.040   3.464   7.929 -0.0055  0.8684  0.1385
 2283SOL    HW118308   0.952   3.442   7.961 -0.8781  0.2615 -2.6520
 2283SOL    HW218309   1.074   3.380   7.899  2.7759  1.8342  0.6348
 2284SOL     OW18310   3.090   0.543  14.507 -0.5125  0.1166  0.0756
 2284SOL    HW118311   3.117   0.624  14.463  0.6239 -0.3664 -0.1382
 2284SOL    HW218312   3.026   0.510  14.444  1.1448  0.2172 -1.6946
 2285SOL     OW18313   1.395   3.336   7.666  0.2436  0.5718  0.3608
 2285SOL    HW118314   1.409   3.429   7.679  1.1357  0.7394 -1.8204
 2285SOL    HW218315   1.481   3.316   7.628  0.4649  1.8163  0.2261
 2286SOL     OW18316   0.979   3.407   4.263 -0.0445  0.1387 -0.3345
 2286SOL    HW118317   1.038   3.374   4.331 -1.0847  0.3838  0.6813
 2286SOL    HW218318   1.002   3.354   4.187  3.1785 -0.0238  0.7769
 2287SOL     OW18319   2.299   4.602  12.692 -0.0757 -0.3260  0.4200
 2287SOL    HW118320   2.234   4.671  12.685 -0.2594 -0.9037 -3.3652
 2287SOL    HW218321   2.367   4.632  12.633 -0.6731 -2.0333 -1.1482
 2288SOL     OW18322   4.429   0.624   6.325  0.1562  0.2562 -0.4667
 2288SOL    HW118323   4.376   0.696   6.360 -0.2539 -0.0139 -0.5425
 2288SOL    HW218324   4.381   0.596   6.247  1.8048  0.9037 -1.7176
 2289SOL     OW18325   1.202   2.987   2.369 -0.2995 -0.0382 -0.2574
 2289SOL    HW118326   1.171   2.909   2.415 -0.1951 -0.6274 -1.1918
 2289SOL    HW218327   1.292   2.982   2.402  0.1207  0.1361 -1.3775
 2290SOL     OW18328   3.951   0.174   0.127  0.1856  0.4432 -0.4149
 2290SOL    HW118329   3.881   0.119   0.161  3.1275 -2.4963  0.9324
 2290SOL    HW218330   3.904   0.230   0.065 -1.2399  1.0041  1.1757
 2291SOL     OW18331   1.600   3.378   9.412  0.5295 -0.1130  0.0850
 2291SOL    HW118332   1.653   3.376   9.492  0.4086 -2.4157  0.1120
 2291SOL    HW218333   1.639   3.297   9.379  0.9339 -1.5887  4.1164
 2292SOL     OW18334   0.874   3.896   4.395 -0.2100  0.4951  0.1578
 2292SOL    HW118335   0.945   3.940   4.443  2.2744 -4.2497  0.8773
 2292SOL    HW218336   0.896   3.803   4.388  0.6773  0.5587  2.1979
 2293SOL     OW18337   4.682   3.216   5.978  0.2796 -0.3604  0.3798
 2293SOL    HW118338   4.650   3.217   5.887  0.3326 -1.8426  0.3454
 2293SOL    HW218339   4.607   3.249   6.027  0.2529  0.8920 -0.4757
 2294SOL     OW18340   1.554   1.975   4.918  0.1369  0.3696 -0.2507
 2294SOL    HW118341   1.575   1.894   4.965  0.9864  0.1485 -1.0025
 2294SOL    HW218342   1.629   1.977   4.859  0.2004  0.7970 -0.1502
 2295SOL     OW18343   0.962   4.637  11.270  0.2419 -0.0290  0.3916
 2295SOL    HW118344   1.041   4.599  11.231  0.1830  0.8197 -0.5416
 2295SOL    HW218345   0.891   4.577  11.245  2.3045 -2.1805 -0.3188
 2296SOL     OW18346   0.420   1.268   4.453 -0.6813  0.2022  0.0147
 2296SOL    HW118347   0.326   1.274   4.469 -0.6651 -1.9210  1.0184
 2296SOL    HW218348   0.429   1.173   4.443 -1.5660  0.3109 -1.6630
 2297SOL     OW18349   3.471   2.212   4.344 -0.6642  0.0592  0.4792
 2297SOL    HW118350   3.535   2.156   4.388  0.8515  2.0659  0.8074
 2297SOL    HW218351   3.434   2.139   4.294 -0.6018 -0.1089  0.6788
 2298SOL     OW18352   1.123   3.251   7.202  0.1435  0.4116  0.5198
 2298SOL    HW118353   1.132   3.217   7.292  0.3354  1.3122  0.8433
 2298SOL    HW218354   1.134   3.173   7.148  0.1381  0.3595  0.5930
 2299SOL     OW18355   4.157   2.143   6.393 -0.3854  0.1683  0.0513
 2299SOL    HW118356   4.143   2.201   6.468 -2.1304 -0.1733 -0.0155
 2299SOL    HW218357   4.188   2.200   6.323  3.2079 -1.2859  0.4283
 2300SOL     OW18358   0.647   3.563   2.709  0.2111  0.7584 -1.0689
 2300SOL    HW118359   0.552   3.549   2.707  0.4765 -1.4007  0.3636
 2300SOL    HW218360   0.675   3.617   2.635 -2.4713  1.9770 -1.1968
 2301SOL     OW18361   3.240   1.400   6.242 -0.0792 -0.1616 -0.1085
 2301SOL    HW118362   3.172   1.461   6.211  0.7097  0.1718 -1.1624
 2301SOL    HW218363   3.303   1.418   6.172 -0.5530  0.3362 -0.4090
 2302SOL     OW18364   4.159   0.581   6.199 -0.4358  0.2935 -0.2004
 2302SOL    HW118365   4.137   0.505   6.252 -0.3987 -0.3957 -1.1770
 2302SOL    HW218366   4.078   0.632   6.203  0.5816  1.7896  1.2545
 2303SOL     OW18367   1.930   0.056  13.355 -0.3882  0.0584 -0.8276
 2303SOL    HW118368   1.937   0.039  13.261  2.6431 -0.8913 -0.4182
 2303SOL    HW218369   1.836   0.041  13.361 -0.3710  0.1516 -0.3209
 2304SOL     OW18370   2.132   3.072   6.780  0.3643  0.6520 -0.2089
 2304SOL    HW118371   2.058   3.096   6.725  0.5385 -2.6625 -1.8873
 2304SOL    HW218372   2.077   3.025   6.842  1.2578 -0.9281 -0.6048
 2305SOL     OW18373   3.838   1.040   3.323  0.2864  0.2248  0.0227
 2305SOL    HW118374   3.897   0.990   3.380 -0.1597 -0.2056  0.1029
 2305SOL    HW218375   3.747   1.013   3.331  0.4351 -1.0518 -2.3856
 2306SOL     OW18376   0.523   2.290   6.913  0.2379  0.1241  0.0436
 2306SOL    HW118377   0.547   2.310   7.003 -0.6799 -1.5344  0.6544
 2306SOL    HW218378   0.455   2.356   6.897  0.5366 -0.3111 -3.1422
 2307SOL     OW18379   1.358   3.589   0.209 -0.3419  0.4197  0.4775
 2307SOL    HW118380   1.378   3.608   0.301 -1.0964 -1.9204  1.1061
 2307SOL    HW218381   1.437   3.612   0.160 -0.0401  1.0608  1.2695
 2308SOL     OW18382   1.220   2.992   7.148 -0.3416 -0.0800 -0.6727
 2308SOL    HW118383   1.255   3.040   7.073  0.9701  0.3014  0.1996
 2308SOL    HW218384   1.305   2.976   7.189 -1.1623  2.6474  2.0872
 2309SOL     OW18385   3.939   1.054   4.121 -0.4356 -0.0373 -0.2144
 2309SOL    HW118386   3.910   1.007   4.199  0.1156 -0.4154 -0.2422
 2309SOL    HW218387   4.022   1.095   4.144  0.3149 -1.6059 -0.1650
 2310SOL     OW18388   2.329   3.019   3.438  0.7445  0.4196 -0.7684
 2310SOL    HW118389   2.359   3.008   3.348  1.0409 -1.5012 -0.4314
 2310SOL    HW218390   2.407   3.065   3.470 -0.4843  1.2904  0.9921
 2311SOL     OW18391   1.925   1.072   7.277 -0.0011 -0.5206 -0.2660
 2311SOL    HW118392   1.977   0.996   7.305 -1.3252 -1.7062 -1.0707
 2311SOL    HW218393   1.907   1.057   7.184 -1.5327  0.7580 -0.1776
 2312SOL     OW18394   0.916   3.496  13.996 -0.0789 -0.2980 -0.5203
 2312SOL    HW118395   0.991   3.523  13.944 -0.3798 -3.0565 -2.4127
 2312SOL    HW218396   0.961   3.441  14.060  0.3755 -0.2043 -0.7563
 2313SOL     OW18397   0.687   4.636   5.489 -0.4609 -0.0896  0.1667
 2313SOL    HW118398   0.759   4.692   5.460 -0.0138 -0.8999 -0.3246
 2313SOL    HW218399   0.621   4.673   5.431 -0.5620  0.0586  0.3776
 2314SOL     OW18400   2.915   4.280   8.679  0.1758 -0.3652 -0.0104
 2314SOL    HW118401   2.953   4.238   8.756 -0.4961 -1.3500 -0.2079
 2314SOL    HW218402   2.823   4.274   8.707  0.2063 -0.2387  0.1208
 2315SOL     OW18403   3.895   2.876  10.850 -0.3716  0.4147 -0.2544
 2315SOL    HW118404   3.844   2.945  10.892 -0.2373  1.5523 -1.9295
 2315SOL    HW218405   3.938   2.921  10.777  0.2007 -3.0582 -2.0609
 2316SOL     OW18406   1.641   2.377   6.034  0.4198  0.3503  0.3169
 2316SOL    HW118407   1.630   2.466   6.001 -1.2540 -0.3783 -1.0833
 2316SOL    HW218408   1.574   2.382   6.102  0.5079 -3.3916  0.6428
 2317SOL     OW18409   2.165   3.651  12.994  0.3281  0.1642  0.7838
 2317SOL    HW118410   2.124   3.649  13.081 -1.7638  1.1727 -0.1863
 2317SOL    HW218411   2.257   3.676  13.007  0.2851 -0.1750  1.7165
 2318SOL     OW18412   4.500   3.477   3.049 -0.0486 -0.0588  0.0815
 2318SOL    HW118413   4.488   3.512   3.138  1.5018  0.6804  0.0104
 2318SOL    HW218414   4.424   3.524   3.014  0.2135  1.0302  0.9514
 2319SOL     OW18415   2.329   3.938   1.683  0.0814  0.2306 -0.2498
 2319SOL    HW118416   2.266   3.879   1.642  0.1910  0.1495 -0.3017
 2319SOL    HW218417   2.286   4.024   1.685 -0.2852  0.0400 -0.1069
 2320SOL     OW18418   2.092   3.604   4.731 -0.2182  0.7447 -0.0637
 2320SOL    HW118419   2.166   3.660   4.708 -0.6164 -0.0037 -3.0776
 2320SOL    HW218420   2.140   3.545   4.789  0.8570  1.3074 -0.3808
 2321SOL     OW18421   2.765   1.584   7.859  0.1461 -0.5431 -0.0160
 2321SOL    HW118422   2.839   1.546   7.906 -0.5004 -0.6323  0.9443
 2321SOL    HW218423   2.713   1.596   7.939 -2.0536  0.6761 -1.6346
 2322SOL     OW18424   1.671   3.609   4.519  0.0114 -0.2418 -0.3451
 2322SOL    HW118425   1.577   3.604   4.502  0.0516  0.8874 -0.9158
 2322SOL    HW218426   1.679   3.615   4.614 -0.2472  0.1358 -0.3432
 2323SOL     OW18427   1.187   4.035   6.657  0.2988  0.5025 -0.6901
 2323SOL    HW118428   1.173   3.955   6.606  0.1053 -1.0315  1.7681
 2323SOL    HW218429   1.099   4.071   6.665 -0.1004 -0.2899 -1.5421
 2324SOL     OW18430   0.839   2.955   7.356 -0.9193 -0.3134 -0.4036
 2324SOL    HW118431   0.811   2.864   7.346  0.1617 -0.6604 -0.2155
 2324SOL    HW218432   0.873   2.972   7.268  1.5210  0.4957  0.6985
 2325SOL     OW18433   3.526   4.345  16.907 -0.2132  0.1098 -0.2254
 2325SOL    HW118434   3.580   4.422  16.924 -0.3498  0.0381  0.5210
 2325SOL    HW218435   3.527   4.289  16.984 -0.8358  0.6959  0.2150
 2326SOL     OW18436   2.902   0.384  16.687 -0.2248  0.2799 -0.9601
 2326SOL    HW118437   2.991   0.377  16.721 -0.2752  1.1280 -0.6724
 2326SOL    HW218438   2.900   0.475  16.658 -0.4765  0.1908 -1.2215
 2327SOL     OW18439   0.352   0.199   7.591  0.5054 -0.4642 -0.0531
 2327SOL    HW118440   0.288   0.203   7.662  1.6090  1.7284  0.8091
 2327SOL    HW218441   0.369   0.293   7.592 -0.6004 -0.2678  0.0840
 2328SOL     OW18442   2.120   2.258   5.549  0.3259 -0.1076  0.1653
 2328SOL    HW118443   2.148   2.307   5.472 -0.4565 -1.5042 -0.9964
 2328SOL    HW218444   2.198   2.256   5.604 -0.7517  0.5114  1.7455
 2329SOL     OW18445   2.242   1.149   8.007  0.1673 -0.1361 -0.2963
 2329SOL    HW118446   2.205   1.236   8.021  3.5115  1.0279  1.2290
 2329SOL    HW218447   2.334   1.175   7.999 -0.1882 -0.0621 -3.7863
 2330SOL     OW18448   2.559   0.767   0.746  0.3880 -0.4777 -0.1400
 2330SOL    HW118449   2.610   0.719   0.681 -1.2463 -0.9565 -1.0709
 2330SOL    HW218450   2.474   0.724   0.740 -0.7227  1.3263  2.4683
 2331SOL     OW18451   3.331   1.824   7.292  0.3847  0.4026 -0.0423
 2331SOL    HW118452   3.412   1.775   7.300  2.8620  4.2256 -1.7841
 2331SOL    HW218453   3.336   1.864   7.379 -1.2918  0.8962 -0.1692
 2332SOL     OW18454   0.017   2.250  17.251  0.3037  0.3513 -0.1821
 2332SOL    HW118455   0.090   2.252  17.313 -1.1555 -1.0081  1.5840
 2332SOL    HW218456   0.056   2.237  17.165 -0.8310 -0.7946 -0.5164
 2333SOL     OW18457   4.435   0.288  17.261 -0.3047 -0.1928  0.0907
 2333SOL    HW118458   4.416   0.361  17.202  0.4552  0.2339  0.3772
 2333SOL    HW218459   4.493   0.322  17.329 -1.1417  0.9959  0.2152
 2334SOL     OW18460   3.068   3.840  13.995 -0.1057 -0.3209  0.5181
 2334SOL    HW118461   3.124   3.793  13.933  0.2962 -0.6261  1.1164
 2334SOL    HW218462   3.065   3.777  14.067  0.8453 -1.5131 -0.4870
 2335SOL     OW18463   1.825   2.387  11.392  0.1675  0.0586 -0.0212
 2335SOL    HW118464   1.784   2.460  11.346  0.0732 -0.1426 -0.2607
 2335SOL    HW218465   1.908   2.430  11.413  0.4718 -0.8437  0.6344
 2336SOL     OW18466   3.809   3.283   2.341  0.3806  0.2605 -0.3453
 2336SOL    HW118467   3.874   3.297   2.272 -1.5477  0.5929 -2.0555
 2336SOL    HW218468   3.722   3.295   2.304  0.5427 -0.5055 -0.9682
 2337SOL     OW18469   4.685   1.582   6.215  0.6721  0.2862 -0.1136
 2337SOL    HW118470   0.043   1.581   6.167  0.2961  0.7687 -0.7767
 2337SOL    HW218471   4.631   1.625   6.148 -1.2471 -0.5830  0.8935
 2338SOL     OW18472   1.186   3.359   1.736 -0.3358 -0.2564 -0.3917
 2338SOL    HW118473   1.184   3.407   1.818 -1.0777 -2.7661  1.0509
 2338SOL    HW218474   1.208   3.269   1.758 -0.6552 -0.3157 -0.3105
 2339SOL     OW18475   2.325   1.924   2.608  0.7499 -0.3040  0.2400
 2339SOL    HW118476   2.274   1.846   2.627  2.2006 -1.2624  0.1973
 2339SOL    HW218477   2.263   1.979   2.560  1.1724 -0.1304 -0.1086
 2340SOL     OW18478   1.194   1.623   5.411 -0.2975 -0.4977 -0.2716
 2340SOL    HW118479   1.173   1.699   5.464 -0.4562 -0.3369 -0.5687
 2340SOL    HW218480   1.116   1.606   5.358 -0.3762 -0.4016 -0.1856
 2341SOL     OW18481   0.139   4.586  14.400 -0.2686 -0.0423 -0.1456
 2341SOL    HW118482   0.102   4.515  14.348  0.8183 -2.4401  2.3401
 2341SOL    HW218483   0.075   4.585  14.472  1.6982 -2.0417  1.5897
 2342SOL     OW18484   0.993   0.097   3.873  0.5691 -0.1399 -0.1610
 2342SOL    HW118485   0.997   0.006   3.842  0.2410 -0.9984  2.3439
 2342SOL    HW218486   1.085   0.104   3.896  0.5124 -1.6009  0.5678
 2343SOL     OW18487   1.520   2.231   1.485  0.3638  0.5498 -0.2617
 2343SOL    HW118488   1.547   2.162   1.423 -0.8182 -0.7935  0.7288
 2343SOL    HW218489   1.600   2.268   1.522 -0.7322  0.1796  2.4874
 2344SOL     OW18490   3.034   0.164   4.268  0.5480 -0.1098 -0.2186
 2344SOL    HW118491   3.021   0.149   4.175  0.3089  1.0536 -0.3775
 2344SOL    HW218492   2.955   0.210   4.296  0.6637 -1.0156  1.6066
 2345SOL     OW18493   3.528   1.701  17.294  0.5355 -0.0827 -0.2128
 2345SOL    HW118494   3.485   1.711  17.210 -0.0697 -0.3477  0.0694
 2345SOL    HW218495   3.451   1.711  17.350  2.2763 -2.8405  2.6713
 2346SOL     OW18496   4.472   1.776   2.239  0.2014  0.1785 -0.1197
 2346SOL    HW118497   4.535   1.846   2.225  0.6902 -0.5541 -1.6338
 2346SOL    HW218498   4.475   1.742   2.149  2.6876  2.8613 -1.0525
 2347SOL     OW18499   1.458   1.972   9.225  0.1238  0.3040  0.0621
 2347SOL    HW118500   1.478   1.934   9.140 -3.3601  0.5305 -0.8437
 2347SOL    HW218501   1.363   1.978   9.231  0.2301  0.2790  1.9877
 2348SOL     OW18502   4.680   0.345   2.615 -0.0717  0.6614 -0.1036
 2348SOL    HW118503   4.717   0.425   2.652  0.1545 -0.7966  2.8327
 2348SOL    HW218504   4.676   0.277   2.683  1.5002  0.2877 -0.3859
 2349SOL     OW18505   1.294   0.555  16.819 -0.3218 -0.1284 -0.0244
 2349SOL    HW118506   1.231   0.624  16.798 -0.9354 -0.1877  1.7074
 2349SOL    HW218507   1.367   0.606  16.855 -2.3389  0.9707  2.4866
 2350SOL     OW18508   0.077   3.545   5.111 -0.3812 -0.5351 -0.1769
 2350SOL    HW118509   0.109   3.633   5.128 -1.9262 -0.4965  2.5880
 2350SOL    HW218510   0.002   3.536   5.171 -0.0493  0.9014  0.4454
 2351SOL     OW18511   0.468   2.109   4.090  0.2599  0.0928  0.1694
 2351SOL    HW118512   0.519   2.042   4.136 -1.2675 -1.4795 -0.4355
 2351SOL    HW218513   0.470   2.070   4.002  3.0585 -0.4067  0.4611
 2352SOL     OW18514   3.644   0.617  14.780  0.3325  0.0763 -0.1347
 2352SOL    HW118515   3.618   0.647  14.693 -1.9611 -0.4253  0.3924
 2352SOL    HW218516   3.601   0.532  14.788  0.9683 -0.1045  1.3245
 2353SOL     OW18517   3.689   2.127   4.513 -0.1456  0.0065  0.2411
 2353SOL    HW118518   3.720   2.037   4.514 -0.1306  0.0031 -0.3037
 2353SOL    HW218519   3.619   2.120   4.578 -1.7370 -0.9611 -1.5729
 2354SOL     OW18520   0.298   3.690   7.089  0.0274  0.8915  0.2012
 2354SOL    HW118521   0.282   3.761   7.026  1.3043  0.4832 -0.5805
 2354SOL    HW218522   0.362   3.639   7.040 -0.9390  1.0571 -1.2173
 2355SOL     OW18523   1.476   1.044   0.809  0.3247 -0.3995 -0.1520
 2355SOL    HW118524   1.555   1.084   0.845  0.4667  0.2236 -1.1293
 2355SOL    HW218525   1.453   0.983   0.878  0.8112 -1.0344 -0.5444
 2356SOL     OW18526   3.139   3.130   4.915 -0.5356 -0.3183 -0.2221
 2356SOL    HW118527   3.058   3.095   4.951 -1.4676  1.4360 -0.6421
 2356SOL    HW218528   3.106   3.219   4.909 -0.5658 -0.2383  1.2232
 2357SOL     OW18529   0.362   2.827   2.645 -0.2300  0.3313  0.3515
 2357SOL    HW118530   0.303   2.876   2.588 -0.3657 -0.7806 -0.4677
 2357SOL    HW218531   0.359   2.869   2.731  1.6526 -0.4505  0.8063
 2358SOL     OW18532   3.477   4.437  15.230 -0.0867 -0.0351  0.3662
 2358SOL    HW118533   3.561   4.477  15.209  0.2415  0.3728  2.4015
 2358SOL    HW218534   3.492   4.344  15.213 -2.4991 -0.5132  0.7577
 2359SOL     OW18535   1.375   3.337   8.035 -0.5360  0.1159  0.0761
 2359SOL    HW118536   1.452   3.390   8.053 -0.8855  0.9206 -0.8305
 2359SOL    HW218537   1.311   3.367   8.099 -0.9954 -0.9931  0.1389
 2360SOL     OW18538   1.962   3.021   8.901 -0.0850 -0.1642  0.6016
 2360SOL    HW118539   2.024   2.977   8.959 -1.7202 -2.6578  0.5033
 2360SOL    HW218540   1.919   2.943   8.866 -1.5907  1.9457 -2.2411
 2361SOL     OW18541   0.552   0.505   4.996 -0.1226 -0.0651  0.0291
 2361SOL    HW118542   0.598   0.588   5.010  1.3546 -0.6292 -1.5148
 2361SOL    HW218543   0.518   0.520   4.908 -0.3757 -1.7362 -0.1508
 2362SOL     OW18544   2.509   0.894  15.765  0.1471 -0.2270 -0.2673
 2362SOL    HW118545   2.489   0.921  15.675  2.7228 -1.4650 -1.2160
 2362SOL    HW218546   2.548   0.808  15.747 -0.5744 -0.5828 -0.1172
 2363SOL     OW18547   0.847   3.205   7.935 -0.7217 -0.0039  0.0239
 2363SOL    HW118548   0.798   3.155   8.001  1.2916  1.7753  2.8237
 2363SOL    HW218549   0.919   3.145   7.917  0.1491  0.9231  0.4593
 2364SOL     OW18550   0.640   0.143   1.992  0.6682 -0.4950 -0.2911
 2364SOL    HW118551   0.551   0.125   1.960 -0.5030  0.1327  2.5686
 2364SOL    HW218552   0.685   0.063   1.966 -0.9605 -1.9183  1.2161
 2365SOL     OW18553   1.851   2.682   4.345  0.0847 -0.3201 -1.0185
 2365SOL    HW118554   1.803   2.680   4.428 -1.0822  1.4065 -1.6572
 2365SOL    HW218555   1.797   2.747   4.302 -2.6791 -1.5034  0.7022
 2366SOL     OW18556   2.790   0.338   2.587  0.2207  0.5584  0.2298
 2366SOL    HW118557   2.885   0.327   2.594  0.2572  2.4560  2.8960
 2366SOL    HW218558   2.776   0.423   2.629  0.7407  0.1299  1.2793
 2367SOL     OW18559   3.745   1.573  13.977 -0.3964  0.4379  0.2376
 2367SOL    HW118560   3.733   1.623  13.895 -1.3637 -0.2126 -0.0156
 2367SOL    HW218561   3.698   1.495  13.947 -0.7582  0.9641 -0.5606
 2368SOL     OW18562   3.031   0.653   7.282  0.0719  0.3407  0.2478
 2368SOL    HW118563   3.098   0.591   7.310 -0.3924 -0.4847 -0.4510
 2368SOL    HW218564   3.035   0.735   7.331  0.0275 -0.1853  1.1442
 2369SOL     OW18565   1.061   2.220   6.152  0.7229 -0.2491  0.1214
 2369SOL    HW118566   1.043   2.159   6.081 -2.0104  1.6705 -0.8186
 2369SOL    HW218567   1.156   2.211   6.162  0.6877 -2.1093 -1.2391
 2370SOL     OW18568   1.043   3.936   1.207 -0.1100 -0.7015 -0.1102
 2370SOL    HW118569   1.050   3.901   1.118 -0.1743 -2.2408  0.4987
 2370SOL    HW218570   0.971   3.878   1.231  0.3408 -0.3947  1.9667
 2371SOL     OW18571   2.466   1.416   4.840  0.0067  0.1065  0.2635
 2371SOL    HW118572   2.394   1.477   4.853 -0.5068 -0.7910  1.7101
 2371SOL    HW218573   2.478   1.385   4.930 -0.8751 -1.4794 -0.1630
 2372SOL     OW18574   4.229   3.501   6.511  0.5407  0.2123  0.1404
 2372SOL    HW118575   4.268   3.498   6.424 -0.3170  0.7217 -0.2621
 2372SOL    HW218576   4.174   3.579   6.500 -0.1193 -0.2935 -0.1358
 2373SOL     OW18577   2.451   1.515   7.487  0.2420  0.1927 -0.3519
 2373SOL    HW118578   2.369   1.523   7.437  0.3212  2.0139 -0.1647
 2373SOL    HW218579   2.407   1.495   7.570  1.5811 -2.5243 -0.2844
 2374SOL     OW18580   1.652   1.180   1.231  0.7047 -0.4599  0.1401
 2374SOL    HW118581   1.723   1.206   1.289 -0.2474 -2.8062  2.3728
 2374SOL    HW218582   1.658   1.085   1.221 -1.3775 -0.7588  1.8440
 2375SOL     OW18583   0.716   3.246   3.416  0.3991  0.1231 -0.0752
 2375SOL    HW118584   0.765   3.186   3.360  0.2004  0.9698 -1.1767
 2375SOL    HW218585   0.765   3.327   3.400 -1.7338  1.4273  0.0180
 2376SOL     OW18586   2.182   3.242   6.986  0.1587  0.6395  0.4256
 2376SOL    HW118587   2.131   3.164   7.006  2.3342 -1.4569 -2.1802
 2376SOL    HW218588   2.217   3.214   6.902  4.7351  1.5206  2.0141
 2377SOL     OW18589   4.335   1.543   8.472  0.1042 -0.2955 -0.0312
 2377SOL    HW118590   4.396   1.596   8.524  1.8751 -1.4867 -0.8920
 2377SOL    HW218591   4.389   1.470   8.441 -0.1802  0.3003 -1.9655
 2378SOL     OW18592   3.122   1.271   1.763  0.0029 -0.2053 -0.5199
 2378SOL    HW118593   3.045   1.300   1.715 -0.7375  0.3068  0.9871
 2378SOL    HW218594   3.193   1.333   1.741 -0.8862  0.6223 -1.0620
 2379SOL     OW18595   1.076   3.686   2.570 -0.1012  0.8084  0.1971
 2379SOL    HW118596   1.078   3.615   2.634  1.7944  2.2588  1.7346
 2379SOL    HW218597   1.057   3.633   2.493 -0.0068  2.5305 -0.9928
 2380SOL     OW18598   3.760   2.571   3.396  0.0857  0.3029 -0.0319
 2380SOL    HW118599   3.747   2.658   3.435 -2.5440 -0.0979 -0.0626
 2380SOL    HW218600   3.670   2.549   3.372  0.5583  1.6294 -3.0515
 2381SOL     OW18601   2.816   2.536   9.706 -0.5111 -0.0815  0.1404
 2381SOL    HW118602   2.808   2.494   9.620  3.0855  0.5780 -0.5065
 2381SOL    HW218603   2.802   2.465   9.769  1.3220  0.1133  0.7775
 2382SOL     OW18604   3.936   3.593   2.352  0.3124  1.0798  0.1032
 2382SOL    HW118605   3.965   3.539   2.426 -1.5288 -0.8105 -0.5516
 2382SOL    HW218606   3.991   3.670   2.364 -2.0525  2.7474  0.2174
 2383SOL     OW18607   0.665   3.914   4.230 -0.9905  0.2859  0.8026
 2383SOL    HW118608   0.587   3.868   4.260 -0.0016 -0.4675  2.2028
 2383SOL    HW218609   0.732   3.895   4.295  1.8414  0.8283 -1.9202
 2384SOL     OW18610   3.509   3.570   4.427  0.2694 -0.2168 -0.0323
 2384SOL    HW118611   3.536   3.520   4.350  0.4061 -0.4338  0.1585
 2384SOL    HW218612   3.514   3.501   4.493  1.7007 -0.4095 -0.3386
 2385SOL     OW18613   1.438   0.407   9.116 -0.4899 -0.1837 -0.4961
 2385SOL    HW118614   1.399   0.450   9.039 -0.7111  1.2705  0.4225
 2385SOL    HW218615   1.411   0.316   9.103  3.1075 -1.3746  0.5166
 2386SOL     OW18616   1.244   2.390   1.024  0.1224 -0.2251 -0.4755
 2386SOL    HW118617   1.251   2.352   0.936 -1.9289 -3.4977  0.7705
 2386SOL    HW218618   1.324   2.440   1.039  1.9775 -3.0570 -1.0214
 2387SOL     OW18619   0.161   2.503   7.815  0.0291  0.0831 -1.1986
 2387SOL    HW118620   0.078   2.525   7.856  0.6803  1.1303 -0.4374
 2387SOL    HW218621   0.208   2.456   7.884 -0.1645 -1.3216 -2.0319
 2388SOL     OW18622   1.336   0.428   5.528 -0.3156  0.1473  0.5038
 2388SOL    HW118623   1.284   0.509   5.525 -0.9500 -0.2685  0.4331
 2388SOL    HW218624   1.399   0.459   5.593  1.7019 -0.0042 -1.3844
 2389SOL     OW18625   1.916   0.665   9.004 -0.0850 -0.3940  0.1865
 2389SOL    HW118626   1.877   0.581   9.030 -0.6448  0.3822  1.8337
 2389SOL    HW218627   1.856   0.730   9.040 -0.4917 -0.0760 -1.0631
 2390SOL     OW18628   1.318   0.567   3.727  0.0247  0.1837  0.3309
 2390SOL    HW118629   1.285   0.595   3.641  0.1594  1.1966  0.6126
 2390SOL    HW218630   1.294   0.474   3.724 -1.1844  0.5054  0.1795
 2391SOL     OW18631   2.156   4.568  17.204 -0.0972  0.3102  0.0105
 2391SOL    HW118632   2.226   4.544  17.266  0.1841  2.1926  0.4058
 2391SOL    HW218633   2.077   4.529  17.241  0.6562  0.6822  1.9912
 2392SOL     OW18634   3.354   0.941  11.559  0.9257 -0.4591 -0.1508
 2392SOL    HW118635   3.303   0.862  11.577  1.6541 -0.9916 -0.4372
 2392SOL    HW218636   3.444   0.910  11.568  0.8446 -0.8664 -0.7612
 2393SOL     OW18637   0.036   3.538   5.981 -0.1914  0.0457 -0.8109
 2393SOL    HW118638   4.717   3.504   6.058 -0.4503 -3.5241 -2.5265
 2393SOL    HW218639   0.099   3.466   5.979  0.1185  0.3231 -1.2034
 2394SOL     OW18640   3.137   0.386   7.726 -0.0072  0.0602  0.4692
 2394SOL    HW118641   3.049   0.357   7.702  0.0785  1.6837 -1.8105
 2394SOL    HW218642   3.186   0.364   7.646  1.8464 -1.5265  2.0587
 2395SOL     OW18643   3.356   2.244   7.090 -0.1389 -0.1550 -0.1944
 2395SOL    HW118644   3.317   2.252   7.178  1.6196 -1.3359  0.6951
 2395SOL    HW218645   3.331   2.155   7.064 -1.6668 -0.1467  1.2303
 2396SOL     OW18646   3.581   0.394   0.025  0.1402 -0.1329  0.0712
 2396SOL    HW118647   3.519   0.379  17.653 -2.5091  0.9367  2.1331
 2396SOL    HW218648   3.557   0.328   0.090  1.8356  0.9386  1.7707
 2397SOL     OW18649   1.529   2.278   8.066  0.3032  0.0165 -0.4487
 2397SOL    HW118650   1.580   2.265   8.146 -0.0366  0.1509 -0.2133
 2397SOL    HW218651   1.519   2.371   8.082  2.5285  0.1908 -0.0004
 2398SOL     OW18652   4.371   3.277  15.968 -0.3937  0.1762 -0.2137
 2398SOL    HW118653   4.286   3.316  15.948 -0.4865 -0.5009 -1.1500
 2398SOL    HW218654   4.422   3.312  15.896 -2.0834  1.8679 -0.5681
 2399SOL     OW18655   0.037   3.315  11.665  0.3067  0.5325  0.4740
 2399SOL    HW118656   4.707   3.252  11.712 -0.3889 -1.0761 -2.5094
 2399SOL    HW218657   4.703   3.390  11.680 -1.2672 -0.9123  1.6807
 2400SOL     OW18658   3.388   3.238  10.484  0.3217  0.0195 -0.1643
 2400SOL    HW118659   3.352   3.161  10.441 -1.5397  0.9096 -0.1828
 2400SOL    HW218660   3.355   3.220  10.572  0.0775 -1.5262 -0.5724
 2401SOL     OW18661   3.779   0.115  11.623 -0.4768 -0.7687  1.1843
 2401SOL    HW118662   3.765   0.023  11.599  0.6021 -0.4126 -0.8568
 2401SOL    HW218663   3.868   0.104  11.656  0.2906 -1.8303 -1.2319
 2402SOL     OW18664   2.311   3.065   3.950 -0.3657  0.0647  0.3902
 2402SOL    HW118665   2.302   3.122   3.874  1.0412  0.6562  0.6696
 2402SOL    HW218666   2.254   3.113   4.009 -0.2867  1.7695 -0.9168
 2403SOL     OW18667   1.342   1.034  16.029 -0.1618 -0.2061 -0.0266
 2403SOL    HW118668   1.311   1.107  15.975 -0.7272  0.0536  0.6412
 2403SOL    HW218669   1.381   0.973  15.967 -0.2504  1.1479 -1.4435
 2404SOL     OW18670   1.369   2.433   6.246 -0.2218 -0.2264 -0.1511
 2404SOL    HW118671   1.352   2.358   6.188  1.3421 -0.5556 -0.1697
 2404SOL    HW218672   1.353   2.392   6.331 -4.1180  0.4612 -0.5496
 2405SOL     OW18673   4.136   2.957   6.724  0.0332 -0.1002  0.4076
 2405SOL    HW118674   4.102   3.037   6.765  1.0051 -0.0926  1.2196
 2405SOL    HW218675   4.184   2.990   6.648 -0.8331 -0.0981 -0.1349
 2406SOL     OW18676   3.885   1.880   9.223 -0.6211 -0.1997  0.4381
 2406SOL    HW118677   3.847   1.960   9.188 -0.2164  0.3506  1.2507
 2406SOL    HW218678   3.804   1.849   9.263 -0.6385  0.1708  0.6955
 2407SOL     OW18679   2.274   0.511   7.359 -0.5324  0.8869  0.4355
 2407SOL    HW118680   2.189   0.490   7.323 -0.1773 -0.0777  0.1689
 2407SOL    HW218681   2.344   0.472   7.306 -1.6082 -0.3779 -0.0605
 2408SOL     OW18682   1.910   2.025   6.397 -0.0638  0.4204  0.2622
 2408SOL    HW118683   1.896   2.057   6.308 -2.4612 -0.6168  0.2541
 2408SOL    HW218684   2.004   2.040   6.402  0.2694 -0.9824 -2.0786
 2409SOL     OW18685   3.925   2.759  14.780 -0.9837  0.1533 -0.2073
 2409SOL    HW118686   4.011   2.733  14.813 -1.2454 -0.4071  0.0436
 2409SOL    HW218687   3.930   2.700  14.705 -2.0095  0.7289 -0.7214
 2410SOL     OW18688   2.755   2.467   7.381 -0.1969 -0.4587 -0.3087
 2410SOL    HW118689   2.816   2.449   7.309  1.3493 -0.3329  0.9750
 2410SOL    HW218690   2.802   2.426   7.454 -1.3963 -1.7242 -0.2330
 2411SOL     OW18691   2.907   0.127   6.837  0.2306 -0.3501 -0.0821
 2411SOL    HW118692   2.846   0.126   6.911 -0.9327  2.5152 -0.9872
 2411SOL    HW218693   2.865   0.061   6.782 -0.9353  2.0354 -2.0924
 2412SOL     OW18694   3.371   0.957   1.159  0.8326  0.3058  0.2054
 2412SOL    HW118695   3.454   0.910   1.168  1.2943  1.3100  1.2336
 2412SOL    HW218696   3.349   0.943   1.251 -1.4996  0.9889 -0.2496
 2413SOL     OW18697   4.175   2.267   7.906 -0.0729  0.3897  0.0559
 2413SOL    HW118698   4.137   2.284   7.820 -0.1822 -2.8452 -0.5412
 2413SOL    HW218699   4.137   2.340   7.955 -0.9915 -0.1066  0.0823
 2414SOL     OW18700   2.999   1.589   3.239  0.5298 -0.1541  0.3588
 2414SOL    HW118701   2.954   1.535   3.174 -0.1741 -1.5406  1.9850
 2414SOL    HW218702   2.950   1.582   3.321  0.6358  0.4048  0.4690
 2415SOL     OW18703   1.069   4.094   1.429 -0.3720  0.5300 -0.4729
 2415SOL    HW118704   1.055   4.046   1.348 -0.9624  0.7820 -0.5251
 2415SOL    HW218705   1.157   4.127   1.414 -0.6510  1.1714 -0.7193
 2416SOL     OW18706   0.521   2.657   5.957  0.8829 -0.0794  0.4530
 2416SOL    HW118707   0.537   2.659   5.862  0.0305  0.4734  0.3181
 2416SOL    HW218708   0.433   2.619   5.961  0.7565  0.6737  4.3180
 2417SOL     OW18709   3.800   1.793   1.474  0.1178 -0.0877 -0.2858
 2417SOL    HW118710   3.834   1.733   1.541  0.0059  0.2456  0.0661
 2417SOL    HW218711   3.722   1.829   1.515  0.3629 -0.0301  0.1236
 2418SOL     OW18712   4.379   3.011   4.892  0.0031  0.0027  0.4227
 2418SOL    HW118713   4.326   3.076   4.846  1.6568  2.0862  1.4880
 2418SOL    HW218714   4.331   2.998   4.974 -2.3479 -1.0353 -1.1114
 2419SOL     OW18715   2.858   1.726   6.131 -0.1657 -0.0408  0.2010
 2419SOL    HW118716   2.795   1.769   6.190  0.4809  1.5659 -0.2764
 2419SOL    HW218717   2.798   1.684   6.069  0.1847  1.8932 -1.4431
 2420SOL     OW18718   3.442   1.823   2.736 -0.1878  0.2462  0.5713
 2420SOL    HW118719   3.399   1.804   2.653 -2.0178  0.9746  1.3437
 2420SOL    HW218720   3.479   1.737   2.753 -0.2794  0.1709  0.3930
 2421SOL     OW18721   4.551   3.243   6.382  0.6071  0.2722 -0.3317
 2421SOL    HW118722   4.521   3.256   6.473  3.0802  2.6277  0.1748
 2421SOL    HW218723   4.581   3.153   6.381 -0.9369 -0.2558  0.3850
 2422SOL     OW18724   2.528   4.270   6.964  0.2364 -0.0255  0.3333
 2422SOL    HW118725   2.432   4.268   6.969  0.1037 -0.8935 -2.5451
 2422SOL    HW218726   2.553   4.360   6.943 -2.3430  0.9453  1.4196
 2423SOL     OW18727   1.307   2.932   7.522  0.2351  0.7318  0.4947
 2423SOL    HW118728   1.295   2.840   7.501 -2.4237  1.1305  0.2121
 2423SOL    HW218729   1.379   2.927   7.584  0.4758  3.1853  0.4101
 2424SOL     OW18730   1.010   0.235   5.183 -0.4857  0.7270  0.6385
 2424SOL    HW118731   0.966   0.320   5.184 -0.3739  0.7783  1.1852
 2424SOL    HW218732   1.100   0.268   5.178  0.1427 -0.8199  1.5893
 2425SOL     OW18733   1.792   3.186   6.505  0.3909 -0.2923  0.0350
 2425SOL    HW118734   1.843   3.219   6.579  1.6911 -1.5125 -0.3191
 2425SOL    HW218735   1.854   3.180   6.433  1.7101  0.4918  1.0996
 2426SOL     OW18736   4.271   0.829   6.386 -0.1072  0.5207  0.1161
 2426SOL    HW118737   4.304   0.895   6.325  0.2554  0.6043  0.4032
 2426SOL    HW218738   4.180   0.859   6.382 -0.6198 -0.9749  0.2314
 2427SOL     OW18739   3.838   1.447   4.947  0.0363  0.1513  0.1135
 2427SOL    HW118740   3.800   1.486   4.868 -1.2955  0.5161  0.9284
 2427SOL    HW218741   3.761   1.418   4.996  1.1877  0.1981  1.9169
 2428SOL     OW18742   2.472   0.399  17.692  0.0823 -0.4398  0.1914
 2428SOL    HW118743   2.396   0.458  17.692  0.8504  0.5530  1.5077
 2428SOL    HW218744   2.468   0.335   0.063  2.5285  0.1609  0.8434
 2429SOL     OW18745   0.583   2.385   3.155 -0.3335 -0.1812  0.3327
 2429SOL    HW118746   0.501   2.337   3.167 -1.0207  0.8206 -0.2842
 2429SOL    HW218747   0.628   2.339   3.085 -3.6993  0.1879 -2.0498
 2430SOL     OW18748   0.477   0.508  10.357  0.7015 -0.1654 -0.8361
 2430SOL    HW118749   0.477   0.463  10.273 -0.6496  2.4052 -2.2217
 2430SOL    HW218750   0.383   0.504  10.374  0.7584  2.2413  0.0976
 2431SOL     OW18751   0.494   3.178   1.615  0.2473  0.3129 -0.2598
 2431SOL    HW118752   0.578   3.151   1.578  0.8995 -1.2574  2.3554
 2431SOL    HW218753   0.508   3.194   1.709 -0.4209  0.2057 -0.1449
 2432SOL     OW18754   3.033   2.447   4.943 -0.0743 -0.4184  0.1400
 2432SOL    HW118755   3.113   2.438   4.995 -0.0971 -0.2305  0.2077
 2432SOL    HW218756   2.994   2.515   4.999  1.1496 -1.5910  2.3896
 2433SOL     OW18757   0.176   4.640   5.665 -0.2548  0.1639 -0.1351
 2433SOL    HW118758   0.160   4.597   5.581  0.2786 -0.7463  0.2299
 2433SOL    HW218759   0.121   4.717   5.651  0.4666  0.2835 -2.3372
 2434SOL     OW18760   4.343   1.655   7.409 -0.6195 -0.7120 -0.0985
 2434SOL    HW118761   4.418   1.599   7.428 -0.6907 -1.0249 -0.7535
 2434SOL    HW218762   4.339   1.654   7.314 -2.7537 -1.2776  0.0038
 2435SOL     OW18763   3.869   1.394   8.055 -0.3072 -0.2120 -0.1867
 2435SOL    HW118764   3.930   1.328   8.086 -0.4439 -0.6582 -0.8682
 2435SOL    HW218765   3.827   1.419   8.137  0.9684  1.1655  0.0548
 2436SOL     OW18766   2.007   4.432   8.537  0.0046  0.5145  0.9958
 2436SOL    HW118767   2.087   4.456   8.489 -1.4754  1.7717 -0.8514
 2436SOL    HW218768   1.944   4.495   8.502  1.1379  2.3172  2.1401
 2437SOL     OW18769   4.075   3.830   2.390 -0.2372 -0.1900  0.3788
 2437SOL    HW118770   4.071   3.829   2.486 -0.8850  1.4231  0.3695
 2437SOL    HW218771   4.058   3.924   2.388 -0.7942 -0.3083 -0.4447
 2438SOL     OW18772   0.024   1.535   7.161 -0.0806  0.4270 -0.7609
 2438SOL    HW118773   4.680   1.602   7.166 -0.3014  0.0502  1.3006
 2438SOL    HW218774   0.046   1.526   7.253 -1.1263  0.5402 -0.4950
 2439SOL     OW18775   0.997   3.017  13.517  0.4873 -0.6325 -0.5757
 2439SOL    HW118776   0.950   2.957  13.460 -1.5118  0.5120 -0.1213
 2439SOL    HW218777   0.948   3.016  13.599 -0.6536 -0.9631 -1.2543
 2440SOL     OW18778   0.105   1.336   0.427 -0.6620  0.1131 -0.2372
 2440SOL    HW118779   0.072   1.400   0.491  0.9957 -0.2011  0.9366
 2440SOL    HW218780   0.022   1.290   0.415 -0.4600 -0.7944  1.8926
 2441SOL     OW18781   0.319   4.489  17.433 -0.3680  0.5586  0.0462
 2441SOL    HW118782   0.236   4.466  17.474  1.4248 -0.1065  3.3105
 2441SOL    HW218783   0.343   4.563  17.488  0.2677  0.9383 -0.7353
 2442SOL     OW18784   1.137   0.758   2.728 -0.2120 -0.0620 -0.4692
 2442SOL    HW118785   1.104   0.844   2.700 -3.3103 -0.9264  0.5657
 2442SOL    HW218786   1.228   0.765   2.698  0.4070  2.3325  1.8961
 2443SOL     OW18787   4.320   0.869  16.380 -0.1454  0.5279  0.0040
 2443SOL    HW118788   4.394   0.809  16.384  0.7441  1.6343  0.2694
 2443SOL    HW218789   4.291   0.825  16.300  4.2296 -1.1216 -0.6401
 2444SOL     OW18790   0.657   1.923   8.106 -0.3863  0.2693 -0.0914
 2444SOL    HW118791   0.637   1.834   8.133 -1.8408  1.0057  1.2506
 2444SOL    HW218792   0.752   1.928   8.095 -0.1808  1.0361  2.0623
 2445SOL     OW18793   0.055   1.639   8.350 -0.0367  0.1824 -0.5091
 2445SOL    HW118794   0.052   1.726   8.309  1.5044  1.3774  1.9199
 2445SOL    HW218795   0.046   1.580   8.275 -0.6419  0.0166 -0.3076
 2446SOL     OW18796   0.157   3.261   5.387 -0.0387  0.0389  0.5258
 2446SOL    HW118797   0.164   3.167   5.371 -0.9185  0.4684 -2.3530
 2446SOL    HW218798   0.145   3.287   5.295  0.1958 -1.5398  0.0366
 2447SOL     OW18799   1.965   3.442   8.808  0.0286  0.2076 -0.4626
 2447SOL    HW118800   1.968   3.407   8.897 -2.2439 -1.3588 -1.0124
 2447SOL    HW218801   1.920   3.367   8.769  0.6746  0.0407 -0.8994
 2448SOL     OW18802   4.410   1.499  14.764 -0.0932 -0.5060  0.4365
 2448SOL    HW118803   4.439   1.431  14.703  0.4949 -0.6190  0.8435
 2448SOL    HW218804   4.356   1.446  14.822  2.0345 -1.4280  1.5825
 2449SOL     OW18805   1.999   0.486   7.716  0.7787 -0.2866  0.6275
 2449SOL    HW118806   1.933   0.464   7.782 -0.0567  0.6299  0.1023
 2449SOL    HW218807   2.079   0.455   7.758  1.4637  2.6936  1.5375
 2450SOL     OW18808   3.235   2.184   2.464  1.0665  0.5305  0.1978
 2450SOL    HW118809   3.257   2.120   2.396 -1.8193  1.7601 -1.9217
 2450SOL    HW218810   3.211   2.256   2.405 -0.2506  0.9765  1.2822
 2451SOL     OW18811   4.322   3.927  14.728 -0.1123 -0.2967 -0.4954
 2451SOL    HW118812   4.235   3.890  14.713  0.6321 -2.2515 -0.0054
 2451SOL    HW218813   4.358   3.945  14.641  0.8159  2.5259  0.4664
 2452SOL     OW18814   2.657   4.639   9.694 -0.0752  0.2869 -0.1793
 2452SOL    HW118815   2.669   0.009   9.699  3.1464 -0.0451 -2.1476
 2452SOL    HW218816   2.746   4.606   9.687 -0.5703 -0.9416 -0.7650
 2453SOL     OW18817   1.654   3.653  12.011  0.1841 -0.1354  0.3681
 2453SOL    HW118818   1.652   3.746  11.987 -0.4423 -0.5008 -0.9459
 2453SOL    HW218819   1.679   3.622  11.924 -2.1843 -0.5232 -0.1685
 2454SOL     OW18820   4.379   3.944   2.251  0.5381  0.6957  0.1489
 2454SOL    HW118821   4.438   3.963   2.179  0.9377 -0.0612  0.2765
 2454SOL    HW218822   4.384   4.028   2.296  0.5506 -0.2247  1.8584
 2455SOL     OW18823   3.685   3.552   9.803  0.3361  0.1035  0.1622
 2455SOL    HW118824   3.618   3.601   9.851 -0.0735 -0.7018  0.4305
 2455SOL    HW218825   3.726   3.497   9.870 -1.1292 -1.7130 -0.4457
 2456SOL     OW18826   2.743   3.989  16.805 -0.2162 -0.2794  1.0166
 2456SOL    HW118827   2.821   4.012  16.755 -1.9011 -1.8314 -2.3278
 2456SOL    HW218828   2.745   3.895  16.786  0.8571  0.0679 -0.6101
 2457SOL     OW18829   3.459   0.311  15.449 -0.5028 -0.6645 -0.0422
 2457SOL    HW118830   3.513   0.266  15.384 -2.9195 -0.2404 -2.3228
 2457SOL    HW218831   3.529   0.360  15.492 -2.1334  1.9986 -0.4266
 2458SOL     OW18832   1.517   1.940   7.904  1.1086 -0.3633  0.2593
 2458SOL    HW118833   1.426   1.911   7.912  1.2389 -0.4943  1.3248
 2458SOL    HW218834   1.556   1.863   7.946  2.9802 -0.6802 -2.0891
 2459SOL     OW18835   3.442   0.887  15.269  0.0645  0.2658 -0.2850
 2459SOL    HW118836   3.501   0.893  15.345 -0.4602 -3.4040  0.3955
 2459SOL    HW218837   3.394   0.970  15.266 -1.1081 -0.3311  1.4486
 2460SOL     OW18838   1.981   2.025   8.093 -0.2095 -0.0985 -0.1882
 2460SOL    HW118839   1.903   2.068   8.058  0.3375  0.5899 -0.5645
 2460SOL    HW218840   2.017   2.088   8.156  0.1019 -1.3352  0.8596
 2461SOL     OW18841   3.235   2.528  11.239 -0.3713  0.1178 -0.0482
 2461SOL    HW118842   3.312   2.472  11.235  0.6911  1.6275 -0.8285
 2461SOL    HW218843   3.237   2.542  11.334 -3.9429 -0.4132  0.1340
 2462SOL     OW18844   4.468   4.386  15.603  0.2689  0.0693 -0.2246
 2462SOL    HW118845   4.542   4.355  15.654  1.2203  3.0067  0.2089
 2462SOL    HW218846   4.399   4.373  15.668  1.8760 -3.0582  0.8478
 2463SOL     OW18847   0.963   2.932   0.247 -0.1960  0.4176 -0.6472
 2463SOL    HW118848   1.010   2.957   0.168  0.4686 -0.9769 -0.6924
 2463SOL    HW218849   0.881   2.976   0.226 -0.1750  1.7182  2.1112
 2464SOL     OW18850   0.451   3.770   6.212  0.3304  0.0979 -0.0492
 2464SOL    HW118851   0.456   3.801   6.302  1.9135  1.1378 -0.4902
 2464SOL    HW218852   0.413   3.849   6.174 -0.7878  1.5586  4.0602
 2465SOL     OW18853   4.363   3.008   3.006 -0.0888  0.0876  0.1690
 2465SOL    HW118854   4.419   3.086   3.009  1.9297 -1.3140 -0.5886
 2465SOL    HW218855   4.387   2.970   3.090 -0.2366  0.3700  0.3401
 2466SOL     OW18856   0.682   0.973  14.143  0.0802 -0.3417 -0.0751
 2466SOL    HW118857   0.736   0.981  14.222  0.4422  3.2628 -0.7077
 2466SOL    HW218858   0.684   0.879  14.122 -0.0297 -0.4722  0.4793
 2467SOL     OW18859   4.373   2.029   8.567  0.0074  0.7259  0.2637
 2467SOL    HW118860   4.395   2.103   8.510  0.6516 -0.3365 -0.8724
 2467SOL    HW218861   4.355   2.070   8.651 -3.0411 -0.2439  0.0643
 2468SOL     OW18862   0.278   4.682  12.416  0.0677  0.3332 -0.3997
 2468SOL    HW118863   0.265   4.593  12.448 -1.0042  0.7660  0.3591
 2468SOL    HW218864   0.271   4.674  12.321  2.1722 -0.8877 -0.4624
 2469SOL     OW18865   3.280   2.607   4.251  0.0548  0.0588  0.2593
 2469SOL    HW118866   3.333   2.668   4.199 -0.3094  0.2617  0.1315
 2469SOL    HW218867   3.327   2.618   4.334 -0.1165 -1.0956  0.5021
 2470SOL     OW18868   0.076   2.430   0.067 -0.0041  0.0458  0.0926
 2470SOL    HW118869   0.153   2.443   0.123  0.9868 -2.3212 -0.7266
 2470SOL    HW218870   0.029   2.510   0.093 -0.1837  0.1053 -0.4122
 2471SOL     OW18871   2.785   4.229  14.601 -0.2662 -0.6728 -0.4819
 2471SOL    HW118872   2.752   4.297  14.543 -0.9413  0.2218  0.9509
 2471SOL    HW218873   2.864   4.202  14.554 -0.3298  0.9875 -1.5357
 2472SOL     OW18874   2.954   2.036   3.987 -0.3237  0.2045  0.2606
 2472SOL    HW118875   2.970   2.130   3.983  0.6166  0.0344  0.0145
 2472SOL    HW218876   3.041   1.999   3.973 -0.1808  1.1991 -1.4883
 2473SOL     OW18877   1.689   0.600  13.110  0.4700 -0.1323 -0.9319
 2473SOL    HW118878   1.667   0.572  13.199 -0.4742  1.3435 -0.7110
 2473SOL    HW218879   1.691   0.514  13.067 -1.4905 -0.3368 -0.6172
 2474SOL     OW18880   1.805   0.858  13.073 -0.2782 -0.3211 -0.2062
 2474SOL    HW118881   1.827   0.877  13.164 -0.6383 -1.9689  0.2309
 2474SOL    HW218882   1.773   0.768  13.078  1.5055 -0.6221  5.7898
 2475SOL     OW18883   1.883   1.440   1.322  0.3277  0.2577 -0.5379
 2475SOL    HW118884   1.976   1.459   1.335  0.2551  1.1175 -1.2931
 2475SOL    HW218885   1.849   1.504   1.385 -0.8282 -1.2999  0.4176
 2476SOL     OW18886   2.484   2.283   4.202 -0.5428 -0.3812  0.2046
 2476SOL    HW118887   2.498   2.376   4.214 -1.3798 -0.1490 -0.6041
 2476SOL    HW218888   2.530   2.266   4.120  0.4108  0.7364  0.5074
 2477SOL     OW18889   2.784   1.707   2.306  0.5643  0.0944  1.0171
 2477SOL    HW118890   2.705   1.723   2.255  0.6691  0.1775  0.8824
 2477SOL    HW218891   2.765   1.725   2.398 -1.4287  1.9050  0.2337
 2478SOL     OW18892   4.705   3.383   4.349 -0.8125 -0.0734 -0.3582
 2478SOL    HW118893   4.646   3.368   4.424 -2.4413 -1.7084 -1.9611
 2478SOL    HW218894   0.052   3.429   4.392  0.2420 -1.8175 -0.2585
 2479SOL     OW18895   1.739   3.514   2.981 -0.2556  0.3089 -0.1184
 2479SOL    HW118896   1.662   3.507   3.037 -1.3051  0.6876 -1.5103
 2479SOL    HW218897   1.700   3.456   2.916 -1.4602 -0.5508  1.3457
 2480SOL     OW18898   0.320   0.039   6.895  0.1341 -0.0577 -0.2364
 2480SOL    HW118899   0.264   0.054   6.971  1.6159  1.7429  0.4897
 2480SOL    HW218900   0.351   4.675   6.915  0.3132  0.4997  1.9105
 2481SOL     OW18901   2.176   1.091   7.454 -0.2244  0.2373 -0.5962
 2481SOL    HW118902   2.120   1.014   7.456 -0.2296  0.3041  2.2601
 2481SOL    HW218903   2.119   1.168   7.455 -1.1791 -0.4882  1.1003
 2482SOL     OW18904   1.387   0.024   9.498  0.3146 -0.1092  0.1050
 2482SOL    HW118905   1.303   0.015   9.542 -0.4454 -0.3923 -1.3950
 2482SOL    HW218906   1.381   0.119   9.495 -0.2581 -0.2304 -3.0099
 2483SOL     OW18907   1.001   2.531   5.638  0.6079 -0.1380 -0.2218
 2483SOL    HW118908   1.008   2.626   5.627 -1.8943 -0.1550 -2.0353
 2483SOL    HW218909   0.985   2.525   5.732  0.9505 -0.8598 -0.2039
 2484SOL     OW18910   2.482   4.117  13.442  0.2954  0.1429 -0.2527
 2484SOL    HW118911   2.473   4.205  13.408 -1.3437 -0.5058 -1.5087
 2484SOL    HW218912   2.535   4.084  13.369  0.6402  3.3286 -1.4289
 2485SOL     OW18913   2.130   2.137   7.153  0.1855 -0.3899 -0.5504
 2485SOL    HW118914   2.047   2.118   7.111 -1.9483  2.8256  2.1555
 2485SOL    HW218915   2.135   2.068   7.220  0.4041 -1.1295 -1.3373
 2486SOL     OW18916   2.679   0.464   3.295 -0.6302 -0.1064  0.0879
 2486SOL    HW118917   2.675   0.395   3.361  0.3865 -0.1078  0.1520
 2486SOL    HW218918   2.766   0.500   3.314 -0.5084  0.9832 -2.4289
 2487SOL     OW18919   4.368   3.916   2.712  0.5346  0.3826  0.2203
 2487SOL    HW118920   4.302   3.962   2.764  0.0990  1.2782 -1.1086
 2487SOL    HW218921   4.356   3.978   2.640  2.2304 -0.4654 -0.7934
 2488SOL     OW18922   3.621   3.828  11.515 -0.2806  0.3479  0.5750
 2488SOL    HW118923   3.559   3.812  11.445  1.3510 -3.9093  0.1043
 2488SOL    HW218924   3.662   3.912  11.490 -0.5142  0.6883  1.3187
 2489SOL     OW18925   3.166   3.938   4.999  0.5018 -0.3684  0.7195
 2489SOL    HW118926   3.199   3.849   5.012  1.0187 -0.1130  1.1453
 2489SOL    HW218927   3.142   3.956   5.090 -0.8357  0.5056  0.1974
 2490SOL     OW18928   3.371   1.753   3.105 -0.3268 -0.2961 -0.6093
 2490SOL    HW118929   3.295   1.761   3.162 -0.7630 -3.0200 -0.8162
 2490SOL    HW218930   3.440   1.706   3.152 -0.9591  0.4978  1.1243
 2491SOL     OW18931   4.088   3.650   4.479 -0.0879  0.2047  0.1252
 2491SOL    HW118932   4.044   3.567   4.461  1.2280 -0.7658  1.2785
 2491SOL    HW218933   4.103   3.644   4.573  0.0005 -2.0551 -0.0296
 2492SOL     OW18934   3.028   4.513  16.467 -0.0888 -0.3196  0.4338
 2492SOL    HW118935   3.014   4.585  16.528  0.8674 -1.3068  1.8164
 2492SOL    HW218936   2.960   4.447  16.481  0.9594 -1.0453  2.1662
 2493SOL     OW18937   2.745   0.493   2.214 -0.7306 -0.0696 -0.7451
 2493SOL    HW118938   2.797   0.500   2.294  0.3237  0.9404 -1.5160
 2493SOL    HW218939   2.813   0.448   2.162 -0.0851 -0.3920  0.3817
 2494SOL     OW18940   2.242   0.566   4.607 -0.1142  0.0535 -0.3927
 2494SOL    HW118941   2.161   0.543   4.653 -0.2085 -0.3134 -0.7366
 2494SOL    HW218942   2.195   0.615   4.539  0.6682  1.0887 -0.1791
 2495SOL     OW18943   4.115   0.608   5.016  0.6594 -0.3267  0.0802
 2495SOL    HW118944   4.102   0.600   5.110 -1.2477  0.8946 -0.0888
 2495SOL    HW218945   4.036   0.568   4.979 -0.4783  1.1994  0.8792
 2496SOL     OW18946   1.871   3.563  17.451 -0.5192  0.0000  0.4700
 2496SOL    HW118947   1.957   3.536  17.484 -0.6438 -2.1418 -0.9806
 2496SOL    HW218948   1.873   3.646  17.499 -1.6220 -0.7839  1.8994
 2497SOL     OW18949   2.841   3.771  10.677  0.2024  0.3079  0.3123
 2497SOL    HW118950   2.892   3.789  10.756  1.6664 -0.6154 -0.4449
 2497SOL    HW218951   2.866   3.857  10.641 -1.0369  1.3194  1.8475
 2498SOL     OW18952   3.923   4.137   5.501  0.0088  0.5764 -0.0120
 2498SOL    HW118953   3.906   4.195   5.575  0.0655  1.0752 -0.3928
 2498SOL    HW218954   3.839   4.140   5.454  0.6290  1.5528 -1.0413
 2499SOL     OW18955   2.190   4.446   6.993  0.5901  0.3358  0.1607
 2499SOL    HW118956   2.215   4.379   6.929 -0.2028 -0.9332  1.1580
 2499SOL    HW218957   2.216   4.528   6.952  0.2326  1.7140  2.7188
 2500SOL     OW18958   3.368   3.761   8.717 -0.5886  0.2212  0.5823
 2500SOL    HW118959   3.417   3.761   8.799  0.8993 -2.8396 -0.3355
 2500SOL    HW218960   3.320   3.679   8.712  0.8393 -0.5604 -0.2862
 2501SOL     OW18961   0.401   3.748  12.734  0.1974 -0.5302  0.3148
 2501SOL    HW118962   0.361   3.809  12.673  0.9004  0.4255  0.8047
 2501SOL    HW218963   0.495   3.755  12.714  0.4341 -0.8933  1.2567
 2502SOL     OW18964   3.056   1.081   9.070 -0.1738 -0.2578 -0.2496
 2502SOL    HW118965   3.148   1.082   9.044 -1.2774  0.0505 -4.2110
 2502SOL    HW218966   3.031   1.011   9.009 -1.3715 -1.7109  1.8975
 2503SOL     OW18967   0.618   2.038  13.867 -0.4600  0.0648  0.8923
 2503SOL    HW118968   0.640   2.125  13.900 -3.1544  1.2686 -0.4743
 2503SOL    HW218969   0.641   1.978  13.938 -2.5063  0.4383  1.8753
 2504SOL     OW18970   1.382   3.633   3.689  0.3477  0.0931 -0.1828
 2504SOL    HW118971   1.308   3.650   3.746 -0.0527  1.0539 -0.9939
 2504SOL    HW218972   1.449   3.609   3.754  0.8261  0.9215 -0.3744
 2505SOL     OW18973   0.656   4.246   6.443 -0.0527  0.0153 -0.1502
 2505SOL    HW118974   0.673   4.257   6.537 -0.3026  2.4778 -0.3934
 2505SOL    HW218975   0.560   4.246   6.438 -0.0580  2.0019 -0.1848
 2506SOL     OW18976   4.677   1.697   4.184  0.2004 -0.4966 -0.3627
 2506SOL    HW118977   4.641   1.723   4.269 -0.9763 -0.5125 -0.8463
 2506SOL    HW218978   4.681   1.784   4.145 -2.0382 -0.7108 -1.0981
 2507SOL     OW18979   3.761   2.822   0.050 -0.1018 -0.1930  0.1279
 2507SOL    HW118980   3.747   2.908   0.090 -0.5978  0.4455 -1.4200
 2507SOL    HW218981   3.672   2.787   0.037  0.0222 -0.9024  1.1846
 2508SOL     OW18982   3.157   1.135   2.004 -0.1666  0.3540  0.3828
 2508SOL    HW118983   3.065   1.154   2.020 -1.1173 -0.9388 -3.5220
 2508SOL    HW218984   3.150   1.178   1.918  2.1462 -1.3607 -0.6548
 2509SOL     OW18985   2.833   2.240   7.615 -0.0191  0.7150  0.2198
 2509SOL    HW118986   2.864   2.161   7.571  1.4348  1.4635 -0.1129
 2509SOL    HW218987   2.910   2.273   7.662  0.4701 -1.6736  1.0981
 2510SOL     OW18988   1.438   0.752   3.914 -0.1106  0.2324 -0.2978
 2510SOL    HW118989   1.371   0.707   3.862  1.2127 -2.3035  0.1774
 2510SOL    HW218990   1.460   0.686   3.979 -1.8714 -0.5661 -0.5357
 2511SOL     OW18991   3.632   3.033  14.998 -0.5204 -0.2345  0.4969
 2511SOL    HW118992   3.546   3.075  14.993 -1.1735 -1.5829  0.2423
 2511SOL    HW218993   3.652   3.026  14.905 -0.0630 -0.2633  0.6014
 2512SOL     OW18994   3.978   4.357   2.613 -0.0296  0.4327 -0.7584
 2512SOL    HW118995   3.959   4.390   2.525  0.5410  0.2209 -0.9538
 2512SOL    HW218996   4.046   4.419   2.640 -0.7765  1.0082 -0.1971
 2513SOL     OW18997   1.854   4.530   6.805 -0.4070  0.0139  0.2576
 2513SOL    HW118998   1.794   4.491   6.741 -2.5322  1.2303  1.5129
 2513SOL    HW218999   1.935   4.510   6.759 -0.5144 -0.1868  0.1532
 2514SOL     OW19000   0.929   0.466   5.686  0.3044 -0.0601 -0.2985
 2514SOL    HW119001   0.998   0.406   5.717  1.2740  1.3866  0.3232
 2514SOL    HW219002   0.946   0.468   5.591  1.2477  0.2611 -0.1268
 2515SOL     OW19003   4.180   0.856   1.661 -0.0436 -0.3690  0.3443
 2515SOL    HW119004   4.201   0.770   1.696  1.0143  0.6086  2.1237
 2515SOL    HW219005   4.206   0.852   1.569  1.0498 -3.7571  0.7916
 2516SOL     OW19006   4.362   4.552   7.027  0.1689  0.1133 -0.3195
 2516SOL    HW119007   4.286   4.577   7.079 -0.1207  1.0468 -1.1964
 2516SOL    HW219008   4.339   4.463   6.999  2.5253 -0.8756  0.7631
 2517SOL     OW19009   1.571   4.611   8.499 -0.4771  0.3220 -0.0130
 2517SOL    HW119010   1.664   4.622   8.522 -0.6154 -0.8176  1.1495
 2517SOL    HW219011   1.536   4.700   8.503 -0.3849  0.3466  0.3046
 2518SOL     OW19012   1.996   4.118   1.541  0.8079 -0.2875  0.1204
 2518SOL    HW119013   2.091   4.110   1.542  0.7008 -0.9900  2.5074
 2518SOL    HW219014   1.979   4.210   1.561  0.2800 -0.3479 -0.0530
 2519SOL     OW19015   1.523   4.576   7.798  0.0381  0.5838  0.0748
 2519SOL    HW119016   1.454   4.537   7.744  0.0215  0.0184  0.5050
 2519SOL    HW219017   1.467   4.579   7.876  0.0215  0.5467  0.0645
 2520SOL     OW19018   4.640   0.448  10.805  0.5057 -0.5716 -0.1598
 2520SOL    HW119019   4.612   0.519  10.862  0.2256  0.0172 -1.0259
 2520SOL    HW219020   4.571   0.386  10.829  0.7448  0.0532  2.0773
 2521SOL     OW19021   2.747   3.068   3.314  0.2597  0.2280  0.1542
 2521SOL    HW119022   2.802   3.137   3.352  1.5593 -0.3878 -0.6417
 2521SOL    HW219023   2.760   3.074   3.220 -1.0330  1.6221  0.0536
 2522SOL     OW19024   3.045   1.332  16.508  0.4250  0.1666  0.1494
 2522SOL    HW119025   2.955   1.363  16.497  0.1734  0.6724  3.5380
 2522SOL    HW219026   3.059   1.321  16.414  0.8417 -1.4675  0.4029
 2523SOL     OW19027   1.885   0.666   7.532 -0.3984 -0.2432 -0.2153
 2523SOL    HW119028   1.792   0.673   7.555 -0.4131  2.2557 -1.0886
 2523SOL    HW219029   1.915   0.605   7.600 -2.5846 -0.5922  0.4353
 2524SOL     OW19030   1.529   4.682   7.391 -0.0781 -0.2207 -0.4489
 2524SOL    HW119031   1.557   4.698   7.301  1.1512  0.5140  0.0655
 2524SOL    HW219032   1.612   4.654   7.430  0.3157 -1.8565 -2.4470
 2525SOL     OW19033   4.518   0.834   5.968  0.2165  0.9245  0.3985
 2525SOL    HW119034   4.563   0.795   6.043  0.1277  0.2210  0.0812
 2525SOL    HW219035   4.488   0.917   6.006  0.6899  0.5988  1.4974
 2526SOL     OW19036   1.916   1.310   5.839 -0.0013  0.3940  0.3810
 2526SOL    HW119037   1.839   1.292   5.893  0.0399  0.6138  0.5100
 2526SOL    HW219038   1.965   1.249   5.895 -0.5860 -1.6502 -1.2942
 2527SOL     OW19039   0.176   2.924   0.177  0.4415  0.2772 -0.1511
 2527SOL    HW119040   0.131   2.903   0.259  3.3895 -0.6549  1.2336
 2527SOL    HW219041   0.206   2.840   0.143 -1.5410 -0.5540  0.2002
 2528SOL     OW19042   4.480   2.573   9.144  0.4210 -0.1003 -0.2576
 2528SOL    HW119043   4.510   2.662   9.166  0.9716 -1.1246  3.1182
 2528SOL    HW219044   4.553   2.518   9.171  0.1707  0.9823  2.6110
 2529SOL     OW19045   1.569   4.193   4.942  0.2641 -0.1144  0.5937
 2529SOL    HW119046   1.568   4.127   4.873  0.6902  1.5561 -1.0081
 2529SOL    HW219047   1.482   4.233   4.939  0.4284  0.0622 -1.9081
 2530SOL     OW19048   3.356   0.555   2.693  0.7841  0.1382  0.3216
 2530SOL    HW119049   3.293   0.605   2.744 -0.8013  1.4539 -2.8877
 2530SOL    HW219050   3.301   0.511   2.628 -0.3013  1.9646 -0.0111
 2531SOL     OW19051   4.554   2.168   7.987  0.1663  0.8061 -0.5531
 2531SOL    HW119052   4.568   2.118   8.067 -0.9379 -0.4819 -1.1729
 2531SOL    HW219053   4.548   2.259   8.017 -1.1332  0.3741  0.4779
 2532SOL     OW19054   3.878   0.781  12.946 -0.3601 -0.2488 -0.0510
 2532SOL    HW119055   3.915   0.705  12.992  1.6188 -0.0673 -1.3750
 2532SOL    HW219056   3.955   0.819  12.904 -0.5022 -0.2732 -0.3288
 2533SOL     OW19057   0.078   2.223   4.640  0.0218  0.3294 -0.7143
 2533SOL    HW119058   0.037   2.137   4.631 -2.3541  1.1794  2.1460
 2533SOL    HW219059   0.004   2.276   4.611 -0.0419  0.0365 -1.0948
 2534SOL     OW19060   3.051   4.613   6.525  0.0986 -0.4081  0.3017
 2534SOL    HW119061   3.104   4.680   6.568 -1.1650 -0.3648  1.7819
 2534SOL    HW219062   2.969   4.658   6.506 -0.3856 -1.9476 -1.3312
 2535SOL     OW19063   0.353   0.817   3.820  0.0950  0.0272  0.2372
 2535SOL    HW119064   0.310   0.738   3.851 -0.2172  0.2199  0.2898
 2535SOL    HW219065   0.348   0.810   3.725  0.5606  3.5029 -0.0560
 2536SOL     OW19066   2.081   2.775  12.341 -0.6718 -0.1507  0.1318
 2536SOL    HW119067   2.137   2.764  12.419 -0.3229  0.8582  0.0250
 2536SOL    HW219068   2.033   2.692  12.342 -0.8552 -0.0300  5.3519
 2537SOL     OW19069   3.958   1.488  16.335  0.0308 -0.2208  0.3071
 2537SOL    HW119070   3.967   1.459  16.426  1.5879  2.3401  0.9351
 2537SOL    HW219071   3.941   1.410  16.281  0.6258 -0.1190 -0.0284
 2538SOL     OW19072   3.780   3.233   5.605 -0.6267  0.7339  0.2024
 2538SOL    HW119073   3.722   3.281   5.664 -1.3174 -0.0944  0.1994
 2538SOL    HW219074   3.853   3.294   5.591 -1.9347  1.8694 -1.7461
 2539SOL     OW19075   1.077   0.032   0.046  0.0765 -0.0017 -0.3638
 2539SOL    HW119076   1.036   0.081   0.118 -0.1971  0.3728 -0.7796
 2539SOL    HW219077   1.171   0.034   0.066 -0.1870 -0.3024  0.8944
 2540SOL     OW19078   0.417   2.132   5.280 -0.7256  0.3533 -0.6219
 2540SOL    HW119079   0.493   2.140   5.223 -1.9882 -1.6061 -2.6123
 2540SOL    HW219080   0.461   2.100   5.359 -1.9047 -0.3318 -0.2320
 2541SOL     OW19081   4.409   4.015   7.806 -0.4538 -0.1487 -0.0382
 2541SOL    HW119082   4.486   4.044   7.854 -0.2877 -2.1884  0.9244
 2541SOL    HW219083   4.423   3.920   7.798  1.9604  0.0483  1.9689
 2542SOL     OW19084   4.382   1.556   8.005  0.8227  0.3072 -0.3105
 2542SOL    HW119085   4.329   1.568   8.084 -1.0580  0.3700 -1.5726
 2542SOL    HW219086   4.374   1.466   7.974 -0.6018  0.6623 -0.9956
 2543SOL     OW19087   0.597   2.721   2.544  0.1798  0.5222 -0.3428
 2543SOL    HW119088   0.580   2.706   2.452  1.0112  3.3001 -0.9492
 2543SOL    HW219089   0.513   2.757   2.574  0.7770  1.1315  0.6253
 2544SOL     OW19090   3.931   2.146  14.649  0.0957 -0.1866  0.2523
 2544SOL    HW119091   3.847   2.189  14.662 -0.0457 -0.4861  0.3245
 2544SOL    HW219092   3.980   2.227  14.663  1.1230 -0.3937 -2.1671
 2545SOL     OW19093   3.681   2.587   5.746 -0.4950  0.0803  0.0674
 2545SOL    HW119094   3.649   2.677   5.736  0.0223  0.2466 -0.0540
 2545SOL    HW219095   3.765   2.584   5.702  0.5993  2.8806  1.9704
 2546SOL     OW19096   0.494   2.529  16.705 -0.7612  0.5450 -0.5971
 2546SOL    HW119097   0.429   2.511  16.638  0.3172  0.8983 -1.7274
 2546SOL    HW219098   0.499   2.624  16.705  1.5525  0.4347  1.0029
 2547SOL     OW19099   0.793   1.706   5.567  0.6478  0.4575  0.5047
 2547SOL    HW119100   0.838   1.624   5.548  1.9546  1.6127 -1.4364
 2547SOL    HW219101   0.748   1.718   5.483 -1.0490  1.6648  1.5953
 2548SOL     OW19102   4.124   2.473   0.497 -0.1235  0.4575 -0.6857
 2548SOL    HW119103   4.093   2.523   0.572  0.3210  0.9923 -0.8575
 2548SOL    HW219104   4.122   2.548   0.437 -0.1810  2.5253  1.9227
 2549SOL     OW19105   0.310   3.777   8.505  0.1201  0.0950 -0.5578
 2549SOL    HW119106   0.248   3.726   8.558 -0.4148  1.1870 -0.1458
 2549SOL    HW219107   0.396   3.761   8.544  0.4667  1.8141 -0.6245
 2550SOL     OW19108   0.979   3.226  12.990  0.0344 -0.1433 -0.3204
 2550SOL    HW119109   0.931   3.214  13.072  2.4672  1.0536  1.2859
 2550SOL    HW219110   1.067   3.246  13.021 -0.1052  2.0810 -1.3892
 2551SOL     OW19111   3.170   3.951  11.788 -0.9578  0.1357 -0.5920
 2551SOL    HW119112   3.176   3.938  11.693 -0.1433 -0.7810 -0.4110
 2551SOL    HW219113   3.087   3.912  11.814 -1.1419 -0.2276 -1.7244
 2552SOL     OW19114   1.058   0.450   4.271 -0.4123  1.0974  0.2326
 2552SOL    HW119115   0.982   0.432   4.327  0.0564 -2.4877 -0.2596
 2552SOL    HW219116   1.042   0.379   4.208  0.9582 -1.2281  2.4862
 2553SOL     OW19117   2.044   3.749   8.264 -0.1652 -0.1849  0.0783
 2553SOL    HW119118   2.040   3.686   8.192 -0.1665  0.8540 -0.8370
 2553SOL    HW219119   2.007   3.825   8.218 -3.3096 -1.3043  0.7571
 2554SOL     OW19120   2.029   0.508   2.506 -0.6796 -0.7863  0.4330
 2554SOL    HW119121   2.113   0.553   2.513 -1.0466 -0.1782  0.9077
 2554SOL    HW219122   1.974   0.557   2.566  0.1276 -1.0251  1.3694
 2555SOL     OW19123   1.584   4.113  14.164  0.0455  0.0900  0.1084
 2555SOL    HW119124   1.530   4.035  14.149 -0.0149 -0.4144  2.8509
 2555SOL    HW219125   1.529   4.179  14.123 -0.5854 -0.7191 -0.3578
 2556SOL     OW19126   2.986   0.315  14.309  0.0947 -0.1016  0.0851
 2556SOL    HW119127   2.983   0.378  14.238 -0.8751  0.8177  0.9460
 2556SOL    HW219128   2.972   0.233  14.261 -1.7979  1.4941 -2.0580
 2557SOL     OW19129   2.585   3.312   8.471  0.3966 -0.3842 -0.2321
 2557SOL    HW119130   2.538   3.287   8.551  1.1367 -0.2531  0.2440
 2557SOL    HW219131   2.516   3.291   8.408  1.3265 -2.1217 -0.6763
 2558SOL     OW19132   3.451   1.944   8.041  0.0744 -0.0054  0.0666
 2558SOL    HW119133   3.374   1.895   8.069 -0.3336  0.3829 -0.3598
 2558SOL    HW219134   3.511   1.890   8.092  0.8355  0.6464 -0.1397
 2559SOL     OW19135   2.591   2.110   7.620 -0.0874 -0.4203  0.1685
 2559SOL    HW119136   2.675   2.155   7.619  0.1088 -0.8066 -1.0498
 2559SOL    HW219137   2.531   2.180   7.645  1.7120  1.2628 -0.2183
 2560SOL     OW19138   1.418   3.081   4.297 -0.6061 -0.1353 -0.5070
 2560SOL    HW119139   1.348   3.019   4.315  0.1243 -0.5424  0.9264
 2560SOL    HW219140   1.481   3.061   4.367 -0.5766 -0.9427 -0.7608
 2561SOL     OW19141   1.230   3.465   0.845  0.0188  0.1254  0.1976
 2561SOL    HW119142   1.158   3.414   0.807  1.6947 -1.7635 -0.4237
 2561SOL    HW219143   1.304   3.416   0.809  0.0225  0.2429  0.0454
 2562SOL     OW19144   2.669   3.652   9.523  0.4568 -0.0673 -0.3379
 2562SOL    HW119145   2.706   3.672   9.437  0.0328 -1.6450 -0.8931
 2562SOL    HW219146   2.662   3.740   9.560  0.8419 -0.0556 -0.2947
 2563SOL     OW19147   2.337   0.666  10.503 -0.1569 -0.6992  0.1069
 2563SOL    HW119148   2.272   0.608  10.463  2.2135 -4.5824  1.9085
 2563SOL    HW219149   2.346   0.733  10.435  1.8032  0.9890  2.0051
 2564SOL     OW19150   3.086   2.310   6.491  0.4497 -0.0975  0.6082
 2564SOL    HW119151   3.064   2.251   6.563  0.6288 -1.1732 -0.2356
 2564SOL    HW219152   3.118   2.246   6.428 -0.7492 -1.3789  1.3003
 2565SOL     OW19153   4.509   3.081  13.930  0.0064  0.3126  0.0813
 2565SOL    HW119154   4.449   3.042  13.867 -0.2279 -1.0684  1.1652
 2565SOL    HW219155   4.597   3.055  13.901 -0.3229  0.0505 -0.6726
 2566SOL     OW19156   0.871   3.885   3.721  0.7670 -0.1313 -0.0363
 2566SOL    HW119157   0.812   3.875   3.795  1.4787  1.7873  0.7827
 2566SOL    HW219158   0.896   3.797   3.692  1.7725  1.4698 -4.0010
 2567SOL     OW19159   1.164   3.302  12.574  0.0656  0.0526 -0.0567
 2567SOL    HW119160   1.148   3.327  12.483 -1.7656  0.7687  0.4613
 2567SOL    HW219161   1.078   3.290  12.615 -0.1592  0.0460 -0.5233
 2568SOL     OW19162   3.310   3.037   3.732  0.2488 -0.0933  0.1817
 2568SOL    HW119163   3.380   3.098   3.711  0.3802 -0.2323  0.2138
 2568SOL    HW219164   3.352   2.998   3.808 -1.3156 -2.6217 -0.2155
 2569SOL     OW19165   2.459   0.370   8.646 -0.0589 -0.4424 -0.8215
 2569SOL    HW119166   2.536   0.396   8.696  1.2914 -0.7494 -2.7196
 2569SOL    HW219167   2.425   0.446   8.598 -0.2307 -0.1539 -0.2351
 2570SOL     OW19168   2.678   0.214  13.622 -0.3179 -0.2542 -0.0184
 2570SOL    HW119169   2.674   0.309  13.637  2.6424  0.2306 -2.1712
 2570SOL    HW219170   2.774   0.208  13.625 -0.2682  0.6164  0.4182
 2571SOL     OW19171   3.669   3.767   5.732 -0.2146  0.1014 -0.3535
 2571SOL    HW119172   3.686   3.735   5.643 -1.0074  1.1173 -0.8662
 2571SOL    HW219173   3.723   3.709   5.786 -0.7503 -0.2887 -0.2423
 2572SOL     OW19174   3.628   0.243  15.169 -0.2815 -0.4044 -0.3043
 2572SOL    HW119175   3.574   0.173  15.133  0.2016 -1.3107  0.7481
 2572SOL    HW219176   3.718   0.209  15.168 -0.0908  0.1308 -1.5283
 2573SOL     OW19177   0.741   4.259   7.587  0.0957 -0.5000  0.0473
 2573SOL    HW119178   0.764   4.172   7.620  0.4561  0.0134  1.1635
 2573SOL    HW219179   0.768   4.319   7.657 -0.9968  1.2771 -1.0501
 2574SOL     OW19180   2.824   2.824  17.236  0.6183  0.4249 -0.1753
 2574SOL    HW119181   2.779   2.777  17.167  1.7695 -0.9209 -0.0199
 2574SOL    HW219182   2.915   2.807  17.212  0.0675 -1.7980 -0.6511
 2575SOL     OW19183   0.082   4.417   8.751  0.2574 -0.3116 -0.2821
 2575SOL    HW119184   0.132   4.472   8.691 -0.7686  1.5735  0.5886
 2575SOL    HW219185   0.135   4.420   8.830 -1.8002 -0.7093  1.1196
 2576SOL     OW19186   0.063   2.998  11.713  0.0740 -0.4767  0.1745
 2576SOL    HW119187   0.158   2.993  11.712 -0.0657 -3.7558  0.2802
 2576SOL    HW219188   0.046   2.932  11.645 -1.3607 -0.9348  0.9791
 2577SOL     OW19189   2.239   0.371   7.912 -0.8587 -0.0380 -0.3300
 2577SOL    HW119190   2.205   0.286   7.941  0.4532 -1.1638 -2.0919
 2577SOL    HW219191   2.242   0.412   7.998  0.3654 -0.2878 -0.2556
 2578SOL     OW19192   2.023   3.811   7.409 -0.1224  0.6736 -0.0522
 2578SOL    HW119193   1.942   3.761   7.403  0.4959 -0.1621 -1.4609
 2578SOL    HW219194   2.020   3.830   7.503  0.9214  0.9850 -0.0821
 2579SOL     OW19195   4.723   2.754   1.843 -0.3890  0.1691 -0.0188
 2579SOL    HW119196   4.632   2.739   1.869 -0.4928 -1.6116 -1.3861
 2579SOL    HW219197   4.711   2.834   1.792 -0.3526  1.6412  2.2842
 2580SOL     OW19198   3.691   0.983   6.083  0.2289 -0.2232  0.0015
 2580SOL    HW119199   3.606   0.942   6.070 -0.2243  0.9482 -0.6863
 2580SOL    HW219200   3.714   0.951   6.170 -1.6556  2.0845  1.3655
 2581SOL     OW19201   1.945   3.698   5.337 -0.1517  0.0711 -0.0219
 2581SOL    HW119202   1.862   3.676   5.293  0.6463  1.9011 -2.4866
 2581SOL    HW219203   1.943   3.627   5.401 -1.9882  0.4841  0.3775
 2582SOL     OW19204   3.720   2.311  14.708  0.2370 -0.8152 -0.1879
 2582SOL    HW119205   3.660   2.380  14.735 -1.4264 -1.4923 -2.1032
 2582SOL    HW219206   3.797   2.339  14.758 -0.5042 -1.2497  1.2131
 2583SOL     OW19207   2.560   1.496   6.520  0.0749 -0.1720 -0.1764
 2583SOL    HW119208   2.616   1.427   6.556 -1.9224 -2.2073 -1.0276
 2583SOL    HW219209   2.603   1.574   6.556  1.1989 -1.2801  0.9137
 2584SOL     OW19210   1.725   3.862   6.821 -0.0015 -0.4816 -0.0253
 2584SOL    HW119211   1.645   3.836   6.775 -0.6070  2.1073 -0.4029
 2584SOL    HW219212   1.786   3.790   6.807  0.3893 -0.6758  2.6929
 2585SOL     OW19213   1.855   0.581   9.567  0.2906  0.4862 -0.1638
 2585SOL    HW119214   1.824   0.634   9.493 -0.5364  0.4560  0.1564
 2585SOL    HW219215   1.789   0.592   9.636  0.6294 -0.7938  0.3713
 2586SOL     OW19216   2.377   2.347   7.520 -0.2470 -0.3928  0.6134
 2586SOL    HW119217   2.316   2.399   7.468 -2.3209 -1.7370  1.7121
 2586SOL    HW219218   2.316   2.339   7.593  0.6448 -2.2189  1.1607
 2587SOL     OW19219   0.974   3.995   9.327  0.0900 -0.4925  0.3803
 2587SOL    HW119220   0.989   3.901   9.317  1.6594 -0.0342 -1.5252
 2587SOL    HW219221   0.882   4.011   9.309  0.0065  0.7537  1.8109
 2588SOL     OW19222   1.250   2.658  13.938  0.8544 -0.6436 -0.2125
 2588SOL    HW119223   1.270   2.749  13.956 -2.1909  0.5586 -2.7239
 2588SOL    HW219224   1.337   2.621  13.926  1.3518  0.0850  1.2458
 2589SOL     OW19225   0.389   4.155   6.454 -0.7905 -0.1183  0.1389
 2589SOL    HW119226   0.344   4.236   6.480 -0.8363  0.3562 -1.4359
 2589SOL    HW219227   0.341   4.089   6.503  0.6415  0.4014  2.2616
 2590SOL     OW19228   3.628   3.839   2.423  0.0586 -0.1799  0.2523
 2590SOL    HW119229   3.702   3.838   2.483  0.3613 -0.9146 -0.1366
 2590SOL    HW219230   3.597   3.749   2.437 -2.4403  0.0319 -3.8373
 2591SOL     OW19231   3.393   4.712   1.442  0.3758  0.0697  0.1777
 2591SOL    HW119232   3.345   0.049   1.386  0.1552  1.0197  1.4180
 2591SOL    HW219233   3.402   0.045   1.518 -0.0135 -2.2354  1.9908
 2592SOL     OW19234   4.673   1.513   0.556 -0.7385  0.4537 -0.3436
 2592SOL    HW119235   4.605   1.447   0.539 -1.2777  1.4298 -1.9974
 2592SOL    HW219236   4.689   1.500   0.650  1.5371 -1.9132 -1.0423
 2593SOL     OW19237   3.330   3.566   7.583 -0.2049 -0.6717  0.1548
 2593SOL    HW119238   3.240   3.534   7.575 -1.0507  1.8613 -0.2740
 2593SOL    HW219239   3.329   3.659   7.561  0.2630 -0.3362  1.5255
 2594SOL     OW19240   0.672   0.996  11.881 -0.0563  0.1700 -0.8059
 2594SOL    HW119241   0.647   0.917  11.833  1.8710 -1.8207  1.4294
 2594SOL    HW219242   0.767   0.985  11.881 -0.1296 -0.4656  0.0520
 2595SOL     OW19243   2.054   3.230  15.677 -0.2070  0.1136 -0.6655
 2595SOL    HW119244   1.981   3.237  15.616 -0.2565 -1.4738 -0.7706
 2595SOL    HW219245   2.130   3.227  15.618  1.1031  1.2115  0.9476
 2596SOL     OW19246   0.136   0.496  11.158 -0.2365 -0.3239  0.3805
 2596SOL    HW119247   0.156   0.547  11.236 -0.1218  1.2666 -0.6813
 2596SOL    HW219248   0.213   0.500  11.101 -0.2499 -2.0593  0.2286
 2597SOL     OW19249   0.414   3.183   2.882  0.5493  0.4065 -0.1063
 2597SOL    HW119250   0.460   3.231   2.951 -1.3769 -1.3739  2.4003
 2597SOL    HW219251   0.382   3.258   2.832  0.1545 -0.3560 -0.9975
 2598SOL     OW19252   3.333   1.477  15.986  0.6000  0.9126 -0.4697
 2598SOL    HW119253   3.341   1.428  15.905  0.9661 -0.3997  0.3673
 2598SOL    HW219254   3.376   1.561  15.970  0.6996  0.7984 -0.7938
 2599SOL     OW19255   0.667   2.094   5.440  0.2193  0.2240 -0.4426
 2599SOL    HW119256   0.617   2.038   5.498 -0.5044  0.1856 -1.1017
 2599SOL    HW219257   0.630   2.180   5.460 -0.6126  0.2874 -2.1881
 2600SOL     OW19258   0.822   0.640  10.669  0.9701  0.3169 -0.3443
 2600SOL    HW119259   0.825   0.560  10.616 -1.3949 -0.1494  0.1909
 2600SOL    HW219260   0.750   0.686  10.625 -0.1250 -0.1050  0.9987
 2601SOL     OW19261   3.454   4.224   2.269  0.1665 -0.2608 -0.1458
 2601SOL    HW119262   3.413   4.309   2.279  1.9251  0.5721 -0.0985
 2601SOL    HW219263   3.448   4.215   2.173  0.6642 -1.4670 -0.0683
 2602SOL     OW19264   2.534   4.553   1.532  0.2709 -0.4311  0.3660
 2602SOL    HW119265   2.509   4.630   1.480 -1.4119 -0.4544  1.1342
 2602SOL    HW219266   2.600   4.515   1.473 -0.7339 -0.4709 -0.7548
 2603SOL     OW19267   1.539   0.182   4.620 -0.4817  0.3594 -0.3502
 2603SOL    HW119268   1.537   0.245   4.692 -1.7348 -1.1270  0.9086
 2603SOL    HW219269   1.582   0.226   4.547 -0.7224  0.2514 -0.5579
 2604SOL     OW19270   1.574   4.705   8.983  0.5967  0.2980  0.5858
 2604SOL    HW119271   1.534   4.621   9.003 -1.4862  0.5952 -2.3448
 2604SOL    HW219272   1.619   4.705   8.899 -1.0692  0.2350 -0.2976
 2605SOL     OW19273   0.345   1.956   3.323  0.2150 -0.5739  0.3578
 2605SOL    HW119274   0.262   1.921   3.355  0.4319  1.0300  2.6365
 2605SOL    HW219275   0.392   1.950   3.406  0.8317 -1.3071 -0.0347
 2606SOL     OW19276   4.149   0.773  11.689 -0.3605 -0.3315 -0.1805
 2606SOL    HW119277   4.134   0.763  11.595 -2.4345  1.1445 -0.0153
 2606SOL    HW219278   4.244   0.768  11.693 -0.4128 -1.1719  0.0038
 2607SOL     OW19279   1.867   0.347  12.778  0.3018 -0.3524 -0.4629
 2607SOL    HW119280   1.850   0.436  12.749 -0.6412  0.4217  2.4766
 2607SOL    HW219281   1.796   0.335  12.841  0.2594  2.3462  0.0131
 2608SOL     OW19282   2.414   0.006   8.066  0.1603  0.1592  1.0854
 2608SOL    HW119283   2.400   4.710   8.158 -1.0995  1.5366  1.2104
 2608SOL    HW219284   2.491   4.677   8.048  0.2376  0.6621 -0.0697
 2609SOL     OW19285   2.154   0.764   7.888 -0.0380 -0.6488  0.0049
 2609SOL    HW119286   2.075   0.792   7.842 -2.1250 -0.6021  3.6407
 2609SOL    HW219287   2.189   0.844   7.928  0.7023 -0.5757 -0.7776
 2610SOL     OW19288   4.329   1.332   3.283  0.2166 -0.0705  0.4877
 2610SOL    HW119289   4.287   1.394   3.224  0.1588 -0.1901  0.4013
 2610SOL    HW219290   4.368   1.392   3.346  1.4378  0.7548 -1.0508
 2611SOL     OW19291   0.471   1.886  10.589  0.6848 -0.1482  0.4105
 2611SOL    HW119292   0.483   1.844  10.503  1.0112 -0.0927  0.4297
 2611SOL    HW219293   0.407   1.824  10.626  2.5439 -2.0238  0.4804
 2612SOL     OW19294   0.041   3.145   4.596 -1.0749 -0.1301  0.2273
 2612SOL    HW119295   0.010   3.066   4.641 -1.3126  0.6804  1.5140
 2612SOL    HW219296   4.681   3.184   4.574 -1.3519 -1.1548 -0.4921
 2613SOL     OW19297   1.832   2.681   4.634 -0.4160 -0.0341  0.2763
 2613SOL    HW119298   1.859   2.698   4.724  0.2993 -0.0769  0.0670
 2613SOL    HW219299   1.763   2.747   4.624 -2.5706 -2.1219  1.3998
 2614SOL     OW19300   0.244   3.026   5.866 -0.4302  0.1703 -0.2685
 2614SOL    HW119301   0.207   3.025   5.778 -0.5043 -1.3466 -0.2122
 2614SOL    HW219302   0.194   3.093   5.913  0.2944 -0.6285  1.6551
 2615SOL     OW19303   0.288   4.716  13.628 -0.7201  0.1391  0.5012
 2615SOL    HW119304   0.288   4.646  13.563  0.4514  0.1309  0.5120
 2615SOL    HW219305   0.346   4.679  13.695  1.1132  1.5625 -0.2903
 2616SOL     OW19306   0.693   1.201   6.687  0.0986 -0.2934 -0.0424
 2616SOL    HW119307   0.740   1.281   6.665 -4.0208  1.8775 -0.9652
 2616SOL    HW219308   0.628   1.205   6.617 -0.5862  0.4067  0.6372
 2617SOL     OW19309   1.384   4.282   6.345  0.1567 -0.0374  0.2914
 2617SOL    HW119310   1.357   4.273   6.436  0.6125  1.0947  0.5465
 2617SOL    HW219311   1.305   4.249   6.303 -0.1725  0.4021  0.5653
 2618SOL     OW19312   0.602   0.914   1.397 -0.3774  0.5568  0.2591
 2618SOL    HW119313   0.574   0.824   1.415  1.4087 -0.6528 -3.1475
 2618SOL    HW219314   0.678   0.891   1.345 -2.0843  0.0109 -1.9852
 2619SOL     OW19315   1.965   0.048   6.340 -0.6209  0.7581  0.4259
 2619SOL    HW119316   1.916   4.701   6.300  0.3199  0.0321  0.5700
 2619SOL    HW219317   1.910   0.125   6.324 -0.2108  1.1617  0.9881
 2620SOL     OW19318   2.377   1.091   3.053  0.3258 -0.0666  0.3762
 2620SOL    HW119319   2.283   1.091   3.038  0.4575  1.2136 -0.4329
 2620SOL    HW219320   2.398   1.114   2.963 -1.1888  1.0859  0.3255
 2621SOL     OW19321   1.651   2.214   2.180  0.0811 -0.4573  0.2070
 2621SOL    HW119322   1.679   2.134   2.137 -1.0486 -0.4879 -0.4782
 2621SOL    HW219323   1.659   2.279   2.110 -0.1900 -0.5008  0.1378
 2622SOL     OW19324   3.623   2.357   4.941  0.2664 -0.2247 -0.2320
 2622SOL    HW119325   3.596   2.268   4.920 -2.9558  0.7497 -0.1761
 2622SOL    HW219326   3.708   2.362   4.897 -0.1430 -0.1019 -1.0120
 2623SOL     OW19327   1.916   3.974   3.934 -0.2191  0.2509 -0.2940
 2623SOL    HW119328   1.886   3.917   3.863  0.3030 -1.4494  0.8650
 2623SOL    HW219329   2.011   3.973   3.923 -0.2025  0.1857 -0.1323
 2624SOL     OW19330   0.665   3.350  16.518  0.4865  0.6632 -1.1538
 2624SOL    HW119331   0.690   3.306  16.600  0.8253  2.4645 -0.2950
 2624SOL    HW219332   0.590   3.292  16.505  0.3420  0.8978 -1.3372
 2625SOL     OW19333   0.761   0.226  11.841 -0.0484 -0.0963 -0.5274
 2625SOL    HW119334   0.676   0.207  11.801 -0.6136  1.8350 -0.2268
 2625SOL    HW219335   0.813   0.213  11.761 -1.2513  0.2865 -1.3684
 2626SOL     OW19336   1.920   4.273   1.963 -0.2071  0.0817  0.6480
 2626SOL    HW119337   1.871   4.230   1.892 -1.6550 -0.5082  1.9920
 2626SOL    HW219338   1.899   4.220   2.040 -0.1235 -0.1473  0.5130
 2627SOL     OW19339   4.031   2.328   4.298 -0.3229 -0.5834  0.5197
 2627SOL    HW119340   3.950   2.298   4.338 -0.7912  0.3790  0.3093
 2627SOL    HW219341   4.034   2.290   4.210  0.1354  0.6554 -0.0158
 2628SOL     OW19342   0.212   2.922  16.333 -0.1459 -0.7455 -0.0798
 2628SOL    HW119343   0.214   2.827  16.343 -1.8883 -0.6796  0.8709
 2628SOL    HW219344   0.305   2.940  16.319 -0.6415  1.3834 -0.6370
 2629SOL     OW19345   2.192   2.288  10.487  0.2335 -0.5580 -0.6737
 2629SOL    HW119346   2.184   2.272  10.581  0.7638  0.0234 -0.5305
 2629SOL    HW219347   2.120   2.350  10.478  0.5966 -0.3816 -2.4857
 2630SOL     OW19348   3.634   3.661   9.527 -0.2747 -0.3435 -0.4031
 2630SOL    HW119349   3.689   3.630   9.598 -1.0685 -1.0743 -0.1130
 2630SOL    HW219350   3.544   3.671   9.556 -0.2285 -3.1807  0.7228
 2631SOL     OW19351   1.432   2.262   6.483  0.5386 -0.1993 -0.0163
 2631SOL    HW119352   1.402   2.320   6.553 -1.1089 -2.3683  1.0608
 2631SOL    HW219353   1.471   2.189   6.533  1.6120 -1.2194 -2.3535
 2632SOL     OW19354   2.451   3.333   9.004  0.2080  0.6285 -0.2185
 2632SOL    HW119355   2.425   3.245   9.033  0.1497  0.3798 -1.0101
 2632SOL    HW219356   2.484   3.367   9.087 -0.1576  1.5479 -0.4492
 2633SOL     OW19357   4.036   0.474  11.344  0.5790 -0.0605 -0.0100
 2633SOL    HW119358   4.048   0.390  11.299 -2.0633 -1.2158  1.4022
 2633SOL    HW219359   3.942   0.494  11.338  0.1011 -2.0622  0.5635
 2634SOL     OW19360   2.372   2.985   6.702  0.2346  0.0062 -0.1954
 2634SOL    HW119361   2.306   3.052   6.719  0.5979  0.6272 -1.2285
 2634SOL    HW219362   2.450   3.033   6.673  1.9359 -1.4849  1.9638
 2635SOL     OW19363   4.451   2.215   8.844  0.6359  0.1457  0.0059
 2635SOL    HW119364   4.493   2.300   8.852  1.1907  0.1058 -2.4340
 2635SOL    HW219365   4.364   2.234   8.880  0.2937  0.1299 -0.8026
 2636SOL     OW19366   4.355   1.224   4.656  0.0857  0.6471 -0.2650
 2636SOL    HW119367   4.416   1.166   4.701 -0.5061 -0.1834 -0.5540
 2636SOL    HW219368   4.416   1.298   4.654  3.2978 -2.0115 -1.1250
 2637SOL     OW19369   4.449   1.225   2.361 -0.1558 -0.4525 -0.4948
 2637SOL    HW119370   4.386   1.217   2.433 -0.3321 -1.8530 -0.7992
 2637SOL    HW219371   4.460   1.135   2.329 -0.4925  0.0160 -1.9233
 2638SOL     OW19372   1.911   3.248   4.339 -0.2626  0.1194  0.2685
 2638SOL    HW119373   1.846   3.310   4.306 -1.9460 -1.2481  1.0374
 2638SOL    HW219374   1.873   3.243   4.427  2.4455 -1.9746  1.3311
 2639SOL     OW19375   0.079   2.056   2.989  1.1432  0.5742 -0.3014
 2639SOL    HW119376   0.108   2.087   2.903  1.4877  0.1018 -0.3514
 2639SOL    HW219377   4.715   2.092   2.982 -0.1059 -2.6879 -1.0202
 2640SOL     OW19378   2.914   1.303   8.970  0.9757  0.6335  0.5592
 2640SOL    HW119379   2.958   1.232   9.016  0.7129  1.1719  1.6419
 2640SOL    HW219380   2.848   1.250   8.926 -0.6647  1.9996  1.3489
 2641SOL     OW19381   2.515   2.698   7.609 -0.1735  0.5078  0.5282
 2641SOL    HW119382   2.604   2.696   7.644  0.0812 -1.3072 -0.2010
 2641SOL    HW219383   2.469   2.636   7.666  0.3690 -1.0260 -0.6749
 2642SOL     OW19384   1.961   4.089   6.557  0.4278  0.0220 -0.2927
 2642SOL    HW119385   1.958   4.052   6.469  0.5658 -0.6243 -0.0221
 2642SOL    HW219386   2.038   4.042   6.588  1.7059  1.9258 -0.5913
 2643SOL     OW19387   3.003   0.805   5.331  0.4920  0.5823  0.7717
 2643SOL    HW119388   2.992   0.750   5.408 -2.2610 -1.0250 -0.7654
 2643SOL    HW219389   3.046   0.880   5.371  0.1214  1.8038 -1.1247
 2644SOL     OW19390   1.904   2.193   2.331  0.4384 -0.1782  0.3429
 2644SOL    HW119391   1.979   2.235   2.288  1.3225 -2.7474 -0.6575
 2644SOL    HW219392   1.835   2.159   2.274  1.0739  2.5455 -2.0846
 2645SOL     OW19393   2.187   4.568   1.205 -0.2380  0.0335  0.2743
 2645SOL    HW119394   2.108   4.522   1.232 -0.9879  1.3609  0.3268
 2645SOL    HW219395   2.224   4.581   1.292  2.7924 -0.7666 -0.8908
 2646SOL     OW19396   3.250   0.962   0.318 -0.0313 -0.1376  0.1907
 2646SOL    HW119397   3.197   0.890   0.352  1.5045  0.0257  2.8824
 2646SOL    HW219398   3.216   0.978   0.230  5.1826  0.5354 -1.7254
 2647SOL     OW19399   1.206   0.648   5.498  0.1107 -0.0552 -0.2756
 2647SOL    HW119400   1.267   0.715   5.529  1.6384 -1.3804 -0.4161
 2647SOL    HW219401   1.179   0.690   5.416 -1.1198  1.3431  0.8416
 2648SOL     OW19402   3.479   2.368   9.632  0.1825 -0.1540  0.2532
 2648SOL    HW119403   3.445   2.433   9.571  1.3777 -0.2420 -0.5038
 2648SOL    HW219404   3.565   2.402   9.658  0.2231  0.1623 -0.2942
 2649SOL     OW19405   2.300   0.162   8.777 -0.0469  0.5108  0.0594
 2649SOL    HW119406   2.366   0.096   8.757 -0.3767  0.6005 -1.2819
 2649SOL    HW219407   2.341   0.240   8.741  1.5448  0.2137  1.1994
 2650SOL     OW19408   4.502   2.265   4.619  0.2133 -0.2051  0.3605
 2650SOL    HW119409   4.449   2.209   4.562  0.1198  1.5410 -1.2438
 2650SOL    HW219410   4.450   2.345   4.611 -1.1847 -1.2174 -0.7147
 2651SOL     OW19411   2.942   2.666  10.666 -0.1280  0.1042 -0.4317
 2651SOL    HW119412   2.859   2.694  10.705 -0.8150 -1.6681 -0.6421
 2651SOL    HW219413   2.963   2.589  10.718 -0.7707 -0.2951 -0.7613
 2652SOL     OW19414   1.438   3.218   5.733 -0.3210  0.3668 -0.3651
 2652SOL    HW119415   1.488   3.283   5.684 -1.5912 -0.5238 -2.8001
 2652SOL    HW219416   1.461   3.242   5.823  0.4298  0.1271 -0.4940
 2653SOL     OW19417   3.895   3.498   8.184  0.8780 -0.1648  0.0585
 2653SOL    HW119418   3.960   3.458   8.241  0.4342 -0.7302  0.1632
 2653SOL    HW219419   3.894   3.588   8.218 -2.4800  0.4088 -1.6001
 2654SOL     OW19420   3.240   2.305   7.339  0.1406  0.0077 -0.7196
 2654SOL    HW119421   3.217   2.323   7.430  0.2942 -4.1973  0.1527
 2654SOL    HW219422   3.215   2.389   7.301  0.7311  0.5092  0.0011
 2655SOL     OW19423   4.707   0.425   7.718 -0.1865 -0.3404  0.6462
 2655SOL    HW119424   4.670   0.397   7.634 -0.1381 -0.7815  0.7709
 2655SOL    HW219425   0.038   0.349   7.737  1.2563  0.6351  0.3083
 2656SOL     OW19426   2.280   3.175  12.349  0.4094 -0.0840 -0.2518
 2656SOL    HW119427   2.234   3.182  12.266 -2.1292  1.4708  1.3068
 2656SOL    HW219428   2.362   3.136  12.318  0.3772  0.2183 -0.7123
 2657SOL     OW19429   4.067   3.874  10.239 -0.1787  0.7110 -0.1588
 2657SOL    HW119430   4.118   3.808  10.285  1.3034  0.8058 -1.6345
 2657SOL    HW219431   3.982   3.836  10.262 -0.0343  0.7804  0.4678
 2658SOL     OW19432   1.471   4.115   3.201 -0.1067 -0.5480 -0.4984
 2658SOL    HW119433   1.557   4.075   3.190  0.2052 -0.7050  2.2787
 2658SOL    HW219434   1.443   4.123   3.110 -3.9823 -0.0844  0.7054
 2659SOL     OW19435   3.617   4.668   1.279 -0.3792  0.0654 -0.6866
 2659SOL    HW119436   3.628   0.017   1.218 -1.7196  2.4040  1.8526
 2659SOL    HW219437   3.589   4.714   1.358  0.4412 -0.8275  0.1277
 2660SOL     OW19438   2.847   3.916   2.433 -0.5782  0.7544  0.1407
 2660SOL    HW119439   2.875   3.826   2.415 -0.9613  0.4866  0.8810
 2660SOL    HW219440   2.927   3.946   2.476 -0.7411  4.3623 -2.1163
 2661SOL     OW19441   3.602   0.091   7.313  0.6915 -0.0289  0.2639
 2661SOL    HW119442   3.521   0.041   7.300  0.9013 -0.7259  1.5882
 2661SOL    HW219443   3.606   0.163   7.251  1.9460 -1.1645 -0.9671
 2662SOL     OW19444   0.795   1.455   2.551 -0.2943  0.2374 -0.4493
 2662SOL    HW119445   0.721   1.443   2.492 -2.1163 -1.0069  2.0785
 2662SOL    HW219446   0.802   1.365   2.584  0.3618  0.5951  0.4043
 2663SOL     OW19447   0.528   0.085   2.852  0.0462 -0.0192 -0.7374
 2663SOL    HW119448   0.487   0.057   2.934 -0.4885 -0.6227 -1.2128
 2663SOL    HW219449   0.567   0.001   2.827  0.2435 -0.2711  0.4153
 2664SOL     OW19450   4.030   1.282  14.744  0.1549  0.3262 -0.3766
 2664SOL    HW119451   4.125   1.290  14.748  0.0248  1.1822  1.3636
 2664SOL    HW219452   4.014   1.188  14.736  0.3681  0.3285 -0.8090
 2665SOL     OW19453   0.722   2.228   8.959 -0.3720  0.6619 -0.3572
 2665SOL    HW119454   0.697   2.288   9.029 -1.8350 -1.4385  0.9311
 2665SOL    HW219455   0.796   2.270   8.916 -0.8992  0.9979 -0.9388
 2666SOL     OW19456   0.637   2.299   8.125  0.7296 -0.2828  0.1583
 2666SOL    HW119457   0.656   2.262   8.211  2.0244 -0.8255 -0.3508
 2666SOL    HW219458   0.724   2.335   8.107  1.2952 -1.4593  0.4965
 2667SOL     OW19459   3.791   0.847  14.828 -0.3696 -0.3415 -0.4101
 2667SOL    HW119460   3.707   0.855  14.873 -1.2481 -1.5581 -1.7991
 2667SOL    HW219461   3.780   0.771  14.771  1.3036  0.8169 -2.2802
 2668SOL     OW19462   1.283   4.126   4.138  0.3288  0.0086 -0.0595
 2668SOL    HW119463   1.276   4.120   4.233  5.7351  1.7530  0.4351
 2668SOL    HW219464   1.301   4.219   4.122  0.0178  0.0953  0.0907
 2669SOL     OW19465   1.654   2.147   5.903 -0.0349  0.2649  0.6550
 2669SOL    HW119466   1.748   2.163   5.908 -0.5526  3.4592 -0.2375
 2669SOL    HW219467   1.626   2.231   5.939 -3.3395 -0.7628  0.5147
 2670SOL     OW19468   1.044   3.039   7.889 -0.2014 -0.5108 -0.0742
 2670SOL    HW119469   1.094   2.960   7.912 -1.1648 -1.2495 -0.5467
 2670SOL    HW219470   1.115   3.093   7.855  1.5023 -3.0679 -0.6123
 2671SOL     OW19471   1.012   0.999   6.925  0.2533 -0.2171 -0.6524
 2671SOL    HW119472   1.104   1.022   6.942  0.5626 -0.8437 -1.4846
 2671SOL    HW219473   0.993   0.952   7.007  0.9238  0.4946 -0.0808
 2672SOL     OW19474   4.404   4.260   1.240  0.7027 -0.4202  0.1768
 2672SOL    HW119475   4.396   4.172   1.202  1.0252 -0.3765  0.0150
 2672SOL    HW219476   4.321   4.276   1.286 -0.1533 -0.6307 -1.2991
 2673SOL     OW19477   1.746   3.358   2.729  0.1452  0.1432 -0.3539
 2673SOL    HW119478   1.840   3.347   2.745  0.0913  2.0915  1.2780
 2673SOL    HW219479   1.713   3.272   2.702 -0.9684  0.7920 -1.0224
 2674SOL     OW19480   3.165   0.091   1.715 -0.4886 -0.1496  0.0845
 2674SOL    HW119481   3.214   0.105   1.796 -0.9369  0.9924  0.1590
 2674SOL    HW219482   3.194   0.166   1.662  0.1703 -0.8055 -0.4723
 2675SOL     OW19483   2.736   0.375   0.606  0.2005 -0.1630 -0.3604
 2675SOL    HW119484   2.785   0.364   0.688  0.2928 -1.7145 -0.6301
 2675SOL    HW219485   2.804   0.354   0.542  0.1494 -0.2129 -0.3975
 2676SOL     OW19486   3.137   2.369  11.854 -0.1143 -0.0554  0.1197
 2676SOL    HW119487   3.136   2.460  11.883  0.1224 -0.0799  0.2068
 2676SOL    HW219488   3.073   2.323  11.908  0.0691  1.0944  1.3264
 2677SOL     OW19489   2.452   2.972   7.611  0.1297 -0.1621 -0.0444
 2677SOL    HW119490   2.540   2.988   7.577  0.3817 -3.2512 -0.8704
 2677SOL    HW219491   2.461   2.881   7.639 -0.6796 -0.5018 -0.8818
 2678SOL     OW19492   4.633   1.207   6.144  0.2742  0.5861  0.0790
 2678SOL    HW119493   4.659   1.245   6.060 -2.2200  1.4100 -0.3370
 2678SOL    HW219494   4.556   1.245   6.186 -0.1961  0.7752 -0.9435
 2679SOL     OW19495   4.563   1.419  16.093  0.6411 -0.4949 -0.4168
 2679SOL    HW119496   4.535   1.378  16.175 -0.8227  0.2905 -0.5379
 2679SOL    HW219497   4.493   1.481  16.073  0.9512 -0.2322 -0.6732
 2680SOL     OW19498   2.670   1.248   8.269  0.1470 -0.9480 -0.0913
 2680SOL    HW119499   2.702   1.259   8.358 -1.2507  0.0159  0.3008
 2680SOL    HW219500   2.729   1.179   8.239  1.0247  0.4740 -1.7136
 2681SOL     OW19501   2.303   1.235   3.662 -0.0973  1.1911  0.1418
 2681SOL    HW119502   2.228   1.202   3.612 -1.1220  1.9308  1.1956
 2681SOL    HW219503   2.334   1.305   3.604  0.3579 -0.1570 -1.2230
 2682SOL     OW19504   0.849   4.702   7.713 -0.4972 -0.3148  0.4211
 2682SOL    HW119505   0.886   0.003   7.629 -2.1235  1.2087  0.1850
 2682SOL    HW219506   0.767   0.025   7.700  0.0242  0.8805  1.5303
 2683SOL     OW19507   2.687   4.557   2.095 -0.3948 -0.0583 -0.3146
 2683SOL    HW119508   2.678   4.570   2.000 -1.2744  0.0673 -0.2093
 2683SOL    HW219509   2.756   4.491   2.104 -1.7056 -1.5271 -0.9698
 2684SOL     OW19510   1.816   2.527   7.535  0.3748  0.6276  0.0785
 2684SOL    HW119511   1.769   2.567   7.462 -0.6834  1.8672  1.4330
 2684SOL    HW219512   1.905   2.559   7.518  1.5234 -0.9943  2.9899
 2685SOL     OW19513   1.877   1.947   0.390 -0.1690 -0.7095  0.1547
 2685SOL    HW119514   1.891   2.041   0.388  0.5927 -0.8199  0.2511
 2685SOL    HW219515   1.791   1.953   0.431  0.0695 -1.6816  0.8102
 2686SOL     OW19516   1.732   3.820  11.451 -0.3724 -0.2789 -0.1860
 2686SOL    HW119517   1.745   3.867  11.368  2.2361  2.7087  1.9163
 2686SOL    HW219518   1.742   3.883  11.523 -0.5466 -0.0475 -0.3633
 2687SOL     OW19519   3.442   2.871   3.421  0.2684  0.4047 -0.1182
 2687SOL    HW119520   3.372   2.852   3.483 -1.6696  0.1753 -2.3970
 2687SOL    HW219521   3.453   2.781   3.393  0.9341  1.2723 -2.6267
 2688SOL     OW19522   1.372   1.637   5.785 -0.6477 -0.2347  0.1034
 2688SOL    HW119523   1.327   1.575   5.727  0.2463 -0.8464  0.0729
 2688SOL    HW219524   1.450   1.655   5.734  1.3395 -0.9577  2.9004
 2689SOL     OW19525   1.063   0.369   8.959  0.3689  0.3427 -0.2984
 2689SOL    HW119526   1.039   0.318   9.036  1.1849 -0.1435 -0.3664
 2689SOL    HW219527   1.044   0.458   8.989 -0.7465 -0.5761  1.7126
 2690SOL     OW19528   4.241   4.030   4.408  0.2469  0.2261 -0.3065
 2690SOL    HW119529   4.194   4.075   4.338 -0.0316 -0.1994 -0.3921
 2690SOL    HW219530   4.256   3.941   4.375 -0.3044  0.0723 -0.1433
 2691SOL     OW19531   1.280   4.488   7.661 -0.0810  0.1798 -0.1952
 2691SOL    HW119532   1.291   4.433   7.584  2.4587 -1.2904  1.2216
 2691SOL    HW219533   1.227   4.563   7.633 -1.0486  0.2280  1.7612
 2692SOL     OW19534   3.660   3.942   6.845 -0.5589 -0.0176  0.6671
 2692SOL    HW119535   3.628   3.898   6.924 -3.0031  1.3404  0.4368
 2692SOL    HW219536   3.744   3.973   6.878 -0.7118 -0.5845  1.5796
 2693SOL     OW19537   1.420   0.402   4.970 -0.3287 -0.2922 -0.0379
 2693SOL    HW119538   1.456   0.471   5.026  0.9354  0.2732 -1.5646
 2693SOL    HW219539   1.466   0.424   4.890  0.5176 -0.1365  0.4908
 2694SOL     OW19540   1.720   1.456   3.261 -0.0545 -1.0219 -0.2186
 2694SOL    HW119541   1.667   1.414   3.193  1.4640 -1.1429 -1.3108
 2694SOL    HW219542   1.672   1.537   3.277 -0.1568 -1.1952  0.3570
 2695SOL     OW19543   1.269   3.117  14.703  0.5644  0.2335  0.2849
 2695SOL    HW119544   1.287   3.031  14.665 -0.0321  1.3443 -2.5039
 2695SOL    HW219545   1.358   3.153  14.693  0.5931 -0.1442 -0.8538
 2696SOL     OW19546   3.441   2.353  13.468 -0.4257  0.5335  0.2716
 2696SOL    HW119547   3.351   2.333  13.441  0.0727 -1.3641  0.0138
 2696SOL    HW219548   3.457   2.281  13.528  0.8753  0.0418 -0.6546
 2697SOL     OW19549   3.274   0.645   5.749  0.1478 -0.2158  0.0700
 2697SOL    HW119550   3.340   0.592   5.704  0.3000  0.3112 -0.3229
 2697SOL    HW219551   3.325   0.726   5.758  1.0648 -1.0443  2.3877
 2698SOL     OW19552   3.283   4.259   7.683  0.3494 -0.2577 -0.5033
 2698SOL    HW119553   3.245   4.174   7.660  2.9773 -1.0850 -1.8354
 2698SOL    HW219554   3.211   4.321   7.675  0.7148  0.1338 -0.7408
 2699SOL     OW19555   0.485   1.378   3.473  0.2855 -0.3909 -0.4789
 2699SOL    HW119556   0.485   1.407   3.564 -0.5187 -0.3561 -0.4838
 2699SOL    HW219557   0.485   1.466   3.434  0.4587  0.0540  0.5218
 2700SOL     OW19558   0.015   0.217   9.347  0.1044  0.1311 -0.4657
 2700SOL    HW119559   0.010   0.209   9.252 -2.4298 -0.5650 -0.2681
 2700SOL    HW219560   4.700   0.303   9.360  0.0652  0.1619 -0.7765
 2701SOL     OW19561   4.552   4.217   7.536 -0.1281  0.2712 -0.0088
 2701SOL    HW119562   4.533   4.212   7.442 -1.4091  1.4089  0.1812
 2701SOL    HW219563   4.596   4.134   7.555 -0.2922  0.0347 -0.6338
 2702SOL     OW19564   3.753   0.076   3.376  1.1023  0.1520 -0.1932
 2702SOL    HW119565   3.767   0.008   3.310  1.7161  0.8859 -0.8196
 2702SOL    HW219566   3.808   0.145   3.337  0.1061  0.3233 -1.2759
 2703SOL     OW19567   3.669   0.364   2.108  0.0307 -0.1522 -0.0906
 2703SOL    HW119568   3.761   0.391   2.110  0.4485 -1.5471 -1.2833
 2703SOL    HW219569   3.674   0.276   2.145 -1.0236 -0.0740  0.2383
 2704SOL     OW19570   2.733   1.745   4.718  0.3189 -0.3956 -0.3937
 2704SOL    HW119571   2.778   1.797   4.784  0.3920 -1.2547  0.2401
 2704SOL    HW219572   2.797   1.743   4.648 -0.9866 -4.3712 -1.4941
 2705SOL     OW19573   0.656   3.250   8.819 -0.4254  0.1065 -0.7023
 2705SOL    HW119574   0.649   3.183   8.887  1.8225  0.5919  0.0290
 2705SOL    HW219575   0.630   3.203   8.739  1.0146 -2.3060  0.2263
 2706SOL     OW19576   1.811   0.272   6.310 -0.7700  0.4475 -0.1978
 2706SOL    HW119577   1.772   0.320   6.383  1.0774 -1.0231  1.7519
 2706SOL    HW219578   1.870   0.339   6.274  1.3784  0.5360  3.4624
 2707SOL     OW19579   0.577   2.886   0.695  0.1055  0.5018  0.6599
 2707SOL    HW119580   0.576   2.982   0.687 -1.5169  0.3272 -1.3365
 2707SOL    HW219581   0.547   2.869   0.784  1.2477  0.0533  0.9528
 2708SOL     OW19582   1.549   3.164  12.881  0.1363 -0.1597  0.0486
 2708SOL    HW119583   1.515   3.210  12.804 -0.0042  1.1358  0.8860
 2708SOL    HW219584   1.616   3.226  12.908 -0.4031  0.2232  0.5047
 2709SOL     OW19585   3.890   3.118   7.655  0.3939 -0.2477  0.4379
 2709SOL    HW119586   3.921   3.100   7.566  3.1486  0.1259  1.2995
 2709SOL    HW219587   3.798   3.143   7.652  0.3471 -0.3938  0.6716
 2710SOL     OW19588   0.123   1.383   8.762 -0.3949 -0.0950 -0.3795
 2710SOL    HW119589   0.057   1.421   8.703 -0.4101  0.7364  0.1808
 2710SOL    HW219590   0.158   1.308   8.715 -3.1212  1.0391 -4.3041
 2711SOL     OW19591   3.283   2.380  13.755  0.2972  0.5487 -0.1540
 2711SOL    HW119592   3.351   2.318  13.728  1.5137  0.2070  3.7251
 2711SOL    HW219593   3.300   2.388  13.848  2.0141  1.7543 -0.5747
 2712SOL     OW19594   4.499   3.269   4.558  0.1359 -0.1794  0.3038
 2712SOL    HW119595   4.510   3.186   4.603  2.3829 -0.2319 -0.3049
 2712SOL    HW219596   4.538   3.333   4.618 -1.4803  0.4137  0.7174
 2713SOL     OW19597   1.303   0.712   2.393 -0.6808 -0.0849  0.2587
 2713SOL    HW119598   1.366   0.728   2.463  0.4384 -2.4326 -0.2435
 2713SOL    HW219599   1.305   0.796   2.346 -2.2209  0.9410  1.9785
 2714SOL     OW19600   0.194   4.096   7.524  0.7291 -0.1708 -0.1959
 2714SOL    HW119601   0.200   4.060   7.436  0.2606 -1.7962  0.4367
 2714SOL    HW219602   0.289   4.102   7.533  0.6968  1.4187 -0.9284
 2715SOL     OW19603   0.738   2.973   6.463  0.0630 -0.0291 -0.0886
 2715SOL    HW119604   0.713   3.060   6.494 -0.8138 -0.0615 -0.7013
 2715SOL    HW219605   0.685   2.926   6.527  1.3274 -2.7155 -0.9837
 2716SOL     OW19606   3.321   2.119   0.550 -0.5100  0.4011  0.7932
 2716SOL    HW119607   3.235   2.085   0.573 -1.0033  0.8849 -0.3639
 2716SOL    HW219608   3.349   2.125   0.642  0.1369 -0.5155  0.6595
 2717SOL     OW19609   3.154   3.307   4.541  0.5547 -0.7303 -0.6548
 2717SOL    HW119610   3.074   3.301   4.592  0.7868 -0.7459 -0.2943
 2717SOL    HW219611   3.217   3.248   4.581 -1.5903 -2.1804  0.5624
 2718SOL     OW19612   2.892   3.768   5.317 -0.5335 -0.1267 -0.1650
 2718SOL    HW119613   2.838   3.797   5.391  0.7432 -2.2169  1.5920
 2718SOL    HW219614   2.850   3.800   5.237  0.7115  0.5755 -0.5435
 2719SOL     OW19615   2.116   1.695   3.255 -0.2004  0.5102 -0.1611
 2719SOL    HW119616   2.030   1.733   3.269 -0.3896 -0.1004  0.3643
 2719SOL    HW219617   2.121   1.667   3.164  0.1181 -2.1213  0.6641
 2720SOL     OW19618   4.495   4.315   4.448 -0.1767  0.3317 -0.0025
 2720SOL    HW119619   4.485   4.387   4.385  0.9659 -1.5448 -2.3113
 2720SOL    HW219620   4.544   4.250   4.398  0.5607  0.8067  0.0894
 2721SOL     OW19621   0.293   4.646  13.216 -0.4152 -0.5314 -0.0644
 2721SOL    HW119622   0.305   4.719  13.155 -0.3412 -0.2901  0.2430
 2721SOL    HW219623   0.202   4.620  13.201 -1.3834  1.8243  1.7320
 2722SOL     OW19624   3.014   2.147   4.414  0.4934  0.1709 -0.2274
 2722SOL    HW119625   2.981   2.134   4.503  0.2579  1.7479 -0.0771
 2722SOL    HW219626   3.086   2.087   4.398 -0.0873 -0.3522 -0.8534
 2723SOL     OW19627   4.149   3.531   2.749  0.3140 -0.3758 -0.4033
 2723SOL    HW119628   4.160   3.456   2.808 -1.8445 -0.3580  0.0174
 2723SOL    HW219629   4.158   3.487   2.664  0.1754 -0.5264 -0.3409
 2724SOL     OW19630   2.613   0.122   4.270 -0.0378 -0.4090 -0.1459
 2724SOL    HW119631   2.535   0.082   4.308 -0.7983  0.8371 -0.4110
 2724SOL    HW219632   2.667   0.043   4.263 -0.4306 -0.7611  0.8153
 2725SOL     OW19633   3.922   1.660   2.270  0.1768  0.0497  0.2011
 2725SOL    HW119634   4.018   1.667   2.269  0.2878 -1.7634 -1.2502
 2725SOL    HW219635   3.922   1.608   2.350 -1.8969 -1.2907 -0.6657
 2726SOL     OW19636   1.198   4.239  10.858  0.4669  0.0090 -0.0383
 2726SOL    HW119637   1.106   4.214  10.865 -0.3180  2.7832 -0.6798
 2726SOL    HW219638   1.215   4.257  10.951 -4.7446  0.0141  0.9197
 2727SOL     OW19639   3.649   4.678   6.362  0.1494 -0.4872 -0.0708
 2727SOL    HW119640   3.727   4.622   6.362  0.1813 -0.4415 -1.2200
 2727SOL    HW219641   3.652   4.716   6.450 -0.9082  1.2078 -0.7604
 2728SOL     OW19642   2.125   2.986  15.406  0.6900  0.0430  0.4375
 2728SOL    HW119643   2.159   3.074  15.422  0.2877 -0.0347  1.6765
 2728SOL    HW219644   2.206   2.936  15.402  0.0122 -0.9221 -1.3337
 2729SOL     OW19645   2.576   1.376   1.555 -0.3543 -0.3176  0.2457
 2729SOL    HW119646   2.654   1.421   1.587 -0.0229 -1.6901  1.3278
 2729SOL    HW219647   2.513   1.401   1.622  0.0666 -0.1496  0.5804
 2730SOL     OW19648   4.329   0.511   7.141 -0.6244 -0.1518 -0.4287
 2730SOL    HW119649   4.250   0.478   7.098  0.0478  0.4733 -2.1367
 2730SOL    HW219650   4.301   0.491   7.230  2.8875 -0.5822  0.5676
 2731SOL     OW19651   2.863   4.554   5.772  0.2469 -0.2085  0.4340
 2731SOL    HW119652   2.880   4.640   5.812 -1.7147 -0.4059  1.6968
 2731SOL    HW219653   2.810   4.579   5.695 -0.5513 -1.2196  0.6616
 2732SOL     OW19654   4.546   3.333  16.196  0.3687 -0.3053  0.4870
 2732SOL    HW119655   4.563   3.240  16.207  0.4953  0.1849  4.1463
 2732SOL    HW219656   4.476   3.324  16.131  0.3920  0.7945  0.3057
 2733SOL     OW19657   3.306   4.292  14.867 -0.3828  0.0742  0.2210
 2733SOL    HW119658   3.269   4.250  14.945  0.5177  2.0311  1.7160
 2733SOL    HW219659   3.341   4.370  14.910 -1.4500  0.1280  0.9784
 2734SOL     OW19660   1.275   2.173   1.149  0.0266  0.0350 -0.5243
 2734SOL    HW119661   1.278   2.258   1.104  2.6618  1.1037  1.6297
 2734SOL    HW219662   1.348   2.123   1.111 -0.5213 -1.6899  0.6979
 2735SOL     OW19663   2.784   2.234   5.027 -0.1076 -0.2961  0.0259
 2735SOL    HW119664   2.852   2.282   5.074  0.2731 -0.7674 -0.0432
 2735SOL    HW219665   2.836   2.202   4.953  0.7338 -0.6774  0.7767
 2736SOL     OW19666   1.600   3.007   3.423  0.4406  0.0829  0.2891
 2736SOL    HW119667   1.614   3.101   3.437  3.9273 -0.3581 -0.2701
 2736SOL    HW219668   1.507   2.996   3.441 -0.0200  0.6138 -1.7370
 2737SOL     OW19669   4.530   2.895  14.848  0.0331  0.6709  0.6715
 2737SOL    HW119670   4.561   2.903  14.758  0.4595  0.0152  0.7570
 2737SOL    HW219671   4.566   2.976  14.883 -1.9457  1.3444  1.1753
 2738SOL     OW19672   2.696   2.650  16.550 -0.2850  0.1611  0.4936
 2738SOL    HW119673   2.707   2.644  16.455 -0.8094 -0.0938  0.4483
 2738SOL    HW219674   2.751   2.577  16.575 -2.2070 -1.7562 -0.9059
 2739SOL     OW19675   2.452   0.376  15.845  0.8732  0.0257  0.6162
 2739SOL    HW119676   2.524   0.315  15.862  0.6309 -0.8058 -1.3592
 2739SOL    HW219677   2.396   0.308  15.809 -0.6450  2.1985 -1.0875
 2740SOL     OW19678   4.709   1.548   8.598  0.1488 -0.5334  0.1336
 2740SOL    HW119679   0.004   1.580   8.509  1.4112 -1.5481  0.0625
 2740SOL    HW219680   4.625   1.591   8.617 -0.5901 -0.7672 -2.5717
 2741SOL     OW19681   1.621   0.955   4.953  0.1278  0.2409  0.2413
 2741SOL    HW119682   1.627   0.864   4.982  0.5587  0.4928  0.9392
 2741SOL    HW219683   1.550   0.949   4.889 -1.0628  1.7329  1.4299
 2742SOL     OW19684   2.933   0.773   7.056 -0.3325 -0.2293  0.2940
 2742SOL    HW119685   2.916   0.834   7.128  1.9651 -0.3155  0.9024
 2742SOL    HW219686   2.961   0.700   7.111 -0.6856 -0.3908  0.2544
 2743SOL     OW19687   2.929   3.765   8.579 -0.4822  0.3746 -0.0095
 2743SOL    HW119688   2.950   3.843   8.527 -2.3926  1.8116  1.3833
 2743SOL    HW219689   2.834   3.773   8.583 -0.4940  0.2477 -0.0227
 2744SOL     OW19690   4.304   2.969   0.521  0.3396  0.2908  0.1432
 2744SOL    HW119691   4.212   2.945   0.525  0.1012  1.0938 -0.4446
 2744SOL    HW219692   4.299   3.065   0.521  1.2507  0.3379 -2.3273
 2745SOL     OW19693   2.434   1.482   3.231  0.2143 -0.0202  0.2542
 2745SOL    HW119694   2.464   1.572   3.240 -2.1541  0.7705  0.2061
 2745SOL    HW219695   2.370   1.494   3.162 -0.9501  0.8442  1.4880
 2746SOL     OW19696   0.154   1.932   1.545  0.3295 -0.0528  0.2041
 2746SOL    HW119697   0.209   1.859   1.517  0.2115 -0.6358  1.4970
 2746SOL    HW219698   0.086   1.930   1.477  1.0350 -0.0588 -0.4936
 2747SOL     OW19699   0.419   0.053   8.121 -0.0321  0.5971  0.3342
 2747SOL    HW119700   0.409   4.708   8.056 -1.2723  0.4196  0.7231
 2747SOL    HW219701   0.335   0.078   8.159  1.3712  1.3355  2.9600
 2748SOL     OW19702   4.112   0.951   2.003 -0.3061 -0.2834 -0.2626
 2748SOL    HW119703   4.074   0.963   1.916  0.1084  1.3065 -0.2204
 2748SOL    HW219704   4.034   0.941   2.057 -0.2768  0.1810 -0.1326
 2749SOL     OW19705   2.108   1.830   1.895  0.0490 -0.2181  0.1065
 2749SOL    HW119706   2.084   1.792   1.810 -2.2600  2.1394 -0.2866
 2749SOL    HW219707   2.119   1.758   1.957  1.7294  0.6113  0.7751
 2750SOL     OW19708   1.689   4.637   8.074  0.0797  0.1884 -0.6450
 2750SOL    HW119709   1.617   4.699   8.082  0.5436  0.6938 -0.3893
 2750SOL    HW219710   1.644   4.571   8.127 -1.5857  1.3056 -0.6533
 2751SOL     OW19711   1.055   0.899   9.541 -0.0153 -0.2237 -0.1887
 2751SOL    HW119712   0.992   0.832   9.513 -0.3011 -0.5724  1.2820
 2751SOL    HW219713   1.061   0.954   9.463 -0.7614  0.9938  0.5949
 2752SOL     OW19714   1.409   0.053   4.235  0.1742  0.1997  0.0090
 2752SOL    HW119715   1.493   0.057   4.281 -1.2517 -0.3544  2.6536
 2752SOL    HW219716   1.380   0.137   4.273  0.2487  0.2305 -0.0031
 2753SOL     OW19717   4.420   1.055   1.745 -0.0158  0.1271 -0.2197
 2753SOL    HW119718   4.361   0.983   1.726 -0.9271  0.7563  0.2047
 2753SOL    HW219719   4.494   1.042   1.687  0.9847 -2.2202  1.5728
 2754SOL     OW19720   4.461   2.425   8.063 -0.2106 -0.0838  0.3476
 2754SOL    HW119721   4.391   2.459   8.007 -0.9563  0.1000  1.3913
 2754SOL    HW219722   4.414   2.428   8.146  1.6671  1.0165  1.3758
 2755SOL     OW19723   3.516   4.654   5.641  0.2482 -0.1697 -0.3395
 2755SOL    HW119724   3.512   0.022   5.667 -0.7388 -0.5519  0.8389
 2755SOL    HW219725   3.604   4.638   5.674  0.7806  1.0698 -1.1508
 2756SOL     OW19726   3.983   0.289   5.387 -0.6955  0.0265  0.3458
 2756SOL    HW119727   3.986   0.280   5.292 -2.4372  0.2472  0.2724
 2756SOL    HW219728   3.889   0.291   5.408 -0.0532 -0.8999  3.2924
 2757SOL     OW19729   3.677   2.738  14.948 -0.4352 -0.1721  0.2426
 2757SOL    HW119730   3.661   2.820  14.995  1.1104  0.7945 -0.9207
 2757SOL    HW219731   3.752   2.769  14.897  0.7202  1.7300  3.0759
 2758SOL     OW19732   0.463   2.380  13.051  0.5937  0.7440 -0.2962
 2758SOL    HW119733   0.542   2.395  12.999  1.9782 -0.0701  1.5903
 2758SOL    HW219734   0.439   2.296  13.012  2.9621  0.5863 -1.4113
 2759SOL     OW19735   4.200   0.428   3.944  0.2038 -0.2572 -0.1354
 2759SOL    HW119736   4.209   0.502   4.004  2.1716  0.1277 -0.9225
 2759SOL    HW219737   4.235   0.464   3.863 -2.4646  0.6236 -0.9200
 2760SOL     OW19738   3.033   4.441   7.648  0.2050  0.2979 -0.0042
 2760SOL    HW119739   2.950   4.400   7.625  0.6171 -1.9154  2.3825
 2760SOL    HW219740   3.009   4.510   7.710 -0.0983  0.0618  0.1406
 2761SOL     OW19741   1.101   3.953  16.722  0.3810 -0.0756 -0.6685
 2761SOL    HW119742   1.026   3.965  16.781  2.1949  0.8549  1.4447
 2761SOL    HW219743   1.063   3.895  16.656  2.4781 -0.8577 -1.1739
 2762SOL     OW19744   3.829   0.646   4.636 -0.6333 -0.6332 -0.1343
 2762SOL    HW119745   3.784   0.682   4.713  0.4373 -0.4423  0.4036
 2762SOL    HW219746   3.756   0.635   4.575 -1.1195 -1.7709  0.6433
 2763SOL     OW19747   3.895   2.960  13.209  0.5960 -0.9256 -0.0206
 2763SOL    HW119748   3.975   2.912  13.228 -0.5781 -3.3365 -1.2003
 2763SOL    HW219749   3.891   2.961  13.113 -0.3126 -0.7277  0.0142
 2764SOL     OW19750   0.966   3.642   4.397  0.2843  0.6171  0.0393
 2764SOL    HW119751   1.059   3.650   4.377  0.9246 -1.9935  1.9024
 2764SOL    HW219752   0.931   3.574   4.340  0.1244  1.5226 -0.9289
 2765SOL     OW19753   0.193   1.721   9.050  0.0052 -0.2400  0.5943
 2765SOL    HW119754   0.119   1.777   9.076  0.4177  1.4082 -1.7966
 2765SOL    HW219755   0.143   1.642   9.028 -1.1291  0.5880  0.2020
 2766SOL     OW19756   1.179   0.601  15.731 -0.1946  0.3209  0.0237
 2766SOL    HW119757   1.089   0.569  15.735 -0.6181  1.0964 -2.6743
 2766SOL    HW219758   1.227   0.521  15.712 -0.5111 -0.3590  2.1603
 2767SOL     OW19759   1.138   3.841   4.804 -0.6276 -0.2451  0.2561
 2767SOL    HW119760   1.198   3.858   4.876  1.6335 -1.4102 -1.3584
 2767SOL    HW219761   1.059   3.876   4.845 -0.5511 -0.2061  0.3693
 2768SOL     OW19762   3.408   3.139   4.479  0.2717  0.3080 -0.2806
 2768SOL    HW119763   3.458   3.217   4.503 -0.3444  1.7391 -3.6262
 2768SOL    HW219764   3.452   3.108   4.400 -0.3526  0.2833 -0.6226
 2769SOL     OW19765   1.077   1.841   8.236 -0.3931 -0.5735 -0.0909
 2769SOL    HW119766   1.137   1.898   8.285  1.4013 -0.6569 -2.1554
 2769SOL    HW219767   1.072   1.763   8.290 -1.8945  0.8041  1.7518
 2770SOL     OW19768   1.337   0.308   7.205 -0.0924 -0.0956 -0.1477
 2770SOL    HW119769   1.300   0.223   7.182 -0.2867 -0.3249  1.0003
 2770SOL    HW219770   1.351   0.288   7.297  1.9081 -0.4948 -0.5380
 2771SOL     OW19771   2.376   1.657   5.900  0.0714 -0.0485 -0.1499
 2771SOL    HW119772   2.386   1.728   5.837  1.5779 -0.5552 -0.4869
 2771SOL    HW219773   2.295   1.617   5.868  0.0262 -1.7131  2.0595
 2772SOL     OW19774   3.803   4.126   2.719  0.2022 -0.4942 -0.2463
 2772SOL    HW119775   3.825   4.167   2.802 -2.2502 -0.5903  0.4656
 2772SOL    HW219776   3.837   4.191   2.658  3.6825 -0.8072  1.3686
 2773SOL     OW19777   1.741   3.692   7.127 -0.0428  0.3435 -0.2103
 2773SOL    HW119778   1.741   3.786   7.111 -2.1589  0.5808  1.1274
 2773SOL    HW219779   1.667   3.662   7.074 -1.1431  1.5248  0.6297
 2774SOL     OW19780   2.316   3.624   0.257 -0.2114  0.1027  0.0543
 2774SOL    HW119781   2.393   3.605   0.311 -1.1679 -3.3668  0.1981
 2774SOL    HW219782   2.256   3.551   0.277 -0.0809  0.4055  1.5856
 2775SOL     OW19783   1.168   3.360  15.436  0.2817 -0.4944 -0.0501
 2775SOL    HW119784   1.238   3.323  15.490 -0.6776 -0.8968  0.9293
 2775SOL    HW219785   1.153   3.436  15.494 -1.3921 -1.9547  1.4540
 2776SOL     OW19786   2.452   0.983  15.523 -0.0486  0.5686 -0.3504
 2776SOL    HW119787   2.407   1.067  15.521 -0.0487  0.5388 -1.3915
 2776SOL    HW219788   2.512   1.000  15.450 -1.9806  0.2134 -1.9968
 2777SOL     OW19789   2.550   2.166   9.148 -0.2477  0.2984  0.1531
 2777SOL    HW119790   2.580   2.092   9.096 -1.3136  0.8620 -1.2597
 2777SOL    HW219791   2.587   2.148   9.235  2.0879  1.0057 -0.6815
 2778SOL     OW19792   0.555   0.378   8.457 -0.3476 -0.3440  0.2140
 2778SOL    HW119793   0.481   0.438   8.461 -0.2352 -0.1430 -0.7525
 2778SOL    HW219794   0.624   0.422   8.506 -0.3524  1.5340 -1.4890
 2779SOL     OW19795   2.104   3.606   2.233  0.1161  0.3719  0.3006
 2779SOL    HW119796   2.196   3.579   2.233 -0.0248 -0.1053  0.6066
 2779SOL    HW219797   2.068   3.543   2.295 -0.9766  1.2442  0.5342
 2780SOL     OW19798   1.784   2.444   5.519  0.3733 -0.0106 -0.4162
 2780SOL    HW119799   1.827   2.495   5.587  0.3443  0.0926 -0.4751
 2780SOL    HW219800   1.695   2.466   5.548  1.0048  0.8337  0.8690
 2781SOL     OW19801   3.392   0.043  16.758  0.5864  0.0505  0.2589
 2781SOL    HW119802   3.402   0.065  16.666  0.1622  0.5397  0.3287
 2781SOL    HW219803   3.433   4.682  16.767  2.3777  0.8279 -0.4738
 2782SOL     OW19804   2.720   4.275   3.468  0.2922 -0.2799  0.2252
 2782SOL    HW119805   2.762   4.253   3.551 -0.5886  0.6570  0.9152
 2782SOL    HW219806   2.661   4.201   3.462 -0.4469  0.4825 -2.0692
 2783SOL     OW19807   0.939   3.480   5.030 -0.3876 -0.5971 -0.4161
 2783SOL    HW119808   0.950   3.569   5.063 -2.9717 -0.3500 -0.1924
 2783SOL    HW219809   0.971   3.424   5.101  0.2672  0.8699  0.4262
 2784SOL     OW19810   2.936   1.061  14.195  0.1210  0.2033  0.1084
 2784SOL    HW119811   2.881   1.121  14.145  0.0710 -1.0245 -1.3269
 2784SOL    HW219812   2.877   1.025  14.261  1.6948  0.1003  1.4834
 2785SOL     OW19813   2.865   4.569   7.329  0.4505  0.4385 -0.1912
 2785SOL    HW119814   2.907   4.529   7.253  0.7783 -0.9851  0.7358
 2785SOL    HW219815   2.853   4.483   7.369  1.2219 -0.3028 -1.5661
 2786SOL     OW19816   3.561   2.492  12.408 -0.4828 -0.0263 -0.5183
 2786SOL    HW119817   3.505   2.425  12.369 -0.3000  0.1467 -1.0777
 2786SOL    HW219818   3.495   2.562  12.411 -1.2857 -0.6957 -2.8016
 2787SOL     OW19819   1.099   0.049   6.040 -0.4047  0.6894  0.0972
 2787SOL    HW119820   1.088   0.119   6.105  0.9410  2.0215 -1.1263
 2787SOL    HW219821   1.014   0.041   5.998  0.4358  3.0385 -1.9897
 2788SOL     OW19822   1.035   3.222   9.553 -0.2625 -0.1693  0.3325
 2788SOL    HW119823   0.996   3.140   9.520  1.0945 -0.3718 -0.7733
 2788SOL    HW219824   1.006   3.216   9.644 -0.7710 -0.1777  0.1738
 2789SOL     OW19825   4.353   2.407   3.493  0.0662 -0.1383 -0.3904
 2789SOL    HW119826   4.413   2.481   3.506 -0.6766  0.3255  0.3945
 2789SOL    HW219827   4.274   2.445   3.455 -0.1263  0.5648  0.7090
 2790SOL     OW19828   0.520   0.101   2.284  0.2908 -0.1870  0.4733
 2790SOL    HW119829   0.466   0.056   2.348  0.8668 -0.5489  0.7065
 2790SOL    HW219830   0.558   0.024   2.242  1.0760  0.0198  0.7894
 2791SOL     OW19831   3.689   0.404   7.948  0.1741  0.7297 -0.3578
 2791SOL    HW119832   3.749   0.428   7.878  1.1321 -2.5389 -0.6439
 2791SOL    HW219833   3.724   0.324   7.986 -0.8489  0.4591  0.0258
 2792SOL     OW19834   3.662   2.240   3.928 -0.4931 -0.0002  0.4381
 2792SOL    HW119835   3.684   2.203   3.842  0.9692 -0.8831  1.1817
 2792SOL    HW219836   3.569   2.224   3.940 -0.5971  1.0260  0.9883
 2793SOL     OW19837   0.492   4.514  17.002  0.1344  0.6181 -0.0189
 2793SOL    HW119838   0.499   4.425  17.037 -2.0043  0.5502  0.2394
 2793SOL    HW219839   0.426   4.561  17.055 -1.2053 -2.0469  0.6685
 2794SOL     OW19840   1.129   3.526  15.948 -0.0766  0.5319  0.4430
 2794SOL    HW119841   1.214   3.565  15.930 -0.8010  0.9028 -2.1430
 2794SOL    HW219842   1.089   3.586  16.011 -0.6539  1.5841 -0.9360
 2795SOL     OW19843   3.565   3.695   2.838 -0.8050  0.3933 -0.4177
 2795SOL    HW119844   3.505   3.762   2.805  0.3861  1.5144 -0.2983
 2795SOL    HW219845   3.516   3.625   2.794  0.8626 -0.7047 -0.5136
 2796SOL     OW19846   1.751   2.911   6.340  0.0215  0.1409 -0.1445
 2796SOL    HW119847   1.707   2.871   6.415  0.5474 -0.4486 -0.1500
 2796SOL    HW219848   1.699   2.989   6.323  0.4896  0.7504  1.2410
 2797SOL     OW19849   3.540   0.765  10.156  0.3286  0.0104 -0.5411
 2797SOL    HW119850   3.551   0.789  10.248  0.1966 -0.1676 -0.4780
 2797SOL    HW219851   3.459   0.713  10.163  0.1222  0.3191 -0.6312
 2798SOL     OW19852   3.047   1.576   2.075  0.0996  0.5000  0.4917
 2798SOL    HW119853   3.127   1.585   2.023 -0.0126 -0.3581  0.1615
 2798SOL    HW219854   3.063   1.485   2.098  0.6746  0.2132 -0.9962
 2799SOL     OW19855   1.298   2.112  16.236 -0.6259 -0.2748  0.3779
 2799SOL    HW119856   1.307   2.207  16.251  0.9408 -0.6523  1.8120
 2799SOL    HW219857   1.349   2.082  16.311 -0.0277 -1.2206 -0.4268
 2800SOL     OW19858   0.526   1.474   4.624 -0.2822 -0.1208  0.3799
 2800SOL    HW119859   0.470   1.410   4.580  0.8625  1.3398 -3.2737
 2800SOL    HW219860   0.463   1.530   4.669  0.7666  1.0639  0.3815
 2801SOL     OW19861   3.617   4.687  14.925  0.4333  0.2061 -0.3715
 2801SOL    HW119862   3.661   4.651  15.002 -1.8513 -0.0847  0.8128
 2801SOL    HW219863   3.670   0.037  14.897  0.6856  0.9680  2.1463
 2802SOL     OW19864   1.357   2.678  12.097 -0.3359 -0.4182 -0.6578
 2802SOL    HW119865   1.294   2.657  12.165  2.8705 -2.0681  1.8271
 2802SOL    HW219866   1.358   2.593  12.053  0.4301 -0.6041 -0.2909
 2803SOL     OW19867   1.274   4.227   6.013 -0.5167  0.0203  0.3120
 2803SOL    HW119868   1.271   4.140   5.973 -4.6313  0.1714  0.3142
 2803SOL    HW219869   1.366   4.240   6.035 -0.2829 -0.5754 -0.2743
 2804SOL     OW19870   3.059   3.691  15.809  0.1950  0.4023  0.9825
 2804SOL    HW119871   3.076   3.751  15.736  0.4883  0.4985  1.1261
 2804SOL    HW219872   2.969   3.712  15.833 -0.0092 -0.9143  1.3571
 2805SOL     OW19873   3.241   4.205   2.900 -0.1802 -0.3390 -0.0687
 2805SOL    HW119874   3.313   4.157   2.940 -0.3443  2.0412  3.0437
 2805SOL    HW219875   3.198   4.234   2.981 -0.4697  1.7682 -0.9558
 2806SOL     OW19876   0.723   3.719   5.293  0.7848 -0.1962  0.0655
 2806SOL    HW119877   0.687   3.638   5.257 -1.2856  1.3179 -1.2651
 2806SOL    HW219878   0.813   3.721   5.259  0.7082  2.1236 -0.0259
 2807SOL     OW19879   3.634   1.132   4.376 -0.6208 -0.0456  0.1190
 2807SOL    HW119880   3.704   1.195   4.358 -0.2391 -0.2256  0.9624
 2807SOL    HW219881   3.682   1.078   4.438  0.8095 -0.7481 -1.5826
 2808SOL     OW19882   4.075   1.110  17.033 -0.0521  0.0859 -0.2317
 2808SOL    HW119883   4.012   1.072  17.093 -1.0970  2.3471  0.1158
 2808SOL    HW219884   4.102   1.032  16.985 -4.7006 -1.0724 -0.9114
 2809SOL     OW19885   1.124   3.661   3.169  0.4065 -0.3488 -0.1232
 2809SOL    HW119886   1.112   3.664   3.074  1.8872 -2.7429 -0.3862
 2809SOL    HW219887   1.046   3.712   3.191 -0.2549 -1.7857  0.8889
 2810SOL     OW19888   1.714   3.166  15.429 -0.5223  0.4467 -0.2419
 2810SOL    HW119889   1.750   3.144  15.515 -1.6068  2.1256  0.6396
 2810SOL    HW219890   1.674   3.081  15.412  3.3915 -1.5861  0.5240
 2811SOL     OW19891   3.551   2.217  12.739  0.3105 -0.7087  0.5814
 2811SOL    HW119892   3.459   2.200  12.761  0.3338 -1.0589  0.4030
 2811SOL    HW219893   3.592   2.131  12.738  0.5936 -0.5809  1.0588
 2812SOL     OW19894   3.723   0.033  13.576  0.5819 -0.0171 -0.3453
 2812SOL    HW119895   3.629   0.047  13.571  0.7275  1.9766  2.3107
 2812SOL    HW219896   3.750   0.099  13.639  1.1572 -0.1085 -0.4911
 2813SOL     OW19897   2.954   1.545  13.682 -0.5796  0.0870  0.0386
 2813SOL    HW119898   3.021   1.537  13.750  1.2036  1.0111 -1.6217
 2813SOL    HW219899   2.969   1.463  13.635  3.6966  1.5094 -1.0615
 2814SOL     OW19900   1.602   2.536   9.212 -0.0109 -0.0264 -0.3246
 2814SOL    HW119901   1.582   2.596   9.141 -0.2310 -0.2073 -0.4136
 2814SOL    HW219902   1.583   2.594   9.286  0.9884  1.1445 -0.9853
 2815SOL     OW19903   2.644   0.345  17.511 -0.2175 -0.3108 -0.4326
 2815SOL    HW119904   2.678   0.430  17.484 -1.5953  1.1925  2.5906
 2815SOL    HW219905   2.585   0.372  17.581 -0.9619 -1.2700 -0.6849
 2816SOL     OW19906   3.487   2.367   5.980 -0.3984 -0.4000  0.3024
 2816SOL    HW119907   3.475   2.455   5.945  0.8076 -0.6253 -0.6626
 2816SOL    HW219908   3.407   2.346   6.029 -2.0651  3.0407 -0.9725
 2817SOL     OW19909   3.414   0.674  11.132 -0.2392 -0.6933  0.0917
 2817SOL    HW119910   3.502   0.683  11.096 -1.4533  1.7753 -2.2579
 2817SOL    HW219911   3.433   0.624  11.212 -2.5476 -0.2331  0.9372
 2818SOL     OW19912   4.575   3.774   6.438  0.0276  0.0371  0.0092
 2818SOL    HW119913   4.551   3.737   6.523  3.2586  0.1677  0.9779
 2818SOL    HW219914   4.663   3.739   6.427  0.7114  1.8843 -0.3035
 2819SOL     OW19915   1.358   1.384  10.323  0.5305 -0.2572  0.0724
 2819SOL    HW119916   1.442   1.347  10.296  0.5420  0.1369 -0.4385
 2819SOL    HW219917   1.379   1.435  10.401 -0.6458 -0.0915  0.2819
 2820SOL     OW19918   1.852   1.065  16.863 -0.4507  0.1177 -0.0046
 2820SOL    HW119919   1.841   1.160  16.863  1.9444  0.3879 -0.4291
 2820SOL    HW219920   1.902   1.047  16.943  0.1274  0.1958 -0.3485
 2821SOL     OW19921   3.865   2.771   3.599 -0.2610 -0.0565  0.7028
 2821SOL    HW119922   3.785   2.725   3.626 -1.2613  1.1035 -0.2365
 2821SOL    HW219923   3.848   2.855   3.642 -0.1945  0.3245 -0.0012
 2822SOL     OW19924   3.580   0.987   8.312 -0.0945 -0.3639  0.0221
 2822SOL    HW119925   3.633   0.912   8.286 -2.2513 -1.2805 -1.7039
 2822SOL    HW219926   3.639   1.035   8.370 -0.6258 -0.2468  0.4674
 2823SOL     OW19927   3.302   3.448  16.208  0.3425 -0.6612  0.7367
 2823SOL    HW119928   3.290   3.449  16.113  0.6265 -0.0597  0.7104
 2823SOL    HW219929   3.388   3.487  16.220  0.5265 -0.9554  0.3979
 2824SOL     OW19930   3.953   1.785  16.389 -0.4755 -0.2111  0.1502
 2824SOL    HW119931   3.932   1.874  16.415  0.4342 -0.0338  0.2832
 2824SOL    HW219932   3.914   1.734  16.460  0.7538 -0.2173  0.8236
 2825SOL     OW19933   1.290   1.735  10.404 -0.2302 -0.4578  0.3830
 2825SOL    HW119934   1.233   1.668  10.442  0.5779 -0.7279  1.1386
 2825SOL    HW219935   1.329   1.682  10.334 -0.8357 -1.1502  0.5644
 2826SOL     OW19936   1.054   2.448  11.473 -0.2341  0.0570  0.2084
 2826SOL    HW119937   1.122   2.475  11.411 -0.8837  1.7627  0.2331
 2826SOL    HW219938   0.997   2.525  11.472 -1.3221 -0.7179  3.2687
 2827SOL     OW19939   1.629   2.901  14.466 -0.2468  0.7887  0.1404
 2827SOL    HW119940   1.587   2.853  14.395 -0.9843 -2.8130  2.9818
 2827SOL    HW219941   1.554   2.911  14.525 -1.5043 -1.4221 -1.0947
 2828SOL     OW19942   4.593   2.110   8.257 -0.2308 -0.4621 -0.2379
 2828SOL    HW119943   4.669   2.155   8.294 -0.9573 -0.2400  0.9764
 2828SOL    HW219944   4.535   2.159   8.315 -0.0412 -0.5506  0.0264
 2829SOL     OW19945   4.323   1.055   0.650  0.6622  0.3653 -0.0608
 2829SOL    HW119946   4.384   1.062   0.576 -1.1488  0.6909 -1.5075
 2829SOL    HW219947   4.262   1.118   0.611 -0.1901  0.2154  1.0246
 2830SOL     OW19948   2.160   2.064  10.323  0.6917 -0.3504  0.5497
 2830SOL    HW119949   2.165   2.160  10.318 -1.7710 -0.2574  0.2808
 2830SOL    HW219950   2.097   2.047  10.392 -1.0259  0.2401 -0.8871
 2831SOL     OW19951   4.526   2.573   2.165 -0.7488 -0.3632 -0.0681
 2831SOL    HW119952   4.596   2.564   2.101 -0.2753 -0.1492  0.4197
 2831SOL    HW219953   4.569   2.586   2.249 -2.9545  1.8303  0.7444
 2832SOL     OW19954   1.410   4.409   5.753  0.0873 -0.0770 -0.6299
 2832SOL    HW119955   1.339   4.472   5.763  0.8643  0.4234  1.6740
 2832SOL    HW219956   1.394   4.380   5.663  1.1529 -1.1944 -0.4704
 2833SOL     OW19957   2.282   4.663   7.199 -0.2700 -0.0005 -0.4919
 2833SOL    HW119958   2.265   4.656   7.105 -2.6006  0.4673 -0.1192
 2833SOL    HW219959   2.264   0.032   7.208 -1.8021 -0.2140 -1.3224
 2834SOL     OW19960   2.544   2.838   5.127 -0.8057 -0.4193 -0.1440
 2834SOL    HW119961   2.500   2.791   5.198 -0.6609 -1.6079 -0.8483
 2834SOL    HW219962   2.554   2.768   5.063  1.0160  0.5681 -0.9537
 2835SOL     OW19963   2.740   4.721  14.936 -0.0231  0.4693 -0.2786
 2835SOL    HW119964   2.737   4.665  15.014  2.6598 -2.1698 -2.0936
 2835SOL    HW219965   2.832   0.010  14.915  0.4625  0.0904  1.6155
 2836SOL     OW19966   2.913   3.104   2.184  0.3334 -0.0477  0.2033
 2836SOL    HW119967   2.869   3.168   2.240  1.5559  1.3251 -0.3858
 2836SOL    HW219968   2.846   3.100   2.116  1.5089 -0.9738 -0.9135
 2837SOL     OW19969   0.206   3.521  13.171 -0.0934 -0.4092 -0.4221
 2837SOL    HW119970   0.239   3.601  13.131 -1.7882  0.2656 -0.4913
 2837SOL    HW219971   0.284   3.469  13.191 -0.9376 -1.1011  1.0957
 2838SOL     OW19972   0.230   0.735   2.585  0.1420  0.1181  0.0488
 2838SOL    HW119973   0.224   0.824   2.620 -3.7625  0.4248 -1.4309
 2838SOL    HW219974   0.178   0.743   2.505 -0.4100 -2.2846  0.1928
 2839SOL     OW19975   4.118   0.503   5.294 -0.4309 -0.8679  0.1268
 2839SOL    HW119976   4.142   0.557   5.370  0.5321  0.6582 -1.2577
 2839SOL    HW219977   4.083   0.429   5.344 -1.9165  0.7001  1.4324
 2840SOL     OW19978   2.608   1.887   1.486  0.4394 -0.2104 -0.1842
 2840SOL    HW119979   2.616   1.809   1.431 -1.8795 -0.0546 -0.7184
 2840SOL    HW219980   2.516   1.913   1.490  0.2043 -0.6644 -2.3981
 2841SOL     OW19981   1.278   3.012   9.022  0.7366 -0.4566  0.4426
 2841SOL    HW119982   1.293   3.065   9.100  1.6572  0.3035 -0.2564
 2841SOL    HW219983   1.225   2.935   9.040  1.0160 -1.0631 -1.3247
 2842SOL     OW19984   2.050   4.335   9.567  0.0038  0.5234  0.5691
 2842SOL    HW119985   1.980   4.400   9.569 -1.9498 -1.5377 -1.3607
 2842SOL    HW219986   2.086   4.334   9.655  2.5860 -0.9651 -0.5093
 2843SOL     OW19987   0.193   2.079   5.138 -0.5037 -0.0164  0.3731
 2843SOL    HW119988   0.237   2.008   5.091 -0.6352  1.6713 -2.2447
 2843SOL    HW219989   0.266   2.115   5.190  0.1025 -0.0446 -0.4592
 2844SOL     OW19990   2.695   0.669   0.539  0.3336 -0.2207 -0.6904
 2844SOL    HW119991   2.757   0.712   0.480  1.4694  0.3784  0.9172
 2844SOL    HW219992   2.724   0.578   0.546  0.3035  0.0487  3.1992
 2845SOL     OW19993   0.165   0.436   8.652 -0.1991 -0.1572  0.3365
 2845SOL    HW119994   0.095   0.476   8.703 -0.4410  0.8079 -0.7425
 2845SOL    HW219995   0.194   0.368   8.712  1.7868  0.0649 -0.3834
 2846SOL     OW19996   2.795   1.974  12.417  0.0589  0.2343 -0.1995
 2846SOL    HW119997   2.808   2.068  12.431  0.9718 -0.1066  1.3054
 2846SOL    HW219998   2.883   1.940  12.405  0.3278  0.5518  0.8596
 2847SOL     OW19999   1.240   3.871   7.708  0.3826  0.2415  0.2827
 2847SOL    HW120000   1.321   3.919   7.724  0.5595 -0.4785  1.6006
 2847SOL    HW220001   1.240   3.808   7.781 -1.2723 -1.0749 -0.8517
 2848SOL     OW20002   2.974   3.503  13.873 -0.1911 -0.2164 -0.0834
 2848SOL    HW120003   3.037   3.444  13.915  2.1301  0.1056 -3.1600
 2848SOL    HW220004   2.894   3.459  13.904  0.0547 -0.6400 -0.0485
 2849SOL     OW20005   2.142   3.225   9.561 -0.2847 -0.1786 -0.1050
 2849SOL    HW120006   2.179   3.259   9.643  1.9678 -1.0769 -0.7571
 2849SOL    HW220007   2.115   3.142   9.601  0.9755 -0.2580  0.5846
 2850SOL     OW20008   2.298   1.187   1.718 -0.1722  0.5900 -0.6205
 2850SOL    HW120009   2.291   1.275   1.755 -1.0551 -0.1854  1.0318
 2850SOL    HW220010   2.329   1.133   1.790  3.1112  1.5902 -1.2701
 2851SOL     OW20011   1.291   0.960   6.961  0.6629 -0.4668 -0.2315
 2851SOL    HW120012   1.245   0.879   6.982  1.5602 -0.7316  0.6774
 2851SOL    HW220013   1.380   0.926   6.966  1.1344  0.9382  0.8199
 2852SOL     OW20014   1.882   0.296   5.184  0.0599  0.1946  0.0500
 2852SOL    HW120015   1.922   0.226   5.134  1.4754  2.9613 -2.7077
 2852SOL    HW220016   1.898   0.266   5.274  1.4822 -0.7801 -0.5338
 2853SOL     OW20017   0.932   1.136   9.426 -0.1259 -0.0223  0.0523
 2853SOL    HW120018   1.010   1.191   9.431  0.1366 -0.0513 -4.2064
 2853SOL    HW220019   0.872   1.210   9.412  0.4623  0.2410 -1.0411
 2854SOL     OW20020   0.582   1.579   6.737  0.0590  0.2208  0.1896
 2854SOL    HW120021   0.514   1.546   6.795 -1.0726  3.3269  0.6080
 2854SOL    HW220022   0.543   1.664   6.720 -3.3859 -0.8496  2.7679
 2855SOL     OW20023   4.519   2.781   8.862  0.3080 -0.2809 -0.5200
 2855SOL    HW120024   4.467   2.841   8.915 -1.2570 -1.9838 -0.1288
 2855SOL    HW220025   4.458   2.732   8.807  0.3697 -1.3031  0.3272
 2856SOL     OW20026   2.290   0.359   1.080 -0.0305  0.2278 -0.1088
 2856SOL    HW120027   2.264   0.269   1.059 -0.6112  0.1935  0.7596
 2856SOL    HW220028   2.304   0.361   1.175  2.2137 -1.4157 -0.3722
 2857SOL     OW20029   2.445   2.405  13.097  0.3551  0.0188 -0.7032
 2857SOL    HW120030   2.494   2.477  13.059  3.8461 -1.5785  0.7441
 2857SOL    HW220031   2.457   2.417  13.192 -1.0059 -0.7109 -0.4304
 2858SOL     OW20032   1.763   1.200   5.361  0.3502 -0.0064  0.0502
 2858SOL    HW120033   1.759   1.277   5.304 -0.7541  0.5170  0.8428
 2858SOL    HW220034   1.827   1.237   5.422  1.5360 -1.2813 -0.4275
 2859SOL     OW20035   0.668   2.626   4.962 -0.0211  0.1368 -0.4722
 2859SOL    HW120036   0.732   2.633   5.033 -0.6785  2.9608 -0.1826
 2859SOL    HW220037   0.688   2.537   4.934  1.2092  0.1487  0.3592
 2860SOL     OW20038   1.844   0.530   5.365 -0.0318 -0.1407 -0.0235
 2860SOL    HW120039   1.844   0.598   5.299  0.8789 -2.1799 -2.1241
 2860SOL    HW220040   1.875   0.471   5.296 -0.0678 -1.3905  1.0264
 2861SOL     OW20041   1.563   2.593   2.402 -1.0073  0.0335 -0.6623
 2861SOL    HW120042   1.579   2.498   2.404  0.4045  0.3249  1.1084
 2861SOL    HW220043   1.491   2.588   2.465 -1.0258 -0.5821 -0.7277
 2862SOL     OW20044   3.771   3.857  10.733 -0.3182 -0.2660  0.1873
 2862SOL    HW120045   3.840   3.898  10.680 -1.2639 -0.1490 -0.9546
 2862SOL    HW220046   3.691   3.848  10.681 -1.0469 -2.3737  1.6863
 2863SOL     OW20047   0.793   2.604  11.096  0.7061 -0.4049 -0.3265
 2863SOL    HW120048   0.827   2.516  11.113 -1.6433 -1.1346  0.5222
 2863SOL    HW220049   0.872   2.653  11.074  0.5180  1.1774  2.5441
 2864SOL     OW20050   1.488   4.636  10.843 -0.1030 -0.3353  0.1238
 2864SOL    HW120051   1.424   4.639  10.915 -1.7248 -1.9794 -1.2636
 2864SOL    HW220052   1.545   4.710  10.866 -0.0053 -0.7974  1.3809
 2865SOL     OW20053   4.659   0.083   3.756 -0.0461  0.1399 -0.7076
 2865SOL    HW120054   4.690   0.026   3.825 -0.2714  0.0577 -0.6757
 2865SOL    HW220055   0.012   0.087   3.699  1.3186 -1.7091  1.0365
 2866SOL     OW20056   3.847   0.439   8.162 -0.6550 -0.4910 -0.0727
 2866SOL    HW120057   3.772   0.435   8.103  0.9009 -1.4491 -1.9659
 2866SOL    HW220058   3.903   0.510   8.131 -0.8806  0.6142  2.0816
 2867SOL     OW20059   0.493   1.057   4.193 -0.1981  0.0709  0.1332
 2867SOL    HW120060   0.463   0.978   4.147  2.3530 -1.0810  0.4717
 2867SOL    HW220061   0.470   1.029   4.282 -1.2717  0.8301  0.0951
 2868SOL     OW20062   3.993   0.610   9.724  0.5377  0.6782  0.1805
 2868SOL    HW120063   3.992   0.575   9.813 -0.7795 -1.6772 -0.7715
 2868SOL    HW220064   3.921   0.673   9.723  0.1707  0.1581 -3.6830
 2869SOL     OW20065   3.775   0.636   5.734 -0.3021 -0.2294  0.0923
 2869SOL    HW120066   3.806   0.619   5.823  0.5762 -1.2460 -0.4071
 2869SOL    HW220067   3.717   0.560   5.732  0.0807 -0.5862  2.7250
 2870SOL     OW20068   4.278   3.937  15.753 -0.5105 -0.4925 -0.0057
 2870SOL    HW120069   4.326   4.001  15.806 -0.8177 -0.6202  0.4283
 2870SOL    HW220070   4.343   3.866  15.753  0.4713  0.3851  2.2707
 2871SOL     OW20071   2.134   2.320   2.994 -0.4175 -0.4556  0.1499
 2871SOL    HW120072   2.102   2.289   3.078 -1.8522 -2.5795 -1.1806
 2871SOL    HW220073   2.170   2.239   2.959 -1.8228 -1.3945  0.8901
 2872SOL     OW20074   1.020   0.284   9.561 -0.4460  0.3196 -0.4507
 2872SOL    HW120075   1.068   0.292   9.643  0.6378  0.8078 -1.1272
 2872SOL    HW220076   0.969   0.204   9.572  1.1386 -0.6146 -0.0793
 2873SOL     OW20077   0.820   3.084   6.068 -0.1349  0.2086 -0.1864
 2873SOL    HW120078   0.863   3.013   6.115  0.6115  0.4083 -0.5633
 2873SOL    HW220079   0.862   3.070   5.983  2.5482 -1.2833  1.3857
 2874SOL     OW20080   3.079   3.737   6.006  0.2515 -0.3202  0.3589
 2874SOL    HW120081   3.137   3.708   5.936 -0.2397 -0.3979 -0.0223
 2874SOL    HW220082   3.140   3.791   6.056  0.8677 -0.8079  0.1235
 2875SOL     OW20083   0.258   1.679   6.580 -0.7895 -0.1051 -0.3454
 2875SOL    HW120084   0.285   1.760   6.537  1.2018 -1.3425 -1.3966
 2875SOL    HW220085   0.277   1.712   6.668  1.7605 -0.5192 -0.7253
 2876SOL     OW20086   0.391   2.636   3.963 -0.2185  0.0138 -0.1718
 2876SOL    HW120087   0.451   2.564   3.982 -1.0509  0.2920  3.4504
 2876SOL    HW220088   0.407   2.692   4.039  1.8547  0.9151 -1.2401
 2877SOL     OW20089   0.576   2.070   8.582  0.5639  0.2673 -0.1082
 2877SOL    HW120090   0.633   2.017   8.637  0.8567 -0.0330 -0.6956
 2877SOL    HW220091   0.574   2.151   8.632  1.6831  0.2776 -0.0679
 2878SOL     OW20092   2.518   2.801   3.567 -0.1473  0.3462 -0.4684
 2878SOL    HW120093   2.554   2.799   3.478  2.8194 -0.0212  0.7422
 2878SOL    HW220094   2.540   2.893   3.582 -0.1085 -0.0656  1.9859
 2879SOL     OW20095   3.751   0.588  14.130 -0.2250  0.1443 -0.1827
 2879SOL    HW120096   3.700   0.575  14.050  1.7243  0.4256 -1.4691
 2879SOL    HW220097   3.839   0.560  14.105  0.0880  2.0748 -1.1705
 2880SOL     OW20098   3.092   3.324   2.731 -0.9854 -0.2707 -0.4806
 2880SOL    HW120099   3.008   3.369   2.721 -1.4513 -0.7642  1.1268
 2880SOL    HW220100   3.161   3.389   2.720 -0.3389 -0.9686 -0.5508
 2881SOL     OW20101   0.680   1.729   2.700  0.4214 -0.3929 -0.2137
 2881SOL    HW120102   0.698   1.636   2.682  0.6253 -0.0783 -1.6123
 2881SOL    HW220103   0.632   1.719   2.783  0.9470  0.5559  0.1989
 2882SOL     OW20104   3.201   3.172   3.456  0.3456 -0.0998 -0.0103
 2882SOL    HW120105   3.124   3.131   3.495 -0.7856  1.4352 -0.6288
 2882SOL    HW220106   3.243   3.214   3.531  0.9960  0.0569 -0.4562
 2883SOL     OW20107   1.011   4.513  12.072 -0.1818  0.6003 -0.3163
 2883SOL    HW120108   1.046   4.497  12.160 -0.1854 -0.6596 -0.5398
 2883SOL    HW220109   1.026   4.605  12.051 -0.4727  0.7889  0.2834
 2884SOL     OW20110   0.239   0.924   7.755  0.2094  0.2182  0.1536
 2884SOL    HW120111   0.173   0.993   7.752  1.1535  1.3184  4.4739
 2884SOL    HW220112   0.199   0.876   7.827  1.3208 -2.2282 -0.8613
 2885SOL     OW20113   1.769   2.973   4.719 -0.4024  0.7146 -0.3209
 2885SOL    HW120114   1.852   2.939   4.751 -0.4724 -0.2183 -1.1190
 2885SOL    HW220115   1.804   3.061   4.699 -1.1483  0.8434 -1.0655
 2886SOL     OW20116   2.646   3.267   4.841 -0.1776  0.3587  0.4621
 2886SOL    HW120117   2.572   3.250   4.784 -0.9413 -0.2482  1.6475
 2886SOL    HW220118   2.632   3.198   4.906  1.0860  1.2492  1.7054
 2887SOL     OW20119   4.129   3.100  10.062 -1.1397 -0.0322  0.0587
 2887SOL    HW120120   4.097   3.189  10.079 -0.4139  1.1115 -4.3994
 2887SOL    HW220121   4.087   3.080   9.979  0.0351 -0.1869 -0.5065
 2888SOL     OW20122   1.066   2.977   0.558 -0.1935  0.5043  0.1596
 2888SOL    HW120123   1.022   3.048   0.511 -2.2915 -1.4553 -0.7906
 2888SOL    HW220124   1.100   2.926   0.484 -0.9896 -2.2385  1.7076
 2889SOL     OW20125   1.250   1.667   0.959 -0.2532  0.6477 -0.4430
 2889SOL    HW120126   1.331   1.621   0.940 -1.7887 -2.1904 -0.0445
 2889SOL    HW220127   1.194   1.624   0.895 -0.2906 -1.3552  0.9350
 2890SOL     OW20128   0.787   2.719   9.272 -0.1569  0.2924  0.0208
 2890SOL    HW120129   0.844   2.665   9.217  0.5932  0.9000  0.1977
 2890SOL    HW220130   0.824   2.696   9.357  1.2568  2.0201 -0.1146
 2891SOL     OW20131   0.130   2.637   0.899 -0.1481 -0.3442  0.2421
 2891SOL    HW120132   0.104   2.713   0.848  0.2008 -0.4505 -0.0894
 2891SOL    HW220133   0.154   2.592   0.818  0.1735 -0.3746  0.3531
 2892SOL     OW20134   2.210   0.229   8.372 -0.0515 -0.6350  0.2386
 2892SOL    HW120135   2.209   0.148   8.424 -2.6711 -0.7884 -0.0246
 2892SOL    HW220136   2.297   0.234   8.333 -0.1260 -1.1108  0.0189
 2893SOL     OW20137   3.449   2.158  15.744 -0.5484  0.4444  0.1304
 2893SOL    HW120138   3.399   2.223  15.693  2.3118  0.9999 -1.9526
 2893SOL    HW220139   3.385   2.151  15.815 -0.6401 -0.2659 -0.0220
 2894SOL     OW20140   2.887   3.773   4.121  0.0665  0.2047 -0.4538
 2894SOL    HW120141   2.810   3.751   4.173  1.1811 -0.1616  1.0270
 2894SOL    HW220142   2.943   3.774   4.198 -1.6420  1.7253  0.7541
 2895SOL     OW20143   3.940   2.711   3.178 -0.3910  0.1578 -0.2878
 2895SOL    HW120144   3.985   2.780   3.227 -0.0048 -1.2331  1.3006
 2895SOL    HW220145   3.904   2.666   3.254  0.1644 -2.5300 -1.6246
 2896SOL     OW20146   4.462   3.536   7.078  0.1177 -0.1581  0.6940
 2896SOL    HW120147   4.435   3.535   6.986  0.7378 -0.9112  0.5242
 2896SOL    HW220148   4.557   3.525   7.068 -0.0867 -1.6713  0.4093
 2897SOL     OW20149   0.152   0.346   2.413 -0.4220  0.0212 -0.0288
 2897SOL    HW120150   0.110   0.295   2.482  2.3707 -1.5826  0.4614
 2897SOL    HW220151   0.078   0.357   2.353  0.7109  1.2349 -1.1921
 2898SOL     OW20152   3.491   3.905   4.955  0.5990  0.4973  0.6280
 2898SOL    HW120153   3.531   3.990   4.972  0.8056  0.0864  2.2075
 2898SOL    HW220154   3.410   3.905   5.007  0.9526  2.2791  1.1866
 2899SOL     OW20155   4.104   2.193   2.841  0.2545 -0.0018  0.2173
 2899SOL    HW120156   4.186   2.235   2.814 -0.5640  1.9076  0.6698
 2899SOL    HW220157   4.047   2.270   2.837 -2.2767 -1.8582  0.5152
 2900SOL     OW20158   2.039   0.334  12.508 -0.1617  0.1408  0.3030
 2900SOL    HW120159   2.046   0.426  12.481  2.1312  0.5086  2.1732
 2900SOL    HW220160   2.108   0.325  12.574  0.2540 -0.1552 -0.1752
 2901SOL     OW20161   0.284   0.837   6.946 -0.2292 -0.9885  0.4459
 2901SOL    HW120162   0.340   0.913   6.958 -0.5485 -0.4105 -1.6365
 2901SOL    HW220163   0.295   0.792   7.030  0.7429 -1.1171  0.2521
 2902SOL     OW20164   2.728   2.306   8.717 -0.0821  0.1992 -0.4918
 2902SOL    HW120165   2.763   2.348   8.795 -1.4622  0.7013 -0.1499
 2902SOL    HW220166   2.645   2.353   8.711  0.0800  0.4568 -0.7379
 2903SOL     OW20167   4.602   4.060  15.768  0.2358 -0.0786  0.8985
 2903SOL    HW120168   4.563   4.053  15.681 -1.2217 -1.7229  1.6967
 2903SOL    HW220169   4.616   4.154  15.777 -1.5428  0.0864  1.8806
 2904SOL     OW20170   3.977   1.134   7.420 -0.1976  0.2585 -0.3901
 2904SOL    HW120171   4.019   1.189   7.355 -0.1331 -1.0277 -1.4372
 2904SOL    HW220172   3.891   1.176   7.426 -1.2993 -1.9240 -0.7471
 2905SOL     OW20173   2.850   3.719   6.747 -0.1361  0.1150  0.3731
 2905SOL    HW120174   2.759   3.725   6.717 -0.1223 -1.9950 -0.0549
 2905SOL    HW220175   2.828   3.744   6.836 -1.2853 -0.7309  0.3281
 2906SOL     OW20176   0.240   0.462   9.171 -0.2106 -0.2334 -0.8203
 2906SOL    HW120177   0.273   0.507   9.249  0.4147 -0.3648 -1.0106
 2906SOL    HW220178   0.146   0.464   9.189  0.4199  0.7526  2.4406
 2907SOL     OW20179   3.114   2.401   1.928  0.1156  0.1614 -0.0234
 2907SOL    HW120180   3.025   2.393   1.893 -0.4720 -0.0421  1.5579
 2907SOL    HW220181   3.126   2.496   1.923 -0.5198  0.2903  1.0096
 2908SOL     OW20182   1.425   0.519   1.942 -0.2724  0.6504 -0.1951
 2908SOL    HW120183   1.337   0.483   1.954  0.4832 -1.0403  0.3812
 2908SOL    HW220184   1.462   0.502   2.029  2.5811 -0.6652 -1.6878
 2909SOL     OW20185   2.222   2.210   1.737  0.2450 -0.1565  0.2204
 2909SOL    HW120186   2.207   2.303   1.757 -0.5750 -0.3073  0.3066
 2909SOL    HW220187   2.270   2.183   1.816  0.9270  2.5258  0.7410
 2910SOL     OW20188   3.192   1.004  17.522  0.1493  0.0356  0.1217
 2910SOL    HW120189   3.154   1.037  17.603 -0.4338  0.8253 -0.4719
 2910SOL    HW220190   3.130   0.933  17.503  1.2130 -0.6502 -0.7883
 2911SOL     OW20191   1.214   3.048  10.156  0.0833 -0.3742  0.4989
 2911SOL    HW120192   1.211   2.953  10.170 -0.8330 -0.5448 -0.8781
 2911SOL    HW220193   1.241   3.060  10.065  0.7198 -1.1437  0.5820
 2912SOL     OW20194   2.399   0.057   9.548  0.4375 -0.2329 -0.5526
 2912SOL    HW120195   2.306   0.044   9.529 -0.1716  1.3672  1.3228
 2912SOL    HW220196   2.410   0.019   9.635  2.2810  3.6034  0.8828
 2913SOL     OW20197   3.003   3.103   5.222 -0.1274 -0.0347  0.0212
 2913SOL    HW120198   2.939   3.060   5.165  1.6679 -2.4340 -0.1777
 2913SOL    HW220199   2.937   3.142   5.279  0.6151  1.8664 -0.4207
 2914SOL     OW20200   2.269   4.202   2.519  0.0005  0.3277 -0.3815
 2914SOL    HW120201   2.217   4.180   2.442 -0.7745 -1.1428  0.5719
 2914SOL    HW220202   2.273   4.116   2.561  0.6999  0.1591 -0.8036
 2915SOL     OW20203   3.937   1.821   0.237 -0.3417 -0.1058  0.9611
 2915SOL    HW120204   4.032   1.812   0.224 -0.2846 -0.4438  1.6143
 2915SOL    HW220205   3.947   1.873   0.317  1.4998  0.6561  0.2551
 2916SOL     OW20206   2.825   4.550   6.783  0.3613 -0.2412 -0.0470
 2916SOL    HW120207   2.792   4.500   6.708 -2.4182  2.8658 -0.9274
 2916SOL    HW220208   2.916   4.531   6.805  0.2447 -1.7843 -0.9187
 2917SOL     OW20209   2.567   1.235   8.561  0.5620 -0.2023  0.5911
 2917SOL    HW120210   2.573   1.329   8.578  2.4215  0.0309 -1.3778
 2917SOL    HW220211   2.503   1.217   8.630  0.6368  0.7299  0.8916
 2918SOL     OW20212   1.323   3.527   1.593  0.2201 -0.0632 -0.1354
 2918SOL    HW120213   1.374   3.471   1.534 -0.0629  1.2701 -1.6346
 2918SOL    HW220214   1.261   3.467   1.635  0.3437  1.6048  2.4709
 2919SOL     OW20215   4.534   2.639   5.666  0.1269 -0.1002  0.6333
 2919SOL    HW120216   4.596   2.570   5.642  1.6812  1.0824  1.2767
 2919SOL    HW220217   4.575   2.706   5.720 -1.0614  0.7569  0.4576
 2920SOL     OW20218   3.365   2.919  13.754 -0.4070 -0.3410 -0.0873
 2920SOL    HW120219   3.356   2.830  13.721  0.3241 -0.8658  1.1165
 2920SOL    HW220220   3.425   2.960  13.692  0.0524  1.2114  1.3658
 2921SOL     OW20221   1.479   3.926   3.999  0.4453  0.1001  0.2502
 2921SOL    HW120222   1.401   3.978   4.019 -0.4476 -1.1282 -0.0067
 2921SOL    HW220223   1.434   3.842   4.002  0.0454  0.3272  0.5602
 2922SOL     OW20224   4.708   0.162   6.718  0.0926  0.6968  0.4566
 2922SOL    HW120225   0.023   0.079   6.693 -0.0497 -0.0570  2.7195
 2922SOL    HW220226   0.066   0.209   6.708 -0.3464  1.9807  2.7967
 2923SOL     OW20227   1.447   2.446   5.479  0.2389  0.1486  0.3223
 2923SOL    HW120228   1.467   2.354   5.463  0.6946  0.2647  0.2184
 2923SOL    HW220229   1.357   2.430   5.508 -0.4641  2.4042 -0.6257
 2924SOL     OW20230   4.485   1.090   3.378  0.0238  0.1145  0.1382
 2924SOL    HW120231   4.514   1.163   3.322 -0.7827  0.3251 -0.0106
 2924SOL    HW220232   4.443   1.041   3.307  0.6696  0.5898 -0.5794
 2925SOL     OW20233   3.683   4.577   2.092  0.1354 -0.0677  0.2235
 2925SOL    HW120234   3.601   4.627   2.090  0.2776  0.1701  0.2713
 2925SOL    HW220235   3.746   4.649   2.080  3.1434 -2.6874  0.5799
 2926SOL     OW20236   1.328   2.171   2.733 -0.5666 -0.0729  0.0892
 2926SOL    HW120237   1.318   2.200   2.643  0.5619 -4.7273 -1.5386
 2926SOL    HW220238   1.237   2.191   2.755 -0.8246 -2.0775  0.8765
 2927SOL     OW20239   3.166   1.115  11.382  0.2633 -0.0533  0.5304
 2927SOL    HW120240   3.178   1.036  11.435  0.4833 -0.5901 -0.3326
 2927SOL    HW220241   3.237   1.103  11.319  0.8050  0.1340  1.0955
 2928SOL     OW20242   1.679   0.013  13.267  0.1571 -0.0634 -0.0004
 2928SOL    HW120243   1.602   0.052  13.310 -1.6535 -0.9289 -2.5202
 2928SOL    HW220244   1.645   4.658  13.227  1.8818 -0.6975 -0.1837
 2929SOL     OW20245   2.237   1.721  17.446  0.3171 -0.1876  0.1531
 2929SOL    HW120246   2.210   1.642  17.399  2.7345 -0.9994  0.1314
 2929SOL    HW220247   2.222   1.791  17.383 -1.0292 -0.4783  0.1513
 2930SOL     OW20248   0.658   3.820  11.088  0.2540  0.2941 -0.5640
 2930SOL    HW120249   0.699   3.842  11.004 -0.3294 -0.7885 -1.1325
 2930SOL    HW220250   0.731   3.768  11.123 -1.7758 -1.9020  0.4303
 2931SOL     OW20251   3.362   0.782   9.193 -0.4979  0.0629  0.0486
 2931SOL    HW120252   3.339   0.774   9.285  2.7089  2.4488  1.0175
 2931SOL    HW220253   3.403   0.868   9.188  0.4026 -0.4557 -1.7312
 2932SOL     OW20254   3.952   4.608   3.223  0.0048  0.4322  0.2210
 2932SOL    HW120255   3.964   4.562   3.139 -0.1804  0.2013  0.3240
 2932SOL    HW220256   4.003   4.687   3.205 -0.5602  0.8866  0.6256
 2933SOL     OW20257   1.866   3.198   4.640  0.4518 -0.4277  0.0978
 2933SOL    HW120258   1.961   3.191   4.631  0.6585  0.7156  1.3208
 2933SOL    HW220259   1.856   3.291   4.620 -0.4770 -0.1654  1.7820
 2934SOL     OW20260   4.478   1.350   8.391  0.2364  0.5558  0.1561
 2934SOL    HW120261   4.495   1.257   8.372 -0.4275  0.1696  1.4261
 2934SOL    HW220262   4.507   1.402   8.317  3.4708 -1.5081 -0.0312
 2935SOL     OW20263   0.844   3.608  13.658  0.3526 -0.0303 -0.4663
 2935SOL    HW120264   0.802   3.615  13.572  1.6951 -0.8585 -1.1816
 2935SOL    HW220265   0.776   3.563  13.708  0.8697  0.9523  1.1308
 2936SOL     OW20266   1.462   3.173   8.901  0.3213  0.6553 -0.2504
 2936SOL    HW120267   1.410   3.105   8.945 -1.5488  1.1268 -1.7186
 2936SOL    HW220268   1.397   3.228   8.856 -0.3318 -0.0256 -0.1508
 2937SOL     OW20269   1.321   1.234  13.668  0.4263  0.3350 -0.0955
 2937SOL    HW120270   1.357   1.314  13.630 -1.7314  0.5248 -1.7808
 2937SOL    HW220271   1.255   1.205  13.605  0.7266  0.8127 -0.6305
 2938SOL     OW20272   0.058   1.501   6.613  0.2844  0.0790 -0.2870
 2938SOL    HW120273   0.023   1.567   6.673  0.5234 -0.3820  0.3498
 2938SOL    HW220274   0.144   1.537   6.592 -0.8601  0.7828 -3.7227
 2939SOL     OW20275   0.909   3.655   1.628 -0.5292  0.4467  0.3576
 2939SOL    HW120276   0.835   3.714   1.610 -0.4075  0.7497  0.8410
 2939SOL    HW220277   0.870   3.574   1.661  0.1242 -0.3479 -0.8671
 2940SOL     OW20278   2.484   2.132   5.338  0.2546  0.0117 -0.3314
 2940SOL    HW120279   2.528   2.215   5.353  0.6126  0.0992 -1.8112
 2940SOL    HW220280   2.479   2.105   5.429  1.1834  0.1675 -0.2352
 2941SOL     OW20281   3.272   1.253   3.654  0.4932 -0.1171  0.5904
 2941SOL    HW120282   3.322   1.334   3.644 -0.6197  0.2888 -1.8279
 2941SOL    HW220283   3.339   1.199   3.696  1.3486 -0.3652 -1.0936
 2942SOL     OW20284   0.428   1.794  16.023  0.3325 -0.2109 -0.2935
 2942SOL    HW120285   0.488   1.727  16.055 -1.1307 -0.1123  2.6681
 2942SOL    HW220286   0.475   1.877  16.014  0.8235 -0.4870 -0.2591
 2943SOL     OW20287   2.250   2.753  15.869 -0.6231  0.3276 -0.2574
 2943SOL    HW120288   2.223   2.689  15.935  0.2924 -0.5066 -0.6993
 2943SOL    HW220289   2.178   2.731  15.809 -0.3692  0.4498 -0.6026
 2944SOL     OW20290   0.173   4.376   9.364  0.1494  0.0478  0.2366
 2944SOL    HW120291   0.208   4.292   9.333  0.5602  0.5068 -0.5518
 2944SOL    HW220292   0.138   4.356   9.451 -0.2693 -1.1232 -0.1893
 2945SOL     OW20293   2.204   1.421   1.863  0.2100  0.6026  0.1250
 2945SOL    HW120294   2.207   1.474   1.942  0.6226  0.8628 -0.0671
 2945SOL    HW220295   2.163   1.478   1.798 -0.4972 -0.7491 -0.6286
 2946SOL     OW20296   1.941   2.560   6.025 -0.2835  0.2871 -0.5202
 2946SOL    HW120297   1.883   2.583   6.098  0.2813 -0.0310  0.0290
 2946SOL    HW220298   1.892   2.487   5.987  0.3863  0.3442 -1.4977
 2947SOL     OW20299   0.180   4.532   7.908 -0.2512  0.3966 -0.5401
 2947SOL    HW120300   0.132   4.456   7.942 -0.4603  0.4219 -0.7867
 2947SOL    HW220301   0.187   4.515   7.814  1.1087 -0.7453 -0.2465
 2948SOL     OW20302   4.083   1.763  11.992 -0.5602  0.4213  0.4291
 2948SOL    HW120303   4.149   1.786  11.926 -1.0047  1.5373  0.3672
 2948SOL    HW220304   4.128   1.756  12.076  1.2813  0.3378 -0.5725
 2949SOL     OW20305   1.657   4.291   2.966  0.0121  0.5815  0.5360
 2949SOL    HW120306   1.638   4.372   3.014  2.0520  2.0780 -1.1810
 2949SOL    HW220307   1.742   4.264   3.002  0.8375  0.5793 -1.4328
 2950SOL     OW20308   1.257   2.270   1.409 -0.2891  0.7365 -0.1408
 2950SOL    HW120309   1.348   2.269   1.439 -0.4461  1.1849  0.3412
 2950SOL    HW220310   1.268   2.239   1.319 -1.9527 -2.6878  0.8266
 2951SOL     OW20311   4.009   4.439  10.015  0.1398 -0.0955  0.2674
 2951SOL    HW120312   4.098   4.443   9.980 -0.4745  0.6937 -1.2197
 2951SOL    HW220313   3.982   4.351   9.987  1.0530 -0.3765  0.2632
 2952SOL     OW20314   3.011   2.644   5.155 -0.3087 -0.0994 -0.1217
 2952SOL    HW120315   2.947   2.709   5.183 -0.5435  0.0934 -1.0806
 2952SOL    HW220316   3.086   2.652   5.214  0.4486 -1.2658 -0.9001
 2953SOL     OW20317   4.313   2.039  11.285  0.7121 -0.5255 -0.0358
 2953SOL    HW120318   4.339   2.025  11.194 -0.6389 -1.2715 -0.3058
 2953SOL    HW220319   4.223   2.005  11.288 -0.2620  2.1785  1.5809
 2954SOL     OW20320   2.713   2.931   5.907  0.0951  0.5812 -0.4759
 2954SOL    HW120321   2.808   2.941   5.902  0.2810 -0.8883  0.1892
 2954SOL    HW220322   2.712   2.870   5.981  0.7296  1.2166  0.0485
 2955SOL     OW20323   0.461   3.287   3.782  0.2264 -0.0913 -0.4890
 2955SOL    HW120324   0.435   3.280   3.690  0.1926 -2.9591 -0.2671
 2955SOL    HW220325   0.386   3.237   3.814  1.5564 -2.8849 -1.7120
 2956SOL     OW20326   4.221   1.032  14.507  0.3930 -0.2474 -0.0302
 2956SOL    HW120327   4.278   1.030  14.584  0.6145 -1.0349 -0.2084
 2956SOL    HW220328   4.181   0.945  14.513  0.2446 -0.0789  1.5592
 2957SOL     OW20329   4.007   2.145  10.498 -0.1244  0.0418  0.0258
 2957SOL    HW120330   4.081   2.169  10.442 -0.2550  1.0354  0.2842
 2957SOL    HW220331   4.022   2.206  10.570 -1.3275 -0.4232  0.6719
 2958SOL     OW20332   1.287   2.201   4.067 -0.8514  0.1708  0.3301
 2958SOL    HW120333   1.341   2.207   4.146 -3.2626 -0.2232  2.0013
 2958SOL    HW220334   1.358   2.191   4.003 -0.9568  1.9394 -0.0797
 2959SOL     OW20335   4.393   2.524   8.330 -0.3478 -0.8179  0.3550
 2959SOL    HW120336   4.434   2.601   8.369 -3.3290 -0.0107  1.8468
 2959SOL    HW220337   4.318   2.516   8.388 -1.1223  0.0973 -0.5404
 2960SOL     OW20338   3.577   1.198  10.043  0.2639  0.7255 -0.1708
 2960SOL    HW120339   3.487   1.230  10.034  0.2537  0.6038 -0.4748
 2960SOL    HW220340   3.599   1.254  10.118  1.8848  0.7635 -0.6654
 2961SOL     OW20341   4.648   3.096   2.680 -0.1960 -0.0466 -0.1077
 2961SOL    HW120342   4.681   3.151   2.751 -0.2073 -0.0443 -0.1042
 2961SOL    HW220343   4.596   3.036   2.733 -1.6250  0.9547 -0.3955
 2962SOL     OW20344   0.062   4.573  13.103  0.2450  0.5346 -0.0708
 2962SOL    HW120345   4.703   4.608  13.071  0.2182  1.7399  1.2826
 2962SOL    HW220346   0.047   4.480  13.115  0.9666  0.3158 -0.9649
 2963SOL     OW20347   4.654   2.163   8.665 -0.6248  0.4248  0.1826
 2963SOL    HW120348   4.577   2.192   8.715  0.7314  1.4931  1.6791
 2963SOL    HW220349   4.650   2.223   8.591  1.7558  1.1459  0.6227
 2964SOL     OW20350   3.638   4.172   6.548 -0.6943 -0.2283  0.0440
 2964SOL    HW120351   3.553   4.131   6.565  0.0660 -1.8788 -0.1521
 2964SOL    HW220352   3.690   4.181   6.628 -0.6200 -1.2124  0.1097
 2965SOL     OW20353   2.886   0.378   2.880  0.0049 -0.1631 -0.5351
 2965SOL    HW120354   2.978   0.391   2.856  0.4135 -0.6702  0.7356
 2965SOL    HW220355   2.865   0.463   2.842  0.4908 -0.5047 -1.5452
 2966SOL     OW20356   3.496   2.115   9.539  0.0207 -0.2062 -0.2410
 2966SOL    HW120357   3.423   2.066   9.577 -1.0274  1.0552 -0.6455
 2966SOL    HW220358   3.465   2.204   9.554  0.0204 -0.2905  0.2570
 2967SOL     OW20359   2.744   1.800   0.253 -0.3393 -0.4916  0.4015
 2967SOL    HW120360   2.675   1.839   0.305  0.0731 -0.6813  1.0890
 2967SOL    HW220361   2.788   1.740   0.313  1.5994 -1.7803 -2.2870
 2968SOL     OW20362   3.723   1.233   4.042  0.3505 -0.4358 -0.0533
 2968SOL    HW120363   3.753   1.305   4.099  2.7173 -1.1173 -0.4250
 2968SOL    HW220364   3.795   1.174   4.063  0.4723 -0.5558 -0.8428
 2969SOL     OW20365   4.529   0.842   6.651 -0.7332 -0.7094 -0.2064
 2969SOL    HW120366   4.537   0.753   6.617 -0.4523 -0.9405  0.4735
 2969SOL    HW220367   4.613   0.854   6.695 -1.6836  0.9306  1.1532
 2970SOL     OW20368   3.964   1.511   9.711  0.3826  0.1041  0.1409
 2970SOL    HW120369   4.054   1.531   9.738  0.6931 -1.5717  0.3522
 2970SOL    HW220370   3.965   1.559   9.628 -0.0065 -2.6114 -1.4225
 2971SOL     OW20371   0.937   2.631   9.483  0.0944  0.3382  1.0179
 2971SOL    HW120372   0.908   2.617   9.573 -0.8273  0.5049  0.7504
 2971SOL    HW220373   0.969   2.544   9.459  0.3234  0.6773  0.0885
 2972SOL     OW20374   2.005   1.036   4.711 -0.0822 -0.1179 -0.0399
 2972SOL    HW120375   2.082   0.985   4.736 -0.9500 -0.4046  2.0164
 2972SOL    HW220376   2.037   1.077   4.630  2.9778 -0.6335  0.9391
 2973SOL     OW20377   1.430   3.437  13.070 -0.5646  0.1389 -0.5374
 2973SOL    HW120378   1.410   3.468  12.982 -1.9620  0.8139  0.0191
 2973SOL    HW220379   1.352   3.383  13.087  0.2282 -0.0052  2.7019
 2974SOL     OW20380   3.740   1.992   8.725 -0.0481  0.1915  0.6309
 2974SOL    HW120381   3.770   1.940   8.800 -0.0897 -0.6877  0.0408
 2974SOL    HW220382   3.683   2.052   8.773 -0.8424 -0.0645  0.0081
 2975SOL     OW20383   3.748   1.449   5.635  0.0795  0.5531  0.6289
 2975SOL    HW120384   3.773   1.388   5.704  0.0175 -0.0427  0.1309
 2975SOL    HW220385   3.794   1.525   5.670  0.8072  0.9269 -1.1356
 2976SOL     OW20386   2.720   2.711   1.880 -0.1109  0.4665  0.1851
 2976SOL    HW120387   2.686   2.795   1.912  0.4203  0.4636  0.7597
 2976SOL    HW220388   2.678   2.718   1.795  1.0421 -2.8338 -0.6178
 2977SOL     OW20389   1.624   1.294  10.273  0.0175 -0.3535  0.1041
 2977SOL    HW120390   1.632   1.278  10.179 -3.3617  0.2875 -0.2856
 2977SOL    HW220391   1.712   1.273  10.305  1.3851  2.4963 -1.8247
 2978SOL     OW20392   2.787   1.221   7.987  0.4072 -0.0674  0.0809
 2978SOL    HW120393   2.825   1.151   8.039  0.1524 -0.0405  0.3010
 2978SOL    HW220394   2.806   1.179   7.903  1.5697  0.9854 -0.1886
 2979SOL     OW20395   3.479   2.214   7.994 -0.1407  0.1647  0.1020
 2979SOL    HW120396   3.468   2.119   8.001  2.2453 -0.0570  0.8626
 2979SOL    HW220397   3.499   2.246   8.082 -2.2842 -0.5498  0.8462
 2980SOL     OW20398   2.835   0.927   1.114 -0.1031  0.3512 -0.3103
 2980SOL    HW120399   2.892   0.890   1.182  0.1283  1.3315  0.0231
 2980SOL    HW220400   2.873   1.015   1.108  0.3222  0.0472 -2.0623
 2981SOL     OW20401   1.441   4.282   2.383  0.0933 -0.0597 -0.2610
 2981SOL    HW120402   1.488   4.199   2.387  0.2372  0.1449  2.3148
 2981SOL    HW220403   1.499   4.337   2.437 -0.0264  0.8982 -1.1001
 2982SOL     OW20404   1.236   0.567   3.469  0.2729  0.0440 -0.0536
 2982SOL    HW120405   1.289   0.490   3.453 -0.8923 -1.1291  1.7324
 2982SOL    HW220406   1.149   0.549   3.435 -0.4623  2.1504  0.7222
 2983SOL     OW20407   3.540   2.450   7.149 -0.5278  0.1402 -1.0292
 2983SOL    HW120408   3.498   2.374   7.110  1.2575 -1.1573 -0.4067
 2983SOL    HW220409   3.542   2.412   7.237 -0.9728  2.6008  0.0541
 2984SOL     OW20410   3.535   2.132   3.516  0.5288  0.9217  0.1332
 2984SOL    HW120411   3.468   2.083   3.469  0.8971 -1.3623  1.9528
 2984SOL    HW220412   3.497   2.217   3.534 -0.9061  0.3174 -0.0556
 2985SOL     OW20413   4.705   3.154   8.839  0.3522  0.3157 -0.5672
 2985SOL    HW120414   4.665   3.114   8.917  0.8469  0.2310 -0.3554
 2985SOL    HW220415   0.036   3.218   8.883  1.1265 -0.6786 -0.0698
 2986SOL     OW20416   3.172   1.610   3.609  0.3043 -0.1335  0.6784
 2986SOL    HW120417   3.171   1.699   3.646  0.7751 -0.3312  1.1745
 2986SOL    HW220418   3.079   1.590   3.602  0.3342  0.3421 -1.1123
 2987SOL     OW20419   3.571   4.121   3.474  0.5327 -0.7894 -0.2167
 2987SOL    HW120420   3.514   4.082   3.540  2.0178 -1.0028  0.9408
 2987SOL    HW220421   3.595   4.205   3.513  2.3742 -1.8469  0.9399
 2988SOL     OW20422   1.424   3.407   7.015 -0.4591 -0.0020 -0.2143
 2988SOL    HW120423   1.471   3.491   7.008 -0.8304  0.0550 -1.9394
 2988SOL    HW220424   1.396   3.419   7.106  2.0616 -1.8652  0.7853
 2989SOL     OW20425   4.139   3.927  13.026  0.0749 -0.0579 -0.0146
 2989SOL    HW120426   4.051   3.918  13.062  0.6047 -1.2848  0.9644
 2989SOL    HW220427   4.174   3.838  13.030  1.9099  0.8447  3.1741
 2990SOL     OW20428   3.410   3.086  13.495 -0.4656  0.3150  0.1511
 2990SOL    HW120429   3.414   3.173  13.535 -2.3111  0.8618 -0.8973
 2990SOL    HW220430   3.460   3.104  13.416 -1.0994 -0.1700 -0.3555
 2991SOL     OW20431   3.972   1.305   5.240 -0.2804 -0.2235  0.6252
 2991SOL    HW120432   3.944   1.272   5.155  1.8949 -0.6557  0.0867
 2991SOL    HW220433   3.909   1.253   5.290 -2.1432  0.1526 -1.3361
 2992SOL     OW20434   3.680   3.588   9.273 -0.4450 -0.1725 -0.0990
 2992SOL    HW120435   3.686   3.636   9.356  2.2708 -0.2130 -0.2648
 2992SOL    HW220436   3.658   3.503   9.311  0.8532 -1.1571 -1.5573
 2993SOL     OW20437   1.816   2.333   7.733  0.0569 -0.6273 -0.2289
 2993SOL    HW120438   1.795   2.410   7.786 -0.5735 -1.4938  0.7928
 2993SOL    HW220439   1.832   2.377   7.650  0.1795 -0.5505 -0.1648
 2994SOL     OW20440   1.523   4.674   3.494  0.3150  0.4007 -0.4891
 2994SOL    HW120441   1.603   4.683   3.545  0.8476 -0.2565 -1.1876
 2994SOL    HW220442   1.513   4.579   3.483  1.6970  0.0105  1.5883
 2995SOL     OW20443   2.514   4.664   3.381  0.1404 -0.1158 -0.3021
 2995SOL    HW120444   2.532   4.611   3.304  3.9530 -0.4570  0.8448
 2995SOL    HW220445   2.496   0.027   3.346  1.3863 -0.3516 -1.4821
 2996SOL     OW20446   1.571   2.960   4.534  0.3021  0.1457 -0.6555
 2996SOL    HW120447   1.548   2.868   4.545 -0.2410  0.2352 -1.0185
 2996SOL    HW220448   1.649   2.970   4.589 -1.1169  2.3104  0.9557
 2997SOL     OW20449   1.617   0.867  12.475  0.2418  0.1630 -0.3718
 2997SOL    HW120450   1.650   0.864  12.565 -0.7407 -2.7727 -0.1079
 2997SOL    HW220451   1.568   0.947  12.492  1.7972  0.7375  1.3868
 2998SOL     OW20452   0.971   1.611  17.019  0.4153  0.1553 -0.0355
 2998SOL    HW120453   0.959   1.519  17.043 -0.4843  0.7605  1.8251
 2998SOL    HW220454   0.966   1.659  17.102 -1.1875 -0.1635  0.0470
 2999SOL     OW20455   2.547   2.563  15.376 -0.1999  0.5556  0.3493
 2999SOL    HW120456   2.584   2.635  15.326 -0.3083  1.2732  1.3032
 2999SOL    HW220457   2.521   2.602  15.459  0.0443 -0.5015  0.9287
 3000SOL     OW20458   3.219   3.713   1.312 -0.1728 -0.2268 -0.0928
 3000SOL    HW120459   3.158   3.783   1.335  0.7931  0.6883 -0.3420
 3000SOL    HW220460   3.292   3.757   1.268 -0.4003 -0.3268 -0.5788
 3001SOL     OW20461   1.717   1.130   7.729 -0.6158 -0.5354  0.1456
 3001SOL    HW120462   1.666   1.051   7.749 -0.7936 -0.5905 -0.5164
 3001SOL    HW220463   1.772   1.141   7.806  0.5185 -0.2051 -0.7194
 3002SOL     OW20464   1.113   1.688   1.188  0.1120  0.1448  0.0953
 3002SOL    HW120465   1.153   1.682   1.102 -2.1853 -0.3036 -0.9394
 3002SOL    HW220466   1.132   1.778   1.215  2.0964 -0.6545  1.4509
 3003SOL     OW20467   0.877   2.657   0.480  0.0128 -0.4766  0.3341
 3003SOL    HW120468   0.803   2.718   0.480 -0.7312 -1.3817  0.0693
 3003SOL    HW220469   0.920   2.684   0.399 -0.0930 -0.1515  0.3868
 3004SOL     OW20470   3.286   2.096   5.077  0.1813 -0.3065 -0.7653
 3004SOL    HW120471   3.375   2.115   5.048  0.2963  0.1279 -0.1168
 3004SOL    HW220472   3.250   2.067   4.992 -2.6214  2.1403 -0.3862
 3005SOL     OW20473   3.691   2.460   2.111 -0.2183 -0.1372  0.0305
 3005SOL    HW120474   3.673   2.553   2.124 -0.5494 -0.2116  0.1120
 3005SOL    HW220475   3.707   2.431   2.201  2.0904  0.1053 -0.3023
 3006SOL     OW20476   4.145   3.283   5.141 -0.1484  0.0205 -0.5784
 3006SOL    HW120477   4.153   3.191   5.168 -0.0644  1.0013  2.7293
 3006SOL    HW220478   4.089   3.320   5.210 -1.6364 -2.6348 -0.3129
 3007SOL     OW20479   0.162   2.987   3.767 -0.3769 -0.4258 -0.2285
 3007SOL    HW120480   0.179   3.070   3.811 -1.1007 -0.7336  0.6262
 3007SOL    HW220481   0.115   2.940   3.835  1.6258 -1.5733  0.3743
 3008SOL     OW20482   1.557   1.899   8.764  0.3098  0.1908  0.1678
 3008SOL    HW120483   1.612   1.973   8.738  0.0882 -0.1073 -1.1199
 3008SOL    HW220484   1.624   1.855   8.817  0.3956  1.7450  1.3623
 3009SOL     OW20485   3.458   4.659  11.957 -0.2515  0.1935  0.1020
 3009SOL    HW120486   3.462   0.004  12.022 -0.4916 -0.7341  1.1132
 3009SOL    HW220487   3.548   4.627  11.949  0.2051  1.9073 -1.7595
 3010SOL     OW20488   3.232   0.122   2.721  0.2713 -0.1280 -0.5918
 3010SOL    HW120489   3.168   0.051   2.717 -0.3790  0.3230  1.7966
 3010SOL    HW220490   3.317   0.080   2.715  0.0118 -0.7607  0.2406
 3011SOL     OW20491   2.417   3.461   9.261  0.2701 -0.2415  0.1761
 3011SOL    HW120492   2.450   3.455   9.351 -0.7255  1.6472  0.6647
 3011SOL    HW220493   2.329   3.429   9.279 -0.6083  1.7760 -0.4674
 3012SOL     OW20494   4.567   4.234   2.406 -0.3821 -0.6987  0.4209
 3012SOL    HW120495   4.604   4.210   2.321 -0.3434 -4.5086  1.4821
 3012SOL    HW220496   4.476   4.243   2.379 -0.3453  1.2506  0.9280
 3013SOL     OW20497   4.437   2.566   4.571 -0.4151  0.2126 -0.0101
 3013SOL    HW120498   4.423   2.660   4.563  0.5172  0.4270  0.8598
 3013SOL    HW220499   4.382   2.522   4.506  2.1589 -1.5327 -0.9986
 3014SOL     OW20500   2.157   0.145   3.001 -0.3052  0.0281 -0.4178
 3014SOL    HW120501   2.074   0.100   3.013 -1.7828  3.1628  1.1074
 3014SOL    HW220502   2.141   0.229   3.045 -0.6808 -0.1725 -0.1688
 3015SOL     OW20503   2.687   1.327  13.682  0.0012  0.0056 -0.7802
 3015SOL    HW120504   2.601   1.293  13.706  0.9496 -1.6013  0.4010
 3015SOL    HW220505   2.684   1.419  13.706  1.2941 -0.4459  1.2249
 3016SOL     OW20506   0.402   0.096   5.738  0.1298 -0.2648 -0.1578
 3016SOL    HW120507   0.377   0.117   5.828  1.3646 -1.0378  0.3629
 3016SOL    HW220508   0.337   0.029   5.718 -0.9340  1.5970 -3.0750
 3017SOL     OW20509   4.680   3.856   7.277 -0.2995 -0.3819  0.3160
 3017SOL    HW120510   4.711   3.770   7.248 -0.9779  0.5811 -3.3103
 3017SOL    HW220511   4.619   3.844   7.350 -1.1362  0.2276 -0.2826
 3018SOL     OW20512   2.406   2.666   8.349  0.0256 -0.0965  0.3159
 3018SOL    HW120513   2.384   2.757   8.371 -1.4135 -0.6632  1.2860
 3018SOL    HW220514   2.500   2.659   8.363  0.2445 -1.7217 -1.9763
 3019SOL     OW20515   3.446   1.041   5.233  0.4303  0.7658 -0.1354
 3019SOL    HW120516   3.356   1.008   5.240  0.1220  1.3133 -1.7145
 3019SOL    HW220517   3.466   1.070   5.322 -0.1294  3.2147 -0.8190
 3020SOL     OW20518   4.586   3.542   5.778 -0.2813 -0.8042  0.0854
 3020SOL    HW120519   4.592   3.449   5.758  0.9713 -0.4909 -1.0329
 3020SOL    HW220520   4.645   3.541   5.854  0.3256 -1.3266 -0.3908
 3021SOL     OW20521   1.004   2.919   9.306 -0.5009 -0.5421  0.1253
 3021SOL    HW120522   0.970   2.838   9.345  0.3078 -0.0507  1.8510
 3021SOL    HW220523   0.947   2.987   9.341 -0.7384 -1.4425  1.4865
 3022SOL     OW20524   0.943   0.106   3.017  0.6754  0.5846  0.4705
 3022SOL    HW120525   0.964   0.094   2.925  0.0126  1.5764  0.1964
 3022SOL    HW220526   0.944   0.015   3.048  0.6415  0.8129  1.1480
 3023SOL     OW20527   0.812   3.376   6.817  0.2533 -0.2119 -0.3111
 3023SOL    HW120528   0.806   3.299   6.874 -1.6748  0.3563  0.2630
 3023SOL    HW220529   0.906   3.391   6.821  0.5654 -1.7543 -1.8067
 3024SOL     OW20530   4.489   0.249  10.881  0.4503 -0.0982  0.1661
 3024SOL    HW120531   4.444   0.217  10.803  2.8200 -4.1691  0.4821
 3024SOL    HW220532   4.513   0.168  10.925 -0.5728  0.4184  1.6704
 3025SOL     OW20533   1.250   3.483   4.202 -0.0380 -0.0311 -0.2454
 3025SOL    HW120534   1.311   3.534   4.255  0.5348  0.5581 -1.4690
 3025SOL    HW220535   1.169   3.533   4.190  0.1436  0.4575  0.6193
 3026SOL     OW20536   0.637   1.990   0.484 -0.2078  0.3453 -0.2456
 3026SOL    HW120537   0.630   1.969   0.391 -1.3771  0.6628 -0.2229
 3026SOL    HW220538   0.730   1.990   0.510  0.1295  1.0774 -1.4331
 3027SOL     OW20539   1.521   3.359   1.980 -0.4325  0.2622  0.0842
 3027SOL    HW120540   1.473   3.352   2.062  2.0899 -1.0539  1.4456
 3027SOL    HW220541   1.485   3.443   1.950  2.1885  1.5728  0.6092
 3028SOL     OW20542   3.103   0.762   5.996 -0.8844  0.0252 -0.1808
 3028SOL    HW120543   3.090   0.855   5.976 -0.7102  0.4285  1.6429
 3028SOL    HW220544   3.174   0.742   5.934  1.2431  1.2220  1.8804
 3029SOL     OW20545   2.229   1.929   3.276 -0.2149  0.2706 -0.3847
 3029SOL    HW120546   2.303   1.882   3.238 -0.6796  0.3483 -1.3853
 3029SOL    HW220547   2.177   1.851   3.293 -0.8220  0.7459 -0.0433
 3030SOL     OW20548   3.421   0.865   7.339  0.2374 -0.0009  0.5502
 3030SOL    HW120549   3.393   0.932   7.401  1.6510  0.0274  1.1643
 3030SOL    HW220550   3.354   0.874   7.272  0.3752  1.2235  0.5689
 3031SOL     OW20551   1.217   0.828   5.298  1.2240 -0.5774 -1.0765
 3031SOL    HW120552   1.308   0.854   5.311  1.0574 -0.1130 -0.8718
 3031SOL    HW220553   1.185   0.908   5.257  0.1798 -0.3136  0.2711
 3032SOL     OW20554   1.927   1.022  11.313 -0.1488  0.6055  0.3666
 3032SOL    HW120555   1.902   1.063  11.396 -1.1112  1.9926 -0.6200
 3032SOL    HW220556   1.846   0.973  11.299 -0.4726  0.3691  3.0770
 3033SOL     OW20557   0.199   4.301   1.013 -0.1988 -0.1614  0.4545
 3033SOL    HW120558   0.183   4.372   0.951  1.9604  2.3514  2.7715
 3033SOL    HW220559   0.139   4.241   0.970 -0.9399  0.5691  0.4704
 3034SOL     OW20560   1.976   0.218  10.716 -0.1559 -0.6738  0.2280
 3034SOL    HW120561   2.022   0.234  10.633 -1.4733  2.5190  0.1383
 3034SOL    HW220562   2.052   0.218  10.774  0.6502 -3.5858 -0.7880
 3035SOL     OW20563   3.670   0.713   3.957 -0.4065 -0.3149 -0.0029
 3035SOL    HW120564   3.653   0.804   3.980 -0.3130 -0.1527 -0.5763
 3035SOL    HW220565   3.741   0.705   4.021 -1.2119  1.9744  1.1579
 3036SOL     OW20566   2.943   3.438   3.026  0.3214  0.1724 -0.0061
 3036SOL    HW120567   2.964   3.516   2.974 -0.1632  0.1685 -0.2094
 3036SOL    HW220568   3.032   3.404   3.040  1.1222  1.9128 -0.8582
 3037SOL     OW20569   3.039   4.478   5.269 -0.4816  0.3279  0.3014
 3037SOL    HW120570   3.043   4.384   5.253  2.5936  0.6493 -0.7378
 3037SOL    HW220571   3.131   4.503   5.274 -0.6207  0.2742  2.9351
 3038SOL     OW20572   2.682   0.508   6.990 -0.4653 -0.0339  0.4016
 3038SOL    HW120573   2.636   0.477   6.912  1.4615  1.2547 -1.2349
 3038SOL    HW220574   2.723   0.585   6.952  0.9758 -0.5955  0.8423
 3039SOL     OW20575   2.942   0.372   2.097  0.7439 -0.0706  0.7968
 3039SOL    HW120576   3.030   0.404   2.079 -0.1875  1.3149 -1.4219
 3039SOL    HW220577   2.957   0.305   2.162  2.4336 -0.7627 -0.3190
 3040SOL     OW20578   2.533   2.499  16.988 -0.4771  0.2438 -0.1580
 3040SOL    HW120579   2.482   2.430  17.030  1.7131 -1.6919 -0.6755
 3040SOL    HW220580   2.596   2.440  16.947  0.7981  1.0540  0.6571
 3041SOL     OW20581   2.223   4.171  11.252  0.1266  0.5403 -0.0142
 3041SOL    HW120582   2.296   4.150  11.310 -1.1652  0.1829  1.4910
 3041SOL    HW220583   2.143   4.153  11.301  0.2773 -1.6560 -0.5990
 3042SOL     OW20584   2.490   2.117   7.254  0.0234  0.1140  0.0778
 3042SOL    HW120585   2.475   2.028   7.287 -1.0044  0.6081  0.8956
 3042SOL    HW220586   2.461   2.163   7.332  0.1691  1.0729 -0.4398
 3043SOL     OW20587   2.090   3.616  16.002  0.0118  0.8157 -0.4066
 3043SOL    HW120588   2.044   3.532  15.999 -0.5719  1.1665 -1.2898
 3043SOL    HW220589   2.145   3.602  16.079 -0.3902 -0.5473 -0.3806
 3044SOL     OW20590   1.568   4.047   1.633 -0.0679 -0.0487 -0.1087
 3044SOL    HW120591   1.522   4.017   1.555 -2.0280 -1.0735  1.4521
 3044SOL    HW220592   1.573   4.142   1.623  1.7416 -0.3136 -1.7192
 3045SOL     OW20593   3.976   2.478  12.367  0.0710  0.6457 -0.7029
 3045SOL    HW120594   4.035   2.522  12.305  0.0706 -1.2133 -2.0548
 3045SOL    HW220595   3.929   2.431  12.298 -2.3727  0.0063  1.4362
 3046SOL     OW20596   3.737   0.836   3.018 -0.3288 -0.0435 -0.2035
 3046SOL    HW120597   3.747   0.801   2.929  3.0700  0.9604 -0.2010
 3046SOL    HW220598   3.829   0.860   3.026  0.0012 -0.7648 -1.8062
 3047SOL     OW20599   1.816   2.690   2.766  0.1220 -1.1244 -0.6650
 3047SOL    HW120600   1.810   2.643   2.849 -0.6002 -3.2400 -1.9208
 3047SOL    HW220601   1.722   2.703   2.760  0.3122 -0.0524 -1.3533
 3048SOL     OW20602   1.629   2.093   2.736 -0.3329 -0.2216  0.4776
 3048SOL    HW120603   1.653   2.185   2.748 -1.7458  0.1702  0.2498
 3048SOL    HW220604   1.708   2.070   2.686  0.9818  2.0394  1.5249
 3049SOL     OW20605   4.055   3.799   2.660  0.0991 -0.2165 -0.2971
 3049SOL    HW120606   4.064   3.722   2.716 -2.0430 -1.4593 -1.7049
 3049SOL    HW220607   4.084   3.863   2.726  0.4493 -0.7999  0.1127
 3050SOL     OW20608   3.826   4.347   2.879 -0.6738  0.1225 -0.0769
 3050SOL    HW120609   3.901   4.400   2.851 -0.3703  0.2762  1.0094
 3050SOL    HW220610   3.758   4.414   2.881  0.2566  1.0893 -0.7962
 3051SOL     OW20611   4.044   3.020   4.306 -0.4890  0.5839 -0.1790
 3051SOL    HW120612   4.104   3.080   4.262 -0.0755  2.0276  2.3586
 3051SOL    HW220613   4.082   2.933   4.303  1.4427  1.3037  3.3410
 3052SOL     OW20614   1.172   0.404  11.382  0.2493  0.2641 -0.1049
 3052SOL    HW120615   1.205   0.463  11.314 -0.0528 -1.2298 -1.5411
 3052SOL    HW220616   1.165   0.324  11.330 -1.0506  0.0920  0.3225
 3053SOL     OW20617   1.298   4.604  17.055  0.0035  0.1202  0.2194
 3053SOL    HW120618   1.232   4.592  17.123 -0.0979 -0.3738  0.0291
 3053SOL    HW220619   1.275   4.529  17.000 -0.4301 -0.2835  0.9535
 3054SOL     OW20620   2.611   1.685  12.828 -0.2345 -0.1457 -0.0372
 3054SOL    HW120621   2.636   1.722  12.744  2.5239 -3.2582 -0.5880
 3054SOL    HW220622   2.660   1.603  12.824  0.6225  0.3073  1.0576
 3055SOL     OW20623   1.749   2.894   5.915  0.1766  0.4283 -0.1087
 3055SOL    HW120624   1.719   2.933   5.833 -1.4135 -1.2384 -0.2985
 3055SOL    HW220625   1.669   2.880   5.965  2.1811 -0.8583  2.8017
 3056SOL     OW20626   4.152   1.091  16.238  0.0069 -0.0854 -0.6707
 3056SOL    HW120627   4.093   1.016  16.228  0.8470 -0.9702  1.1897
 3056SOL    HW220628   4.202   1.062  16.314  1.5624 -0.8125 -1.9582
 3057SOL     OW20629   0.591   0.292  12.970 -0.0500  1.0614 -0.8297
 3057SOL    HW120630   0.557   0.204  12.953  0.3259  1.1123 -1.8661
 3057SOL    HW220631   0.575   0.286  13.064  1.4637  0.4274 -0.6224
 3058SOL     OW20632   4.296   0.420   6.559 -0.1267 -0.0863 -0.4740
 3058SOL    HW120633   4.376   0.377   6.591 -0.1370  1.3968  1.5882
 3058SOL    HW220634   4.308   0.514   6.571  1.1217 -0.8214  4.3973
 3059SOL     OW20635   4.384   1.528   0.698  0.6696 -0.5341  0.0710
 3059SOL    HW120636   4.419   1.493   0.780 -2.2492 -0.8310  1.2095
 3059SOL    HW220637   4.384   1.621   0.718 -1.9815 -0.3996 -0.5619
 3060SOL     OW20638   1.740   3.144   2.497 -0.3673  0.8524  0.1877
 3060SOL    HW120639   1.676   3.099   2.552 -1.8398  2.0581 -0.5302
 3060SOL    HW220640   1.824   3.134   2.542 -0.9584  0.2045  1.1378
 3061SOL     OW20641   3.986   3.920  12.749 -0.1018 -0.6681 -0.1901
 3061SOL    HW120642   3.974   4.010  12.717  0.5900  0.4932  2.8328
 3061SOL    HW220643   4.003   3.939  12.841 -0.9198 -0.0271 -0.1684
 3062SOL     OW20644   0.266   3.522   1.257  0.3067 -0.0113  0.5122
 3062SOL    HW120645   0.303   3.437   1.279  0.4354 -0.2455 -0.5979
 3062SOL    HW220646   0.349   3.568   1.260 -0.5285  1.4292  1.3418
 3063SOL     OW20647   3.902   3.056   8.046  0.5109  0.0867  0.0716
 3063SOL    HW120648   3.944   3.137   8.017  1.1153 -0.0033  0.6921
 3063SOL    HW220649   3.956   3.039   8.123  1.0757 -3.2435 -1.0746
 3064SOL     OW20650   0.593   4.017   2.093 -0.0092  0.6577  0.0712
 3064SOL    HW120651   0.661   4.076   2.126  1.0837  0.5340 -1.9835
 3064SOL    HW220652   0.563   4.052   2.009  1.1904 -0.9600 -1.0369
 3065SOL     OW20653   2.584   3.177  10.577  0.7433 -0.2562  0.3457
 3065SOL    HW120654   2.529   3.199  10.502  2.5855  1.6177 -0.4466
 3065SOL    HW220655   2.526   3.120  10.628  0.0233 -0.1318 -0.3382
 3066SOL     OW20656   3.232   1.126  14.823  0.1721 -0.6510  0.0297
 3066SOL    HW120657   3.209   1.074  14.900 -2.0665  0.4717  0.1023
 3066SOL    HW220658   3.302   1.183  14.857 -1.3143  0.3656  1.3626
 3067SOL     OW20659   3.613   4.254   0.619 -0.8502  0.1723 -0.4396
 3067SOL    HW120660   3.541   4.198   0.649 -1.8130  0.7092 -1.7247
 3067SOL    HW220661   3.603   4.235   0.526 -1.2819  0.8808 -0.5416
 3068SOL     OW20662   0.826   1.477   6.641  0.2778  0.3597  0.6190
 3068SOL    HW120663   0.739   1.499   6.675 -0.3372 -1.4455  0.2321
 3068SOL    HW220664   0.827   1.511   6.552  0.0107  1.0443  0.8824
 3069SOL     OW20665   2.938   3.192   4.687  0.0529 -0.4323 -0.4863
 3069SOL    HW120666   2.861   3.169   4.634 -0.4067 -0.9774  0.4216
 3069SOL    HW220667   2.901   3.210   4.773 -1.8790  0.1793 -1.4327
 3070SOL     OW20668   2.804   2.085   8.300 -0.4974 -0.0704  0.3513
 3070SOL    HW120669   2.850   2.059   8.380  0.1479  1.8072  0.5803
 3070SOL    HW220670   2.844   2.168   8.275 -0.7190  0.2870  1.1898
 3071SOL     OW20671   3.585   4.268   3.160 -0.2217  0.2703 -0.1421
 3071SOL    HW120672   3.504   4.232   3.194  0.0253  0.9990  1.1994
 3071SOL    HW220673   3.637   4.191   3.139 -0.9121  0.2588 -1.8071
 3072SOL     OW20674   4.676   0.528   9.180 -0.0442  0.5161  0.1461
 3072SOL    HW120675   4.619   0.522   9.257  1.8581 -0.1685  1.5290
 3072SOL    HW220676   4.630   0.476   9.115  2.9481  0.7905 -2.1700
 3073SOL     OW20677   0.760   1.128  11.033  0.2400  0.4410 -0.5262
 3073SOL    HW120678   0.691   1.119  10.966 -0.6328  2.2163  0.1294
 3073SOL    HW220679   0.757   1.221  11.054 -2.8989 -0.1242  1.4177
 3074SOL     OW20680   0.370   0.498   6.435 -0.1677 -0.1991  0.1178
 3074SOL    HW120681   0.447   0.529   6.482  0.3388 -0.9156 -0.2439
 3074SOL    HW220682   0.411   0.413   6.422 -2.6493 -1.5023  0.8110
 3075SOL     OW20683   3.298   2.761  17.659  0.0195  0.0607 -0.3081
 3075SOL    HW120684   3.319   2.821   0.031  1.0749 -1.1064  0.3619
 3075SOL    HW220685   3.387   2.726  17.650 -0.2990 -0.7684 -0.1658
 3076SOL     OW20686   2.376   2.902   3.171 -0.4769 -0.4261 -0.4463
 3076SOL    HW120687   2.471   2.898   3.183 -0.1790  0.1103 -2.5197
 3076SOL    HW220688   2.360   2.808   3.166  2.6592 -0.9848 -0.0120
 3077SOL     OW20689   2.991   4.346   4.580 -0.3740  0.2193  0.7428
 3077SOL    HW120690   3.081   4.374   4.599 -0.2999  0.5538 -0.1456
 3077SOL    HW220691   2.951   4.401   4.647  0.5694  0.9841  0.6871
 3078SOL     OW20692   0.818   2.893   9.650  0.3388  0.0559 -0.1900
 3078SOL    HW120693   0.861   2.816   9.686 -0.0816 -0.6942 -1.2881
 3078SOL    HW220694   0.745   2.904   9.710 -0.0767 -1.7853 -0.3739
 3079SOL     OW20695   2.905   0.345   8.820 -0.1240 -0.0250 -0.1476
 3079SOL    HW120696   2.818   0.384   8.813 -0.5298 -0.6762  1.3642
 3079SOL    HW220697   2.937   0.363   8.731  0.8699 -1.1234 -0.0163
 3080SOL     OW20698   4.341   1.077   8.446  0.1828 -0.4929  0.2215
 3080SOL    HW120699   4.414   1.062   8.386 -0.4717 -0.5086 -0.5685
 3080SOL    HW220700   4.330   0.991   8.487  0.2373  1.4379  4.3123
 3081SOL     OW20701   2.505   1.940   0.279  0.3591 -0.3496  0.3349
 3081SOL    HW120702   2.515   2.018   0.224  0.8339 -0.5216  0.1801
 3081SOL    HW220703   2.449   1.873   0.240 -1.2137  0.1739  1.6605
 3082SOL     OW20704   4.436   1.769   2.758  0.3627 -0.1001 -0.4558
 3082SOL    HW120705   4.468   1.852   2.722 -1.1760  1.1963  1.1502
 3082SOL    HW220706   4.398   1.732   2.679  1.0460 -0.8807 -0.4249
 3083SOL     OW20707   2.751   3.450   6.002  0.0992 -0.1133 -0.0127
 3083SOL    HW120708   2.770   3.375   6.058 -3.1614 -0.0094  1.2604
 3083SOL    HW220709   2.768   3.421   5.912 -0.1560 -0.6746  0.1191
 3084SOL     OW20710   2.675   3.417   4.254 -0.3624 -0.3081  0.2979
 3084SOL    HW120711   2.604   3.359   4.227 -0.2045 -2.0666  3.6973
 3084SOL    HW220712   2.626   3.497   4.270 -0.2397 -0.0529 -0.5767
 3085SOL     OW20713   1.883   0.998  12.867  0.0199  0.7164  0.1063
 3085SOL    HW120714   1.839   0.949  12.936 -1.6184 -0.2394 -1.6073
 3085SOL    HW220715   1.973   0.968  12.870 -0.7689 -1.3043  3.1681
 3086SOL     OW20716   1.995   1.956   6.066 -0.1806 -0.0583 -0.4114
 3086SOL    HW120717   1.942   1.877   6.057 -1.2252  0.8320 -1.9004
 3086SOL    HW220718   1.929   2.016   6.099 -2.6250 -3.1856  0.4061
 3087SOL     OW20719   3.879   2.344   3.550 -0.0647  0.0458  0.4276
 3087SOL    HW120720   3.848   2.413   3.492 -0.4409 -0.0285  0.5391
 3087SOL    HW220721   3.971   2.337   3.523 -0.1921  1.4757 -0.3557
 3088SOL     OW20722   2.466   3.068   2.293 -0.1948  0.1399 -0.7371
 3088SOL    HW120723   2.412   3.102   2.222 -1.7771 -0.9530 -0.0394
 3088SOL    HW220724   2.399   3.055   2.361 -0.4953 -0.2043 -1.1001
 3089SOL     OW20725   1.542   0.823  12.961  0.1540 -0.1443  0.3055
 3089SOL    HW120726   1.591   0.758  13.012 -2.6465 -2.0156  0.5665
 3089SOL    HW220727   1.457   0.781  12.955  3.0088 -5.7178 -0.5286
 3090SOL     OW20728   2.891   1.920   8.555  0.3269 -0.1025  0.7068
 3090SOL    HW120729   2.973   1.960   8.583 -0.3900  0.3091  2.2140
 3090SOL    HW220730   2.886   1.842   8.611 -1.1823 -0.2936  0.3039
 3091SOL     OW20731   2.914   4.112  10.853  0.0489  0.3717 -0.4483
 3091SOL    HW120732   2.960   4.134  10.934  2.7035 -0.6881 -1.6786
 3091SOL    HW220733   2.941   4.020  10.847  1.8784  0.8348  0.8072
 3092SOL     OW20734   1.947   0.012   8.218  0.2990  0.5484  0.4099
 3092SOL    HW120735   1.883   0.078   8.243  0.2776  1.1575 -1.2422
 3092SOL    HW220736   1.892   4.661   8.195 -0.6759  1.4071 -0.0556
 3093SOL     OW20737   3.645   1.557   8.658 -0.2228 -0.0365  0.3078
 3093SOL    HW120738   3.619   1.467   8.675 -2.1714  0.6249  0.7401
 3093SOL    HW220739   3.740   1.553   8.673 -0.3624 -2.0178  0.6822
 3094SOL     OW20740   3.376   0.268   7.881  0.7525 -0.7110 -0.2754
 3094SOL    HW120741   3.389   0.209   7.807 -1.1183 -1.4151 -0.0305
 3094SOL    HW220742   3.281   0.278   7.876  1.2478  2.2656 -3.5847
 3095SOL     OW20743   4.594   0.428   8.579 -0.0010 -0.0730  0.4083
 3095SOL    HW120744   4.598   0.343   8.622 -0.1657  0.2994  1.1574
 3095SOL    HW220745   4.603   0.487   8.653 -1.6212  1.6294 -0.7519
 3096SOL     OW20746   4.275   0.783   8.140 -0.2960  0.1830 -0.2604
 3096SOL    HW120747   4.207   0.773   8.206 -0.4771  2.1481 -0.1367
 3096SOL    HW220748   4.345   0.719   8.153  1.1186  1.6517 -0.7097
 3097SOL     OW20749   2.230   1.890   2.301 -0.1244  0.2133  0.2784
 3097SOL    HW120750   2.249   1.984   2.303 -1.1201  0.4622 -2.0442
 3097SOL    HW220751   2.151   1.880   2.354 -1.3178  2.0931 -1.1674
 3098SOL     OW20752   0.523   2.015   7.460  0.3336  0.2442  0.1508
 3098SOL    HW120753   0.525   1.925   7.494 -1.6889 -0.0541 -0.5011
 3098SOL    HW220754   0.549   2.050   7.545 -3.1117 -0.1295  1.3390
 3099SOL     OW20755   3.740   0.649   0.121 -0.5976  0.2107  0.1230
 3099SOL    HW120756   3.759   0.580   0.185 -1.3564 -0.5641 -0.4957
 3099SOL    HW220757   3.680   0.607   0.061  0.6901  0.9823 -1.6997
 3100SOL     OW20758   0.392   0.832  16.086 -0.4980 -0.3595 -0.0855
 3100SOL    HW120759   0.390   0.923  16.057 -0.1625 -0.1209  0.6413
 3100SOL    HW220760   0.443   0.847  16.166 -0.6020  0.9861 -0.2686
 3101SOL     OW20761   2.034   1.865   0.666 -0.5872 -0.0941  0.0120
 3101SOL    HW120762   1.952   1.852   0.618 -0.2120 -0.7787 -0.4468
 3101SOL    HW220763   2.065   1.777   0.644  1.7824  1.4304 -2.6075
 3102SOL     OW20764   1.361   1.738   8.845 -0.3164  0.5237 -0.8002
 3102SOL    HW120765   1.421   1.664   8.834  0.6426  1.3842 -1.4849
 3102SOL    HW220766   1.405   1.813   8.803  1.4777  0.3199  0.7148
 3103SOL     OW20767   2.423   2.715  16.827 -0.3288 -0.0793 -0.6560
 3103SOL    HW120768   2.445   2.641  16.884 -2.5539 -0.5882 -0.4594
 3103SOL    HW220769   2.470   2.788  16.866 -3.8237  2.7968 -1.8626
 3104SOL     OW20770   0.828   2.394   9.948  0.1152 -0.6235  0.6852
 3104SOL    HW120771   0.836   2.456  10.021  0.0040  1.9162 -1.4874
 3104SOL    HW220772   0.741   2.354   9.956  0.5513 -1.4126  1.4819
 3105SOL     OW20773   2.794   4.346  16.783  0.1891 -0.6974 -0.4934
 3105SOL    HW120774   2.699   4.346  16.799  0.2171  0.2982 -0.2897
 3105SOL    HW220775   2.822   4.257  16.763  2.5485  0.0263 -0.4204
 3106SOL     OW20776   2.235   2.739   6.647  0.1534 -0.2774  0.1496
 3106SOL    HW120777   2.167   2.746   6.580 -0.0577 -1.2620  0.2573
 3106SOL    HW220778   2.239   2.829   6.678 -0.3795  0.0029 -0.5758
 3107SOL     OW20779   1.354   2.896  13.997 -0.2854  0.2492  0.7818
 3107SOL    HW120780   1.362   2.986  13.966 -1.6867  0.8001  2.0215
 3107SOL    HW220781   1.432   2.894  14.052 -0.2473 -0.9313  0.6759
 3108SOL     OW20782   1.376   2.635  15.355  0.1116  0.2395 -0.4657
 3108SOL    HW120783   1.404   2.615  15.266  0.0766 -1.6823 -0.0372
 3108SOL    HW220784   1.283   2.615  15.346  0.2285 -0.7648  0.6260
 3109SOL     OW20785   4.129   1.117   5.030  0.0600 -0.1340 -0.2797
 3109SOL    HW120786   4.042   1.090   5.059  0.9987 -1.3374  1.4063
 3109SOL    HW220787   4.149   1.051   4.963  0.2962  0.9227 -1.2609
 3110SOL     OW20788   3.201   0.301   3.582  0.2612 -0.0921 -0.3988
 3110SOL    HW120789   3.256   0.370   3.617  0.3257 -0.2827 -0.1230
 3110SOL    HW220790   3.268   0.240   3.551 -1.2617 -1.8297 -0.3056
 3111SOL     OW20791   4.386   2.395   9.562  0.1304  0.2186  0.0750
 3111SOL    HW120792   4.345   2.465   9.512 -2.1439 -0.6655  0.6878
 3111SOL    HW220793   4.476   2.428   9.559 -0.6349  1.9985 -2.9453
 3112SOL     OW20794   1.333   2.850   4.028 -0.4297 -0.0536 -0.8090
 3112SOL    HW120795   1.380   2.911   4.084 -0.9832 -0.9564  0.6235
 3112SOL    HW220796   1.299   2.914   3.965 -0.3299  0.5233 -0.2664
 3113SOL     OW20797   0.753   2.835  16.803  0.0350  0.2358  0.1050
 3113SOL    HW120798   0.839   2.877  16.803 -0.4889  1.2927 -1.0468
 3113SOL    HW220799   0.712   2.891  16.737  0.8621 -0.8495 -1.3469
 3114SOL     OW20800   0.399   3.016   4.199  0.5174  0.3306 -0.0499
 3114SOL    HW120801   0.432   3.105   4.210  2.2276 -0.1555 -1.2403
 3114SOL    HW220802   0.312   3.022   4.238 -0.3773  0.3701 -2.0506
 3115SOL     OW20803   3.304   1.768  17.094 -0.5995 -0.3590  0.0831
 3115SOL    HW120804   3.275   1.854  17.124  1.7681 -0.3490  2.3216
 3115SOL    HW220805   3.241   1.718  17.147  0.2169  0.4930  1.8333
 3116SOL     OW20806   0.747   1.365  14.663  0.7330  0.3734  0.1505
 3116SOL    HW120807   0.747   1.392  14.571 -1.3892 -0.5185 -0.1142
 3116SOL    HW220808   0.836   1.396  14.678  0.6828  0.8538 -0.4977
 3117SOL     OW20809   3.027   0.486  15.026 -0.1900  0.0795 -0.4208
 3117SOL    HW120810   2.973   0.408  15.014 -0.8734  0.6072 -0.7436
 3117SOL    HW220811   2.967   0.551  15.064  1.2037  2.1462 -1.7460
 3118SOL     OW20812   3.660   2.628   6.045  1.0672  0.2868  0.3510
 3118SOL    HW120813   3.750   2.619   6.075  2.0869  4.0985 -1.6711
 3118SOL    HW220814   3.675   2.590   5.959 -1.0971  1.0283 -0.3399
 3119SOL     OW20815   1.477   3.480   3.068  0.3926 -0.1473 -0.5503
 3119SOL    HW120816   1.408   3.479   3.002 -0.0429 -2.8988 -0.0348
 3119SOL    HW220817   1.468   3.571   3.097  2.4973  0.7978 -2.8856
 3120SOL     OW20818   2.398   0.908   4.364  0.3993 -0.8434  0.3467
 3120SOL    HW120819   2.408   0.853   4.287  1.3376  1.6145 -1.2507
 3120SOL    HW220820   2.361   0.984   4.320  1.8706 -0.5953 -0.4316
 3121SOL     OW20821   2.876   1.209   2.021 -0.4228 -0.2031  0.7275
 3121SOL    HW120822   2.836   1.269   2.084 -0.8582  0.7719 -0.4712
 3121SOL    HW220823   2.817   1.238   1.951 -0.7969  2.1530  2.0139
 3122SOL     OW20824   2.426   2.259  16.492  0.1949  0.3110  0.0492
 3122SOL    HW120825   2.350   2.214  16.458  0.6126 -0.4357  0.0900
 3122SOL    HW220826   2.400   2.351  16.503 -1.5675 -0.2293  0.3737
 3123SOL     OW20827   3.759   4.159  13.959  0.2589 -0.7700 -0.2177
 3123SOL    HW120828   3.829   4.150  13.894  2.9266 -0.1931  2.5680
 3123SOL    HW220829   3.765   4.076  14.006  0.5123 -0.0833  0.9755
 3124SOL     OW20830   0.843   0.981  15.749 -0.3989  0.4234  0.1528
 3124SOL    HW120831   0.916   0.990  15.687 -0.5158 -1.3424 -0.2322
 3124SOL    HW220832   0.784   0.937  15.688 -0.7506  1.2119 -0.0818
 3125SOL     OW20833   1.819   0.696   2.267 -0.0240 -0.5358  0.6086
 3125SOL    HW120834   1.832   0.762   2.198  0.6729 -0.0950  1.1563
 3125SOL    HW220835   1.907   0.672   2.296  0.3931  0.2198 -0.0144
 3126SOL     OW20836   1.078   2.353   8.994  0.0647  0.1457  0.1737
 3126SOL    HW120837   1.086   2.278   9.052  1.1850 -0.2076 -0.4507
 3126SOL    HW220838   1.153   2.405   9.022 -0.2611  0.0648  1.1855
 3127SOL     OW20839   0.964   3.010   5.847 -0.1237 -0.4132  0.0580
 3127SOL    HW120840   0.915   3.019   5.766  2.2495 -1.7795 -1.5247
 3127SOL    HW220841   1.051   3.048   5.840 -0.3748  0.2369  0.4355
 3128SOL     OW20842   0.435   4.605  16.273 -0.3779  0.1953 -0.5072
 3128SOL    HW120843   0.495   4.679  16.282 -0.9164  0.4125  1.2939
 3128SOL    HW220844   0.358   4.649  16.307  0.0360  1.4336 -1.1849
 3129SOL     OW20845   1.482   4.156   9.059 -0.8635 -0.5477  0.4190
 3129SOL    HW120846   1.565   4.110   9.059  0.0642  1.1319  2.0712
 3129SOL    HW220847   1.469   4.175   9.152  0.1729 -0.8192  0.6122
 3130SOL     OW20848   1.954   4.481   7.941  0.3211 -0.1141 -0.5245
 3130SOL    HW120849   1.911   4.444   8.018  0.4181  0.2721 -0.2819
 3130SOL    HW220850   1.883   4.477   7.877 -1.6880 -1.4919  1.8093
 3131SOL     OW20851   0.288   2.755   5.315 -0.2240  0.4775  0.0272
 3131SOL    HW120852   0.343   2.697   5.367 -0.7538 -0.5055 -0.4827
 3131SOL    HW220853   0.329   2.747   5.229 -0.8718  1.0847 -0.3360
 3132SOL     OW20854   0.791   1.572   6.357 -0.2008 -0.5714 -0.4751
 3132SOL    HW120855   0.742   1.534   6.284  1.3103 -1.3032 -1.1078
 3132SOL    HW220856   0.778   1.661   6.327  0.0451 -0.4863 -0.3269
 3133SOL     OW20857   4.683   2.208   5.011 -0.3360 -0.0291  0.4541
 3133SOL    HW120858   0.036   2.183   5.061  1.1622  1.7795 -0.9917
 3133SOL    HW220859   4.661   2.121   4.976 -0.2793  0.7099 -1.3964
 3134SOL     OW20860   0.870   3.196   2.560  0.0279 -0.4481  0.4522
 3134SOL    HW120861   0.806   3.235   2.619  2.5260  0.5540  2.5493
 3134SOL    HW220862   0.836   3.107   2.554  2.0777 -1.1903 -0.2837
 3135SOL     OW20863   4.220   3.723   9.385  0.6503  0.4772 -0.4753
 3135SOL    HW120864   4.267   3.725   9.468  0.3974  1.9126 -0.3772
 3135SOL    HW220865   4.147   3.671   9.419 -0.2630  1.2613 -1.2324
 3136SOL     OW20866   4.444   0.779   4.005 -0.7199  0.3944  0.0622
 3136SOL    HW120867   4.513   0.713   3.999 -0.2610  0.6021  3.0305
 3136SOL    HW220868   4.420   0.809   3.917  0.2730  2.8394  0.6226
 3137SOL     OW20869   0.048   0.598   6.920  0.0360 -0.1747  0.1559
 3137SOL    HW120870   4.695   0.653   6.914 -0.1246 -0.4429 -0.2102
 3137SOL    HW220871   0.096   0.618   6.840  2.2367 -1.0931  1.2275
 3138SOL     OW20872   1.036   0.634   9.055 -0.1757 -0.1996 -0.1826
 3138SOL    HW120873   1.023   0.645   9.149 -1.2020  1.9629 -0.5842
 3138SOL    HW220874   0.972   0.690   9.011  0.4408  2.8947  2.9111
 3139SOL     OW20875   3.395   2.268  11.882  0.2549 -0.4956 -0.5920
 3139SOL    HW120876   3.439   2.340  11.926  0.7581  0.6728 -2.9679
 3139SOL    HW220877   3.308   2.308  11.871 -0.7807 -2.7660 -0.8199
 3140SOL     OW20878   4.038   4.182  15.832  0.3631 -0.4687  0.3147
 3140SOL    HW120879   4.118   4.132  15.816  0.5403 -0.4955  1.3027
 3140SOL    HW220880   4.016   4.212  15.744 -1.5491  0.5845  1.1627
 3141SOL     OW20881   4.205   2.211   0.549  0.0714  0.1768  0.0766
 3141SOL    HW120882   4.189   2.305   0.555 -1.0911 -0.0804  0.8487
 3141SOL    HW220883   4.172   2.202   0.459 -2.2227  1.0889  0.8334
 3142SOL     OW20884   2.624   4.648  11.032 -0.6759  0.1918 -0.1550
 3142SOL    HW120885   2.677   4.569  11.041  1.9989  1.6409 -3.2352
 3142SOL    HW220886   2.684   4.723  11.031 -1.5453  0.8809 -1.0366
 3143SOL     OW20887   2.039   1.090   5.012  0.1834 -0.1969  0.1829
 3143SOL    HW120888   1.984   1.166   4.993 -0.7695 -0.9913 -0.2721
 3143SOL    HW220889   2.045   1.055   4.923 -1.8751 -2.3764  0.8875
 3144SOL     OW20890   2.821   4.303   7.386  0.1004 -0.0633 -0.0451
 3144SOL    HW120891   2.746   4.293   7.328 -0.6710 -0.1970  0.9856
 3144SOL    HW220892   2.769   4.330   7.461 -0.8440 -0.1338 -0.6824
 3145SOL     OW20893   4.056   4.546   2.146 -0.3434 -0.5511 -0.0579
 3145SOL    HW120894   3.998   4.533   2.222 -0.9307 -0.3171 -0.4605
 3145SOL    HW220895   4.105   4.464   2.148  0.3269 -0.1313  0.8721
 3146SOL     OW20896   2.287   3.003  11.415 -0.3765 -0.0139 -0.0001
 3146SOL    HW120897   2.208   3.055  11.432 -0.6720 -0.3634 -0.2973
 3146SOL    HW220898   2.327   2.993  11.502  0.1179 -1.0941 -0.3653
 3147SOL     OW20899   3.853   2.931   0.748  0.0590  0.0037 -0.6003
 3147SOL    HW120900   3.808   3.012   0.769  0.4059 -0.1031  0.5634
 3147SOL    HW220901   3.792   2.882   0.693 -2.1799 -0.3567  2.2428
 3148SOL     OW20902   0.802   3.690   2.526  0.3048  0.5319  0.1137
 3148SOL    HW120903   0.799   3.783   2.546  2.0654  0.7442 -0.5808
 3148SOL    HW220904   0.894   3.676   2.552 -0.0213 -1.4696  0.1574
 3149SOL     OW20905   0.616   1.654   8.189  0.5617  0.4119  0.3362
 3149SOL    HW120906   0.615   1.702   8.272 -1.9981  1.3270 -0.2005
 3149SOL    HW220907   0.678   1.585   8.214 -1.7640 -2.2395 -1.1901
 3150SOL     OW20908   0.702   1.905   6.560 -0.1766 -1.1217 -0.6082
 3150SOL    HW120909   0.609   1.926   6.561  0.0297 -0.2229 -0.0365
 3150SOL    HW220910   0.722   1.934   6.471 -1.1257 -1.7137 -1.0098
 3151SOL     OW20911   3.212   2.522   6.188  0.3482 -0.5999  0.8991
 3151SOL    HW120912   3.283   2.474   6.230  2.6716  0.6740 -1.5952
 3151SOL    HW220913   3.262   2.573   6.124 -0.6820 -0.6693  0.0319
 3152SOL     OW20914   1.461   4.238   2.804 -0.6773  0.0820 -0.2826
 3152SOL    HW120915   1.533   4.245   2.866  0.1221  2.6260 -1.5180
 3152SOL    HW220916   1.471   4.317   2.751 -1.7584  1.7377  1.9856
 3153SOL     OW20917   0.984   0.947  10.877 -0.6382 -0.1645 -0.2949
 3153SOL    HW120918   1.054   0.981  10.821 -0.9281  1.0497  0.0641
 3153SOL    HW220919   1.000   0.854  10.865 -0.3050 -0.0650 -0.6405
 3154SOL     OW20920   3.200   2.952   2.976 -0.5848 -0.0122  0.4889
 3154SOL    HW120921   3.152   3.005   2.912  1.4032  2.4744  1.0679
 3154SOL    HW220922   3.165   2.978   3.062 -1.2918  1.1954 -0.1673
 3155SOL     OW20923   2.936   1.474   3.752  0.0501  0.3857  0.3654
 3155SOL    HW120924   2.954   1.390   3.709 -1.8049 -0.7093  1.7525
 3155SOL    HW220925   2.863   1.458   3.812 -0.9784 -0.4073 -1.0866
 3156SOL     OW20926   1.007   0.783   3.756 -0.9815  0.1328 -0.0580
 3156SOL    HW120927   0.943   0.794   3.686 -0.2268  0.9289 -0.6272
 3156SOL    HW220928   1.012   0.689   3.771  0.1721  0.7909  3.6416
 3157SOL     OW20929   2.122   1.620   0.617 -0.1826  0.0456 -0.3377
 3157SOL    HW120930   2.210   1.618   0.579 -2.4002  1.7174 -5.6093
 3157SOL    HW220931   2.088   1.558   0.553 -1.6818  0.1803  0.3311
 3158SOL     OW20932   0.859   4.051  11.208 -0.0761 -0.0158 -0.9715
 3158SOL    HW120933   0.765   4.064  11.196 -0.4371 -1.6348  0.0303
 3158SOL    HW220934   0.852   3.987  11.279 -0.5854 -1.0028 -1.9125
 3159SOL     OW20935   2.560   3.304   5.428  0.0866  0.1097  0.4151
 3159SOL    HW120936   2.571   3.272   5.518  0.0873 -1.1270 -0.0225
 3159SOL    HW220937   2.647   3.302   5.389 -0.4191 -0.2751 -0.6954
 3160SOL     OW20938   2.463   2.520   3.583  0.1207 -0.2399 -0.0859
 3160SOL    HW120939   2.467   2.616   3.583  0.7426 -0.2648  0.1755
 3160SOL    HW220940   2.506   2.506   3.499  1.5330 -0.6369  0.7172
 3161SOL     OW20941   2.716   1.763   5.447  0.4917  0.4545  0.3658
 3161SOL    HW120942   2.741   1.689   5.392  1.7294  0.7707  0.5031
 3161SOL    HW220943   2.645   1.796   5.392 -0.3962  1.0883  1.9043
 3162SOL     OW20944   0.910   3.492   5.820  0.6580 -0.2760 -0.2276
 3162SOL    HW120945   0.917   3.441   5.901  0.2127 -0.2546 -0.1760
 3162SOL    HW220946   0.821   3.517   5.844  2.1099  2.3804  2.4153
 3163SOL     OW20947   4.053   0.618  14.088 -0.1800 -0.2358  0.1889
 3163SOL    HW120948   4.142   0.647  14.110 -1.2829  2.9027  0.6326
 3163SOL    HW220949   4.077   0.528  14.069  0.9054  0.2009 -0.5134
 3164SOL     OW20950   1.652   4.202   5.869  0.0767  0.5342  1.1537
 3164SOL    HW120951   1.598   4.281   5.868  1.0755  1.1650 -1.1000
 3164SOL    HW220952   1.633   4.170   5.958  1.6080 -1.0495  0.9170
 3165SOL     OW20953   1.255   2.253   8.725 -0.4796  0.1318 -0.5246
 3165SOL    HW120954   1.344   2.236   8.755 -0.4654 -0.7366 -1.0751
 3165SOL    HW220955   1.201   2.207   8.789  0.2203 -1.0146 -0.7635
 3166SOL     OW20956   0.942   3.823   6.246 -0.3583 -0.5466  0.3123
 3166SOL    HW120957   0.892   3.742   6.235  0.7693 -1.1268 -0.5839
 3166SOL    HW220958   0.926   3.857   6.158 -1.1064 -0.6705  0.4031
 3167SOL     OW20959   3.128   0.599  11.940  0.0102 -0.4376  0.7767
 3167SOL    HW120960   3.123   0.516  11.895 -1.5779  0.4862 -0.7430
 3167SOL    HW220961   3.222   0.613  11.950  0.0199 -0.0997  0.2170
 3168SOL     OW20962   3.463   4.221   7.945 -0.3383 -0.3234 -0.3770
 3168SOL    HW120963   3.407   4.144   7.956 -0.1070 -0.7401 -2.1032
 3168SOL    HW220964   3.404   4.275   7.891 -0.5458 -1.6980 -1.5280
 3169SOL     OW20965   0.491   2.655  15.905  0.3679  0.2512  0.1333
 3169SOL    HW120966   0.464   2.654  15.996 -3.1730  1.9643 -0.8770
 3169SOL    HW220967   0.561   2.721  15.899 -1.2884  1.9194 -0.8801
 3170SOL     OW20968   1.251   2.852   8.028 -0.0278  0.1972  0.0950
 3170SOL    HW120969   1.185   2.880   8.092  0.0402 -2.6841  1.3928
 3170SOL    HW220970   1.256   2.757   8.038 -0.9127  0.2814  1.3797
 3171SOL     OW20971   2.212   4.375   5.814  0.4057 -0.4666  0.2546
 3171SOL    HW120972   2.213   4.318   5.737 -0.9446  2.2259 -1.8247
 3171SOL    HW220973   2.130   4.425   5.807 -0.1759 -1.3368  1.0367
 3172SOL     OW20974   3.091   3.569   3.581  0.5926  0.1732 -0.0488
 3172SOL    HW120975   3.050   3.488   3.612  1.7727 -0.0681  0.9171
 3172SOL    HW220976   3.051   3.629   3.644 -0.5693 -0.4333 -0.2172
 3173SOL     OW20977   3.034   1.811  11.686  0.3649  0.2528  0.0417
 3173SOL    HW120978   2.991   1.871  11.746 -3.3851 -2.8166  0.4270
 3173SOL    HW220979   3.105   1.771  11.737  1.0230 -1.4213 -2.1457
 3174SOL     OW20980   3.702   2.495   4.002  0.4731  0.4814  0.0370
 3174SOL    HW120981   3.610   2.518   4.017  0.6488  0.6558  0.8923
 3174SOL    HW220982   3.689   2.401   3.991  0.4708  0.6086 -0.9784
 3175SOL     OW20983   2.538   0.004   2.233 -0.4131  0.0446 -0.2316
 3175SOL    HW120984   2.592   4.661   2.192  0.3214  0.6471 -0.2510
 3175SOL    HW220985   2.597   0.069   2.270 -0.2357  0.1485 -0.6921
 3176SOL     OW20986   2.104   2.008   4.636 -0.1605  0.1697  0.7217
 3176SOL    HW120987   2.013   1.990   4.614  0.0882  0.4598 -0.5333
 3176SOL    HW220988   2.099   2.060   4.717 -0.0321 -0.0393  0.8630
 3177SOL     OW20989   2.242   2.974   0.423  0.4537 -0.3851 -0.5124
 3177SOL    HW120990   2.170   3.033   0.448  0.2461 -1.0108  0.3550
 3177SOL    HW220991   2.191   2.931   0.353  0.6310  0.4364 -1.1557
 3178SOL     OW20992   1.750   3.112   1.471  0.1873 -0.5392 -0.5999
 3178SOL    HW120993   1.673   3.101   1.526  1.1230 -0.6425  0.6972
 3178SOL    HW220994   1.805   3.043   1.508 -0.2589 -2.3493 -3.3496
 3179SOL     OW20995   1.855   4.662   1.160 -0.0939  0.2438  0.3065
 3179SOL    HW120996   1.849   4.598   1.231  1.5850  0.4821  0.6762
 3179SOL    HW220997   1.887   0.008   1.216 -1.0507 -1.1636  2.6363
 3180SOL     OW20998   3.984   2.494   7.441  0.7988  0.5026  0.3476
 3180SOL    HW120999   3.997   2.401   7.421  1.3082  0.4612  0.8757
 3180SOL    HW221000   3.898   2.495   7.484  1.0074 -1.8286  0.8073
 3181SOL     OW21001   1.388   1.212   2.453 -0.1112  0.1879 -0.8961
 3181SOL    HW121002   1.368   1.286   2.511 -0.0650  0.3289 -1.0620
 3181SOL    HW221003   1.335   1.235   2.376 -1.4183  0.3286  0.0405
 3182SOL     OW21004   4.572   3.577  15.240  0.4421  0.2649  0.8484
 3182SOL    HW121005   4.613   3.506  15.191 -0.6060 -1.4016  2.3700
 3182SOL    HW221006   4.501   3.528  15.281 -0.1564  0.9340  0.6087
 3183SOL     OW21007   2.806   2.435   6.378 -0.0404  0.3067  0.3013
 3183SOL    HW121008   2.752   2.514   6.376 -0.2007  0.1588 -0.9478
 3183SOL    HW221009   2.895   2.469   6.368  0.2505  0.0361  2.0116
 3184SOL     OW21010   3.672   1.628   3.196  0.0487  0.7163 -0.2367
 3184SOL    HW121011   3.762   1.654   3.177  0.0261  1.7055  1.0607
 3184SOL    HW221012   3.657   1.543   3.153  0.7472  0.2727  0.4134
 3185SOL     OW21013   1.118   1.527   4.943 -0.0022 -0.5035 -0.1715
 3185SOL    HW121014   1.088   1.585   4.873 -0.7342  0.0402  0.5948
 3185SOL    HW221015   1.033   1.514   4.986  0.0004 -0.8839 -0.2812
 3186SOL     OW21016   3.331   0.060  11.751  0.1782 -0.6689  0.3160
 3186SOL    HW121017   3.367   0.006  11.821  0.4889 -0.3523  0.3988
 3186SOL    HW221018   3.345   0.004  11.674  0.5429  1.5782 -1.2645
 3187SOL     OW21019   2.608   4.230   8.316  0.2983  0.0460  0.2769
 3187SOL    HW121020   2.679   4.169   8.332 -1.6586 -2.3531 -0.1768
 3187SOL    HW221021   2.650   4.316   8.320  3.0066 -1.3554  1.5303
 3188SOL     OW21022   2.889   3.965   0.235 -0.1028  0.0033  0.4346
 3188SOL    HW121023   2.951   3.953   0.163  1.4336  0.5475  1.6557
 3188SOL    HW221024   2.854   4.053   0.217 -2.6147 -1.2465 -0.7813
 3189SOL     OW21025   1.026   1.114   5.329  0.6836  0.0251 -0.2455
 3189SOL    HW121026   1.041   1.200   5.368 -2.2583  1.0356 -1.3958
 3189SOL    HW221027   0.937   1.125   5.295  0.8528  0.7370 -0.4515
 3190SOL     OW21028   4.345   0.167   1.951  0.8254  0.2130 -0.3363
 3190SOL    HW121029   4.284   0.134   2.017 -0.0612 -0.6347 -1.5855
 3190SOL    HW221030   4.322   0.109   1.879  0.2340  0.5456 -0.4179
 3191SOL     OW21031   2.844   2.251   3.220  0.1579  0.2778  0.3130
 3191SOL    HW121032   2.884   2.203   3.147 -0.5516 -2.1961  1.5442
 3191SOL    HW221033   2.759   2.268   3.179  0.4930  1.1194 -0.0469
 3192SOL     OW21034   3.657   2.994   6.952  0.4372 -0.1059 -0.1743
 3192SOL    HW121035   3.650   2.934   6.878  2.7011  0.2933 -0.7212
 3192SOL    HW221036   3.737   2.960   6.991  0.7236 -0.3808 -0.9997
 3193SOL     OW21037   3.676   2.171   6.348 -0.1646  0.6199  0.0614
 3193SOL    HW121038   3.698   2.255   6.307  0.1252  0.2725 -0.4993
 3193SOL    HW221039   3.672   2.122   6.266 -0.9052  0.1922  0.3541
 3194SOL     OW21040   0.998   1.012  12.950  0.7967  0.1205  0.3143
 3194SOL    HW121041   1.002   1.058  12.866  0.9151 -0.4900 -0.0149
 3194SOL    HW221042   1.073   1.054  12.992  0.4471 -2.8104  3.9078
 3195SOL     OW21043   4.673   3.200   3.711 -0.4117  0.7519  0.1227
 3195SOL    HW121044   0.015   3.231   3.651 -0.2271  0.2077  0.0462
 3195SOL    HW221045   4.723   3.125   3.743 -2.6402 -1.4961 -1.6952
 3196SOL     OW21046   4.463   2.457  17.138 -0.1155  0.0949 -0.2882
 3196SOL    HW121047   4.515   2.425  17.212  0.5724 -0.0849 -0.8524
 3196SOL    HW221048   4.460   2.387  17.073 -0.3215  2.6689 -3.0351
 3197SOL     OW21049   3.400   3.938   5.503  0.0882  0.3525 -0.2119
 3197SOL    HW121050   3.409   4.023   5.545  0.6582 -0.0492  0.4898
 3197SOL    HW221051   3.445   3.877   5.562  1.1072  1.1582 -0.1634
 3198SOL     OW21052   2.339   3.651  16.595  0.3531  0.2963  0.3787
 3198SOL    HW121053   2.309   3.614  16.678 -1.3190 -0.2417 -0.4572
 3198SOL    HW221054   2.260   3.694  16.563  0.2266 -0.8810 -0.8893
 3199SOL     OW21055   4.261   1.582   9.279 -0.0363  0.2464 -0.4290
 3199SOL    HW121056   4.343   1.625   9.304 -0.5174 -0.3011  2.0559
 3199SOL    HW221057   4.222   1.563   9.364  0.9230 -1.3500 -0.3449
 3200SOL     OW21058   0.004   0.897  15.852 -0.3475  0.2521 -0.6194
 3200SOL    HW121059   4.682   0.964  15.902 -1.5322 -1.1739  0.1744
 3200SOL    HW221060   0.049   0.959  15.794  0.5716  0.6643  0.5445
 3201SOL     OW21061   0.587   2.945   8.377 -0.1202 -0.0690 -0.2153
 3201SOL    HW121062   0.604   3.021   8.431 -2.8158 -0.2977  0.9546
 3201SOL    HW221063   0.522   2.985   8.319  2.4091  2.8785 -1.0038
 3202SOL     OW21064   2.393   1.430  13.478  0.2233  0.5021  0.5305
 3202SOL    HW121065   2.344   1.382  13.411  2.1587 -2.6311  1.4087
 3202SOL    HW221066   2.377   1.386  13.561  2.0364 -0.0342  0.5711
 3203SOL     OW21067   1.082   4.149  15.587 -0.1196 -0.4757 -0.2681
 3203SOL    HW121068   1.041   4.103  15.514  1.5053  1.5274 -2.4652
 3203SOL    HW221069   1.169   4.125  15.556  0.2643  1.1120 -0.4446
 3204SOL     OW21070   3.093   1.290   5.428  0.3371  0.1526  0.0653
 3204SOL    HW121071   2.998   1.306   5.430  0.1510 -0.9337 -0.0047
 3204SOL    HW221072   3.122   1.332   5.347 -3.8624  2.0957 -0.4727
 3205SOL     OW21073   3.737   2.619   7.839  0.0495  0.2101  0.0719
 3205SOL    HW121074   3.779   2.705   7.830  2.5889 -1.1390 -1.0096
 3205SOL    HW221075   3.650   2.640   7.873  0.4758  3.0469 -0.5323
 3206SOL     OW21076   1.260   2.594   0.676  0.0024 -0.7180 -0.5079
 3206SOL    HW121077   1.282   2.588   0.583 -1.6999  0.2866 -0.9709
 3206SOL    HW221078   1.301   2.513   0.704 -2.6896 -1.5515  1.0680
 3207SOL     OW21079   0.950   0.701   8.651  0.2061  0.2426 -0.2967
 3207SOL    HW121080   0.996   0.776   8.614 -0.6076  0.8380 -0.1000
 3207SOL    HW221081   0.970   0.713   8.744 -3.7340  2.1464  0.3512
 3208SOL     OW21082   2.359   1.470   8.235 -0.5744  0.2192  0.2265
 3208SOL    HW121083   2.365   1.384   8.277 -0.3830  0.4771  0.7252
 3208SOL    HW221084   2.435   1.518   8.268 -1.3762  2.1283 -0.7697
 3209SOL     OW21085   2.470   0.501   2.135  0.0215 -0.0046  0.6080
 3209SOL    HW121086   2.562   0.480   2.151 -0.5118 -1.9683  1.1084
 3209SOL    HW221087   2.451   0.453   2.055  0.2553  0.5088  0.2453
 3210SOL     OW21088   2.602   1.712   5.691  0.4795 -0.3729 -0.2844
 3210SOL    HW121089   2.514   1.749   5.680 -0.1513 -1.1085  2.3463
 3210SOL    HW221090   2.637   1.750   5.610  0.7798  2.5241  1.1798
 3211SOL     OW21091   4.471   3.765   5.208 -0.0349 -0.5015 -0.1368
 3211SOL    HW121092   4.524   3.845   5.211  0.6703 -1.0316  1.5759
 3211SOL    HW221093   4.397   3.795   5.262  1.9970  0.3260  2.2249
 3212SOL     OW21094   4.708   2.621   4.703 -0.8484  0.3639  0.9542
 3212SOL    HW121095   4.630   2.589   4.658  0.2370  0.1560 -0.7728
 3212SOL    HW221096   4.662   2.694   4.744  0.7132  2.4075 -0.9073
 3213SOL     OW21097   3.781   1.221   5.820 -0.2456 -0.9151  0.3226
 3213SOL    HW121098   3.777   1.146   5.761  1.3407  0.0375 -0.9703
 3213SOL    HW221099   3.872   1.203   5.839  0.1370  1.2855  0.5563
 3214SOL     OW21100   3.402   3.831   6.401 -0.2437  0.7087 -0.3541
 3214SOL    HW121101   3.361   3.915   6.425 -1.3709 -0.3202  1.3605
 3214SOL    HW221102   3.492   3.862   6.413  1.5206 -3.8609 -2.0679
 3215SOL     OW21103   0.599   2.898  15.979 -0.3152 -0.0683  0.2802
 3215SOL    HW121104   0.555   2.982  15.986 -0.0604  0.1869 -1.0707
 3215SOL    HW221105   0.686   2.925  16.009  0.0919  0.0914 -1.0495
 3216SOL     OW21106   0.880   0.853   6.475 -0.5809  0.1415 -0.2485
 3216SOL    HW121107   0.788   0.848   6.501 -0.1938  1.8855  1.3868
 3216SOL    HW221108   0.916   0.923   6.528  0.5964 -1.9050  1.6576
 3217SOL     OW21109   4.429   0.517   2.255  0.1124  0.1914 -0.0781
 3217SOL    HW121110   4.387   0.489   2.336  0.4104  1.9463  0.6809
 3217SOL    HW221111   4.354   0.573   2.235 -1.2403 -0.8543  2.0943
 3218SOL     OW21112   1.354   3.491   8.546  0.6347 -0.2906 -0.1167
 3218SOL    HW121113   1.340   3.586   8.544 -0.3312 -0.4614 -1.5966
 3218SOL    HW221114   1.333   3.478   8.638 -1.9725 -0.4371 -0.7330
 3219SOL     OW21115   1.818   4.567  14.129 -0.4090 -0.1590 -0.5813
 3219SOL    HW121116   1.733   4.611  14.126 -0.2535  0.0359 -2.3684
 3219SOL    HW221117   1.820   4.507  14.054 -0.0223 -0.6817 -0.1456
 3220SOL     OW21118   1.260   4.397   4.084 -0.0816 -0.1609 -0.3475
 3220SOL    HW121119   1.320   4.457   4.038 -0.5203  0.3337 -0.2760
 3220SOL    HW221120   1.236   4.440   4.166  1.7638 -0.3419  0.2991
 3221SOL     OW21121   4.428   2.480   3.842 -0.1300  0.6850 -0.2620
 3221SOL    HW121122   4.353   2.425   3.819  1.4786 -1.2992 -0.7985
 3221SOL    HW221123   4.501   2.438   3.797 -1.4670  0.0129 -1.8166
 3222SOL     OW21124   2.487   2.664  15.628 -0.2331  0.5567 -0.3471
 3222SOL    HW121125   2.512   2.733  15.689 -1.8838  0.3283  0.5895
 3222SOL    HW221126   2.408   2.701  15.590 -0.3668  1.2294  0.6145
 3223SOL     OW21127   1.704   4.078   6.346 -0.1967 -0.5954 -0.5535
 3223SOL    HW121128   1.754   4.156   6.319 -0.7180 -0.3128 -0.7024
 3223SOL    HW221129   1.724   4.017   6.275  1.4027 -0.0621 -0.5685
 3224SOL     OW21130   3.291   3.014   6.989 -0.4960  0.3060  0.2874
 3224SOL    HW121131   3.255   3.079   7.049 -1.7403  0.0590 -0.1880
 3224SOL    HW221132   3.361   2.980   7.043 -0.2189  4.0602  2.2998
 3225SOL     OW21133   2.968   2.985   5.889  1.0865 -0.2765 -0.2563
 3225SOL    HW121134   2.983   2.891   5.879 -3.2495 -1.2477  1.9920
 3225SOL    HW221135   3.048   3.031   5.863  1.2447 -0.8769 -0.8073
 3226SOL     OW21136   2.719   1.980  11.575  0.2851  0.1326  0.3390
 3226SOL    HW121137   2.735   1.894  11.613  0.8793  0.2783  0.4261
 3226SOL    HW221138   2.745   1.963  11.484 -0.7394  1.6011 -0.2355
 3227SOL     OW21139   3.970   2.817   5.036 -0.1240 -0.6465 -0.4298
 3227SOL    HW121140   3.954   2.746   4.974 -1.3046  0.4016 -1.3266
 3227SOL    HW221141   3.879   2.846   5.046 -0.4136 -1.4632 -0.7142
 3228SOL     OW21142   2.727   2.038   2.073 -0.3341 -0.2802  0.0480
 3228SOL    HW121143   2.767   2.042   2.160  0.0738 -0.2202 -0.1403
 3228SOL    HW221144   2.777   1.964   2.038  0.9979  1.6311 -2.0553
 3229SOL     OW21145   4.576   3.500   3.637  0.1639 -0.0183  0.1770
 3229SOL    HW121146   4.529   3.419   3.654 -0.7128  0.5228  0.3275
 3229SOL    HW221147   4.661   3.479   3.598  0.5066  0.9418  0.3876
 3230SOL     OW21148   3.142   1.407  16.976  0.9422  0.1898 -0.4130
 3230SOL    HW121149   3.088   1.378  16.903 -1.1626  1.8887  0.4868
 3230SOL    HW221150   3.077   1.440  17.037  3.4585  3.2059  0.6583
 3231SOL     OW21151   4.255   1.789  12.235  0.2603  0.7454  0.0571
 3231SOL    HW121152   4.193   1.768  12.305 -0.1409 -1.4297 -0.9425
 3231SOL    HW221153   4.331   1.815  12.287  0.2530 -1.0656  0.9853
 3232SOL     OW21154   4.401   0.764   7.404 -0.0689 -0.4435  0.1736
 3232SOL    HW121155   4.414   0.755   7.310  0.5823  0.3052  0.1981
 3232SOL    HW221156   4.327   0.825   7.407  0.5943  0.5067 -2.5397
 3233SOL     OW21157   0.166   0.870   8.062 -0.1673 -0.1372  0.8869
 3233SOL    HW121158   0.216   0.790   8.075  0.3600  0.3376  1.8076
 3233SOL    HW221159   0.226   0.930   8.106 -1.0085  0.9717  0.5340
 3234SOL     OW21160   4.338   2.107   9.529  0.1123  0.1996 -0.3066
 3234SOL    HW121161   4.365   2.123   9.438 -0.2779  0.0569 -0.4473
 3234SOL    HW221162   4.353   2.191   9.573  0.9452  0.9944 -2.1266
 3235SOL     OW21163   3.504   2.377   9.284 -0.1476 -0.1526 -0.4842
 3235SOL    HW121164   3.411   2.397   9.275 -0.8529 -2.3470  2.0504
 3235SOL    HW221165   3.508   2.288   9.248  1.1646 -0.6996  1.0223
 3236SOL     OW21166   2.357   0.099   2.044  0.1342  0.0831  0.6362
 3236SOL    HW121167   2.430   0.108   1.983 -0.8169 -4.5764 -1.1602
 3236SOL    HW221168   2.398   0.049   2.115  4.6548  0.8625 -1.4526
 3237SOL     OW21169   1.578   3.589   7.589  0.7551  0.2552 -0.2793
 3237SOL    HW121170   1.499   3.608   7.539 -0.0826 -1.8036  0.2937
 3237SOL    HW221171   1.609   3.674   7.622  3.5425 -0.3861 -1.2305
 3238SOL     OW21172   1.755   2.410   8.688 -0.2561  0.4629  0.3447
 3238SOL    HW121173   1.684   2.451   8.738 -1.8193  0.3227 -1.7314
 3238SOL    HW221174   1.724   2.406   8.597  1.2239 -1.6883 -0.0503
 3239SOL     OW21175   1.220   3.962   8.070 -0.0077 -0.4361  0.8835
 3239SOL    HW121176   1.224   3.877   8.027  0.8222  0.2870 -0.4828
 3239SOL    HW221177   1.129   3.990   8.058 -0.0537 -1.0140 -0.0946
 3240SOL     OW21178   0.570   3.113   6.208 -0.3541  0.0925  0.4399
 3240SOL    HW121179   0.661   3.119   6.179 -0.4400  0.6443  0.2763
 3240SOL    HW221180   0.551   3.043   6.146  1.4052 -0.0811  0.1078
 3241SOL     OW21181   3.644   1.340  16.309  0.0830  0.9458  0.3550
 3241SOL    HW121182   3.635   1.421  16.358 -1.3119  1.1142 -0.1808
 3241SOL    HW221183   3.676   1.370  16.223  2.3949  1.4859  1.4128
 3242SOL     OW21184   4.332   1.167  16.041 -0.5494 -0.2669  0.0023
 3242SOL    HW121185   4.322   1.249  15.993 -1.4884 -0.9262 -0.9452
 3242SOL    HW221186   4.269   1.167  16.113 -0.1175  0.6288  0.3717
 3243SOL     OW21187   1.584   0.534   2.209  0.1216 -0.1457 -0.3720
 3243SOL    HW121188   1.522   0.601   2.237 -0.8546 -1.0205 -0.4612
 3243SOL    HW221189   1.665   0.559   2.255  0.1363  1.5208 -1.2899
 3244SOL     OW21190   2.677   0.864   4.355 -0.5189 -0.4459  0.2940
 3244SOL    HW121191   2.682   0.947   4.402  0.5613  0.8562 -2.1286
 3244SOL    HW221192   2.583   0.847   4.367 -0.4620 -1.4826 -0.7257
 3245SOL     OW21193   0.712   3.068   2.304  0.1989 -0.2939 -0.2223
 3245SOL    HW121194   0.739   3.007   2.372  2.5324  0.3806 -0.5651
 3245SOL    HW221195   0.745   3.156   2.324 -3.8761  1.6612 -2.0047
 3246SOL     OW21196   0.110   4.160   3.902  0.1291 -0.5379 -0.3218
 3246SOL    HW121197   0.077   4.155   3.813  1.4510  2.5055 -0.9429
 3246SOL    HW221198   0.168   4.084   3.904  0.5535 -0.2014  0.0304
 3247SOL     OW21199   3.705   3.893   7.911 -0.3014  0.1960 -0.3785
 3247SOL    HW121200   3.785   3.842   7.911 -0.1806  0.3908 -3.3318
 3247SOL    HW221201   3.709   3.941   7.828 -1.5126  1.3602  0.2203
 3248SOL     OW21202   4.593   3.140   1.534 -0.1567  0.0370 -0.6351
 3248SOL    HW121203   4.552   3.169   1.452  0.1583  0.4469 -0.6460
 3248SOL    HW221204   4.516   3.150   1.589  0.4877  0.2342  0.2404
 3249SOL     OW21205   2.600   0.839   5.591 -0.4056  0.0406  0.2220
 3249SOL    HW121206   2.670   0.871   5.648 -0.9155 -0.8437  1.3466
 3249SOL    HW221207   2.574   0.762   5.641 -2.3576  1.0861  0.8418
 3250SOL     OW21208   1.956   2.327  10.164  0.3891  0.7547  0.0173
 3250SOL    HW121209   1.943   2.346  10.071 -0.3564 -0.6333 -0.1740
 3250SOL    HW221210   2.048   2.352  10.165  0.5525  0.0983  1.1163
 3251SOL     OW21211   4.001   2.588   4.395  0.3958  0.0295 -0.3239
 3251SOL    HW121212   4.019   2.501   4.358 -2.0860 -0.8194  0.4834
 3251SOL    HW221213   3.940   2.624   4.331 -0.6243 -1.8436 -0.4152
 3252SOL     OW21214   2.271   1.857  10.211 -0.2778  0.5175 -0.2490
 3252SOL    HW121215   2.219   1.931  10.244 -0.9057 -1.9604  4.3972
 3252SOL    HW221216   2.327   1.838  10.286  2.5706 -1.8399 -2.9937
 3253SOL     OW21217   1.829   4.607   6.185  0.0478 -0.3088  0.7799
 3253SOL    HW121218   1.744   4.642   6.160  0.3600 -0.2823 -0.2608
 3253SOL    HW221219   1.814   4.565   6.269  1.2968  3.4317  2.8670
 3254SOL     OW21220   0.104   0.779   8.353 -0.5295 -0.0736 -0.3733
 3254SOL    HW121221   0.082   0.690   8.380  0.7180  0.4832  2.5621
 3254SOL    HW221222   0.159   0.757   8.279  0.2433  1.4993 -0.2767
 3255SOL     OW21223   0.575   0.443   5.360 -0.2683  0.2045 -0.4310
 3255SOL    HW121224   0.532   0.528   5.356  0.4279  0.5421 -0.8443
 3255SOL    HW221225   0.521   0.390   5.418  2.4755 -0.8462  1.1994
 3256SOL     OW21226   0.535   4.471   5.998 -0.1159 -0.3143 -0.1100
 3256SOL    HW121227   0.472   4.540   5.976 -2.0321 -2.0350  0.0687
 3256SOL    HW221228   0.611   4.511   5.955 -1.3744  0.3160 -1.7743
 3257SOL     OW21229   3.864   1.698  16.868 -0.5233  0.9872 -0.2843
 3257SOL    HW121230   3.831   1.768  16.924  0.8891  1.0235  0.5005
 3257SOL    HW221231   3.912   1.645  16.932 -2.1596 -0.9092 -0.6058
 3258SOL     OW21232   0.406   4.240   4.101  0.4840  0.6029 -0.3663
 3258SOL    HW121233   0.403   4.157   4.054  2.5198  0.9277 -1.0951
 3258SOL    HW221234   0.494   4.234   4.138  0.2297 -0.3040  0.0934
 3259SOL     OW21235   4.664   4.137  14.096 -0.2123  0.2639  0.0602
 3259SOL    HW121236   0.034   4.132  14.113 -0.3450  1.7233  1.2182
 3259SOL    HW221237   4.637   4.174  14.180 -0.6843  1.0599 -0.4463
 3260SOL     OW21238   4.205   4.347   6.708  0.1903  0.0504  0.3391
 3260SOL    HW121239   4.133   4.284   6.703  1.2719 -1.2610  1.3064
 3260SOL    HW221240   4.185   4.402   6.632 -0.8985 -0.5888  0.1579
 3261SOL     OW21241   0.341   2.483   8.280 -0.0239  0.0996  0.0776
 3261SOL    HW121242   0.407   2.535   8.325 -1.0140  0.3622  1.2027
 3261SOL    HW221243   0.372   2.395   8.302  1.4474  0.7830  0.7637
 3262SOL     OW21244   1.252   3.885   9.086 -0.3600 -0.8560  0.2883
 3262SOL    HW121245   1.319   3.844   9.031  0.8549 -0.2386  1.2852
 3262SOL    HW221246   1.218   3.807   9.129 -3.4655 -0.1389 -0.9117
 3263SOL     OW21247   1.702   0.578   0.965  0.5142  0.2401  0.1259
 3263SOL    HW121248   1.655   0.501   0.998  1.0429 -0.4250 -0.6888
 3263SOL    HW221249   1.652   0.639   1.019 -1.1569 -2.6404  1.8688
 3264SOL     OW21250   1.254   3.541   8.809  0.0052 -0.1146  0.1509
 3264SOL    HW121251   1.332   3.567   8.858  1.2380 -0.9746 -1.3655
 3264SOL    HW221252   1.193   3.548   8.883  1.1764  0.7483  1.0382
 3265SOL     OW21253   0.554   0.830   4.040 -0.2908 -0.0594  0.4193
 3265SOL    HW121254   0.485   0.764   4.036  0.8149 -1.0960 -2.3746
 3265SOL    HW221255   0.588   0.847   3.952 -2.0504 -0.2263 -0.2798
 3266SOL     OW21256   1.217   0.540   7.648  0.0875 -0.4491  0.1037
 3266SOL    HW121257   1.303   0.538   7.690  0.1438  0.2525  0.0315
 3266SOL    HW221258   1.210   0.631   7.619 -1.1940 -0.6122 -0.0813
 3267SOL     OW21259   1.094   0.545   9.559 -0.4418  0.1073 -0.2867
 3267SOL    HW121260   1.169   0.524   9.504 -1.2317 -0.3468 -1.2042
 3267SOL    HW221261   1.047   0.462   9.555  0.7772 -0.6583  1.6919
 3268SOL     OW21262   2.155   4.153   5.296 -0.2666 -0.0640 -0.1145
 3268SOL    HW121263   2.062   4.165   5.274 -0.0731  1.1110 -0.3089
 3268SOL    HW221264   2.166   4.071   5.248 -0.6786  1.2874 -2.4927
 3269SOL     OW21265   2.938   0.905   1.369  0.2730 -0.0529 -0.1907
 3269SOL    HW121266   2.996   0.900   1.445 -0.6711  0.0199  0.5458
 3269SOL    HW221267   2.864   0.957   1.400  0.2863 -0.1353 -0.0204
 3270SOL     OW21268   0.784   2.204   6.325 -0.3834 -0.0165 -0.7060
 3270SOL    HW121269   0.821   2.251   6.250  1.4231 -2.8994 -1.6006
 3270SOL    HW221270   0.777   2.276   6.387 -0.4800  0.1088 -0.8617
 3271SOL     OW21271   3.010   3.539   4.389 -0.0339  0.4900 -0.4979
 3271SOL    HW121272   3.001   3.445   4.408 -0.4365  0.5948 -0.1781
 3271SOL    HW221273   3.007   3.577   4.476 -3.4142 -2.3413  0.6412
 3272SOL     OW21274   2.333   1.627   0.003  0.4865 -0.3365  0.8868
 3272SOL    HW121275   2.302   1.649  17.614 -0.5479  2.1355  1.8539
 3272SOL    HW221276   2.418   1.671   0.006 -0.0772  0.4468  5.2268
 3273SOL     OW21277   1.663   4.668  15.170 -0.0931 -0.0581 -0.3905
 3273SOL    HW121278   1.699   4.686  15.083 -0.3036  0.3771 -0.3908
 3273SOL    HW221279   1.573   4.643  15.149  0.0247 -0.4045 -0.4855
 3274SOL     OW21280   2.765   3.942   1.842  0.1396 -0.1861  0.0785
 3274SOL    HW121281   2.851   3.955   1.881 -0.2389 -0.0403  0.8693
 3274SOL    HW221282   2.706   3.931   1.916  0.1391 -0.4652  0.0332
 3275SOL     OW21283   2.170   1.046   8.902 -0.7543  0.6236 -0.3181
 3275SOL    HW121284   2.249   1.064   8.953  0.3621 -2.4150 -0.9687
 3275SOL    HW221285   2.116   1.008   8.971 -0.3681 -1.3086 -1.0767
 3276SOL     OW21286   2.132   2.793   5.452 -0.0661 -0.1556  0.4818
 3276SOL    HW121287   2.151   2.713   5.500  0.9502 -0.5669 -0.6149
 3276SOL    HW221288   2.037   2.804   5.459 -0.1279 -0.8079  0.6426
 3277SOL     OW21289   3.127   4.546  14.883  0.6857 -0.2997  0.7921
 3277SOL    HW121290   3.210   4.528  14.927  0.4790  0.5733  1.5228
 3277SOL    HW221291   3.138   4.523  14.790  1.1211  0.2207  0.7156
 3278SOL     OW21292   0.307   4.462   4.163 -0.6658  0.0205 -0.1971
 3278SOL    HW121293   0.298   4.514   4.083  1.1162  0.4527 -0.1145
 3278SOL    HW221294   0.342   4.378   4.133  2.4776  0.5475  1.9622
 3279SOL     OW21295   2.815   4.706   5.276  0.6485  0.0909 -0.4983
 3279SOL    HW121296   2.843   0.073   5.269  0.9359  0.0487  0.1277
 3279SOL    HW221297   2.767   4.693   5.194 -2.4030 -1.5587  1.6004
 3280SOL     OW21298   2.624   3.012   1.307  0.0036 -0.3355 -0.0859
 3280SOL    HW121299   2.545   3.043   1.263  0.5904  0.3348 -0.6542
 3280SOL    HW221300   2.686   3.083   1.291  1.2791 -1.2994  0.6011
 3281SOL     OW21301   0.450   4.306   7.275  0.0077 -0.2263 -0.2294
 3281SOL    HW121302   0.360   4.331   7.254 -0.6398 -2.6092 -0.3809
 3281SOL    HW221303   0.451   4.225   7.224 -1.2475 -0.2574 -0.1938
 3282SOL     OW21304   2.548   0.859   6.264  0.3970 -0.4766 -0.1928
 3282SOL    HW121305   2.559   0.894   6.353  2.8883 -0.5412 -0.4858
 3282SOL    HW221306   2.597   0.920   6.210 -0.1314  1.4191  1.4592
 3283SOL     OW21307   4.707   0.682   8.056  0.4570 -0.2968 -0.4790
 3283SOL    HW121308   4.708   0.692   7.960 -1.2542  1.3548 -0.3273
 3283SOL    HW221309   0.012   0.770   8.081 -0.8250  0.2809 -0.9918
 3284SOL     OW21310   0.267   4.474   3.059  0.0897  0.2180 -0.3430
 3284SOL    HW121311   0.244   4.532   2.987 -2.2747 -1.2277 -0.7418
 3284SOL    HW221312   0.195   4.484   3.121 -0.1711  0.3860 -0.6766
 3285SOL     OW21313   2.623   0.503   7.762  0.0210 -0.3671 -0.1437
 3285SOL    HW121314   2.643   0.562   7.689  2.4919 -2.8742 -1.5222
 3285SOL    HW221315   2.531   0.522   7.777  0.0462 -1.4241  1.3974
 3286SOL     OW21316   3.194   4.609   9.802  0.5320  0.5299  0.6214
 3286SOL    HW121317   3.210   4.543   9.735 -0.7522  0.0774  0.7594
 3286SOL    HW221318   3.188   4.690   9.751 -0.4918 -0.2036 -0.4307
 3287SOL     OW21319   3.630   3.334  10.895  0.2757 -0.7058  0.5384
 3287SOL    HW121320   3.562   3.356  10.959 -0.5153  0.5512 -0.7162
 3287SOL    HW221321   3.627   3.415  10.843 -1.6849 -0.1368  1.5291
 3288SOL     OW21322   4.490   3.951   4.939 -0.0592  0.2203  0.4299
 3288SOL    HW121323   4.561   3.978   4.997  1.4178 -1.4780 -0.6007
 3288SOL    HW221324   4.420   3.938   5.003  0.6321 -0.4846  1.0385
 3289SOL     OW21325   4.378   3.452   8.289  0.7323  0.2142  0.6653
 3289SOL    HW121326   4.429   3.445   8.370 -1.1257 -3.5568  1.5344
 3289SOL    HW221327   4.402   3.366   8.254 -2.0825  0.0770 -0.8770
 3290SOL     OW21328   4.126   0.704   4.133 -0.0915 -0.3155 -0.2330
 3290SOL    HW121329   4.190   0.769   4.105  2.3150 -2.7706 -0.4269
 3290SOL    HW221330   4.177   0.654   4.197 -1.3243 -1.3297 -0.0408
 3291SOL     OW21331   2.736   3.842   5.078  0.6589  0.0167  0.3000
 3291SOL    HW121332   2.760   3.928   5.113  1.5490  0.1522 -0.6522
 3291SOL    HW221333   2.649   3.839   5.118  0.2897  0.1698 -0.4997
 3292SOL     OW21334   2.442   3.692  13.013 -0.2713  0.3908 -0.1610
 3292SOL    HW121335   2.518   3.641  13.042  0.8951  3.4288  2.1502
 3292SOL    HW221336   2.477   3.780  13.030 -1.5915  1.0833 -1.0621
 3293SOL     OW21337   1.164   4.332   7.873  0.0311 -0.6914 -0.1308
 3293SOL    HW121338   1.199   4.389   7.804 -0.1300 -1.6574 -1.0244
 3293SOL    HW221339   1.130   4.267   7.810  1.0168  0.2282 -1.6142
 3294SOL     OW21340   1.031   0.636  17.220  0.1715 -0.2213  0.1116
 3294SOL    HW121341   1.059   0.562  17.165  1.7150 -0.5694  1.3476
 3294SOL    HW221342   1.082   0.710  17.187 -1.0097 -0.4377 -2.2320
 3295SOL     OW21343   0.933   2.115   2.888  1.2141  0.4127 -0.3190
 3295SOL    HW121344   0.985   2.174   2.833  1.2772 -1.1254 -1.9150
 3295SOL    HW221345   0.995   2.043   2.899  2.2794  1.2614 -0.7281
 3296SOL     OW21346   4.655   0.345   1.786  0.0567 -0.1863  0.3063
 3296SOL    HW121347   4.686   0.434   1.770  0.3593 -0.5171 -0.8889
 3296SOL    HW221348   4.692   0.310   1.705  1.3491  1.2853  0.2528
 3297SOL     OW21349   1.177   1.844   9.023  0.3498 -0.6934 -0.1694
 3297SOL    HW121350   1.248   1.798   8.978 -0.4371 -0.8972 -1.2080
 3297SOL    HW221351   1.152   1.783   9.092 -1.4089  2.1424  1.7054
 3298SOL     OW21352   2.242   4.116   8.400 -0.5540 -0.3244 -0.8929
 3298SOL    HW121353   2.280   4.036   8.436 -1.1009  0.1801  0.7851
 3298SOL    HW221354   2.154   4.090   8.373 -1.7226  2.6417  0.1395
 3299SOL     OW21355   2.972   0.406   9.250  0.1918 -0.0208 -1.1088
 3299SOL    HW121356   3.006   0.469   9.187 -0.4762 -0.0890 -1.5278
 3299SOL    HW221357   2.934   0.332   9.204  0.9231 -1.5543  0.7446
 3300SOL     OW21358   0.752   1.742   4.949  0.7962  0.3283  0.3942
 3300SOL    HW121359   0.769   1.773   4.860 -1.9100  2.5872  0.6715
 3300SOL    HW221360   0.712   1.821   4.984  3.8024  1.4990  1.1916
 3301SOL     OW21361   4.271   1.363  16.444 -0.7084 -0.6495  0.7066
 3301SOL    HW121362   4.268   1.270  16.465  1.0108 -0.3699  2.1739
 3301SOL    HW221363   4.359   1.372  16.481 -0.1427 -1.0323 -0.5405
 3302SOL     OW21364   2.269   0.181  17.229 -0.1778 -0.8444 -0.4442
 3302SOL    HW121365   2.231   0.093  17.228 -2.1088 -0.0178  0.1058
 3302SOL    HW221366   2.295   0.199  17.320  1.0381 -1.0046 -0.7616
 3303SOL     OW21367   1.313   3.565   2.247 -0.2180  0.4459 -0.0742
 3303SOL    HW121368   1.333   3.476   2.275 -2.1174  0.1274  0.2917
 3303SOL    HW221369   1.394   3.616   2.259  0.2628 -0.7811  1.9561
 3304SOL     OW21370   0.305   3.402   5.132 -0.2715 -0.1077  0.3815
 3304SOL    HW121371   0.328   3.466   5.200  0.4435 -0.8474  0.8411
 3304SOL    HW221372   0.221   3.436   5.103 -0.7964 -0.2254  1.7585
 3305SOL     OW21373   2.556   0.968  11.443 -0.3594  0.0736  0.2980
 3305SOL    HW121374   2.480   0.992  11.496 -1.7998 -1.6251 -0.9885
 3305SOL    HW221375   2.601   0.911  11.504 -1.3687  0.1967  1.1533
 3306SOL     OW21376   0.684   4.641   1.870 -0.0154 -0.0872  0.2459
 3306SOL    HW121377   0.675   4.669   1.779 -3.9686 -1.1647  0.3142
 3306SOL    HW221378   0.737   4.564   1.850 -2.2745 -1.4846 -0.4201
 3307SOL     OW21379   0.832   3.608   8.226  0.1595 -0.0781 -0.0711
 3307SOL    HW121380   0.835   3.590   8.320  1.8656  0.8320  0.0393
 3307SOL    HW221381   0.760   3.549   8.205 -1.1400  1.2680  0.5537
 3308SOL     OW21382   3.547   1.898  14.581  0.3814  0.1374 -0.7563
 3308SOL    HW121383   3.605   1.822  14.569  0.6477  0.1079  0.7032
 3308SOL    HW221384   3.545   1.936  14.494 -1.5080  0.7525 -0.4405
 3309SOL     OW21385   2.279   4.340   6.748  0.4989  0.2950 -0.2903
 3309SOL    HW121386   2.320   4.255   6.732  0.0187 -0.0623  0.3645
 3309SOL    HW221387   2.324   4.406   6.694 -1.0803 -0.3656 -2.4366
 3310SOL     OW21388   1.480   1.110  12.470  0.0145 -0.2377 -0.3020
 3310SOL    HW121389   1.499   1.169  12.543 -2.1660  2.1439 -1.6492
 3310SOL    HW221390   1.386   1.124  12.459 -0.0047 -0.3207 -0.2513
 3311SOL     OW21391   0.852   1.768   6.909 -0.4347 -0.2028 -0.2951
 3311SOL    HW121392   0.896   1.723   6.837  4.2055 -1.5445  3.3648
 3311SOL    HW221393   0.800   1.700   6.951  2.3570 -1.6157  0.9222
 3312SOL     OW21394   2.802   1.216  14.041  0.2420  0.1491  0.3867
 3312SOL    HW121395   2.707   1.221  14.047  0.3644  2.2572  0.6618
 3312SOL    HW221396   2.813   1.193  13.949  0.0735 -0.6375  0.5696
 3313SOL     OW21397   1.317   3.142   4.649  0.1384  0.2326  0.4169
 3313SOL    HW121398   1.362   3.186   4.577  2.2345 -0.4478  1.2928
 3313SOL    HW221399   1.306   3.060   4.602  1.7713  0.1949  0.0918
 3314SOL     OW21400   3.369   1.369  16.235  0.2418 -0.4772  0.4996
 3314SOL    HW121401   3.362   1.381  16.140  0.1086 -0.2646  0.5377
 3314SOL    HW221402   3.463   1.366  16.253  0.1738  0.5421  1.0264
 3315SOL     OW21403   4.169   1.575   4.510 -0.3686 -0.0444 -0.3152
 3315SOL    HW121404   4.084   1.600   4.546 -0.2848  0.1460 -0.2517
 3315SOL    HW221405   4.154   1.569   4.415 -1.3755 -1.0590 -0.1023
 3316SOL     OW21406   4.582   2.591   1.473 -0.1558  0.2625 -0.3163
 3316SOL    HW121407   4.544   2.560   1.391  0.5057  0.3781 -0.6661
 3316SOL    HW221408   4.538   2.676   1.481 -0.1494  0.1283  1.3286
 3317SOL     OW21409   2.022   3.094   1.667 -0.6783 -0.2712 -0.2478
 3317SOL    HW121410   2.015   3.181   1.628 -0.9317  0.3755  1.2513
 3317SOL    HW221411   2.097   3.066   1.615 -0.8666  0.5822 -0.9819
 3318SOL     OW21412   2.753   2.972   6.979 -0.3114 -0.2803  0.1234
 3318SOL    HW121413   2.830   3.010   6.938  0.4807 -0.3092  1.5937
 3318SOL    HW221414   2.723   2.901   6.923  0.1467  0.2586 -0.8100
 3319SOL     OW21415   1.302   0.764  10.917  0.1446 -0.2292  0.0754
 3319SOL    HW121416   1.223   0.776  10.864  0.1459 -1.4181 -0.1818
 3319SOL    HW221417   1.309   0.850  10.959  1.0386  0.0341 -0.5960
 3320SOL     OW21418   0.959   0.614   4.813 -0.5447  0.5149  0.1337
 3320SOL    HW121419   0.885   0.590   4.758 -0.5427 -1.1986  0.8861
 3320SOL    HW221420   1.032   0.634   4.754  0.1937 -1.1319  0.4827
 3321SOL     OW21421   2.694   0.258  15.914 -1.1426 -0.5098 -0.0419
 3321SOL    HW121422   2.723   0.175  15.876 -0.2321 -0.9038  1.4937
 3321SOL    HW221423   2.680   0.219  16.001 -0.2753  0.1019  0.3818
 3322SOL     OW21424   1.275   3.028   9.850  0.0976  0.0938  0.7325
 3322SOL    HW121425   1.314   3.061   9.769  2.1650 -0.6093  1.4308
 3322SOL    HW221426   1.184   3.055   9.852  0.7177  2.3519 -2.1765
 3323SOL     OW21427   2.344   3.076   0.200  0.7270  0.2173  0.6813
 3323SOL    HW121428   2.365   3.045   0.288 -1.3829  1.5916  1.6652
 3323SOL    HW221429   2.391   3.008   0.152  0.8850 -1.1356  2.7816
 3324SOL     OW21430   4.420   0.313   6.240 -0.4228  0.4728 -0.2320
 3324SOL    HW121431   4.344   0.350   6.284  0.9942  3.3466 -0.1398
 3324SOL    HW221432   4.475   0.301   6.318 -3.1874  0.4563  1.6997
 3325SOL     OW21433   3.395   1.273  11.648 -0.2375  0.2797 -0.7138
 3325SOL    HW121434   3.359   1.190  11.616  3.5425 -2.5218  2.1027
 3325SOL    HW221435   3.328   1.329  11.610 -0.4683  0.9416  0.6578
 3326SOL     OW21436   3.364   1.461   4.921 -0.4061  0.1616  0.6309
 3326SOL    HW121437   3.392   1.552   4.922  1.0494 -0.2865  1.0509
 3326SOL    HW221438   3.394   1.429   5.007  2.1252 -1.6972 -0.9462
 3327SOL     OW21439   0.002   0.684   7.777  0.5330 -0.2997 -0.1676
 3327SOL    HW121440   4.723   0.590   7.759 -0.1241 -0.2973 -0.0759
 3327SOL    HW221441   4.705   0.714   7.689  1.7866  3.3472  0.7860
 3328SOL     OW21442   1.162   0.474   8.098 -0.0639 -0.0737  0.0555
 3328SOL    HW121443   1.215   0.554   8.105  0.3847 -0.4819  1.3149
 3328SOL    HW221444   1.185   0.431   8.016  0.2211 -0.3389  0.2705
 3329SOL     OW21445   0.685   1.057   2.756 -0.6195  0.2765  0.2319
 3329SOL    HW121446   0.727   1.089   2.677  0.1475  0.6770  0.7967
 3329SOL    HW221447   0.617   0.997   2.724  0.4642 -0.7841 -0.0599
 3330SOL     OW21448   1.934   3.134   5.985 -0.2479  0.4756  0.0405
 3330SOL    HW121449   1.961   3.195   5.917  1.1459 -1.2249 -0.9251
 3330SOL    HW221450   1.898   3.065   5.929 -0.3075 -1.3498  2.3210
 3331SOL     OW21451   3.429   4.391   9.507  0.2966  0.5434  0.3128
 3331SOL    HW121452   3.385   4.453   9.449  1.0200  0.6333 -0.1402
 3331SOL    HW221453   3.508   4.439   9.532 -0.5754  0.7251  2.6862
 3332SOL     OW21454   2.716   0.095   4.966 -0.9520 -0.3021 -0.2285
 3332SOL    HW121455   2.775   0.031   4.925  0.1386  0.3579  0.2983
 3332SOL    HW221456   2.774   0.148   5.020 -0.4939 -1.7656  0.7230
 3333SOL     OW21457   2.821   3.211   7.187 -0.6381  0.1020  0.4886
 3333SOL    HW121458   2.875   3.255   7.122 -2.7315 -0.5871 -1.7097
 3333SOL    HW221459   2.794   3.136   7.135 -2.1362  1.8004 -1.2189
 3334SOL     OW21460   2.312   1.802   7.078  0.1159 -0.4583  0.1238
 3334SOL    HW121461   2.246   1.865   7.047 -1.4842 -2.2728 -0.1486
 3334SOL    HW221462   2.262   1.722   7.093  1.0786 -1.2528 -0.9313
 3335SOL     OW21463   4.606   2.730   8.369  0.1357  0.3479 -0.2002
 3335SOL    HW121464   4.671   2.764   8.432 -0.0481  1.0813 -0.4061
 3335SOL    HW221465   4.635   2.640   8.355 -1.7289 -0.0996 -1.1488
 3336SOL     OW21466   3.382   4.599  12.495  0.0097 -0.0214 -0.2301
 3336SOL    HW121467   3.469   4.636  12.482 -0.7601  1.9126  0.1185
 3336SOL    HW221468   3.406   4.556  12.578 -1.4087  1.4877  0.9577
 3337SOL     OW21469   1.508   3.732   8.999 -0.3404  0.2290  0.5582
 3337SOL    HW121470   1.599   3.706   9.012 -0.2042  1.2345  1.5498
 3337SOL    HW221471   1.500   3.796   8.928 -0.8008 -0.2383  0.1869
 3338SOL     OW21472   0.907   0.853   6.044  0.3934 -0.3786  0.0287
 3338SOL    HW121473   0.830   0.880   5.995 -1.1629  0.0528  2.7177
 3338SOL    HW221474   0.935   0.794   5.974 -0.5244  1.0647 -1.5524
 3339SOL     OW21475   0.106   1.231   7.738 -0.2324 -0.1565 -0.5684
 3339SOL    HW121476   0.044   1.162   7.712 -1.0666  0.6587 -0.7619
 3339SOL    HW221477   0.165   1.232   7.663  0.0095 -0.1210 -0.3760
 3340SOL     OW21478   4.521   0.294   8.238  0.5204 -0.8069 -0.5178
 3340SOL    HW121479   4.536   0.264   8.149  0.4514  0.2628 -0.8907
 3340SOL    HW221480   4.517   0.389   8.248 -2.4300 -1.2100  2.4990
 3341SOL     OW21481   2.379   3.321   5.232 -0.2094 -0.3571 -0.2362
 3341SOL    HW121482   2.440   3.301   5.303  2.0213  0.2767 -2.0050
 3341SOL    HW221483   2.421   3.394   5.187  1.1884  0.1665  1.9189
 3342SOL     OW21484   0.754   1.320   7.282  0.2344 -0.6051  0.0249
 3342SOL    HW121485   0.811   1.394   7.304 -1.1785  0.8097 -1.0988
 3342SOL    HW221486   0.818   1.260   7.321 -0.9369 -2.1218 -0.4285
 3343SOL     OW21487   3.471   1.827   4.413  0.1682 -0.3154  0.0178
 3343SOL    HW121488   3.422   1.842   4.333 -0.0007 -1.7322 -0.1530
 3343SOL    HW221489   3.441   1.746   4.455  1.5250  0.5264  2.5829
 3344SOL     OW21490   0.967   2.009   6.365 -0.1974 -0.3669  0.3347
 3344SOL    HW121491   1.020   2.052   6.432 -2.5041  0.6495  1.4903
 3344SOL    HW221492   0.904   2.080   6.351 -0.4497 -0.7053 -0.2480
 3345SOL     OW21493   2.972   1.397   6.940 -0.1042 -0.1445  0.4366
 3345SOL    HW121494   3.055   1.391   6.891 -1.0904 -1.1175 -1.1096
 3345SOL    HW221495   2.933   1.476   6.904  0.1034 -0.2372  0.0075
 3346SOL     OW21496   2.795   1.114  17.634 -0.3786  0.3310 -0.0453
 3346SOL    HW121497   2.860   1.159  17.579  1.3778 -0.4095  1.4136
 3346SOL    HW221498   2.748   1.190  17.670 -0.8864  0.5259 -1.1278
 3347SOL     OW21499   2.408   2.876  11.218  0.2993  0.3155 -0.4491
 3347SOL    HW121500   2.374   2.929  11.290  0.4878  2.7572 -2.1758
 3347SOL    HW221501   2.387   2.787  11.247  0.5587 -0.8802 -4.0221
 3348SOL     OW21502   4.111   4.091   1.141  0.2186 -0.4602 -0.8598
 3348SOL    HW121503   4.161   4.122   1.066  0.1214  0.9786 -0.3127
 3348SOL    HW221504   4.111   4.167   1.198  3.0200 -1.5397  0.5695
 3349SOL     OW21505   1.963   0.190  16.713 -0.3843  0.6404 -0.0282
 3349SOL    HW121506   2.028   0.126  16.684 -0.7623  0.2731 -0.0625
 3349SOL    HW221507   1.979   0.258  16.648 -0.8482 -2.2781 -3.1329
 3350SOL     OW21508   0.944   4.164   9.551  0.1751  0.2615 -0.6263
 3350SOL    HW121509   0.939   4.103   9.478 -0.1722  2.6810 -2.6109
 3350SOL    HW221510   0.898   4.104   9.611  1.4763  0.6849  0.8022
 3351SOL     OW21511   4.570   3.207   7.351 -0.2670  0.0191 -0.2947
 3351SOL    HW121512   4.609   3.133   7.397 -1.6806 -0.5977 -0.0618
 3351SOL    HW221513   4.616   3.192   7.269  0.2699 -0.1439  0.0394
 3352SOL     OW21514   0.362   0.463   6.959 -0.1419  0.1944  0.0853
 3352SOL    HW121515   0.387   0.488   7.048 -0.5654  0.8003  0.0401
 3352SOL    HW221516   0.282   0.509   6.931 -0.4380 -0.2578  0.1958
 3353SOL     OW21517   0.091   4.334   2.215  0.1196  0.2416  0.0660
 3353SOL    HW121518   0.113   4.246   2.244 -1.0973 -0.3846 -0.9058
 3353SOL    HW221519   0.069   4.321   2.123 -0.7397  4.9223 -0.4201
 3354SOL     OW21520   0.024   0.759  17.587 -0.0921  0.0776 -0.0570
 3354SOL    HW121521   4.700   0.742  17.506 -0.3770 -1.2977  0.3900
 3354SOL    HW221522   0.090   0.691  17.574  1.7851  1.2728  3.5560
 3355SOL     OW21523   4.508   4.437   3.951 -0.6901  0.1425 -0.6704
 3355SOL    HW121524   4.585   4.419   3.896 -2.1072 -1.7471 -2.0560
 3355SOL    HW221525   4.474   4.520   3.917  1.4463  1.3117  0.0731
 3356SOL     OW21526   3.644   1.668   5.154 -0.3766 -0.3406 -0.3876
 3356SOL    HW121527   3.637   1.732   5.083  1.8229  1.0822  0.6910
 3356SOL    HW221528   3.631   1.588   5.104  0.0999 -0.8466  0.3050
 3357SOL     OW21529   3.957   1.743   9.461  0.4309  0.4605  0.0078
 3357SOL    HW121530   4.008   1.819   9.486  0.4085  1.2921 -2.4959
 3357SOL    HW221531   3.945   1.767   9.369 -0.7755 -2.2067 -0.5413
 3358SOL     OW21532   4.118   4.153   4.207  0.2139 -0.2765 -0.2636
 3358SOL    HW121533   4.155   4.193   4.129  1.0972 -2.3175 -0.9004
 3358SOL    HW221534   4.076   4.078   4.164  0.9485 -1.2298  0.6756
 3359SOL     OW21535   3.427   2.640   4.494  1.1627  0.2132 -0.2243
 3359SOL    HW121536   3.439   2.733   4.514 -1.0202  0.0797  1.6347
 3359SOL    HW221537   3.388   2.603   4.573  0.4156 -0.5583 -0.9438
 3360SOL     OW21538   2.713   2.130   1.416 -0.8579  0.1952 -0.5135
 3360SOL    HW121539   2.807   2.141   1.402 -0.7986  0.0112 -0.2534
 3360SOL    HW221540   2.688   2.045   1.381 -1.1556 -0.4871  1.3268
 3361SOL     OW21541   3.467   4.260   3.878  0.1651 -0.6421 -0.0594
 3361SOL    HW121542   3.386   4.209   3.883  1.9085 -3.1787  2.2419
 3361SOL    HW221543   3.444   4.331   3.937 -0.1564 -0.0476 -0.9079
 3362SOL     OW21544   2.818   0.587   0.990 -0.4558 -0.3141 -0.8719
 3362SOL    HW121545   2.836   0.539   0.909  0.3323  0.2193 -1.0148
 3362SOL    HW221546   2.828   0.677   0.958 -0.2512  0.6175  1.8418
 3363SOL     OW21547   0.404   0.974  12.921 -0.3060 -0.2045  0.2034
 3363SOL    HW121548   0.468   1.028  12.875 -1.0185  1.1231  0.7849
 3363SOL    HW221549   0.436   0.984  13.011  1.2267 -1.3318 -0.2157
 3364SOL     OW21550   3.453   0.590   8.301  0.1058  0.1710  0.2195
 3364SOL    HW121551   3.420   0.630   8.221 -2.0693 -2.3200 -0.1146
 3364SOL    HW221552   3.533   0.641   8.314  1.3038 -1.4510 -0.8328
 3365SOL     OW21553   4.099   3.046   7.190 -0.4728  0.0759  0.8790
 3365SOL    HW121554   4.153   2.974   7.158 -2.9943 -1.3363 -0.1610
 3365SOL    HW221555   4.123   3.046   7.283 -2.1120 -0.9931  1.3014
 3366SOL     OW21556   0.511   0.560   7.167 -0.4940  0.4307 -0.2762
 3366SOL    HW121557   0.580   0.517   7.117  0.6893  1.9633  0.0208
 3366SOL    HW221558   0.554   0.570   7.252 -1.9879 -0.5434  0.6004
 3367SOL     OW21559   3.628   1.594  16.449  0.6567 -0.5042 -0.0096
 3367SOL    HW121560   3.597   1.665  16.393 -1.9798 -2.7196 -1.3701
 3367SOL    HW221561   3.709   1.623  16.489  1.5204 -1.7937 -0.8052
 3368SOL     OW21562   3.336   2.649   2.821  0.1701  0.3487 -0.1194
 3368SOL    HW121563   3.251   2.690   2.840 -0.6535 -1.0605 -0.7159
 3368SOL    HW221564   3.326   2.639   2.726  0.2166  0.3855 -0.1279
 3369SOL     OW21565   2.815   2.704   7.659 -0.4668  0.2992 -0.2873
 3369SOL    HW121566   2.782   2.786   7.697  3.7083  0.9429  1.9054
 3369SOL    HW221567   2.860   2.735   7.581  1.0137  0.6498  0.7036
 3370SOL     OW21568   4.412   2.410   6.383 -0.5910  0.2999  0.3791
 3370SOL    HW121569   4.436   2.329   6.339 -1.0297  0.1696  0.3769
 3370SOL    HW221570   4.457   2.482   6.339 -1.1621  0.4631  0.0666
 3371SOL     OW21571   1.025   3.204  10.380  0.1334  0.8039 -0.4660
 3371SOL    HW121572   1.070   3.256  10.447  1.7060  0.1555 -1.0214
 3371SOL    HW221573   1.097   3.147  10.351 -1.2796 -1.1251 -0.1467
 3372SOL     OW21574   3.416   2.618  14.504  0.3852  0.3542  0.6025
 3372SOL    HW121575   3.391   2.606  14.413 -0.7803 -0.5265  1.0211
 3372SOL    HW221576   3.472   2.544  14.528 -0.5928 -0.9316 -1.0352
 3373SOL     OW21577   3.170   3.889  11.528 -0.1224 -0.0198 -0.0845
 3373SOL    HW121578   3.202   3.964  11.478  1.3930 -0.0715  0.7863
 3373SOL    HW221579   3.140   3.830  11.460 -1.0056  1.3243 -0.8594
 3374SOL     OW21580   4.518   4.236   6.256 -0.1115  0.4636  0.1997
 3374SOL    HW121581   4.550   4.324   6.278 -0.0536  0.2914  0.8052
 3374SOL    HW221582   4.465   4.255   6.179  1.3036 -1.6380 -1.2686
 3375SOL     OW21583   1.340   3.958  11.309  0.1394  0.0943 -1.0494
 3375SOL    HW121584   1.378   3.987  11.227 -0.2452  0.3201 -1.1484
 3375SOL    HW221585   1.265   4.018  11.312  1.1807  1.3609 -0.7218
 3376SOL     OW21586   0.129   3.815   0.347  0.1654 -0.0694 -0.5682
 3376SOL    HW121587   0.053   3.801   0.291 -0.8540  3.4016 -0.0744
 3376SOL    HW221588   0.203   3.779   0.298 -0.3696 -1.9313 -0.0200
 3377SOL     OW21589   3.216   2.692  11.958  0.4984  0.1826  0.6305
 3377SOL    HW121590   3.211   2.771  12.011  0.7467  0.4140  0.3079
 3377SOL    HW221591   3.134   2.694  11.908  0.8022  1.5881  0.1891
 3378SOL     OW21592   1.997   2.807   9.894 -0.1244 -0.5548 -0.0019
 3378SOL    HW121593   1.997   2.771   9.805 -0.4024  0.4384 -0.4055
 3378SOL    HW221594   2.090   2.830   9.900 -0.3639 -0.3198  2.9770
 3379SOL     OW21595   2.289   4.652  16.987  0.2111 -0.0560  0.2364
 3379SOL    HW121596   2.374   4.619  17.014  0.6272  0.4854 -0.4193
 3379SOL    HW221597   2.227   4.624  17.055  0.5827  0.2862  0.7145
 3380SOL     OW21598   4.508   0.808   4.475  0.3807  0.0008  0.6862
 3380SOL    HW121599   4.429   0.762   4.446 -0.0730  0.8582  0.5897
 3380SOL    HW221600   4.517   0.882   4.416 -0.2081 -1.0056 -0.6769
 3381SOL     OW21601   1.498   3.508   5.286 -0.2449  0.3426 -0.1375
 3381SOL    HW121602   1.543   3.592   5.282  0.6215 -0.0496  1.3711
 3381SOL    HW221603   1.477   3.497   5.193 -1.1703 -1.0686  0.2394
 3382SOL     OW21604   4.459   0.185   5.531  0.0760  0.2908 -0.7790
 3382SOL    HW121605   4.389   0.154   5.588  0.9994 -0.7113 -0.2123
 3382SOL    HW221606   4.427   0.199   5.442 -2.6725 -0.0583  0.1414
 3383SOL     OW21607   1.840   1.693   5.818  0.0107  0.3431 -0.4845
 3383SOL    HW121608   1.865   1.767   5.762  1.1247  0.8461  0.6848
 3383SOL    HW221609   1.800   1.734   5.894 -1.4754  2.0492 -2.1794
 3384SOL     OW21610   3.850   4.578  10.904 -0.1246  0.2047 -0.2175
 3384SOL    HW121611   3.886   4.662  10.875 -0.9400  0.7798  0.4038
 3384SOL    HW221612   3.806   4.548  10.824 -0.7756  1.4453 -0.3384
 3385SOL     OW21613   3.696   3.762   4.492 -0.0132  0.6528 -0.0846
 3385SOL    HW121614   3.629   3.822   4.526 -0.0325 -1.2075  3.2345
 3385SOL    HW221615   3.650   3.679   4.479  0.6884  0.1655  0.5294
 3386SOL     OW21616   2.039   1.083   5.950  0.0461 -0.2872 -0.1069
 3386SOL    HW121617   2.077   0.996   5.964 -0.0644 -0.2924  0.1508
 3386SOL    HW221618   2.036   1.112   6.041 -3.1229  1.1848 -0.6847
 3387SOL     OW21619   3.503   0.912   9.666 -0.1405  0.8215 -0.0597
 3387SOL    HW121620   3.544   0.865   9.594 -1.3065 -0.1596 -0.0992
 3387SOL    HW221621   3.517   0.849   9.737 -1.5505  0.1133 -0.4015
 3388SOL     OW21622   2.302   1.422   7.699 -0.0987 -0.4598  0.3268
 3388SOL    HW121623   2.332   1.459   7.782  0.3791  1.4616 -0.7116
 3388SOL    HW221624   2.237   1.359   7.732 -0.1842 -0.1547  0.7390
 3389SOL     OW21625   1.978   3.371  15.961 -0.3974 -0.2214  0.9488
 3389SOL    HW121626   2.008   3.288  15.924 -0.8200 -0.9825  2.3160
 3389SOL    HW221627   1.882   3.370  15.955 -0.1730 -0.5537 -2.6582
 3390SOL     OW21628   1.471   3.771   8.577 -0.4144 -0.0964  0.1689
 3390SOL    HW121629   1.476   3.830   8.652  0.2876 -0.4476  0.3988
 3390SOL    HW221630   1.540   3.816   8.528 -0.4729  0.3159  0.4680
 3391SOL     OW21631   1.807   0.200  12.558 -0.2799  0.6683  0.1434
 3391SOL    HW121632   1.844   0.246  12.633  0.8928  1.0435 -0.6827
 3391SOL    HW221633   1.867   0.234  12.491  2.3120  0.3669  2.3329
 3392SOL     OW21634   2.551   2.247   1.994 -0.0334  0.4515  0.4867
 3392SOL    HW121635   2.592   2.187   2.056  0.8805  0.4311 -0.1242
 3392SOL    HW221636   2.578   2.328   2.038  0.3703  0.9465 -0.6635
 3393SOL     OW21637   0.323   2.351   4.474  0.0504  0.3513 -0.1791
 3393SOL    HW121638   0.246   2.308   4.511  1.2644 -1.8898 -0.2524
 3393SOL    HW221639   0.294   2.442   4.468  0.0306  0.3843  0.3962
 3394SOL     OW21640   1.296   1.295   4.265 -0.3968  0.0241  0.7702
 3394SOL    HW121641   1.389   1.287   4.244 -0.1266 -0.5510  2.1988
 3394SOL    HW221642   1.258   1.301   4.177 -1.7393  0.1140  1.3589
 3395SOL     OW21643   1.074   1.202   4.390  0.6111 -0.3244  0.0597
 3395SOL    HW121644   1.145   1.247   4.345 -1.2799  0.2483 -2.3342
 3395SOL    HW221645   1.079   1.121   4.338  0.0345 -0.3171 -0.0079
 3396SOL     OW21646   0.851   0.132   4.312  0.1037 -0.5833 -0.2621
 3396SOL    HW121647   0.899   0.179   4.244  1.4139 -0.1197  0.9864
 3396SOL    HW221648   0.916   0.124   4.381  0.5503 -0.2963 -0.6532
 3397SOL     OW21649   0.544   4.235   1.920  0.2784 -0.0112 -0.8504
 3397SOL    HW121650   0.610   4.286   1.874  0.2436  1.5117  0.7643
 3397SOL    HW221651   0.468   4.293   1.932  0.5067  0.2379 -0.6153
 3398SOL     OW21652   2.362   1.851  12.503 -0.1486  0.1312 -0.3325
 3398SOL    HW121653   2.321   1.775  12.462 -0.0040 -0.3878  0.4748
 3398SOL    HW221654   2.288   1.912  12.512 -1.0606 -1.0208  0.0244
 3399SOL     OW21655   4.445   1.239   6.741  0.2576  0.0017 -0.5162
 3399SOL    HW121656   4.423   1.329   6.766  0.1956 -0.1721  0.0631
 3399SOL    HW221657   4.518   1.250   6.680  1.7406 -1.5396  0.9794
 3400SOL     OW21658   3.735   2.168   6.709 -0.2263  0.3411 -0.3062
 3400SOL    HW121659   3.665   2.204   6.654  1.2476  0.9093 -1.8076
 3400SOL    HW221660   3.735   2.077   6.679  0.3103  0.1219  0.3589
 3401SOL     OW21661   4.245   2.495   5.054  0.3205  0.4733  0.3148
 3401SOL    HW121662   4.254   2.577   5.005 -2.1385  0.2523 -0.5347
 3401SOL    HW221663   4.281   2.524   5.137 -0.4246  0.0179  0.7994
 3402SOL     OW21664   2.738   2.688   3.088 -0.1741  0.5188  0.2286
 3402SOL    HW121665   2.745   2.600   3.125  0.9080  0.2614 -0.5948
 3402SOL    HW221666   2.824   2.702   3.048 -1.2107  2.2385 -1.4145
 3403SOL     OW21667   0.168   0.011   3.266 -0.1373  0.5209 -0.6702
 3403SOL    HW121668   0.101   4.667   3.266  1.9024 -1.4705  0.1544
 3403SOL    HW221669   0.179   0.015   3.361  1.3970  3.3283 -0.9617
 3404SOL     OW21670   2.530   0.670   5.990  0.2403  0.2925 -0.0950
 3404SOL    HW121671   2.507   0.629   5.907 -0.3172 -1.1566  0.7773
 3404SOL    HW221672   2.621   0.698   5.973 -0.0794  1.1919 -0.3731
 3405SOL     OW21673   1.591   3.618  16.027 -0.1982 -0.6108  0.0527
 3405SOL    HW121674   1.564   3.557  16.096 -0.9713  0.3526  0.5995
 3405SOL    HW221675   1.589   3.704  16.069 -0.6117 -1.2582  1.3477
 3406SOL     OW21676   1.644   2.253   7.254  0.1265 -0.7009 -0.0148
 3406SOL    HW121677   1.671   2.225   7.341  3.5593 -0.3569 -0.9592
 3406SOL    HW221678   1.562   2.205   7.246 -1.0352  1.3738 -0.4791
 3407SOL     OW21679   1.542   4.678  17.693 -0.1063 -0.5378 -0.4871
 3407SOL    HW121680   1.530   4.712  17.604  1.0435 -0.3568 -0.5685
 3407SOL    HW221681   1.625   4.708   0.029 -0.8916  0.2063  0.6723
 3408SOL     OW21682   2.688   1.434   5.262 -0.0513 -0.5381 -0.8743
 3408SOL    HW121683   2.704   1.369   5.331 -1.8195  0.7768  0.7833
 3408SOL    HW221684   2.609   1.397   5.223 -0.2711  0.6660 -1.5517
 3409SOL     OW21685   4.539   1.562   2.941  0.4716 -0.0614 -0.5258
 3409SOL    HW121686   4.509   1.645   2.904  0.0111 -0.2868 -0.6493
 3409SOL    HW221687   4.464   1.506   2.922  2.1255 -2.1495 -1.0022
 3410SOL     OW21688   0.582   4.063  16.994  0.4243 -0.2827  0.4854
 3410SOL    HW121689   0.501   4.024  17.026  0.6611  1.4064  3.1064
 3410SOL    HW221690   0.553   4.098  16.910  1.9677 -1.3347 -0.5020
 3411SOL     OW21691   4.024   4.073   2.111 -0.1377  0.1513  0.0863
 3411SOL    HW121692   4.036   4.154   2.161 -1.1104  0.0538  0.4724
 3411SOL    HW221693   3.990   4.121   2.036 -0.8230  1.6935  1.3678
 3412SOL     OW21694   0.686   2.202   8.365 -0.0825  0.2087 -0.1091
 3412SOL    HW121695   0.621   2.145   8.406  2.2340 -0.1731  3.0005
 3412SOL    HW221696   0.756   2.139   8.352  0.6388  1.4030 -2.0773
 3413SOL     OW21697   0.608   1.558   6.143  0.2894 -0.5841 -0.1039
 3413SOL    HW121698   0.547   1.575   6.071 -0.8102  0.3552  1.0381
 3413SOL    HW221699   0.558   1.604   6.211  0.6622 -2.0322  1.1521
 3414SOL     OW21700   4.625   4.076   4.311  0.0602  0.8500  0.4152
 3414SOL    HW121701   4.548   4.057   4.256 -1.9068 -0.0277  3.4788
 3414SOL    HW221702   4.675   4.145   4.268 -2.3263  2.2811 -0.1084
 3415SOL     OW21703   4.039   0.272   8.245 -0.1275 -0.0384 -0.3190
 3415SOL    HW121704   4.093   0.228   8.179 -3.5922 -0.5506 -2.7782
 3415SOL    HW221705   3.983   0.334   8.199 -3.2789 -2.5234  0.1750
 3416SOL     OW21706   1.034   0.654  16.813  0.4102  0.0571  0.3765
 3416SOL    HW121707   0.966   0.618  16.871 -0.5448  2.8857  1.0102
 3416SOL    HW221708   0.993   0.728  16.768 -0.8160 -1.6542 -1.3133
 3417SOL     OW21709   3.510   2.801   5.809  0.2279 -0.3708 -0.0047
 3417SOL    HW121710   3.483   2.856   5.883 -2.4531 -0.6440 -0.7878
 3417SOL    HW221711   3.427   2.793   5.762  0.6763 -0.0919 -0.8471
 3418SOL     OW21712   3.993   4.004   1.541 -0.4554  0.5148  0.0685
 3418SOL    HW121713   4.011   3.947   1.466  1.6941  1.7256 -0.3441
 3418SOL    HW221714   3.945   4.075   1.500 -1.0618 -0.1197 -0.3130
 3419SOL     OW21715   4.654   0.873   8.676 -0.1192  0.0880  0.7182
 3419SOL    HW121716   4.614   0.798   8.631  0.7453 -0.7799  1.3847
 3419SOL    HW221717   4.715   0.833   8.738 -0.5819 -0.5228  0.7891
 3420SOL     OW21718   1.425   2.747   1.712 -0.5562 -0.4040  0.0233
 3420SOL    HW121719   1.397   2.795   1.634  0.2956  0.2632  0.1307
 3420SOL    HW221720   1.455   2.815   1.772 -2.0554  0.9788 -0.7938
 3421SOL     OW21721   4.367   1.494   6.808 -0.1216 -0.2898  0.0099
 3421SOL    HW121722   4.424   1.488   6.885  0.8021 -0.5663 -0.6842
 3421SOL    HW221723   4.378   1.588   6.792  1.4059 -0.2169  1.4496
 3422SOL     OW21724   4.605   4.219  14.356 -0.2850  0.5059  0.0051
 3422SOL    HW121725   4.559   4.289  14.401 -0.5165  0.3740 -0.0272
 3422SOL    HW221726   4.690   4.261  14.341  0.5861 -1.1316  0.3286
 3423SOL     OW21727   4.046   2.660  16.092 -0.4265 -0.0631 -0.4045
 3423SOL    HW121728   4.066   2.683  16.001  0.8375  1.2031  0.1903
 3423SOL    HW221729   4.137   2.648  16.117 -0.3065 -0.1622 -0.8908
 3424SOL     OW21730   0.629   3.556   6.981  0.0491  0.2113  0.0427
 3424SOL    HW121731   0.653   3.592   7.066 -1.2285 -0.7644  0.8169
 3424SOL    HW221732   0.713   3.550   6.935 -1.2472 -1.5420 -2.0779
 3425SOL     OW21733   3.377   4.113  11.652  0.0606  1.0369 -0.4232
 3425SOL    HW121734   3.369   4.076  11.564  0.1749 -2.8803  1.2363
 3425SOL    HW221735   3.318   4.058  11.702 -0.2210  1.7244 -0.0004
 3426SOL     OW21736   0.065   4.454   3.265 -0.0150 -0.0683  0.2494
 3426SOL    HW121737   0.051   4.429   3.357  1.8822  0.1948  0.6195
 3426SOL    HW221738   0.006   4.529   3.262  1.1699  0.7739 -2.2727
 3427SOL     OW21739   1.569   0.613   9.263  0.1685  0.0369  0.1338
 3427SOL    HW121740   1.488   0.644   9.221 -0.8732 -2.1523  0.5046
 3427SOL    HW221741   1.554   0.525   9.228  1.4027 -0.7148  1.4947
 3428SOL     OW21742   0.765   0.149   9.353  0.3477  0.3520 -0.1058
 3428SOL    HW121743   0.673   0.176   9.347  0.0870 -0.5175  0.1024
 3428SOL    HW221744   0.758   0.085   9.424  0.0021  0.5116  0.0049
 3429SOL     OW21745   2.978   0.696   5.565  0.0148 -0.3298  0.0541
 3429SOL    HW121746   2.883   0.688   5.571  0.0014 -0.2190 -0.0054
 3429SOL    HW221747   3.003   0.726   5.652 -2.6647  0.8014  0.4427
 3430SOL     OW21748   3.899   1.086  11.696  0.0571 -0.0581 -0.2074
 3430SOL    HW121749   3.956   1.039  11.756 -0.8701  2.0545  2.3423
 3430SOL    HW221750   3.854   1.149  11.753 -0.9936 -1.4070  0.4570
 3431SOL     OW21751   4.608   2.518   6.583 -0.6529  0.0937  0.1715
 3431SOL    HW121752   4.578   2.609   6.585 -0.8844  0.0686 -2.1533
 3431SOL    HW221753   4.527   2.475   6.556  0.6616 -1.4515 -1.2933
 3432SOL     OW21754   1.473   0.069  13.503 -0.1865  0.1162 -0.6174
 3432SOL    HW121755   1.434   0.030  13.581 -0.3973  1.1161 -0.2264
 3432SOL    HW221756   1.454   0.162  13.518 -2.1378  0.1395 -3.2110
 3433SOL     OW21757   2.194   4.637   7.854 -0.7645 -0.8062 -0.7053
 3433SOL    HW121758   2.211   4.682   7.937 -1.4089 -0.3859 -0.7980
 3433SOL    HW221759   2.128   4.576   7.886  0.0217 -0.5091  1.4741
 3434SOL     OW21760   2.469   3.764   5.305 -0.0766  0.8592  0.0155
 3434SOL    HW121761   2.549   3.745   5.353 -1.7309 -2.2608  1.5840
 3434SOL    HW221762   2.398   3.782   5.367  0.3023  0.8506  0.4475
 3435SOL     OW21763   2.211   2.407   9.353 -0.0352  0.6147 -0.1294
 3435SOL    HW121764   2.157   2.413   9.431  1.1534 -2.1072  0.8933
 3435SOL    HW221765   2.180   2.333   9.300  0.5073  0.6373 -0.4819
 3436SOL     OW21766   4.621   3.852   6.973  0.5234  0.0881  0.0960
 3436SOL    HW121767   4.574   3.915   7.028  0.3382  0.8468 -0.9217
 3436SOL    HW221768   4.605   3.767   7.014 -1.5222  1.3276  1.8704
 3437SOL     OW21769   3.623   3.257   6.792  0.1295 -0.1720  0.4584
 3437SOL    HW121770   3.609   3.208   6.873 -0.3547  1.1606  1.1968
 3437SOL    HW221771   3.555   3.214   6.741 -1.6952  1.3127  1.6214
 3438SOL     OW21772   2.978   0.545   1.539  0.4783  0.1145  0.0404
 3438SOL    HW121773   2.920   0.491   1.485  1.3404  0.4410 -1.2141
 3438SOL    HW221774   2.945   0.518   1.625  0.2688 -0.4222 -0.2071
 3439SOL     OW21775   1.991   0.430   7.277  0.0085 -0.0049 -0.4011
 3439SOL    HW121776   1.972   0.486   7.353 -1.3599  1.0585 -1.5273
 3439SOL    HW221777   1.936   0.354   7.292  0.2212  0.2709  1.8305
 3440SOL     OW21778   1.583   0.222   7.728 -0.4556  0.3345  0.5351
 3440SOL    HW121779   1.503   0.169   7.724 -0.4042  0.3232 -0.3149
 3440SOL    HW221780   1.601   0.213   7.635  0.6348  0.4948  0.7350
 3441SOL     OW21781   2.845   0.892  15.485 -0.6570  0.0646 -0.0461
 3441SOL    HW121782   2.833   0.942  15.566 -2.9142  0.1420 -0.4384
 3441SOL    HW221783   2.909   0.946  15.438 -1.7053  0.2445 -1.2630
 3442SOL     OW21784   2.886   0.159   1.053  0.0195  0.4052 -0.3281
 3442SOL    HW121785   2.930   0.138   0.971  1.0289  2.8443 -0.4129
 3442SOL    HW221786   2.955   0.208   1.098  0.5392  0.0731 -0.7578
 3443SOL     OW21787   4.586   4.082   8.589 -0.0634 -0.0374 -0.0165
 3443SOL    HW121788   4.583   4.177   8.600  0.3660 -0.1067  0.6440
 3443SOL    HW221789   4.680   4.084   8.575 -0.1413  0.0810 -0.5403
 3444SOL     OW21790   0.043   4.689   3.978  0.3050  0.0371 -0.5246
 3444SOL    HW121791   0.046   4.596   3.954  0.0249 -0.0011 -0.4095
 3444SOL    HW221792   0.135   4.712   3.990 -0.1178  0.4542  1.7971
 3445SOL     OW21793   0.908   2.328   8.094  0.3441  0.4276 -0.6790
 3445SOL    HW121794   0.926   2.422   8.102 -1.2811  0.7732 -0.9877
 3445SOL    HW221795   0.982   2.301   8.149 -0.6971  2.0222  1.5094
 3446SOL     OW21796   3.577   2.835   7.609  0.3529  0.0336  0.0917
 3446SOL    HW121797   3.572   2.925   7.576 -0.6852  0.9505  2.7931
 3446SOL    HW221798   3.542   2.852   7.696 -0.0083  1.7859 -0.3760
 3447SOL     OW21799   3.366   1.163   4.356 -0.0856 -0.2780  0.5650
 3447SOL    HW121800   3.461   1.153   4.362 -0.0050  2.1261  3.2527
 3447SOL    HW221801   3.370   1.252   4.321 -1.5990 -0.6842 -0.6598
 3448SOL     OW21802   1.282   4.495   3.665  0.3630  0.2830  0.3557
 3448SOL    HW121803   1.275   4.421   3.725 -0.1077  0.1924  0.1898
 3448SOL    HW221804   1.377   4.488   3.672  0.2563  0.2989  1.7353
 3449SOL     OW21805   1.758   4.487   1.775  0.4106  0.3058  0.1350
 3449SOL    HW121806   1.779   4.514   1.865  0.8596 -0.2725  0.2068
 3449SOL    HW221807   1.719   4.571   1.750  0.1678  0.1018 -0.1719
 3450SOL     OW21808   3.552   0.638   7.378 -0.5314 -0.4262  0.2454
 3450SOL    HW121809   3.643   0.664   7.363 -1.1243 -1.0423 -4.3637
 3450SOL    HW221810   3.517   0.726   7.391  0.0881  0.0047 -0.9136
 3451SOL     OW21811   4.275   1.538   5.701 -0.0758 -0.1753  0.3539
 3451SOL    HW121812   4.357   1.508   5.662 -0.0219  1.7599 -1.0270
 3451SOL    HW221813   4.214   1.541   5.627 -1.8372  3.0648  1.9208
 3452SOL     OW21814   2.587   3.186   5.815  0.3617  0.9117 -0.2680
 3452SOL    HW121815   2.650   3.118   5.788 -0.6686  0.3096 -1.2002
 3452SOL    HW221816   2.639   3.259   5.782  0.2543  1.6148  1.1276
 3453SOL     OW21817   1.053   4.423   9.559 -0.4314  0.7482  0.3650
 3453SOL    HW121818   0.995   4.445   9.486 -0.8955 -1.0734  0.1809
 3453SOL    HW221819   1.005   4.345   9.587 -2.4821  1.7610 -0.2944
 3454SOL     OW21820   0.276   0.631   5.220 -0.3054  0.0622  0.0766
 3454SOL    HW121821   0.285   0.535   5.221  0.1299  0.1387  2.5823
 3454SOL    HW221822   0.348   0.660   5.275 -0.7410 -0.4226  0.9011
 3455SOL     OW21823   3.043   4.613  10.037  0.8939  0.1301 -0.1418
 3455SOL    HW121824   3.124   4.621   9.986  0.5951  2.6748 -0.2513
 3455SOL    HW221825   2.975   4.634   9.973 -0.6251 -1.1148  1.0753
 3456SOL     OW21826   1.506   1.640   2.585 -0.2462  0.6551 -0.4512
 3456SOL    HW121827   1.533   1.582   2.656  0.5857  1.5903 -0.0105
 3456SOL    HW221828   1.588   1.642   2.535 -0.0013 -0.1038 -0.0740
 3457SOL     OW21829   0.407   0.110   1.878 -0.4070  0.1149 -0.2310
 3457SOL    HW121830   0.380   0.065   1.798 -0.0821 -2.7991  1.3365
 3457SOL    HW221831   0.327   0.128   1.926 -1.0028  1.7178 -1.8285
 3458SOL     OW21832   0.946   1.645  17.307  0.2457 -0.1278 -0.0496
 3458SOL    HW121833   0.997   1.564  17.321  1.5538  0.3896 -1.7941
 3458SOL    HW221834   0.910   1.668  17.393 -0.5051  1.9153 -0.9165
 3459SOL     OW21835   0.003   1.875   9.365 -0.2214  0.0532 -0.0311
 3459SOL    HW121836   0.082   1.826   9.385  2.2660  3.1967 -2.2984
 3459SOL    HW221837   0.040   1.923   9.292  0.6213  0.1351  0.4498
 3460SOL     OW21838   4.191   0.067   2.205  0.1204  0.0530  0.3070
 3460SOL    HW121839   4.177   4.698   2.222  1.8991 -0.3807 -0.5665
 3460SOL    HW221840   4.270   0.078   2.258  0.0696 -0.9441  0.6038
 3461SOL     OW21841   0.664   2.222   3.545  0.6326  0.8910 -0.1572
 3461SOL    HW121842   0.710   2.291   3.593 -0.2164  0.5107  1.1868
 3461SOL    HW221843   0.727   2.154   3.569 -0.7848  0.2518  1.6867
 3462SOL     OW21844   1.520   0.718   1.158  0.0303  0.9891 -0.5006
 3462SOL    HW121845   1.593   0.776   1.183 -0.4229  1.5984 -0.5854
 3462SOL    HW221846   1.467   0.774   1.102 -1.0148 -0.0452 -0.5293
 3463SOL     OW21847   1.045   4.276   5.761  0.3539  0.0282 -0.2158
 3463SOL    HW121848   1.107   4.348   5.777  0.1993 -0.0030  0.5254
 3463SOL    HW221849   1.044   4.255   5.668  0.5385 -1.3524  0.0919
 3464SOL     OW21850   1.866   3.484   3.249  0.2924  0.3536 -1.0513
 3464SOL    HW121851   1.817   3.479   3.167  1.1114 -2.3590 -1.3743
 3464SOL    HW221852   1.896   3.396   3.272 -1.6565 -0.5882 -2.0761
 3465SOL     OW21853   3.629   4.040   3.980 -0.1262 -0.2581  0.0463
 3465SOL    HW121854   3.548   4.041   4.030  1.0866 -1.5715  2.0366
 3465SOL    HW221855   3.606   4.101   3.909  1.8409 -1.0305 -1.2658
 3466SOL     OW21856   1.976   3.265   4.947  0.3202 -0.6693  0.0163
 3466SOL    HW121857   2.020   3.216   5.016  0.6432  0.1439  0.3892
 3466SOL    HW221858   1.905   3.203   4.933  0.9993 -1.2097 -1.0038
 3467SOL     OW21859   2.900   1.923   4.867  0.0313  0.2693  0.4100
 3467SOL    HW121860   2.983   1.965   4.890  0.6294 -0.3471 -0.5957
 3467SOL    HW221861   2.890   1.968   4.783 -0.4991  0.2716  0.4767
 3468SOL     OW21862   3.691   0.766   8.174 -0.2036  0.1277  0.5655
 3468SOL    HW121863   3.762   0.702   8.180 -1.3589 -1.1786  0.1511
 3468SOL    HW221864   3.723   0.823   8.104 -2.3612  0.5134 -0.0965
 3469SOL     OW21865   4.156   1.296   7.275 -0.2450  0.5193  0.6712
 3469SOL    HW121866   4.171   1.339   7.191  2.2806 -1.3136  0.1854
 3469SOL    HW221867   4.137   1.374   7.327  3.6557  1.6083  0.4624
 3470SOL     OW21868   0.094   2.413  13.220  0.3025  0.4789 -0.0843
 3470SOL    HW121869   0.059   2.346  13.279 -0.4845  0.7227 -0.2827
 3470SOL    HW221870   0.048   2.495  13.236 -2.2067 -0.2632 -3.4492
 3471SOL     OW21871   2.324   2.165   3.862 -0.2784 -0.1664  0.1680
 3471SOL    HW121872   2.407   2.183   3.907 -1.2384  2.6667  0.8057
 3471SOL    HW221873   2.308   2.246   3.814  0.3064 -0.1359  0.0286
 3472SOL     OW21874   1.994   1.297   6.961  0.2420  0.0999 -0.3530
 3472SOL    HW121875   2.011   1.317   6.869 -0.0352 -1.8864 -0.8350
 3472SOL    HW221876   1.992   1.201   6.967 -0.5257  0.3187  2.8377
 3473SOL     OW21877   1.358   0.101   7.712 -0.5146 -0.0031 -0.1205
 3473SOL    HW121878   1.308   0.084   7.633 -2.6362  1.3425  0.9323
 3473SOL    HW221879   1.381   0.016   7.750 -1.6951 -1.6041 -3.0371
 3474SOL     OW21880   0.955   0.385  12.506 -1.0560 -0.9656 -0.1167
 3474SOL    HW121881   0.929   0.444  12.435  3.7319  1.4018  0.1462
 3474SOL    HW221882   0.877   0.333  12.528 -0.7794 -0.5915  1.8142
 3475SOL     OW21883   3.692   1.665  14.504 -0.7161  0.8738 -0.0389
 3475SOL    HW121884   3.781   1.630  14.512 -2.1675 -2.1128  2.5226
 3475SOL    HW221885   3.655   1.600  14.444 -0.6881 -0.7462  1.7229
 3476SOL     OW21886   2.385   0.110   4.435  0.1121 -0.3495  0.8569
 3476SOL    HW121887   2.372   0.203   4.453  0.8142 -0.2321  0.7287
 3476SOL    HW221888   2.304   0.087   4.389  1.8902 -1.5906 -1.6073
 3477SOL     OW21889   1.193   0.781   3.152  0.2749  0.2753  0.1526
 3477SOL    HW121890   1.163   0.853   3.096 -0.6667  1.4148  2.1054
 3477SOL    HW221891   1.119   0.720   3.150  0.9136 -0.4502 -1.0614
 3478SOL     OW21892   2.221   2.091   2.838 -0.0611 -0.2924  0.1598
 3478SOL    HW121893   2.291   2.029   2.819  0.2555 -0.5440  2.1805
 3478SOL    HW221894   2.255   2.179   2.818 -0.2854 -0.0828  0.6837
 3479SOL     OW21895   4.255   2.387  13.390  0.1064  0.3768 -0.2247
 3479SOL    HW121896   4.193   2.318  13.363 -0.6794  0.0438  2.4194
 3479SOL    HW221897   4.248   2.365  13.483  0.8399 -2.1027 -0.7442
 3480SOL     OW21898   4.296   2.194   8.182 -0.1267  0.2798 -0.0217
 3480SOL    HW121899   4.296   2.250   8.105 -0.3042 -1.4681 -1.2920
 3480SOL    HW221900   4.355   2.119   8.170 -0.3059  0.3732 -1.4093
 3481SOL     OW21901   0.155   2.909   4.826  0.1183 -0.2704 -0.2407
 3481SOL    HW121902   0.069   2.925   4.863 -0.2671  2.0326 -2.1283
 3481SOL    HW221903   0.204   2.873   4.899  1.2058  2.0612  0.1973
 3482SOL     OW21904   4.680   1.516  17.204 -0.2384 -0.2198 -0.5918
 3482SOL    HW121905   4.643   1.583  17.261 -3.2959 -2.1334 -0.2898
 3482SOL    HW221906   4.677   1.561  17.119  0.5069 -0.2684 -0.6436
 3483SOL     OW21907   2.238   3.478   3.609  0.1620 -0.5599 -0.7860
 3483SOL    HW121908   2.165   3.528   3.574 -1.5795 -1.3658  1.7255
 3483SOL    HW221909   2.315   3.523   3.575 -0.8519  1.7024 -0.0549
 3484SOL     OW21910   4.489   0.598   5.357  0.3953  0.1790  0.8587
 3484SOL    HW121911   4.396   0.601   5.335  1.1094  1.7336 -1.9255
 3484SOL    HW221912   4.526   0.599   5.269 -0.3718  0.4866  0.5516
 3485SOL     OW21913   0.081   4.325   8.238  0.0545 -0.2599  0.6869
 3485SOL    HW121914   0.175   4.315   8.254  0.3547  0.6390 -0.5186
 3485SOL    HW221915   0.059   4.410   8.278 -0.9341  0.0606 -0.5336
 3486SOL     OW21916   0.027   1.016   2.812 -1.2961  0.0271  0.0057
 3486SOL    HW121917   0.094   1.079   2.840 -3.4548  0.7848  3.4936
 3486SOL    HW221918   4.680   1.079   2.806 -0.1782  1.2012 -1.0936
 3487SOL     OW21919   4.144   4.062   8.347 -0.0554 -0.2480  0.1686
 3487SOL    HW121920   4.215   4.071   8.284 -0.6838 -1.4531 -0.6985
 3487SOL    HW221921   4.183   4.022   8.425  1.9438  1.1341 -0.1207
 3488SOL     OW21922   1.601   1.718   4.976  0.2945 -0.6089  0.1908
 3488SOL    HW121923   1.688   1.735   4.940 -0.1075  1.0122  0.0170
 3488SOL    HW221924   1.575   1.640   4.927 -0.4994 -0.4425  0.3619
 3489SOL     OW21925   2.466   3.749  15.358 -0.7533 -0.1440  0.1713
 3489SOL    HW121926   2.376   3.774  15.380 -1.0006 -2.0738  1.4380
 3489SOL    HW221927   2.497   3.798  15.282  0.2086  1.4680  1.6072
 3490SOL     OW21928   2.207   2.760   0.707 -0.2541  0.3317 -0.6793
 3490SOL    HW121929   2.281   2.713   0.745 -0.4327  0.6128  0.0170
 3490SOL    HW221930   2.202   2.836   0.766 -0.6129 -0.0981 -0.1613
 3491SOL     OW21931   0.256   3.515  14.313 -1.0713  0.2545  0.4876
 3491SOL    HW121932   0.340   3.517  14.268 -1.8518  1.0247 -0.9516
 3491SOL    HW221933   0.256   3.432  14.361  0.8901 -1.1672 -1.9894
 3492SOL     OW21934   0.791   2.918   2.523 -0.1218  0.1424 -0.0324
 3492SOL    HW121935   0.864   2.860   2.542 -0.0594  0.7372  1.5395
 3492SOL    HW221936   0.709   2.875   2.546 -0.1639 -0.0010 -0.4418
 3493SOL     OW21937   2.174   2.744  12.658 -0.0767 -0.6883 -0.2590
 3493SOL    HW121938   2.196   2.719  12.748 -2.3685 -1.7755  0.0125
 3493SOL    HW221939   2.080   2.723  12.654 -0.0489 -0.6231 -1.4284
 3494SOL     OW21940   4.219   3.206  16.844 -0.1359 -0.9396 -0.2078
 3494SOL    HW121941   4.237   3.292  16.804 -1.6911 -1.1331 -1.3185
 3494SOL    HW221942   4.247   3.215  16.935 -0.6678  1.9243 -0.3027
 3495SOL     OW21943   2.592   2.191   3.981 -0.9814  0.2993 -0.1252
 3495SOL    HW121944   2.623   2.264   3.926  0.1259 -0.7312 -0.8722
 3495SOL    HW221945   2.619   2.119   3.925  0.8561 -0.4729  1.7767
 3496SOL     OW21946   3.560   2.516  14.820  0.2995 -0.0005 -0.1852
 3496SOL    HW121947   3.467   2.501  14.838  0.1889  0.5026 -0.3421
 3496SOL    HW221948   3.578   2.609  14.835  0.1093  0.0219 -0.0908
 3497SOL     OW21949   0.961   1.433   8.159  0.3107  0.2320 -0.7183
 3497SOL    HW121950   0.996   1.433   8.070 -0.2205 -2.9919 -0.9422
 3497SOL    HW221951   1.015   1.500   8.200  0.0351  1.1066 -1.8005
 3498SOL     OW21952   1.703   0.241   3.750 -0.0125 -0.4425  0.1569
 3498SOL    HW121953   1.753   0.274   3.825 -1.4034  2.1398 -0.0298
 3498SOL    HW221954   1.643   0.314   3.731 -1.0795 -1.1607  0.7561
 3499SOL     OW21955   0.479   1.432   3.756 -0.5242  0.0382 -0.3180
 3499SOL    HW121956   0.461   1.347   3.797  3.4325 -0.5703  0.1123
 3499SOL    HW221957   0.485   1.478   3.839 -1.4120  0.1037 -0.2830
 3500SOL     OW21958   1.777   0.841   4.286  0.1267 -0.5985 -0.0958
 3500SOL    HW121959   1.802   0.933   4.295 -2.1939  0.1367 -1.3050
 3500SOL    HW221960   1.837   0.822   4.214  3.2974  0.3367  2.3381
 3501SOL     OW21961   0.903   0.286   6.797 -0.1445 -0.0084  0.1681
 3501SOL    HW121962   0.947   0.308   6.715 -2.8067  1.7688 -0.7782
 3501SOL    HW221963   0.867   0.371   6.822  0.6176  0.4708 -0.3692
 3502SOL     OW21964   2.141   1.766   7.639 -0.1707  0.5510 -0.1749
 3502SOL    HW121965   2.078   1.789   7.571 -2.0231 -0.1181  1.2968
 3502SOL    HW221966   2.114   1.676   7.657 -2.2876  0.3594 -4.4582
 3503SOL     OW21967   3.155   1.358   1.336  0.4034  0.1863  0.2374
 3503SOL    HW121968   3.084   1.301   1.308 -1.4594  2.4364  0.3796
 3503SOL    HW221969   3.113   1.379   1.419 -0.8672 -3.5896  0.5449
 3504SOL     OW21970   2.876   2.413   8.303 -0.3388 -0.0082  0.5514
 3504SOL    HW121971   2.791   2.455   8.318 -1.8059 -2.4171 -0.9869
 3504SOL    HW221972   2.875   2.360   8.383 -2.2771  2.3525  2.0844
 3505SOL     OW21973   4.620   1.572   0.143 -0.1953  0.0720 -0.1812
 3505SOL    HW121974   4.699   1.595   0.094  1.4373 -0.8043  2.0327
 3505SOL    HW221975   4.615   1.630   0.220  0.1990  0.4528 -0.4442
 3506SOL     OW21976   0.288   0.530  16.257 -0.1213 -0.4916 -0.2875
 3506SOL    HW121977   0.269   0.442  16.227  1.2771 -0.5436 -1.0384
 3506SOL    HW221978   0.216   0.579  16.217  1.7783  0.5069 -2.5415
 3507SOL     OW21979   0.945   1.823   2.683 -0.0641  0.4400 -0.3961
 3507SOL    HW121980   0.957   1.862   2.597 -0.5353  1.7460  0.1299
 3507SOL    HW221981   0.850   1.807   2.677 -0.1211  1.6150 -2.3896
 3508SOL     OW21982   3.968   0.500   9.976 -0.0814 -0.2638  0.4704
 3508SOL    HW121983   4.031   0.505  10.048  1.1320  1.6037 -0.7397
 3508SOL    HW221984   3.892   0.524  10.028 -0.5854 -1.8227  0.4503
 3509SOL     OW21985   2.467   0.670   8.065  0.0353  0.8125 -0.5220
 3509SOL    HW121986   2.482   0.759   8.032  0.7257  0.8498 -0.1085
 3509SOL    HW221987   2.461   0.635   7.976  0.4416 -0.3671 -0.0818
 3510SOL     OW21988   0.796   3.623   6.548 -0.8236 -1.0309 -0.1942
 3510SOL    HW121989   0.746   3.614   6.467  0.2002 -0.0234 -0.9352
 3510SOL    HW221990   0.881   3.582   6.529 -0.7702 -1.8550  1.8239
 3511SOL     OW21991   4.170   2.748   6.472 -0.4301 -0.3110  0.0700
 3511SOL    HW121992   4.136   2.789   6.551  1.8918  1.7333  0.0102
 3511SOL    HW221993   4.103   2.680   6.462  0.5580 -1.1150 -1.1081
 3512SOL     OW21994   0.376   3.230   9.036  0.5041  0.1062  0.2835
 3512SOL    HW121995   0.461   3.227   9.080  1.1969 -0.0567 -1.0615
 3512SOL    HW221996   0.321   3.223   9.114 -0.8820  0.5482 -0.6464
 3513SOL     OW21997   1.391   3.986   0.714  0.1545  0.0623 -0.0362
 3513SOL    HW121998   1.350   3.902   0.734 -1.1296  0.5654 -0.5429
 3513SOL    HW221999   1.326   4.030   0.660  1.3110  1.9418  0.0763
 3514SOL     OW22000   2.544   1.814   4.108 -0.0028 -0.4199 -0.3983
 3514SOL    HW122001   2.509   1.833   4.196  2.0118 -1.1724  0.5605
 3514SOL    HW222002   2.625   1.765   4.121 -0.2887 -1.3948 -2.3458
 3515SOL     OW22003   1.796   0.363   3.997  0.2276 -0.4378 -0.1678
 3515SOL    HW122004   1.848   0.397   4.070  0.1478  0.3553 -0.4868
 3515SOL    HW222005   1.826   0.413   3.921 -0.8971 -3.3971 -2.5734
 3516SOL     OW22006   3.347   1.337   8.793 -0.3303  0.0462  0.2001
 3516SOL    HW122007   3.298   1.414   8.764  0.6342  0.7081  0.3108
 3516SOL    HW222008   3.368   1.354   8.885  0.9193  0.2082 -0.1191
 3517SOL     OW22009   4.387   4.256   8.270  0.0119  0.1245 -0.1873
 3517SOL    HW122010   4.387   4.181   8.210  0.3544  1.9183 -2.4114
 3517SOL    HW222011   4.463   4.305   8.239  1.3750 -0.9461  1.4139
 3518SOL     OW22012   1.254   1.425  12.643 -0.2448 -0.0037  0.3536
 3518SOL    HW122013   1.281   1.507  12.602 -1.2653  0.2124  0.1209
 3518SOL    HW222014   1.159   1.425  12.629  0.2404 -2.2330 -2.8965
 3519SOL     OW22015   0.930   3.189   8.601  0.0382  0.7091  0.4245
 3519SOL    HW122016   1.008   3.200   8.655 -0.1748 -0.4553  0.9580
 3519SOL    HW222017   0.890   3.127   8.662  0.7141 -3.1610 -3.0608
 3520SOL     OW22018   0.061   4.490   6.215  0.2128  0.3199  0.0322
 3520SOL    HW122019   0.021   4.547   6.150 -0.5005 -0.9346 -0.6269
 3520SOL    HW222020   0.072   4.407   6.169  1.2933  1.1342 -1.1636
 3521SOL     OW22021   0.998   3.268   2.953  0.5969  0.5262 -0.0324
 3521SOL    HW122022   0.936   3.296   3.020 -1.4042 -0.7735 -1.3292
 3521SOL    HW222023   1.072   3.249   3.011  1.1327 -0.1086 -0.9109
 3522SOL     OW22024   0.584   1.982  15.741  0.0301  0.0324  0.0291
 3522SOL    HW122025   0.605   1.956  15.831 -0.0299  1.8821  0.5888
 3522SOL    HW222026   0.491   2.003  15.735  0.2472  1.1894  0.6921
 3523SOL     OW22027   0.998   1.346   5.449 -0.3162  0.1853  0.6338
 3523SOL    HW122028   1.011   1.318   5.540 -0.5050  2.3357  1.3158
 3523SOL    HW222029   0.917   1.396   5.458 -1.2139 -1.4235  1.4205
 3524SOL     OW22030   1.735   3.384   9.057  0.0149 -0.1769  0.7133
 3524SOL    HW122031   1.829   3.368   9.070  0.3430  1.1513  0.0481
 3524SOL    HW222032   1.708   3.317   9.120  0.7701 -1.7771 -0.6499
 3525SOL     OW22033   3.546   3.756   1.575  0.3914 -0.1019  0.2313
 3525SOL    HW122034   3.563   3.837   1.527  0.2206 -1.0893 -1.5213
 3525SOL    HW222035   3.605   3.693   1.532  0.4421 -0.6255  1.0780
 3526SOL     OW22036   2.760   1.978   7.264 -0.7119 -0.1138  0.0753
 3526SOL    HW122037   2.733   1.912   7.200  1.4095  1.7797 -2.7824
 3526SOL    HW222038   2.694   2.047   7.262 -0.0814  0.4808 -0.2435
 3527SOL     OW22039   4.721   4.343   7.962  0.4720  0.7296 -0.5416
 3527SOL    HW122040   4.722   4.338   8.057 -4.0169 -0.6528 -0.5636
 3527SOL    HW222041   4.675   4.260   7.946  0.2725  0.5960  0.7335
 3528SOL     OW22042   2.952   2.813  16.612 -0.2568  0.9084  0.5421
 3528SOL    HW122043   2.869   2.771  16.634 -0.8922  0.7655 -2.1412
 3528SOL    HW222044   3.005   2.832  16.690  0.4685 -1.9048  0.7348
 3529SOL     OW22045   1.174   3.616   6.657  0.0212 -0.6061  0.1230
 3529SOL    HW122046   1.190   3.523   6.641 -4.7723 -1.3685 -0.2764
 3529SOL    HW222047   1.143   3.607   6.748 -0.6883  1.1512  0.0599
 3530SOL     OW22048   4.436   3.921  15.112  0.5064  0.5968  0.3484
 3530SOL    HW122049   4.481   3.937  15.194 -0.2368 -1.0761  1.0933
 3530SOL    HW222050   4.485   3.980  15.055  0.3868  0.0645 -0.3074
 3531SOL     OW22051   4.494   0.615   8.223 -0.3460 -0.6912 -0.1626
 3531SOL    HW122052   4.587   0.620   8.198 -0.6839 -0.9437 -1.4425
 3531SOL    HW222053   4.471   0.556   8.152 -0.9151  0.3373 -0.8399
 3532SOL     OW22054   3.484   4.142   8.306  0.4647 -0.1244 -0.1275
 3532SOL    HW122055   3.433   4.069   8.341  1.6113 -1.6984 -1.7441
 3532SOL    HW222056   3.541   4.095   8.245 -0.4632  3.5568 -3.8185
 3533SOL     OW22057   4.302   2.103  13.060 -0.3586  0.0818  0.0666
 3533SOL    HW122058   4.213   2.070  13.045 -0.1185 -0.1586 -0.8450
 3533SOL    HW222059   4.315   2.084  13.153 -0.7708 -1.0785 -0.1179
 3534SOL     OW22060   4.297   4.660   2.894  0.1638  0.3151  0.2933
 3534SOL    HW122061   4.335   0.016   2.929  1.4864 -0.9445  1.7675
 3534SOL    HW222062   4.241   4.633   2.967 -0.5188  1.4571  0.2026
 3535SOL     OW22063   1.230   4.591   3.412 -0.3808  0.6763  0.4443
 3535SOL    HW122064   1.265   4.538   3.340 -1.1281  1.4318 -0.4737
 3535SOL    HW222065   1.240   4.533   3.487  1.0494 -0.3706 -0.5600
 3536SOL     OW22066   3.051   3.263   9.503  0.0872 -0.3426  0.6498
 3536SOL    HW122067   3.065   3.219   9.587 -1.0292 -1.5014  0.2274
 3536SOL    HW222068   2.980   3.319   9.533  1.6675  0.6172  2.6388
 3537SOL     OW22069   4.668   4.213   2.654  0.1670  0.0150 -0.3231
 3537SOL    HW122070   4.622   4.240   2.575  0.5340 -0.2019 -0.6144
 3537SOL    HW222071   4.617   4.135   2.675 -0.5911  0.6000 -0.0036
 3538SOL     OW22072   2.034   4.641  16.117 -0.1627  0.3099 -0.6598
 3538SOL    HW122073   1.942   4.639  16.089 -0.1541 -0.4670 -0.6259
 3538SOL    HW222074   2.064   4.551  16.104  0.0758 -0.1871  3.3927
 3539SOL     OW22075   3.184   2.002  17.189  0.2263 -0.3985 -0.0634
 3539SOL    HW122076   3.115   1.976  17.251 -1.4508 -2.5795 -2.8407
 3539SOL    HW222077   3.162   2.095  17.179  0.2145 -0.3096  0.7848
 3540SOL     OW22078   0.969   0.689   4.395  0.0510  0.2201 -0.1257
 3540SOL    HW122079   0.905   0.671   4.326 -0.4260  3.8694 -0.6710
 3540SOL    HW222080   0.976   0.784   4.381 -0.4969 -0.0417 -2.1450
 3541SOL     OW22081   3.193   1.854   6.189  0.1507  0.1633  0.3532
 3541SOL    HW122082   3.166   1.946   6.196 -1.5534 -0.2312 -0.8433
 3541SOL    HW222083   3.271   1.844   6.242 -0.5046  0.0243  1.2889
 3542SOL     OW22084   2.834   2.467   1.894 -0.5898 -0.1254  0.2459
 3542SOL    HW122085   2.797   2.453   1.981 -1.1889  1.2526  0.2183
 3542SOL    HW222086   2.803   2.557   1.886 -0.5652 -0.0231  1.2787
 3543SOL     OW22087   3.495   1.295   8.407  0.1783 -0.1095 -0.5027
 3543SOL    HW122088   3.545   1.377   8.411 -1.7802  1.0346  0.2606
 3543SOL    HW222089   3.531   1.247   8.482  0.8271  1.1509 -0.0017
 3544SOL     OW22090   1.041   4.026   2.246 -0.0463 -0.1491 -0.0650
 3544SOL    HW122091   1.070   3.935   2.242  0.3719 -0.0229  0.1789
 3544SOL    HW222092   1.084   4.055   2.326 -2.3632  0.8945  0.7941
 3545SOL     OW22093   1.970   0.618  10.289  0.5615 -0.9450 -0.2539
 3545SOL    HW122094   2.036   0.560  10.327  1.5953  0.4166  0.0060
 3545SOL    HW222095   1.896   0.560  10.271 -3.2168  3.5115  0.8695
 3546SOL     OW22096   1.293   2.707   2.042  0.7001  0.4267  0.0596
 3546SOL    HW122097   1.314   2.713   1.949  4.2852 -0.6375  0.8331
 3546SOL    HW222098   1.356   2.643   2.074  0.2721  0.6385  1.3335
 3547SOL     OW22099   2.712   2.826   8.411  0.0604 -0.4749  0.0707
 3547SOL    HW122100   2.630   2.873   8.422 -0.2564 -1.0416  0.1169
 3547SOL    HW222101   2.757   2.878   8.344  1.6954  0.0427  1.5799
 3548SOL     OW22102   3.482   1.212   3.889  0.0195  0.4713  0.7822
 3548SOL    HW122103   3.554   1.184   3.945  0.1186  1.1095  0.9688
 3548SOL    HW222104   3.478   1.306   3.906  1.6159  0.6494  0.2310
 3549SOL     OW22105   3.591   1.819  16.301 -0.1191  0.2391 -0.2822
 3549SOL    HW122106   3.506   1.841  16.264  0.0712 -2.2922 -2.1937
 3549SOL    HW222107   3.650   1.892  16.283 -1.7275  2.1263  2.1548
 3550SOL     OW22108   3.457   0.175   4.621  0.5145 -0.0154  0.0861
 3550SOL    HW122109   3.516   0.229   4.570 -0.5643  1.4263  0.3715
 3550SOL    HW222110   3.515   0.111   4.662 -1.2687 -0.5664  1.7833
 3551SOL     OW22111   1.927   0.027   2.993  0.3258 -0.3314 -0.3887
 3551SOL    HW122112   1.888   0.104   2.951  0.1871 -0.0175  0.3162
 3551SOL    HW222113   1.894   4.690   2.927  0.8731 -2.6402  1.5151
 3552SOL     OW22114   0.256   1.011   2.612 -0.3460 -0.1487  0.3330
 3552SOL    HW122115   0.201   1.043   2.541 -0.6783 -0.7461  0.3237
 3552SOL    HW222116   0.251   1.087   2.671  0.0568  0.5600 -0.5420
 3553SOL     OW22117   0.649   3.473   3.732  1.0326 -0.0986 -0.1886
 3553SOL    HW122118   0.611   3.386   3.725  1.0167 -0.0336 -0.8755
 3553SOL    HW222119   0.652   3.479   3.828  1.8709 -0.7135 -0.1837
 3554SOL     OW22120   2.352   3.678   9.116 -0.3813 -0.2883  0.3834
 3554SOL    HW122121   2.399   3.605   9.156  0.8109 -0.2415 -0.9226
 3554SOL    HW222122   2.269   3.642   9.085 -0.4495 -1.1844  1.6444
 3555SOL     OW22123   3.972   1.113   8.120 -1.0416 -0.8961 -0.0119
 3555SOL    HW122124   4.054   1.119   8.170 -1.7234 -0.5671  1.0444
 3555SOL    HW222125   3.928   1.043   8.167 -0.8164 -0.1305  1.3115
 3556SOL     OW22126   2.785   1.678   2.585  0.0494  0.1085 -0.2478
 3556SOL    HW122127   2.874   1.645   2.572  0.6012  1.1149  0.9976
 3556SOL    HW222128   2.742   1.594   2.601  3.5068 -2.0016 -2.1078
 3557SOL     OW22129   2.559   4.273   1.658 -0.1837  0.1540 -0.2455
 3557SOL    HW122130   2.499   4.246   1.588 -0.4008  0.6988 -0.2675
 3557SOL    HW222131   2.637   4.291   1.605 -0.3048 -2.3808 -1.2685
 3558SOL     OW22132   1.645   2.772   4.928  0.1520  0.3170 -0.0860
 3558SOL    HW122133   1.704   2.832   4.882 -3.0746  1.3013 -2.9371
 3558SOL    HW222134   1.575   2.760   4.863 -0.3046  0.9040  0.2977
 3559SOL     OW22135   0.820   4.489   3.906 -0.0611  0.0689  0.2868
 3559SOL    HW122136   0.846   4.529   3.989 -0.1898 -1.3116  0.9872
 3559SOL    HW222137   0.899   4.504   3.854 -1.0627 -0.0741 -1.2536
 3560SOL     OW22138   1.626   3.364   2.371  0.4867 -0.3230  0.0132
 3560SOL    HW122139   1.695   3.297   2.376  1.0700  0.3008  0.2531
 3560SOL    HW222140   1.649   3.414   2.293  1.0378 -0.2804  0.2003
 3561SOL     OW22141   0.488   3.745   3.089 -0.0641 -0.4521  0.1938
 3561SOL    HW122142   0.432   3.821   3.072  0.9567  0.4538  0.8950
 3561SOL    HW222143   0.553   3.754   3.019 -1.4505  0.7539 -0.9314
 3562SOL     OW22144   3.255   3.739   5.808 -0.5567 -0.7276  0.3785
 3562SOL    HW122145   3.325   3.770   5.866 -1.0899  0.6665  0.2786
 3562SOL    HW222146   3.305   3.683   5.749  0.9642  0.8232  0.1984
 3563SOL     OW22147   4.054   3.732   3.047  0.6132  0.4023  0.4987
 3563SOL    HW122148   4.031   3.660   3.107  2.7483 -0.5391  0.1602
 3563SOL    HW222149   3.992   3.709   2.978 -0.3951  2.6562  0.6571
 3564SOL     OW22150   0.752   1.176   5.346  0.1966  0.0429  0.1215
 3564SOL    HW122151   0.731   1.172   5.439 -1.0870 -0.5003 -0.1834
 3564SOL    HW222152   0.748   1.270   5.332 -1.3870 -0.1677 -0.8848
 3565SOL     OW22153   0.627   4.014   5.637  0.2558  0.4156 -0.2871
 3565SOL    HW122154   0.627   4.103   5.600 -2.0501  0.2900 -0.5823
 3565SOL    HW222155   0.571   4.026   5.713  1.0462 -1.0219  0.5089
 3566SOL     OW22156   1.683   2.258   6.888 -0.0927  0.0350  0.7834
 3566SOL    HW122157   1.617   2.310   6.934  1.4879  2.7178  0.0438
 3566SOL    HW222158   1.666   2.262   6.794  0.6524 -0.5628  0.6284
 3567SOL     OW22159   4.541   0.573   6.612  0.3502  0.2748  0.0128
 3567SOL    HW122160   4.629   0.536   6.601  0.2861  0.2256 -0.3280
 3567SOL    HW222161   4.500   0.534   6.534  0.0773  2.2534 -0.8196
 3568SOL     OW22162   0.707   0.322   2.365  0.3438  0.5242 -0.3929
 3568SOL    HW122163   0.679   0.290   2.451 -0.0031 -0.7097 -0.9668
 3568SOL    HW222164   0.667   0.250   2.316  0.1218  0.9294 -0.8030
 3569SOL     OW22165   4.432   4.497   5.596  0.2417 -0.0839 -0.3302
 3569SOL    HW122166   4.471   4.516   5.511 -2.0306  1.2409 -1.0592
 3569SOL    HW222167   4.348   4.542   5.591  0.1622  0.0239  1.9107
 3570SOL     OW22168   2.039   0.089   4.534 -0.7333  0.3564  0.8199
 3570SOL    HW122169   1.985   0.168   4.528 -0.6701  0.4147  1.0340
 3570SOL    HW222170   2.009   0.049   4.452 -0.8688 -0.7000  1.3965
 3571SOL     OW22171   2.927   3.616  16.879 -1.1417 -0.4923  0.4791
 3571SOL    HW122172   2.903   3.700  16.839  0.3921 -0.3576 -0.1421
 3571SOL    HW222173   2.963   3.637  16.965 -2.9858 -0.4651  1.2554
 3572SOL     OW22174   0.663   4.577   2.823  0.0329  0.3494  0.3663
 3572SOL    HW122175   0.606   4.519   2.773 -0.9879  1.1044  0.6623
 3572SOL    HW222176   0.742   4.551   2.776 -0.6276  1.1211 -1.1713
 3573SOL     OW22177   4.588   1.999   6.067  0.2744  0.0391 -0.1127
 3573SOL    HW122178   4.616   2.037   5.983 -2.0125  1.3484 -0.2846
 3573SOL    HW222179   4.664   1.959   6.110  1.1728  1.5236 -0.2976
 3574SOL     OW22180   1.121   0.282   5.506  0.0551  0.1393  0.1076
 3574SOL    HW122181   1.075   0.354   5.461  0.7160  0.5547  0.0993
 3574SOL    HW222182   1.205   0.327   5.513  1.3978 -2.2847 -0.7294
 3575SOL     OW22183   0.932   1.965   2.428 -0.6011  0.0115 -0.7420
 3575SOL    HW122184   0.879   2.038   2.458  1.8718  0.8398  1.5821
 3575SOL    HW222185   0.949   1.990   2.337  2.1124 -1.8644 -0.7483
 3576SOL     OW22186   0.847   3.086   5.601  0.0601  0.2911 -0.1201
 3576SOL    HW122187   0.792   3.008   5.593 -0.5385  0.5362  1.7260
 3576SOL    HW222188   0.894   3.073   5.518 -1.3771  0.9242 -1.0315
 3577SOL     OW22189   3.894   1.495  14.179  0.2626 -0.5045 -0.1030
 3577SOL    HW122190   3.960   1.441  14.135 -1.0626 -1.7463 -0.5568
 3577SOL    HW222191   3.862   1.533  14.097 -0.6065 -2.5571 -0.7202
 3578SOL     OW22192   2.660   2.712   5.713 -0.2092  0.2165  0.5731
 3578SOL    HW122193   2.573   2.750   5.700 -0.0421  0.7116  0.8832
 3578SOL    HW222194   2.650   2.675   5.801  2.3473  1.4702  1.3833
 3579SOL     OW22195   1.962   1.567   8.751 -0.3916  0.3127 -0.6055
 3579SOL    HW122196   1.971   1.661   8.737  0.8680  0.5812  1.9796
 3579SOL    HW222197   2.040   1.535   8.798 -0.0567 -0.5427 -1.7404
 3580SOL     OW22198   3.388   3.072   6.264 -0.4221  0.1683 -0.2089
 3580SOL    HW122199   3.452   3.117   6.319 -0.3434 -0.5416  0.2778
 3580SOL    HW222200   3.336   3.152   6.259 -0.1331  0.3906  0.2630
 3581SOL     OW22201   2.398   2.503  10.878 -0.3285  0.1708 -0.1295
 3581SOL    HW122202   2.310   2.538  10.878  0.1225  1.2717  1.8534
 3581SOL    HW222203   2.441   2.587  10.859  0.8032  0.1650  2.4198
 3582SOL     OW22204   4.145   1.072   2.262  0.2139  0.0370  0.0008
 3582SOL    HW122205   4.172   1.045   2.350 -0.1422  1.5222  0.5685
 3582SOL    HW222206   4.163   0.994   2.210  1.4155 -0.2061  0.7681
 3583SOL     OW22207   3.292   1.483   6.909  0.2637 -0.4957  0.1600
 3583SOL    HW122208   3.324   1.393   6.910 -0.3060 -0.7109 -0.6854
 3583SOL    HW222209   3.282   1.502   6.816 -1.0355  1.8536  0.7704
 3584SOL     OW22210   1.894   0.332   8.005  0.0524 -0.4223 -0.0051
 3584SOL    HW122211   1.867   0.250   7.964  1.5877 -0.9366  0.0096
 3584SOL    HW222212   1.886   0.304   8.097 -1.8735  0.7970  0.2038
 3585SOL     OW22213   3.421   0.854   8.654  0.3492 -0.1263 -0.0142
 3585SOL    HW122214   3.432   0.760   8.638  3.3355  0.0590  1.0258
 3585SOL    HW222215   3.398   0.849   8.747 -2.1679  3.4508 -0.4251
 3586SOL     OW22216   1.452   0.993   8.508 -0.2638 -0.7071 -0.0176
 3586SOL    HW122217   1.418   1.074   8.545 -0.0908 -1.6914  2.3223
 3586SOL    HW222218   1.546   1.006   8.507 -0.5369  1.1947  0.0855
 3587SOL     OW22219   3.664   1.414   6.495  0.4221  0.1788 -0.2727
 3587SOL    HW122220   3.607   1.487   6.517  0.7948 -0.0104  1.3673
 3587SOL    HW222221   3.642   1.401   6.403  0.1931  0.2802 -0.2326
 3588SOL     OW22222   4.048   0.236   2.492 -0.3604  0.1358  0.4924
 3588SOL    HW122223   4.086   0.206   2.575  0.2918 -0.7938 -0.1494
 3588SOL    HW222224   3.961   0.198   2.505 -0.4155 -0.6551 -2.2347
 3589SOL     OW22225   0.270   2.763  10.860 -0.0511 -0.4947  0.8004
 3589SOL    HW122226   0.363   2.746  10.875 -0.0112  0.3741  1.5131
 3589SOL    HW222227   0.243   2.839  10.911 -0.6196 -1.0656  1.3471
 3590SOL     OW22228   2.308   3.320   2.195  0.6075 -0.1867 -0.3643
 3590SOL    HW122229   2.348   3.380   2.132 -1.7868  0.5585 -1.1618
 3590SOL    HW222230   2.278   3.252   2.134 -0.2673 -0.1714  0.0468
 3591SOL     OW22231   2.579   0.265   8.404 -0.3107 -0.0654 -0.2254
 3591SOL    HW122232   2.669   0.294   8.389  0.0867 -1.2429 -0.0795
 3591SOL    HW222233   2.565   0.296   8.494  1.8778  0.1247  0.0491
 3592SOL     OW22234   0.317   4.226   2.942 -0.0142 -0.4009  0.1591
 3592SOL    HW122235   0.277   4.269   2.866  0.3052 -0.3489  0.0213
 3592SOL    HW222236   0.286   4.290   3.007  0.7483  1.5705 -1.4140
 3593SOL     OW22237   3.433   0.880   6.071 -0.2164  0.0427 -0.1015
 3593SOL    HW122238   3.373   0.820   6.116  0.5928 -1.0334 -0.4762
 3593SOL    HW222239   3.447   0.949   6.136  0.1094 -0.3372  0.2326
 3594SOL     OW22240   2.568   2.257  11.501  0.1107  0.1208  0.6592
 3594SOL    HW122241   2.635   2.307  11.456 -2.6335  1.6754 -1.6690
 3594SOL    HW222242   2.621   2.185  11.535  1.4919 -0.0327 -1.8152
 3595SOL     OW22243   1.525   0.488   8.750  0.4492 -0.0221 -0.0332
 3595SOL    HW122244   1.434   0.459   8.745 -0.2664  2.3084 -0.3004
 3595SOL    HW222245   1.575   0.409   8.729 -1.0724 -1.0620  0.2372
 3596SOL     OW22246   4.549   3.790   8.203 -0.3677  0.2787 -0.1224
 3596SOL    HW122247   4.598   3.872   8.207  0.1331  0.0362 -1.3942
 3596SOL    HW222248   4.545   3.762   8.294  0.7847 -1.7144 -0.6886
 3597SOL     OW22249   2.925   0.642  16.630  0.0374 -0.3757 -0.1549
 3597SOL    HW122250   2.932   0.674  16.540  1.0221 -0.2527 -0.0368
 3597SOL    HW222251   2.997   0.697  16.662  0.5424 -1.1149  0.0029
 3598SOL     OW22252   4.370   3.282   7.185 -0.5712 -0.2174 -0.5247
 3598SOL    HW122253   4.414   3.363   7.158 -0.5109 -0.2364 -0.4835
 3598SOL    HW222254   4.416   3.270   7.268 -0.9746  0.9329 -0.1362
 3599SOL     OW22255   0.340   4.251   8.283 -0.0536  0.1050  0.2284
 3599SOL    HW122256   0.356   4.264   8.189 -2.5991  0.0437 -0.2043
 3599SOL    HW222257   0.421   4.297   8.306  0.9329 -1.6994  0.3828
 3600SOL     OW22258   0.264   2.467   2.386 -0.5598 -0.9913 -0.2089
 3600SOL    HW122259   0.309   2.454   2.470 -1.8953  1.4879  0.9168
 3600SOL    HW222260   0.214   2.386   2.380  1.1440 -2.1390  1.0164
 3601SOL     OW22261   0.130   4.686   8.433  0.7130  0.0576  0.5823
 3601SOL    HW122262   0.189   0.033   8.410 -1.9795  1.8495 -0.7535
 3601SOL    HW222263   0.048   4.716   8.392  1.8207  1.3382 -0.6690
 3602SOL     OW22264   1.680   4.690  16.529 -0.0386  0.0041 -0.1219
 3602SOL    HW122265   1.640   0.042  16.487  2.8548  1.4834 -0.1933
 3602SOL    HW222266   1.700   4.646  16.446 -0.8426 -2.1590  0.8197
 3603SOL     OW22267   0.463   1.103   7.811  0.1112 -0.2456  0.2128
 3603SOL    HW122268   0.404   1.032   7.784 -1.2388  0.0507  2.3961
 3603SOL    HW222269   0.541   1.077   7.761 -0.4020 -0.0551 -0.6966
 3604SOL     OW22270   3.619   3.956  16.398  0.0458  0.0884  0.2508
 3604SOL    HW122271   3.528   3.933  16.381  1.1312 -2.9675 -1.3110
 3604SOL    HW222272   3.628   4.026  16.333  1.3530  1.3728  1.7904
 3605SOL     OW22273   2.038   0.557   0.458  0.2244 -0.0261  0.1727
 3605SOL    HW122274   2.019   0.472   0.497  1.3088 -0.4598 -0.2456
 3605SOL    HW222275   2.132   0.559   0.439 -0.3742 -1.5581 -2.8630
 3606SOL     OW22276   2.456   4.533   6.640 -0.3934 -0.1421 -0.5642
 3606SOL    HW122277   2.518   4.563   6.706  0.0567  1.5286 -1.7316
 3606SOL    HW222278   2.464   4.601   6.573  3.0398  0.8701  0.8779
 3607SOL     OW22279   1.574   1.742   5.618  0.3106  0.6612 -0.0324
 3607SOL    HW122280   1.572   1.835   5.641 -0.6377  0.6997 -0.2641
 3607SOL    HW222281   1.576   1.748   5.522  0.6368  1.5028  0.0263
 3608SOL     OW22282   1.327   1.531   6.044  0.1365 -0.1194  0.2103
 3608SOL    HW122283   1.282   1.456   6.006 -1.7380  0.4226  1.3447
 3608SOL    HW222284   1.356   1.577   5.965 -0.6303 -0.8627 -0.5018
 3609SOL     OW22285   2.967   4.433   4.309 -0.5126 -0.6626 -0.2550
 3609SOL    HW122286   2.942   4.370   4.376 -0.5025 -0.9104 -0.4872
 3609SOL    HW222287   3.059   4.405   4.312 -0.3728 -0.2935 -0.9036
 3610SOL     OW22288   3.119   4.120  17.569 -0.2408  0.4554 -0.0642
 3610SOL    HW122289   3.061   4.079  17.633  1.8565 -1.1465  0.8011
 3610SOL    HW222290   3.072   4.204  17.563 -3.1420 -1.3613 -2.6036
 3611SOL     OW22291   2.940   3.180   8.659 -0.0387 -0.1269  0.1551
 3611SOL    HW122292   3.013   3.208   8.714 -1.3058  2.6351  0.4306
 3611SOL    HW222293   2.870   3.197   8.722 -1.4512  0.3920 -1.5813
 3612SOL     OW22294   4.361   3.756   6.231  0.0229 -0.2620  0.1468
 3612SOL    HW122295   4.314   3.830   6.270 -1.1102 -0.2310 -1.2764
 3612SOL    HW222296   4.434   3.777   6.288  0.0077 -1.3670  0.5687
 3613SOL     OW22297   0.012   4.621   4.963  0.3835 -0.4372  0.3357
 3613SOL    HW122298   4.708   4.542   4.917 -3.4124 -0.7582  3.2453
 3613SOL    HW222299   0.088   4.637   4.906 -2.5196  4.1582 -2.2264
 3614SOL     OW22300   0.322   4.006   6.190  0.0492  0.4694  0.2704
 3614SOL    HW122301   0.357   4.084   6.148 -0.0673 -0.3680 -1.3627
 3614SOL    HW222302   0.291   4.037   6.276  0.6136  0.8418  0.3418
 3615SOL     OW22303   2.232   0.156   4.913  0.0592  0.2877 -0.0037
 3615SOL    HW122304   2.151   0.206   4.907  0.4873  0.7922 -1.6548
 3615SOL    HW222305   2.206   0.082   4.857  1.8064 -1.8421  1.9661
 3616SOL     OW22306   3.348   1.226  16.716 -0.5607 -0.3581 -0.3653
 3616SOL    HW122307   3.352   1.265  16.629 -1.4174  1.5536  0.4578
 3616SOL    HW222308   3.254   1.210  16.731 -0.3610 -3.4620 -2.3988
 3617SOL     OW22309   2.529   3.817   0.786  0.4902  0.1849 -0.6675
 3617SOL    HW122310   2.459   3.871   0.822  2.7383  2.1581  0.7909
 3617SOL    HW222311   2.590   3.818   0.860 -0.3466  2.7114 -0.0072
 3618SOL     OW22312   1.912   3.245   6.260  0.7197  0.3524 -0.0065
 3618SOL    HW122313   1.823   3.269   6.234  2.1797  1.4846 -4.0164
 3618SOL    HW222314   1.931   3.183   6.190  0.9751 -0.3606  0.6966
 3619SOL     OW22315   1.693   1.127   3.745 -0.2480  0.1126 -0.0346
 3619SOL    HW122316   1.702   1.222   3.745  0.7636  0.0168  0.3351
 3619SOL    HW222317   1.669   1.124   3.652  1.7437  1.3028 -0.5849
 3620SOL     OW22318   3.644   4.481  12.176  0.2949  0.3597 -0.7717
 3620SOL    HW122319   3.717   4.473  12.238 -0.3815  0.5492  0.0563
 3620SOL    HW222320   3.693   4.505  12.098  2.2586 -1.8426 -0.2033
 3621SOL     OW22321   1.201   2.564   7.741 -0.2438  0.4512 -0.2486
 3621SOL    HW122322   1.204   2.627   7.669 -0.5933 -1.9770 -2.3961
 3621SOL    HW222323   1.253   2.492   7.703 -2.1700 -1.3702  0.5939
 3622SOL     OW22324   4.210   3.651   4.731 -0.2945 -0.0404  0.2181
 3622SOL    HW122325   4.189   3.574   4.784  1.1365 -0.3936  0.2803
 3622SOL    HW222326   4.306   3.655   4.739 -0.5219 -0.2194  3.1436
 3623SOL     OW22327   0.745   2.154   2.511  0.0786 -0.1112 -0.1873
 3623SOL    HW122328   0.674   2.215   2.495 -2.1170 -2.2031  1.6466
 3623SOL    HW222329   0.696   2.092   2.565  0.8867 -0.6516 -0.0600
 3624SOL     OW22330   3.031   0.771   7.989  0.8728  0.4926  0.0847
 3624SOL    HW122331   3.115   0.734   7.964  2.0655  1.9866  1.8718
 3624SOL    HW222332   2.976   0.692   7.983  2.4968 -0.6723  0.5064
 3625SOL     OW22333   3.726   4.252   4.632 -0.9446 -0.3087  1.1635
 3625SOL    HW122334   3.769   4.325   4.676  3.4360 -1.0402 -1.9406
 3625SOL    HW222335   3.795   4.220   4.574 -2.3013 -1.2202  0.0700
 3626SOL     OW22336   2.759   1.642   1.232  0.2102 -0.5748 -0.0351
 3626SOL    HW122337   2.759   1.736   1.214 -0.5989 -0.5899 -0.1249
 3626SOL    HW222338   2.835   1.645   1.290 -0.1858 -0.6610  0.4943
 3627SOL     OW22339   4.499   3.770   1.314  0.3329  0.2545  0.0092
 3627SOL    HW122340   4.462   3.688   1.348  0.4138  0.4059  0.4640
 3627SOL    HW222341   4.565   3.734   1.255  1.8119 -0.0193  1.8073
 3628SOL     OW22342   2.351   1.581   3.947 -0.3832 -0.0603 -0.1509
 3628SOL    HW122343   2.438   1.545   3.930  0.9335  1.6569  2.9215
 3628SOL    HW222344   2.347   1.564   4.042  3.0662 -0.9249 -0.1869
 3629SOL     OW22345   3.547   3.056   4.248 -0.1762 -0.7194 -0.1521
 3629SOL    HW122346   3.605   2.982   4.265  0.5867  0.0597  0.5911
 3629SOL    HW222347   3.582   3.084   4.164 -1.4548  0.3081 -0.3434
 3630SOL     OW22348   1.047   0.785   6.277 -0.6355  0.2582  1.2029
 3630SOL    HW122349   1.004   0.806   6.359  1.2767  0.8077  2.0602
 3630SOL    HW222350   0.988   0.818   6.209  0.2253 -0.2416  0.1913
 3631SOL     OW22351   1.900   1.036   2.293 -0.0774  0.2127 -0.1071
 3631SOL    HW122352   1.813   1.061   2.261 -0.1932  0.7574  0.6306
 3631SOL    HW222353   1.935   0.982   2.222  0.2958  0.5658 -0.1931
 3632SOL     OW22354   1.503   4.422  12.910 -0.3414 -0.0338  0.3126
 3632SOL    HW122355   1.584   4.470  12.930 -0.5298  1.3464 -2.2637
 3632SOL    HW222356   1.458   4.459  12.834 -2.2384 -0.7909  1.0689
 3633SOL     OW22357   1.608   4.402   0.057  0.0148 -0.1923 -0.1021
 3633SOL    HW122358   1.695   4.428   0.088  0.0886 -1.1426  0.4718
 3633SOL    HW222359   1.578   4.488   0.028  1.3532  0.4575  0.4148
 3634SOL     OW22360   3.994   3.310   7.992  0.8097  0.5342 -0.2367
 3634SOL    HW122361   3.979   3.382   8.053  1.0206  1.0361 -0.7713
 3634SOL    HW222362   3.943   3.344   7.918 -0.0937  0.5451  0.3887
 3635SOL     OW22363   1.397   2.036   3.079 -0.2617  0.4069  0.4434
 3635SOL    HW122364   1.307   2.057   3.104 -0.6506 -0.1650 -0.4572
 3635SOL    HW222365   1.388   2.039   2.984 -1.7518  0.0840  0.5788
 3636SOL     OW22366   3.262   3.999   8.410  0.3674  0.0844 -0.6220
 3636SOL    HW122367   3.175   4.027   8.438  0.0221 -0.6853 -0.9279
 3636SOL    HW222368   3.233   3.946   8.336  0.0968  1.4115 -1.4708
 3637SOL     OW22369   3.042   1.104  12.880 -0.1881 -0.2163  0.1505
 3637SOL    HW122370   3.035   1.132  12.789  1.4576  0.3137  0.1850
 3637SOL    HW222371   3.000   1.018  12.875 -2.4135  0.7828  1.6036
 3638SOL     OW22372   2.375   0.933  14.817 -0.1977  0.2710  0.0771
 3638SOL    HW122373   2.417   0.869  14.874  0.1936  0.2017 -0.2937
 3638SOL    HW222374   2.295   0.890  14.788  0.8258 -0.4442 -1.6337
 3639SOL     OW22375   3.116   1.682   2.761  0.4271 -0.2356  0.1935
 3639SOL    HW122376   3.067   1.633   2.695  2.1955 -2.3473  0.4385
 3639SOL    HW222377   3.148   1.750   2.702  0.3493  0.0958  0.5344
 3640SOL     OW22378   1.251   0.247   6.310  0.4917  0.6460  0.3076
 3640SOL    HW122379   1.242   0.156   6.338  0.2833  0.5921  0.0642
 3640SOL    HW222380   1.166   0.258   6.268  1.1075  0.1178 -1.0532
 3641SOL     OW22381   3.285   1.843   5.154 -0.5383 -0.1731  0.2116
 3641SOL    HW122382   3.208   1.823   5.207 -1.3850  0.9515 -0.6051
 3641SOL    HW222383   3.262   1.930   5.121  1.2877  1.2272  2.6361
 3642SOL     OW22384   0.595   0.884   8.870 -0.3757  0.1520 -0.2247
 3642SOL    HW122385   0.647   0.960   8.844  1.8451 -1.0463  0.7793
 3642SOL    HW222386   0.591   0.836   8.787 -0.0350  0.5463 -0.4647
 3643SOL     OW22387   0.975   0.416  14.133 -0.0908 -0.1237  0.2171
 3643SOL    HW122388   0.922   0.486  14.171 -1.9151 -1.9242  0.9984
 3643SOL    HW222389   0.957   0.444  14.043 -1.6104 -0.9454  0.2565
 3644SOL     OW22390   3.565   0.865  15.020 -0.1140 -0.6572  0.2515
 3644SOL    HW122391   3.503   0.817  14.965 -0.8489  0.2016  0.3331
 3644SOL    HW222392   3.508   0.873  15.096  1.4482  1.0756  1.2257
 3645SOL     OW22393   3.954   2.807   2.605 -0.2510  0.1557 -0.6464
 3645SOL    HW122394   3.900   2.868   2.655  0.5101  0.7399 -0.5418
 3645SOL    HW222395   3.894   2.732   2.606  0.6572 -0.5773 -0.6361
 3646SOL     OW22396   0.192   3.971   7.291 -0.1214  0.0743  0.0948
 3646SOL    HW122397   0.206   3.994   7.200  0.3779  3.0849  0.9216
 3646SOL    HW222398   0.105   3.932   7.299  0.4481 -1.1802  0.1218
 3647SOL     OW22399   0.039   3.790   7.735 -0.3071 -0.2550 -0.7113
 3647SOL    HW122400   0.070   3.700   7.744 -2.1284 -0.9248 -0.9858
 3647SOL    HW222401   0.085   3.836   7.805  2.0201 -2.2762 -0.9136
 3648SOL     OW22402   0.486   0.243   0.871 -0.0763  0.0905  0.0080
 3648SOL    HW122403   0.486   0.338   0.887 -0.9690  0.7140 -3.8461
 3648SOL    HW222404   0.451   0.214   0.956  0.7099  0.2908  0.3964
 3649SOL     OW22405   1.709   4.134   8.045 -0.2207 -0.5777  0.1312
 3649SOL    HW122406   1.732   4.155   7.955 -0.5296  1.6890  0.5907
 3649SOL    HW222407   1.614   4.141   8.047 -0.1599  1.1000 -3.4757
 3650SOL     OW22408   2.134   4.562   0.163 -0.3169  0.0302 -0.2825
 3650SOL    HW122409   2.181   4.483   0.135  1.2037  0.4669  1.0329
 3650SOL    HW222410   2.169   4.633   0.109  0.6620 -0.0596  0.2218
 3651SOL     OW22411   1.471   0.447   8.418 -0.2626 -0.3288 -0.1786
 3651SOL    HW122412   1.558   0.480   8.443  0.6155 -1.1661 -2.0792
 3651SOL    HW222413   1.484   0.445   8.323 -0.9316  4.7997 -0.4102
 3652SOL     OW22414   0.895   0.481   3.966  0.5691 -0.0404 -0.2060
 3652SOL    HW122415   0.921   0.493   3.874 -0.3393  1.2803 -0.2897
 3652SOL    HW222416   0.960   0.542   4.003 -1.5600  2.1459 -0.0665
 3653SOL     OW22417   0.793   1.437   5.584 -0.3046  0.2491 -0.2506
 3653SOL    HW122418   0.779   1.488   5.663  4.5258  0.3300  0.5602
 3653SOL    HW222419   0.737   1.361   5.596 -0.2544  0.3360  0.5497
 3654SOL     OW22420   0.301   0.405  16.520  0.1299 -0.0425  0.4131
 3654SOL    HW122421   0.218   0.448  16.499  0.7415  0.8934 -0.0559
 3654SOL    HW222422   0.334   0.413  16.431 -0.2788 -0.8080  0.1960
 3655SOL     OW22423   3.244   1.551   8.274 -0.5298  0.0822  0.3883
 3655SOL    HW122424   3.273   1.472   8.229  0.4983  0.5419  0.2224
 3655SOL    HW222425   3.230   1.524   8.365 -1.3426 -1.0699 -0.0899
 3656SOL     OW22426   0.875   3.690   1.219 -0.4780  0.4536  0.0924
 3656SOL    HW122427   0.823   3.634   1.161  0.1376 -1.2496  1.1924
 3656SOL    HW222428   0.804   3.732   1.267 -1.2970 -1.5443  0.6449
 3657SOL     OW22429   2.866   2.761   6.577 -0.1156 -0.6289 -0.2225
 3657SOL    HW122430   2.870   2.712   6.659 -0.7522  2.1612  1.4777
 3657SOL    HW222431   2.928   2.717   6.520 -0.9254 -2.5557  0.3841
 3658SOL     OW22432   1.117   4.248  11.775 -0.2258  0.1931  0.0376
 3658SOL    HW122433   1.135   4.304  11.700  0.7227  0.0286  0.1476
 3658SOL    HW222434   1.075   4.175  11.730 -1.3487  1.2105 -0.5489
 3659SOL     OW22435   3.375   3.636  13.983 -0.1293 -0.1352 -0.3806
 3659SOL    HW122436   3.291   3.641  13.936 -0.6158  3.7898  0.9345
 3659SOL    HW222437   3.365   3.559  14.040  1.8491 -0.7882 -0.9122
 3660SOL     OW22438   3.844   1.817   8.933 -0.0120  0.3323  0.5508
 3660SOL    HW122439   3.889   1.733   8.941  1.0425  0.6758 -1.7617
 3660SOL    HW222440   3.807   1.823   9.021 -1.8106 -2.7599 -0.0184
 3661SOL     OW22441   2.785   2.676  14.477 -0.3582  0.4380  0.3475
 3661SOL    HW122442   2.718   2.734  14.442  2.1986  1.2599 -3.1965
 3661SOL    HW222443   2.738   2.601  14.440  0.2378  1.1623 -1.8853
 3662SOL     OW22444   3.612   4.712   4.719  0.3708  0.3671 -0.3366
 3662SOL    HW122445   3.692   4.698   4.668  1.9463  0.1002  2.2415
 3662SOL    HW222446   3.589   4.620   4.734  1.4335  0.1010 -0.3508
 3663SOL     OW22447   1.875   0.862  15.831 -0.6627  0.4680  0.4635
 3663SOL    HW122448   1.796   0.900  15.868 -0.8517  0.6374 -0.1043
 3663SOL    HW222449   1.910   0.828  15.913 -0.7288  1.2097  0.8026
 3664SOL     OW22450   0.850   3.033   1.197 -0.2507  0.1982  0.0293
 3664SOL    HW122451   0.899   3.095   1.144  2.8332 -2.7838 -0.6270
 3664SOL    HW222452   0.912   2.962   1.215 -3.0114 -1.5210  2.7858
 3665SOL     OW22453   2.747   0.064  16.111 -0.1670  0.4078 -0.1194
 3665SOL    HW122454   2.819   0.006  16.136  0.5439  0.8720 -1.0813
 3665SOL    HW222455   2.698   0.060  16.192  1.3737 -1.2643  0.7303
 3666SOL     OW22456   3.313   1.979  13.778  0.1961  0.1119 -0.0137
 3666SOL    HW122457   3.269   1.919  13.838 -1.7294  0.6956 -0.8135
 3666SOL    HW222458   3.382   1.922  13.744  0.0471 -0.4132  0.5559
 3667SOL     OW22459   4.215   4.093   5.496 -0.4338 -0.2012 -0.1664
 3667SOL    HW122460   4.126   4.104   5.462 -0.3844  2.6546  0.6304
 3667SOL    HW222461   4.260   4.172   5.465  1.2294 -0.7404  0.8506
 3668SOL     OW22462   3.294   4.537   5.240 -0.8050  0.4921  0.8387
 3668SOL    HW122463   3.254   4.624   5.247  0.2779  0.9371  1.5327
 3668SOL    HW222464   3.336   4.540   5.326  0.6515 -1.3351  0.1909
 3669SOL     OW22465   4.616   4.547  12.643 -0.3317  0.0277  0.0008
 3669SOL    HW122466   4.680   4.603  12.599  1.1359 -0.8818  1.0103
 3669SOL    HW222467   4.538   4.602  12.630  0.4892  0.7666 -1.7798
 3670SOL     OW22468   2.611   2.625   4.945  0.2951  0.3094 -0.7077
 3670SOL    HW122469   2.685   2.615   4.885  0.1483 -0.1507 -0.8105
 3670SOL    HW222470   2.602   2.534   4.973  0.0619 -0.0960 -2.1006
 3671SOL     OW22471   1.695   0.012   1.712  0.1359  0.0816  0.3294
 3671SOL    HW122472   1.636   0.054   1.774  1.0837  0.4197  1.0189
 3671SOL    HW222473   1.743   0.091   1.687 -0.5970  0.4082 -0.0282
 3672SOL     OW22474   4.245   0.332   8.528  0.3944  0.3874  0.2740
 3672SOL    HW122475   4.309   0.388   8.483  0.7660 -0.6985 -0.5372
 3672SOL    HW222476   4.210   0.271   8.463  1.2973  0.8948 -0.6918
 3673SOL     OW22477   3.848   2.500  15.254  0.2310  0.1283 -0.5700
 3673SOL    HW122478   3.781   2.431  15.245 -0.6082  0.9917 -0.9335
 3673SOL    HW222479   3.919   2.461  15.202  0.0625 -1.7584  0.6159
 3674SOL     OW22480   2.386   1.650   1.024 -0.1623 -0.0895  0.0416
 3674SOL    HW122481   2.361   1.558   1.020 -0.4040 -0.0120 -0.2123
 3674SOL    HW222482   2.452   1.651   0.954 -0.2479 -0.4742 -0.0436
 3675SOL     OW22483   3.666   3.215   8.263  0.1501  0.1598 -0.1097
 3675SOL    HW122484   3.755   3.243   8.282  0.6379 -0.3920 -1.6318
 3675SOL    HW222485   3.637   3.265   8.188  0.9621  2.5743  1.1979
 3676SOL     OW22486   1.344   3.197  11.571 -0.0185 -0.4502 -0.1267
 3676SOL    HW122487   1.295   3.277  11.554  0.7779 -0.0466 -0.5318
 3676SOL    HW222488   1.268   3.148  11.604  0.1522 -0.4629  0.2463
 3677SOL     OW22489   2.564   0.738   1.071  0.5005 -0.7558  0.5547
 3677SOL    HW122490   2.559   0.752   0.976 -0.2658 -0.3942  0.6544
 3677SOL    HW222491   2.644   0.685   1.076 -0.6366 -2.2991  2.0112
 3678SOL     OW22492   3.232   2.003   2.252 -0.7667  0.3006  0.6622
 3678SOL    HW122493   3.150   1.954   2.246 -1.7192  2.1715 -1.2458
 3678SOL    HW222494   3.242   2.034   2.162 -1.2869  1.5106  1.0274
 3679SOL     OW22495   0.721   0.531  16.105 -0.8360 -0.0321 -0.1856
 3679SOL    HW122496   0.804   0.499  16.137 -1.4361  0.9015  2.2689
 3679SOL    HW222497   0.746   0.623  16.094 -0.2771  0.0025  1.3713
 3680SOL     OW22498   3.436   0.954   7.000 -0.0496 -0.4558 -0.2775
 3680SOL    HW122499   3.353   0.975   7.044  0.1282  0.5253 -0.4117
 3680SOL    HW222500   3.422   0.985   6.910  0.8968  3.2425  0.8481
 3681SOL     OW22501   2.780   2.715   6.089 -0.6204  0.1866  0.1838
 3681SOL    HW122502   2.746   2.647   6.030  1.1240 -1.2394  0.8366
 3681SOL    HW222503   2.868   2.684   6.109 -0.9467 -0.4939  0.5836
 3682SOL     OW22504   2.916   1.534   6.694  0.5703 -0.1425  0.3030
 3682SOL    HW122505   2.882   1.613   6.652  0.6547  0.7118  1.8391
 3682SOL    HW222506   2.841   1.474   6.685 -0.2270  0.8416  0.3288
 3683SOL     OW22507   0.818   0.636  14.266  0.4456 -0.0967  0.2767
 3683SOL    HW122508   0.825   0.715  14.319 -2.4635 -1.0121  2.0358
 3683SOL    HW222509   0.745   0.587  14.305  1.8531 -2.0858  0.4177
 3684SOL     OW22510   3.347   3.723   7.841  0.0032 -0.0503  0.1013
 3684SOL    HW122511   3.347   3.812   7.807 -0.6194  0.6026  1.7759
 3684SOL    HW222512   3.343   3.663   7.767 -0.4615 -1.9776  1.6781
 3685SOL     OW22513   0.980   1.525   6.855  0.2009 -0.2601  0.4589
 3685SOL    HW122514   0.925   1.491   6.785 -0.6755  0.7459  0.6510
 3685SOL    HW222515   0.919   1.526   6.929  1.0197  1.3842  1.1143
 3686SOL     OW22516   4.445   3.808   0.919 -0.2333  0.2365  0.5231
 3686SOL    HW122517   4.537   3.781   0.915 -0.3629  0.5961 -3.9819
 3686SOL    HW222518   4.413   3.718   0.932  0.6296 -0.0302  0.8378
 3687SOL     OW22519   0.692   0.894  11.291  0.5499 -0.5784  0.0856
 3687SOL    HW122520   0.715   0.822  11.350  1.6919  1.4749  2.1281
 3687SOL    HW222521   0.756   0.871  11.224  1.7553  0.9962  0.7043
 3688SOL     OW22522   1.210   4.070   9.559  0.2002 -0.3193  0.4405
 3688SOL    HW122523   1.213   4.097   9.467  1.3825 -1.1071  0.2535
 3688SOL    HW222524   1.115   4.074   9.572  0.4900 -0.3628  2.4769
 3689SOL     OW22525   1.037   1.089  16.012 -0.4344  0.1530  0.0211
 3689SOL    HW122526   0.987   1.007  16.018  0.0147 -0.1156  0.0829
 3689SOL    HW222527   1.057   1.114  16.102  0.1445 -0.4705  0.0690
 3690SOL     OW22528   3.648   2.750   4.772  0.4747 -0.7798  0.0469
 3690SOL    HW122529   3.573   2.791   4.730  0.1512 -0.2754  1.1134
 3690SOL    HW222530   3.708   2.743   4.698  0.2891  0.1138 -0.1838
 3691SOL     OW22531   1.339   2.320   3.185  0.4160  0.3067  0.3919
 3691SOL    HW122532   1.316   2.340   3.094  0.7394  0.2052  0.2903
 3691SOL    HW222533   1.428   2.287   3.176 -0.5160 -1.9755 -0.5960
 3692SOL     OW22534   1.468   4.072   7.075 -0.4668 -0.1437  0.4219
 3692SOL    HW122535   1.531   4.111   7.015 -0.1277  0.0744  0.9190
 3692SOL    HW222536   1.396   4.051   7.016 -0.1032  0.1738 -0.1277
 3693SOL     OW22537   0.085   0.978   5.997 -0.4364  0.2660 -0.8206
 3693SOL    HW122538   0.117   1.044   5.936  0.3232  0.7323  0.0797
 3693SOL    HW222539   0.021   1.015   6.058 -1.2410  1.4470 -2.3699
 3694SOL     OW22540   1.412   1.937   2.830  0.5235  0.7391  0.0055
 3694SOL    HW122541   1.505   1.930   2.809 -0.3052 -3.9556 -2.0987
 3694SOL    HW222542   1.398   2.022   2.788 -2.1389  1.1866  1.7855
 3695SOL     OW22543   1.926   3.348  12.596 -0.4215  0.0793 -0.6502
 3695SOL    HW122544   1.901   3.376  12.684  1.4238  0.8553 -0.3609
 3695SOL    HW222545   1.855   3.284  12.586 -1.4886  0.8420  2.2048
 3696SOL     OW22546   0.463   3.150   7.408 -0.5541  0.0663  0.4207
 3696SOL    HW122547   0.547   3.157   7.452  0.2489 -1.4878 -0.8496
 3696SOL    HW222548   0.494   3.173   7.320 -0.1671  1.0085  0.8089
 3697SOL     OW22549   4.328   2.343   2.759 -0.1316  0.1350  0.9012
 3697SOL    HW122550   4.358   2.407   2.824  1.2999  0.7963 -0.4049
 3697SOL    HW222551   4.302   2.401   2.688  2.0417  1.2963  1.0393
 3698SOL     OW22552   2.993   0.462   4.128  0.3245  0.4648  0.4225
 3698SOL    HW122553   3.083   0.445   4.101 -0.9193 -0.1962 -3.2463
 3698SOL    HW222554   3.020   0.475   4.219  0.7120  3.4886 -0.1323
 3699SOL     OW22555   3.890   3.450   4.268 -0.0226  0.4805  0.4031
 3699SOL    HW122556   3.938   3.419   4.344  0.7335  0.1016 -0.2354
 3699SOL    HW222557   3.797   3.439   4.287  0.1289  0.1390  0.9220
 3700SOL     OW22558   4.675   4.283   3.069  0.2213  0.3063 -0.2004
 3700SOL    HW122559   0.006   4.326   3.004  0.0409 -0.1094 -0.6373
 3700SOL    HW222560   4.705   4.330   3.146  1.0085  1.1143 -1.0096
 3701SOL     OW22561   2.227   0.034  16.716  0.3938  0.6592  0.2898
 3701SOL    HW122562   2.211   4.709  16.636 -0.0490 -2.1233  2.1138
 3701SOL    HW222563   2.223   4.681  16.772  3.1838  1.9795  2.3259
 3702SOL     OW22564   4.289   2.934   5.701 -0.6298  0.1670  0.9249
 3702SOL    HW122565   4.349   2.984   5.756 -0.6008  1.5818 -0.4080
 3702SOL    HW222566   4.309   2.983   5.622 -2.7428 -1.2770 -0.4974
 3703SOL     OW22567   0.235   2.618   4.777 -0.3238  1.0748  0.7921
 3703SOL    HW122568   0.145   2.612   4.743  0.2224 -1.5727 -0.2047
 3703SOL    HW222569   0.268   2.676   4.709  1.7523 -1.8614 -0.7132
 3704SOL     OW22570   3.095   2.938   7.230  0.2813 -0.4192 -0.2748
 3704SOL    HW122571   3.128   3.025   7.209 -1.3228  0.2504 -0.0428
 3704SOL    HW222572   3.132   2.923   7.318 -0.8525 -1.5111  0.0136
 3705SOL     OW22573   1.255   0.166   2.997 -0.6688 -0.3180  0.7651
 3705SOL    HW122574   1.160   0.155   2.990 -0.5453 -1.1503  0.4248
 3705SOL    HW222575   1.268   0.258   2.974  2.6911 -0.8468  0.5686
 3706SOL     OW22576   3.896   2.813   6.790 -0.6241  0.2901 -0.0165
 3706SOL    HW122577   3.989   2.796   6.806 -1.5890 -2.3505  2.7822
 3706SOL    HW222578   3.896   2.905   6.763  1.0067 -0.1949 -1.6306
 3707SOL     OW22579   2.655   4.001  13.254 -0.0001 -0.5432 -0.1684
 3707SOL    HW122580   2.612   3.955  13.182 -0.7208 -0.3639  0.1487
 3707SOL    HW222581   2.698   3.920  13.283 -3.1086 -2.2200 -0.1549
 3708SOL     OW22582   0.640   2.988  13.474  0.2666  0.4635 -0.4275
 3708SOL    HW122583   0.713   2.943  13.514 -0.1693  0.3000  0.1828
 3708SOL    HW222584   0.571   2.922  13.469 -0.8499  1.7712 -2.2812
 3709SOL     OW22585   2.146   1.407   1.393 -0.1102 -0.0804  0.0787
 3709SOL    HW122586   2.196   1.488   1.395 -1.4989  0.8094 -0.7950
 3709SOL    HW222587   2.214   1.340   1.400  0.0372  0.2197  1.5039
 3710SOL     OW22588   0.842   1.768   3.773 -0.1987 -0.0946 -1.2134
 3710SOL    HW122589   0.841   1.764   3.869  2.0617 -0.8945 -1.2162
 3710SOL    HW222590   0.936   1.763   3.753  0.1775 -0.4799  0.6484
 3711SOL     OW22591   4.130   3.556   7.501  0.2727  0.2057  0.3916
 3711SOL    HW122592   4.174   3.544   7.585  1.5126  1.2422 -0.1032
 3711SOL    HW222593   4.200   3.549   7.435 -0.2359  0.8416 -0.2152
 3712SOL     OW22594   1.891   2.441   6.834  0.3633  0.1080 -0.1630
 3712SOL    HW122595   1.815   2.383   6.830  0.4083  0.1575 -1.6911
 3712SOL    HW222596   1.964   2.380   6.847 -0.4140 -0.9651 -0.8881
 3713SOL     OW22597   1.830   2.853   7.484  0.3749 -0.0691 -0.2133
 3713SOL    HW122598   1.924   2.868   7.488  0.0435  2.6011 -1.9733
 3713SOL    HW222599   1.789   2.939   7.499  1.5484  0.4928 -0.2077
 3714SOL     OW22600   1.523   4.719  16.756 -0.0150 -0.0434 -0.3635
 3714SOL    HW122601   1.443   0.041  16.732  1.1514  1.0995 -1.9718
 3714SOL    HW222602   1.581   0.003  16.681  2.1478  0.3405  1.3668
 3715SOL     OW22603   2.752   1.976   1.702  0.0816 -0.0895  0.2399
 3715SOL    HW122604   2.688   1.952   1.769  0.4116 -1.2040  0.1657
 3715SOL    HW222605   2.715   1.943   1.620 -3.3944 -1.2215  2.2645
 3716SOL     OW22606   0.265   3.005  10.996 -0.0420 -0.3665  0.2269
 3716SOL    HW122607   0.288   3.036  11.084 -1.8237  2.5281 -0.3040
 3716SOL    HW222608   0.352   2.995  10.958 -0.2368 -3.1765  0.5319
 3717SOL     OW22609   2.218   2.874   4.311 -0.0161  0.1740 -0.7622
 3717SOL    HW122610   2.197   2.783   4.330 -1.6031  0.7266  0.1136
 3717SOL    HW222611   2.140   2.917   4.277 -0.4229  0.3686  0.4139
 3718SOL     OW22612   1.167   3.136   5.695 -0.0275  0.2152  0.4411
 3718SOL    HW122613   1.257   3.166   5.687  0.8623 -2.3040  1.1065
 3718SOL    HW222614   1.174   3.065   5.631 -2.2266 -0.5906  1.0741
 3719SOL     OW22615   0.787   0.253  11.564 -0.3013 -0.1260  0.4196
 3719SOL    HW122616   0.786   0.186  11.496 -0.5365  0.7911 -0.4796
 3719SOL    HW222617   0.843   0.320  11.526  1.4872 -1.7418  0.2066
 3720SOL     OW22618   4.651   4.130   3.655  0.1074 -0.3081  0.1190
 3720SOL    HW122619   4.590   4.177   3.597  1.3431  2.4903  1.0474
 3720SOL    HW222620   4.699   4.064   3.606  0.9018 -0.2823  0.8732
 3721SOL     OW22621   0.425   0.312   8.833 -0.3126 -0.6649 -0.0617
 3721SOL    HW122622   0.497   0.368   8.862 -2.1527  1.5582  0.2455
 3721SOL    HW222623   0.463   0.228   8.807 -1.4330 -0.9873 -0.6606
 3722SOL     OW22624   2.008   3.925   3.178  0.5427  0.0131 -0.2384
 3722SOL    HW122625   2.051   3.964   3.102 -1.1154  1.5766 -0.3595
 3722SOL    HW222626   2.011   3.998   3.240 -2.6884 -0.9727  1.0616
 3723SOL     OW22627   0.427   4.260   3.827  0.7062  0.1385 -0.1088
 3723SOL    HW122628   0.475   4.178   3.825  1.9852  0.8650  1.2790
 3723SOL    HW222629   0.439   4.268   3.921  1.6933 -1.6069 -0.0949
 3724SOL     OW22630   2.488   2.870  15.801  0.1146 -0.1960 -0.0222
 3724SOL    HW122631   2.401   2.834  15.822  0.8573 -1.0084  1.6289
 3724SOL    HW222632   2.519   2.884  15.890 -0.1904 -1.5774  0.3006
 3725SOL     OW22633   3.851   0.577   3.389 -0.3004  0.1027  0.3403
 3725SOL    HW122634   3.944   0.554   3.388 -0.7109 -1.6974  3.7319
 3725SOL    HW222635   3.827   0.556   3.299 -0.6477  0.0372  0.4486
 3726SOL     OW22636   4.033   3.498   3.217 -0.2110  0.2837 -1.0195
 3726SOL    HW122637   4.114   3.456   3.188  0.4761  0.7936  0.1527
 3726SOL    HW222638   3.967   3.454   3.163 -0.7644 -1.4960  1.1123
 3727SOL     OW22639   2.456   0.881   8.846 -0.3257 -0.1246 -0.1006
 3727SOL    HW122640   2.472   0.834   8.928 -0.0475  1.9282  1.0215
 3727SOL    HW222641   2.416   0.959   8.883 -2.2027 -0.2446 -1.9197
 3728SOL     OW22642   1.126   1.918   2.891 -0.6803  0.1126 -0.0632
 3728SOL    HW122643   1.078   1.881   2.817 -1.3173  0.0795  0.3633
 3728SOL    HW222644   1.213   1.889   2.865 -0.5380  0.9432 -0.4988
 3729SOL     OW22645   2.333   2.623  10.479 -0.3731  0.1738  0.2821
 3729SOL    HW122646   2.418   2.581  10.467 -1.4109 -1.5039 -1.0964
 3729SOL    HW222647   2.281   2.549  10.509 -0.1551 -0.1657 -0.1907
 3730SOL     OW22648   0.644   0.623  15.501 -0.2883 -0.4966  0.2906
 3730SOL    HW122649   0.726   0.574  15.501 -0.1116 -0.1951 -0.3906
 3730SOL    HW222650   0.589   0.577  15.565 -1.7374  0.8799  0.0253
 3731SOL     OW22651   3.987   3.029  12.118 -0.2945 -0.2726  0.0565
 3731SOL    HW122652   3.967   2.999  12.030  1.8340  2.4187 -1.3555
 3731SOL    HW222653   3.933   3.106  12.138 -0.9631 -0.4262 -1.1811
 3732SOL     OW22654   1.211   4.515   1.611 -0.5420 -0.4229 -0.4150
 3732SOL    HW122655   1.280   4.480   1.555 -1.6138 -0.2093 -1.8725
 3732SOL    HW222656   1.254   4.595   1.642 -0.3287 -0.0771 -1.6047
 3733SOL     OW22657   4.510   1.342  15.122 -0.0915 -0.2817 -0.0333
 3733SOL    HW122658   4.447   1.415  15.122 -0.0227 -0.2250 -2.3027
 3733SOL    HW222659   4.569   1.384  15.060 -2.0182  0.6986 -1.1986
 3734SOL     OW22660   3.292   1.946   9.616  0.0640  0.2577 -0.3295
 3734SOL    HW122661   3.284   1.952   9.711  1.9062  1.9199 -0.2731
 3734SOL    HW222662   3.370   1.891   9.608 -0.5796 -0.5606 -0.9455
 3735SOL     OW22663   4.251   0.817   3.758  0.2007  0.2535  0.2622
 3735SOL    HW122664   4.183   0.855   3.815 -2.0719 -0.0689 -2.2343
 3735SOL    HW222665   4.277   0.893   3.706 -0.7705  0.5764  0.2523
 3736SOL     OW22666   0.441   1.019   7.053 -0.4284 -0.5143 -0.2745
 3736SOL    HW122667   0.476   1.104   7.081  0.4252 -1.4450  1.4436
 3736SOL    HW222668   0.521   0.971   7.032 -0.3612 -0.9442  1.0011
 3737SOL     OW22669   4.471   1.558  13.529  0.1652  0.0996  0.3036
 3737SOL    HW122670   4.383   1.597  13.528  0.1328  0.0092 -0.8990
 3737SOL    HW222671   4.458   1.498  13.602 -0.7408 -1.1856 -0.9100
 3738SOL     OW22672   0.076   0.479   6.563 -0.1754 -0.2908  0.6073
 3738SOL    HW122673   0.139   0.410   6.585 -0.9982 -0.7866  1.4036
 3738SOL    HW222674   0.130   0.558   6.568 -0.7243  0.0399  1.1067
 3739SOL     OW22675   4.692   1.898   1.329  0.1585  0.3333 -0.5149
 3739SOL    HW122676   4.597   1.904   1.323  0.2819  2.1826 -0.7600
 3739SOL    HW222677   4.714   1.906   1.236 -0.8782  0.6379 -0.7422
 3740SOL     OW22678   1.172   1.978   9.303 -0.4911 -0.0090  0.1396
 3740SOL    HW122679   1.165   1.990   9.398  0.8453 -0.2527  0.2724
 3740SOL    HW222680   1.145   1.888   9.286  1.6153 -0.6906  0.3259
 3741SOL     OW22681   3.850   2.645  17.156 -0.2389  0.1569  0.2161
 3741SOL    HW122682   3.813   2.610  17.075  1.9541  0.0569 -0.7560
 3741SOL    HW222683   3.823   2.736  17.148  1.1434  0.5690  0.1817
 3742SOL     OW22684   1.699   1.845   4.207  0.1016 -0.0148 -0.0260
 3742SOL    HW122685   1.668   1.921   4.158 -0.2196  0.0359  0.2557
 3742SOL    HW222686   1.630   1.845   4.273 -1.2832 -0.8384 -1.4716
 3743SOL     OW22687   4.383   1.140   6.326 -0.7408 -0.4012  0.0746
 3743SOL    HW122688   4.350   1.167   6.411  2.0983  1.9139  0.4077
 3743SOL    HW222689   4.372   1.220   6.275 -0.1307 -0.5851 -0.3482
 3744SOL     OW22690   0.190   1.658   0.741 -0.3289 -0.3392 -0.0039
 3744SOL    HW122691   0.220   1.588   0.800  0.0421 -0.5881 -0.4930
 3744SOL    HW222692   0.191   1.610   0.658  0.2419 -1.7253  0.8051
 3745SOL     OW22693   1.729   1.547   5.229 -0.4025  0.4348 -0.1607
 3745SOL    HW122694   1.662   1.512   5.288 -0.4448  0.8003  0.0070
 3745SOL    HW222695   1.690   1.534   5.143  1.8599  1.8777 -1.3938
 3746SOL     OW22696   1.960   1.862   5.607  0.9305  0.1566 -0.3349
 3746SOL    HW122697   1.920   1.928   5.550 -2.1093 -0.7634  0.7300
 3746SOL    HW222698   1.982   1.915   5.683  0.1992 -0.7472  0.5072
 3747SOL     OW22699   0.710   3.155   7.511 -0.4049 -0.2284 -0.3905
 3747SOL    HW122700   0.756   3.078   7.477 -0.7431 -0.5305 -0.1657
 3747SOL    HW222701   0.783   3.209   7.540 -2.1552  0.1040  3.4058
 3748SOL     OW22702   0.772   4.194   4.767 -0.3912 -0.1178  0.4788
 3748SOL    HW122703   0.737   4.185   4.679 -0.9730 -0.7573  0.7778
 3748SOL    HW222704   0.757   4.109   4.808 -2.2598  0.5702  1.1880
 3749SOL     OW22705   2.249   0.805   5.082 -0.2052 -0.2079  0.1374
 3749SOL    HW122706   2.242   0.856   5.001 -0.4022  1.9510  1.5318
 3749SOL    HW222707   2.282   0.722   5.046  2.0572  0.0924  1.5166
 3750SOL     OW22708   3.128   0.835   7.465 -0.0105  0.5794  0.5671
 3750SOL    HW122709   3.081   0.910   7.499 -0.7294  0.2821  0.2168
 3750SOL    HW222710   3.186   0.804   7.535  0.3055 -1.6445 -0.6797
 3751SOL     OW22711   0.868   1.522   5.052 -0.4289 -0.8583 -0.2833
 3751SOL    HW122712   0.822   1.591   5.003  1.3147 -0.5395 -1.4555
 3751SOL    HW222713   0.793   1.469   5.080 -1.1933 -0.8466 -2.2774
 3752SOL     OW22714   2.491   4.227  17.124 -0.2712 -0.1292  0.4217
 3752SOL    HW122715   2.452   4.161  17.066  0.5574 -1.3194  1.2406
 3752SOL    HW222716   2.584   4.212  17.109 -0.2260 -0.0336  0.6039
 3753SOL     OW22717   2.375   1.200   0.437  0.5116 -0.3832  0.5765
 3753SOL    HW122718   2.366   1.109   0.411  0.7258  0.5193 -2.6885
 3753SOL    HW222719   2.440   1.198   0.506  0.3527  0.8001  0.7728
 3754SOL     OW22720   0.405   3.683   8.076  0.0277  0.3601  0.2212
 3754SOL    HW122721   0.342   3.746   8.111 -0.9356 -1.2551  1.3660
 3754SOL    HW222722   0.357   3.600   8.072 -0.4360  0.6724 -0.8375
 3755SOL     OW22723   3.447   4.513   4.391  0.5792  0.6377 -0.0306
 3755SOL    HW122724   3.535   4.510   4.352 -0.2779 -1.6548 -1.7659
 3755SOL    HW222725   3.434   4.429   4.435 -0.4890  0.1601 -1.2666
 3756SOL     OW22726   3.915   2.656  12.120 -0.0152 -0.2566  0.3944
 3756SOL    HW122727   4.010   2.660  12.130  0.3333 -0.5834 -2.9224
 3756SOL    HW222728   3.893   2.746  12.145  0.6222  0.4061 -1.4551
 3757SOL     OW22729   1.829   2.672  10.075  0.0698 -0.1316 -0.1729
 3757SOL    HW122730   1.902   2.718  10.033  0.6978  1.0818  2.2919
 3757SOL    HW222731   1.783   2.645   9.995 -2.9776  0.0539  1.5379
 3758SOL     OW22732   3.981   1.059   5.556  0.3866 -0.0132  0.1365
 3758SOL    HW122733   4.041   1.011   5.612  0.2438 -1.1750 -0.6990
 3758SOL    HW222734   4.005   1.151   5.569 -2.5468  0.5098  1.6676
 3759SOL     OW22735   2.912   0.281  15.408 -0.2139 -0.1276  0.2841
 3759SOL    HW122736   3.007   0.291  15.419 -0.3175  1.0831  0.0596
 3759SOL    HW222737   2.888   0.368  15.374  2.6482  0.6044  0.1355
 3760SOL     OW22738   3.949   4.001   3.985  0.1374 -0.2886 -0.4782
 3760SOL    HW122739   3.876   3.975   4.042 -0.9641  2.0178 -0.8460
 3760SOL    HW222740   3.924   3.936   3.920 -0.6134  0.1915 -0.6680
 3761SOL     OW22741   0.508   1.031  11.463  0.1883  0.6584 -0.0418
 3761SOL    HW122742   0.577   1.060  11.522  1.0008  0.5519 -0.9480
 3761SOL    HW222743   0.555   0.986  11.393 -1.6508  0.0726 -0.9203
 3762SOL     OW22744   4.628   1.534   3.788  0.4830 -0.0703 -0.0790
 3762SOL    HW122745   4.669   1.457   3.750 -0.1567 -0.7986  0.6961
 3762SOL    HW222746   4.618   1.502   3.878  2.8610  2.0147  0.9296
 3763SOL     OW22747   4.306   2.084   0.753  0.1612 -0.2349 -0.6977
 3763SOL    HW122748   4.272   2.139   0.682  0.3257  0.7716  0.0009
 3763SOL    HW222749   4.376   2.036   0.709  0.2977 -0.0985 -0.6311
 3764SOL     OW22750   1.211   4.679   6.378  0.4782 -0.1335  0.5630
 3764SOL    HW122751   1.222   4.651   6.287  1.2412  0.5442  0.4482
 3764SOL    HW222752   1.195   4.595   6.420 -2.4736  0.1233 -0.0508
 3765SOL     OW22753   0.286   2.272   7.588  0.3138  0.3453  0.0082
 3765SOL    HW122754   0.279   2.242   7.679  2.1895 -0.3958 -0.1013
 3765SOL    HW222755   0.323   2.200   7.537 -0.4137  0.7751 -1.1292
 3766SOL     OW22756   3.125   1.135   8.721 -0.3879 -0.0105 -0.3978
 3766SOL    HW122757   3.151   1.209   8.776 -1.9830 -0.0169  0.3945
 3766SOL    HW222758   3.205   1.126   8.670  1.6935  1.0116  2.6606
 3767SOL     OW22759   0.191   2.972  14.430  0.3531 -0.2420 -0.3484
 3767SOL    HW122760   0.177   2.902  14.366  1.4643 -1.4232  0.6915
 3767SOL    HW222761   0.106   2.984  14.472  1.0711 -1.0355  1.3208
 3768SOL     OW22762   1.991   3.778   8.857  0.4279  0.3559 -0.2794
 3768SOL    HW122763   1.943   3.831   8.792  1.3587  0.2078 -1.0903
 3768SOL    HW222764   1.917   3.730   8.895  0.6077 -0.2674 -0.7203
 3769SOL     OW22765   2.283   0.500   6.893  0.8623 -0.2023  0.3569
 3769SOL    HW122766   2.194   0.486   6.924  0.0354  1.1726 -1.3693
 3769SOL    HW222767   2.273   0.595   6.891 -0.8268 -0.3843  0.8221
 3770SOL     OW22768   0.211   2.320  14.072 -0.2670  0.0596 -0.1095
 3770SOL    HW122769   0.297   2.312  14.114 -0.3228  1.0392  0.1854
 3770SOL    HW222770   0.217   2.414  14.057 -2.9164  0.4087  0.9635
 3771SOL     OW22771   4.330   1.127   7.687  0.0295  0.1022 -0.3725
 3771SOL    HW122772   4.255   1.073   7.714 -0.6398  0.7358 -0.9712
 3771SOL    HW222773   4.388   1.063   7.646  0.1992 -0.9062  1.4377
 3772SOL     OW22774   3.978   4.292   7.294  0.0717 -0.1371  0.4726
 3772SOL    HW122775   4.031   4.231   7.243  0.2521 -0.6170  1.2315
 3772SOL    HW222776   4.044   4.334   7.349  0.3624 -0.4842  0.3815
 3773SOL     OW22777   4.468   0.587   1.611 -0.2333 -0.4298  0.2727
 3773SOL    HW122778   4.550   0.577   1.658 -0.6672 -0.9387  0.9331
 3773SOL    HW222779   4.492   0.564   1.521 -2.7806  0.4567 -0.6309
 3774SOL     OW22780   1.970   3.939   9.130  0.2050  0.8031 -1.0363
 3774SOL    HW122781   2.041   3.938   9.194  1.1560 -1.2364 -2.1415
 3774SOL    HW222782   1.994   3.870   9.069 -2.3110 -1.7773  0.9399
 3775SOL     OW22783   0.756   1.192   4.294  0.3892  0.0488 -0.1870
 3775SOL    HW122784   0.817   1.129   4.256  1.1763  0.5880  0.1892
 3775SOL    HW222785   0.668   1.161   4.270 -0.5992  0.7130  2.5942
 3776SOL     OW22786   4.668   0.260  16.674  0.9793 -0.1336 -0.1409
 3776SOL    HW122787   0.039   0.256  16.684  0.6523 -2.8874  2.0167
 3776SOL    HW222788   4.643   0.179  16.719  0.1540  1.5537  2.3971
 3777SOL     OW22789   0.937   0.624   2.388 -0.2580  0.3616  0.0232
 3777SOL    HW122790   0.876   0.698   2.384  3.3750  3.2468 -1.9611
 3777SOL    HW222791   0.916   0.572   2.311 -2.4151  1.1899  0.0497
 3778SOL     OW22792   2.285   0.577  15.911 -0.6549  0.5952  0.1485
 3778SOL    HW122793   2.233   0.543  15.984 -0.2746 -0.7704 -0.2156
 3778SOL    HW222794   2.364   0.523  15.907 -0.7293  0.5726 -0.8636
 3779SOL     OW22795   3.228   0.716  10.964  0.2823  0.0569 -0.1686
 3779SOL    HW122796   3.136   0.699  10.984  0.5419  0.1721  1.1563
 3779SOL    HW222797   3.282   0.675  11.032 -0.0012  3.4795  2.0871
 3780SOL     OW22798   1.497   4.455   9.219  0.0079 -0.2943  0.2297
 3780SOL    HW122799   1.565   4.517   9.245 -0.9537  0.5447  0.7195
 3780SOL    HW222800   1.442   4.432   9.294  1.1614 -0.2607  1.0906
 3781SOL     OW22801   3.705   0.252   5.920  0.2153 -0.1349  0.6523
 3781SOL    HW122802   3.668   0.249   6.008  0.8041 -1.4956  0.8503
 3781SOL    HW222803   3.800   0.253   5.936 -0.0411 -1.6480  2.2927
 3782SOL     OW22804   3.471   2.588   3.332 -0.3031  1.3613 -0.5278
 3782SOL    HW122805   3.469   2.594   3.237  0.9825 -1.1085 -0.6971
 3782SOL    HW222806   3.458   2.495   3.350  0.2635  1.2288 -0.8146
 3783SOL     OW22807   1.214   0.718   7.044  0.0824 -0.1534 -0.5718
 3783SOL    HW122808   1.213   0.627   7.013  1.0747  0.0708 -1.2687
 3783SOL    HW222809   1.238   0.700   7.135 -0.7562 -0.1882 -0.3548
 3784SOL     OW22810   0.171   0.951   4.665 -0.2703  0.0928 -0.3411
 3784SOL    HW122811   0.176   1.023   4.728  1.5878  0.6113 -1.0718
 3784SOL    HW222812   0.213   0.882   4.715 -1.3791  0.1487  0.6344
 3785SOL     OW22813   4.375   1.755   6.673 -0.0084 -0.5888  0.1989
 3785SOL    HW122814   4.319   1.805   6.613  0.8682  1.9694  1.4989
 3785SOL    HW222815   4.454   1.740   6.621  0.9690 -1.1741  1.8389
 3786SOL     OW22816   3.025   3.670   2.854 -0.0734  0.2108  0.1396
 3786SOL    HW122817   3.105   3.713   2.823  0.3910 -0.2856  0.6562
 3786SOL    HW222818   3.003   3.718   2.934  1.1529 -1.3927  1.4529
 3787SOL     OW22819   2.630   1.426   0.124 -0.6479  0.8736 -0.2521
 3787SOL    HW122820   2.624   1.456   0.033 -1.7266  0.1206 -0.4312
 3787SOL    HW222821   2.721   1.446   0.144 -1.0678  1.5305  0.9589
 3788SOL     OW22822   2.947   3.525   4.665 -0.1945 -0.3468  0.6496
 3788SOL    HW122823   2.902   3.578   4.730  1.0355  0.6827  0.6745
 3788SOL    HW222824   2.871   3.476   4.634 -0.9082  2.4114 -1.9466
 3789SOL     OW22825   4.576   3.720   1.876 -0.3621 -0.0226 -0.2776
 3789SOL    HW122826   4.584   3.710   1.781 -2.5714  0.6722 -0.5311
 3789SOL    HW222827   4.635   3.653   1.909  0.1135 -0.4553 -2.0487
 3790SOL     OW22828   3.436   3.289  13.284 -0.1403  0.2903 -0.3332
 3790SOL    HW122829   3.508   3.339  13.245 -0.5248  0.7570 -0.4371
 3790SOL    HW222830   3.420   3.221  13.218  0.6754  1.4075 -1.6949
 3791SOL     OW22831   3.418   1.153  13.396  0.4198 -0.4189 -0.6295
 3791SOL    HW122832   3.513   1.146  13.396  0.4906  0.5621  0.0228
 3791SOL    HW222833   3.404   1.247  13.387  2.4852 -0.0050  0.5522
 3792SOL     OW22834   4.618   1.498   2.628  0.0155 -0.1743  0.0049
 3792SOL    HW122835   4.612   1.517   2.534  0.7641  0.2916  0.0528
 3792SOL    HW222836   4.611   1.584   2.669  0.1035  0.3579 -1.1052
 3793SOL     OW22837   4.237   2.430   5.596  0.1574 -0.3887  0.4027
 3793SOL    HW122838   4.145   2.420   5.571  0.8070 -1.8068 -1.4173
 3793SOL    HW222839   4.245   2.515   5.639 -1.9713  0.6244 -1.1983
 3794SOL     OW22840   1.624   1.439   8.518  0.4004 -0.0254  0.4986
 3794SOL    HW122841   1.650   1.465   8.430 -0.9506 -0.6042 -0.0732
 3794SOL    HW222842   1.704   1.404   8.556  0.2905 -2.6223 -1.6367
 3795SOL     OW22843   1.720   1.877   3.595  0.7391  0.1533  0.2361
 3795SOL    HW122844   1.775   1.800   3.597 -2.1474 -1.9053  0.9443
 3795SOL    HW222845   1.631   1.842   3.585  0.9259 -0.6031  1.2452
 3796SOL     OW22846   3.839   2.522  13.665  0.3213 -0.0816 -0.3825
 3796SOL    HW122847   3.855   2.493  13.575 -0.2514  1.6878 -1.0516
 3796SOL    HW222848   3.919   2.486  13.704 -0.4994 -0.0835  1.3032
 3797SOL     OW22849   2.393   4.681  16.190 -0.3437  0.5959 -0.1129
 3797SOL    HW122850   2.395   4.692  16.095  0.4518 -1.8180 -0.3625
 3797SOL    HW222851   2.336   4.605  16.196  0.2199  0.1372 -0.5141
 3798SOL     OW22852   0.136   2.590   0.317 -0.2906  0.0015  0.2651
 3798SOL    HW122853   0.061   2.646   0.295 -0.8477 -1.2356 -1.0049
 3798SOL    HW222854   0.197   2.651   0.358 -0.8440  1.4248 -1.0002
 3799SOL     OW22855   3.672   2.324   7.417  0.5085 -0.1941 -0.0773
 3799SOL    HW122856   3.717   2.393   7.466 -0.9452  1.1857 -0.6857
 3799SOL    HW222857   3.584   2.318   7.454 -0.1405  2.4530 -1.2299
 3800SOL     OW22858   3.533   4.070   7.288  0.2617  0.4173 -0.2896
 3800SOL    HW122859   3.570   4.113   7.365  0.4303 -0.7777  0.3042
 3800SOL    HW222860   3.450   4.039   7.324  0.6391 -1.0710 -0.7113
 3801SOL     OW22861   2.602   4.147   1.005 -0.3083 -0.7960 -0.0673
 3801SOL    HW122862   2.526   4.153   0.947  1.9305 -1.7075 -3.1364
 3801SOL    HW222863   2.631   4.056   1.004  1.6042 -0.2020  0.8278
 3802SOL     OW22864   2.641   1.690   7.533  0.4908 -0.2729 -0.0864
 3802SOL    HW122865   2.634   1.745   7.455  3.4924 -0.4642 -0.4813
 3802SOL    HW222866   2.581   1.618   7.516 -0.7276  0.4013  1.3182
 3803SOL     OW22867   1.826   3.143   3.664 -0.3605  0.3986 -0.7763
 3803SOL    HW122868   1.812   3.053   3.632  1.3393  0.4447 -1.6285
 3803SOL    HW222869   1.762   3.196   3.616 -0.3271 -0.5224 -1.8326
 3804SOL     OW22870   3.866   1.298   3.377 -0.4170 -0.1666  0.4780
 3804SOL    HW122871   3.837   1.208   3.361  0.0892 -0.3310  0.4587
 3804SOL    HW222872   3.916   1.322   3.298 -0.7718  1.6873  0.8196
 3805SOL     OW22873   3.851   1.745  16.083 -0.0617  0.0700 -0.1176
 3805SOL    HW122874   3.911   1.797  16.029  0.4101 -0.9509 -0.5703
 3805SOL    HW222875   3.803   1.817  16.123  1.6352  0.4144  1.2876
 3806SOL     OW22876   3.952   3.678   4.759 -0.2481  0.9782 -0.0779
 3806SOL    HW122877   4.041   3.667   4.794  0.0449  0.3573 -1.0074
 3806SOL    HW222878   3.948   3.594   4.714 -2.1351 -0.4300  2.7307
 3807SOL     OW22879   1.533   1.146   1.531  0.2174  0.0969 -0.8621
 3807SOL    HW122880   1.607   1.089   1.553 -0.0028  1.2161  2.7429
 3807SOL    HW222881   1.469   1.090   1.576 -0.6821  2.4643  0.7688
 3808SOL     OW22882   3.985   2.828   0.186 -0.3544 -0.4192  0.2455
 3808SOL    HW122883   3.890   2.823   0.172 -0.4328 -0.8191  0.9076
 3808SOL    HW222884   3.981   2.913   0.231  1.2331 -0.0974 -0.2369
 3809SOL     OW22885   4.351   2.248   1.821 -0.2064  0.7494  0.6689
 3809SOL    HW122886   4.291   2.247   1.896  0.9402 -0.3169  1.5944
 3809SOL    HW222887   4.294   2.218   1.751  0.9041 -0.1420  0.1355
 3810SOL     OW22888   0.853   3.110  13.222  0.3197  0.0632 -0.0732
 3810SOL    HW122889   0.941   3.130  13.255 -0.2209 -1.1745  2.1457
 3810SOL    HW222890   0.824   3.053  13.293 -0.4462  1.9510  1.1361
 3811SOL     OW22891   4.470   3.000   7.842  0.0022  0.2487  0.0053
 3811SOL    HW122892   4.476   3.093   7.867 -1.0145 -0.5774  3.2811
 3811SOL    HW222893   4.560   2.969   7.848  0.2302  1.4461  2.9342
 3812SOL     OW22894   2.250   3.209  11.142 -0.3512 -0.0561  0.1499
 3812SOL    HW122895   2.336   3.224  11.105 -0.6710  0.8154 -0.2415
 3812SOL    HW222896   2.240   3.280  11.205  2.5897 -0.5148  1.0994
 3813SOL     OW22897   3.908   2.751   4.612 -0.4049 -0.5776  0.4511
 3813SOL    HW122898   3.933   2.693   4.540  1.1729  2.2837 -1.2967
 3813SOL    HW222899   3.967   2.719   4.680 -0.4228 -3.0731 -0.6902
 3814SOL     OW22900   3.774   4.430  13.000 -0.3419 -0.0153  0.1499
 3814SOL    HW122901   3.745   4.427  13.091 -3.3992  2.4011 -0.7225
 3814SOL    HW222902   3.758   4.520  12.971 -3.2201 -0.9725 -1.2370
 3815SOL     OW22903   1.480   3.695  11.333  0.4682  0.2695  0.2673
 3815SOL    HW122904   1.509   3.690  11.241 -0.5563 -5.0272  0.1958
 3815SOL    HW222905   1.445   3.784  11.328 -2.0647 -0.8068 -1.8046
 3816SOL     OW22906   2.192   3.039  14.617 -0.1020 -0.2820 -0.4409
 3816SOL    HW122907   2.119   3.101  14.622  0.4529  0.1472  2.2526
 3816SOL    HW222908   2.224   3.030  14.707  0.3076 -1.1628 -0.6711
 3817SOL     OW22909   4.465   1.680   8.654  0.0122 -0.3877 -0.2061
 3817SOL    HW122910   4.517   1.757   8.679 -2.1452  0.6230  1.1638
 3817SOL    HW222911   4.400   1.680   8.724  1.1017 -0.0002  0.8171
 3818SOL     OW22912   3.140   2.059   7.421 -0.1538  0.9983 -0.1323
 3818SOL    HW122913   3.218   2.028   7.467 -0.4927 -0.1985 -0.3662
 3818SOL    HW222914   3.162   2.148   7.394  1.5232  1.1608  1.7895
 3819SOL     OW22915   1.341   1.850   2.431 -0.5306  0.1405 -0.0972
 3819SOL    HW122916   1.364   1.942   2.441  0.2091 -0.3324  2.5911
 3819SOL    HW222917   1.386   1.824   2.511  1.7840 -0.0800 -1.4653
 3820SOL     OW22918   3.579   4.399   5.878 -0.1899 -0.2978  0.3434
 3820SOL    HW122919   3.524   4.360   5.946 -1.1423 -2.2089 -1.5287
 3820SOL    HW222920   3.632   4.450   5.940  0.8153 -1.6492  0.6110
 3821SOL     OW22921   1.821   0.118  17.239 -0.3248  0.3222 -0.2703
 3821SOL    HW122922   1.900   0.084  17.196 -0.6026  0.5409 -0.9451
 3821SOL    HW222923   1.769   0.152  17.167  1.3376  2.3170 -0.5464
 3822SOL     OW22924   2.093   2.589   3.814 -0.2237 -0.4073  0.2728
 3822SOL    HW122925   2.002   2.588   3.844  0.6112  0.6813  2.8300
 3822SOL    HW222926   2.117   2.678   3.841 -0.5584 -0.0825 -0.5135
 3823SOL     OW22927   3.490   1.280   7.131 -0.0620  0.2511 -0.0904
 3823SOL    HW122928   3.427   1.262   7.061 -0.8503  1.8345  0.2152
 3823SOL    HW222929   3.488   1.196   7.177  1.8570 -0.4721 -1.3202
 3824SOL     OW22930   2.462   2.203   6.308  0.1941 -0.3352 -0.1431
 3824SOL    HW122931   2.474   2.174   6.398 -0.0417  1.7207  0.5466
 3824SOL    HW222932   2.439   2.295   6.319  0.2845 -0.5831  2.0696
 3825SOL     OW22933   3.988   4.574   2.865 -0.0232  0.3253 -0.0300
 3825SOL    HW122934   4.067   4.594   2.815 -2.2143 -0.1811 -3.6765
 3825SOL    HW222935   3.953   4.660   2.888 -0.4764  0.1093  0.0957
 3826SOL     OW22936   3.605   2.220  15.986 -0.8438  0.0700  0.0639
 3826SOL    HW122937   3.570   2.308  15.969 -2.6627 -0.5102  0.8271
 3826SOL    HW222938   3.588   2.181  15.901 -0.4724 -0.2438  0.1321
 3827SOL     OW22939   0.017   1.772   6.787  0.1514  0.1945  1.0056
 3827SOL    HW122940   0.087   1.797   6.847  0.5934  0.0069  0.5573
 3827SOL    HW222941   4.680   1.721   6.840 -1.2006  0.9907  0.2106
 3828SOL     OW22942   0.650   3.020   3.781 -0.7359 -0.2319  0.2476
 3828SOL    HW122943   0.579   3.030   3.845 -0.0297  0.1318  0.9745
 3828SOL    HW222944   0.659   3.110   3.749  2.6997 -1.0608 -1.0675
 3829SOL     OW22945   1.637   0.125   3.316 -0.4308 -0.1610 -0.3693
 3829SOL    HW122946   1.600   0.056   3.372  2.1588 -0.1128  1.3792
 3829SOL    HW222947   1.591   0.103   3.235 -1.2281  0.0062  0.0361
 3830SOL     OW22948   1.864   1.009   5.656  0.0236  0.3261  0.0071
 3830SOL    HW122949   1.904   1.015   5.743  0.3855  1.1856 -0.2145
 3830SOL    HW222950   1.942   1.033   5.605  0.6631  0.0672  0.8658
 3831SOL     OW22951   2.757   2.265  11.107 -0.3508  0.0709  0.1307
 3831SOL    HW122952   2.838   2.306  11.136 -0.5399  1.2224 -0.9600
 3831SOL    HW222953   2.743   2.289  11.015  0.8874 -0.7180 -0.2702
 3832SOL     OW22954   1.258   2.261  10.305  0.4798 -0.4402  0.1904
 3832SOL    HW122955   1.245   2.173  10.268 -0.4729  0.0925 -0.7442
 3832SOL    HW222956   1.352   2.272  10.297  0.1902  0.1204 -2.6553
 3833SOL     OW22957   3.469   1.730   4.931  0.5048  0.3614 -0.0320
 3833SOL    HW122958   3.418   1.777   4.997  0.3422 -1.3491  1.0544
 3833SOL    HW222959   3.513   1.796   4.878  0.8620  0.7604  0.7571
 3834SOL     OW22960   0.911   1.933   0.216 -0.5989  0.5154  0.1550
 3834SOL    HW122961   0.823   1.969   0.232 -0.2829  0.5304  1.8315
 3834SOL    HW222962   0.905   1.838   0.208  2.4785  0.1558  2.3438
 3835SOL     OW22963   2.324   1.157   6.269  0.3090 -0.0734 -0.6045
 3835SOL    HW122964   2.406   1.204   6.255  0.4342  0.1900  0.9891
 3835SOL    HW222965   2.268   1.219   6.222 -1.6510  0.1133  1.9656
 3836SOL     OW22966   3.308   1.328  10.448  0.3733  0.4101  0.0931
 3836SOL    HW122967   3.258   1.257  10.489 -1.6061  0.8361 -1.5583
 3836SOL    HW222968   3.370   1.356  10.514 -1.2066  1.0161  1.3163
 3837SOL     OW22969   4.051   3.652   5.246 -0.1603 -0.6371  0.0860
 3837SOL    HW122970   4.018   3.742   5.252  2.0149  0.1209  0.6535
 3837SOL    HW222971   4.133   3.670   5.293 -0.0640 -1.1139  0.0918
 3838SOL     OW22972   3.162   2.322   7.597  0.1451 -0.0858 -0.7883
 3838SOL    HW122973   3.241   2.319   7.651 -0.7132 -1.1025  0.4031
 3838SOL    HW222974   3.098   2.322   7.668 -0.7398  2.1634 -1.5786
 3839SOL     OW22975   4.145   3.419   0.389 -0.5627  0.3803  0.0792
 3839SOL    HW122976   4.188   3.488   0.439 -0.6149  1.1729 -0.9874
 3839SOL    HW222977   4.073   3.395   0.447  0.3650 -0.7987  0.7597
 3840SOL     OW22978   0.238   0.054  16.335 -0.7784  0.1040  0.3467
 3840SOL    HW122979   0.151   0.016  16.323 -0.8399  0.7822 -1.3738
 3840SOL    HW222980   0.225   0.140  16.296 -0.3500  0.0772  0.1463
 3841SOL     OW22981   1.115   3.181   3.360 -0.0793  0.6742 -0.1212
 3841SOL    HW122982   1.091   3.241   3.431 -2.5891  1.0475 -1.2888
 3841SOL    HW222983   1.118   3.226   3.276  0.1036  1.3503  0.2475
 3842SOL     OW22984   0.229   4.577   4.432  0.1878  0.1837 -0.3336
 3842SOL    HW122985   0.292   4.517   4.392  2.2422 -1.0972  4.7366
 3842SOL    HW222986   0.145   4.543   4.402  0.2948  0.7191 -1.2181
 3843SOL     OW22987   3.956   1.333   9.096  0.0252  0.2615 -0.3187
 3843SOL    HW122988   3.909   1.314   9.177 -0.3995  2.1788 -0.1354
 3843SOL    HW222989   4.043   1.299   9.117 -0.7164  0.3464  2.8794
 3844SOL     OW22990   2.097   1.265   6.171 -0.1926 -0.0234  0.4578
 3844SOL    HW122991   2.066   1.343   6.216 -1.8877 -0.4135 -0.0319
 3844SOL    HW222992   2.050   1.197   6.219 -1.5110  0.4590 -0.1532
 3845SOL     OW22993   0.478   1.936   5.542  0.7211  0.3082 -0.0653
 3845SOL    HW122994   0.393   1.972   5.566  0.6205 -0.1644  0.2829
 3845SOL    HW222995   0.438   1.869   5.485 -0.1160  0.9723 -0.2668
 3846SOL     OW22996   1.755   0.981   1.563  0.2359  0.1782  0.3914
 3846SOL    HW122997   1.795   1.063   1.531 -0.0089  0.0449 -0.2612
 3846SOL    HW222998   1.828   0.934   1.602  1.2035  1.6828  0.4032
 3847SOL     OW22999   2.102   0.222   3.797  0.0729  0.0798 -0.2773
 3847SOL    HW123000   2.182   0.197   3.751 -0.2252 -2.3659  0.5446
 3847SOL    HW223001   2.061   0.138   3.778  1.1444 -0.0957 -1.8094
 3848SOL     OW23002   0.996   2.814   6.858 -0.4066 -0.0629 -0.1637
 3848SOL    HW123003   0.923   2.779   6.808 -1.4877  0.1590  1.2709
 3848SOL    HW223004   1.065   2.747   6.851 -0.8246 -0.2216 -2.5883
 3849SOL     OW23005   2.491   2.917   4.153  0.2082 -0.0617 -0.3516
 3849SOL    HW123006   2.413   2.957   4.116  0.8663  1.6894  0.1365
 3849SOL    HW223007   2.457   2.842   4.202 -1.8284  0.6306 -0.7016
 3850SOL     OW23008   3.084   2.830   6.968  0.4363  0.0293  0.0946
 3850SOL    HW123009   3.168   2.876   6.957 -1.0437  2.5756 -0.4188
 3850SOL    HW223010   3.056   2.875   7.047  1.4874  0.3307  0.3031
 3851SOL     OW23011   0.929   1.307   2.833  0.1806 -0.0914  0.1567
 3851SOL    HW123012   0.952   1.384   2.781  2.1593 -0.4343  0.5028
 3851SOL    HW223013   0.971   1.330   2.915  1.7698  0.1803 -0.7176
 3852SOL     OW23014   1.580   1.476   6.598  0.5119 -0.1065 -0.4612
 3852SOL    HW123015   1.522   1.551   6.611 -0.5487 -0.3969 -3.4587
 3852SOL    HW223016   1.659   1.504   6.645 -1.3013 -1.5640  3.4270
 3853SOL     OW23017   2.884   0.953   0.152 -0.3586  0.0233  0.4914
 3853SOL    HW123018   2.824   0.988   0.087 -1.2199  0.7017  1.6481
 3853SOL    HW223019   2.926   1.028   0.194 -0.0847  0.6387 -0.9159
 3854SOL     OW23020   1.898   4.102   2.581 -0.3034 -0.0306  0.0718
 3854SOL    HW123021   1.894   4.183   2.531 -1.2202 -0.2545 -0.2272
 3854SOL    HW223022   1.812   4.092   2.624  0.2888 -1.8422  0.8287
 3855SOL     OW23023   1.636   3.575   6.697  0.3710 -0.4655  0.2072
 3855SOL    HW123024   1.710   3.548   6.752 -0.2878 -0.7234  0.9544
 3855SOL    HW223025   1.664   3.563   6.606  0.4463 -1.3759  0.3530
 3856SOL     OW23026   0.894   3.541   2.194 -0.0542 -0.2868  0.1774
 3856SOL    HW123027   0.869   3.633   2.185  1.9143  0.2988  0.7010
 3856SOL    HW223028   0.866   3.504   2.111 -1.5838  1.5028 -0.1030
 3857SOL     OW23029   1.543   2.058  12.920  0.1819  0.0043  0.1242
 3857SOL    HW123030   1.482   1.987  12.902 -0.4028  0.6177 -0.3137
 3857SOL    HW223031   1.510   2.124  12.859  0.0352 -0.4817 -0.3132
 3858SOL     OW23032   4.486   0.020   6.874 -0.7171 -0.2082  0.3425
 3858SOL    HW123033   4.440   4.671   6.914 -0.3433 -0.3600  0.4905
 3858SOL    HW223034   4.521   4.708   6.793  0.4895  2.0884 -0.1857
 3859SOL     OW23035   0.448   0.616   2.642  0.3440  0.7429  0.3171
 3859SOL    HW123036   0.450   0.540   2.583 -1.9502 -1.6359  3.3034
 3859SOL    HW223037   0.359   0.648   2.623  1.1158  2.3562 -0.5777
 3860SOL     OW23038   2.569   3.191   6.697 -0.4433 -0.8080 -0.0782
 3860SOL    HW123039   2.642   3.218   6.752 -0.2580 -0.0282 -0.7064
 3860SOL    HW223040   2.595   3.221   6.610 -1.8070 -1.1131 -0.5895
 3861SOL     OW23041   3.535   3.802   3.810 -0.0244 -0.4651  0.0890
 3861SOL    HW123042   3.487   3.726   3.844 -1.2722  0.2279 -0.1290
 3861SOL    HW223043   3.539   3.862   3.884 -0.5682 -0.3706  0.0420
 3862SOL     OW23044   4.502   4.057   0.683 -0.9360 -0.5221  0.9034
 3862SOL    HW123045   4.529   4.140   0.724  1.9838 -0.0757 -1.9127
 3862SOL    HW223046   4.536   4.063   0.594 -2.2288 -1.5230  0.3427
 3863SOL     OW23047   2.595   3.055   3.577  0.3759 -0.3524  0.0410
 3863SOL    HW123048   2.669   3.092   3.625  1.3145 -1.2903 -0.6892
 3863SOL    HW223049   2.554   3.138   3.553  2.0421  0.5452  0.3299
 3864SOL     OW23050   2.851   0.087  15.768  0.1910  0.4310  0.6025
 3864SOL    HW123051   2.925   0.148  15.766  1.0530 -0.5554  2.7047
 3864SOL    HW223052   2.833   0.074  15.675  1.3848  0.6625  0.3356
 3865SOL     OW23053   4.649   2.447  13.842  0.0243  0.0015  0.4998
 3865SOL    HW123054   0.006   2.404  13.817 -0.7818 -1.0489 -0.2642
 3865SOL    HW223055   4.581   2.382  13.827 -0.0866  0.3044 -0.3213
 3866SOL     OW23056   3.023   1.822   2.214 -0.0942 -0.1561  0.0775
 3866SOL    HW123057   3.023   1.772   2.132 -0.9751  0.4341 -0.2817
 3866SOL    HW223058   2.964   1.757   2.252 -0.6317  1.1870  1.5604
 3867SOL     OW23059   1.336   4.259   6.603  0.0191  0.5704 -0.5130
 3867SOL    HW123060   1.267   4.201   6.635 -2.0688  2.5626 -1.4007
 3867SOL    HW223061   1.411   4.200   6.609 -2.4327 -2.5522 -0.5753
 3868SOL     OW23062   4.200   1.911   3.732 -0.2127 -0.3933 -0.2719
 3868SOL    HW123063   4.227   2.001   3.751 -1.0755 -0.8615  3.0920
 3868SOL    HW223064   4.284   1.880   3.700  0.8939  1.7968  0.5518
 3869SOL     OW23065   3.041   3.389  16.627  0.9302 -0.2578  0.3527
 3869SOL    HW123066   3.051   3.471  16.580  0.4117  0.2635  1.1679
 3869SOL    HW223067   3.055   3.326  16.556  1.6516 -0.6320  0.8231
 3870SOL     OW23068   2.482   4.112   5.257  0.0035 -0.1525  0.6099
 3870SOL    HW123069   2.403   4.167   5.250 -0.9968 -1.4588  1.5671
 3870SOL    HW223070   2.450   4.039   5.311 -0.2945  0.9799  1.9595
 3871SOL     OW23071   3.115   2.141   2.016  0.6699  0.3542  0.1213
 3871SOL    HW123072   3.062   2.139   1.936 -0.2060 -0.2051  0.7100
 3871SOL    HW223073   3.123   2.236   2.025 -2.8873  0.5872  0.7841
 3872SOL     OW23074   0.716   1.981   9.041  0.3747 -0.2209  0.1294
 3872SOL    HW123075   0.632   2.027   9.045  1.6424  2.0341  0.6382
 3872SOL    HW223076   0.767   2.062   9.043  0.0350  0.0065 -0.4533
 3873SOL     OW23077   3.634   2.083  17.260 -0.4421 -0.5078  0.2907
 3873SOL    HW123078   3.622   2.034  17.341 -1.0818 -0.1743  0.3952
 3873SOL    HW223079   3.552   2.131  17.260 -1.2712 -1.9371  0.0986
 3874SOL     OW23080   2.337   2.819   2.886 -0.3058  0.9905  0.2476
 3874SOL    HW123081   2.242   2.807   2.891  0.0280 -2.1285 -0.5672
 3874SOL    HW223082   2.337   2.863   2.971  0.7514 -2.2162  1.9041
 3875SOL     OW23083   0.746   1.806  16.547  0.6818  1.0141 -0.0153
 3875SOL    HW123084   0.762   1.843  16.634 -2.9098 -0.7056  1.3795
 3875SOL    HW223085   0.662   1.852  16.535  0.2598  0.3891  0.5877
 3876SOL     OW23086   3.133   0.728   4.770 -0.0986 -0.3144 -0.4682
 3876SOL    HW123087   3.173   0.673   4.837  0.0088  1.4633  0.9022
 3876SOL    HW223088   3.060   0.769   4.814  0.3221 -0.1375  0.0605
 3877SOL     OW23089   2.573   1.856   5.256  0.2675 -0.0681  0.0781
 3877SOL    HW123090   2.562   1.944   5.294  0.8543 -0.4283  1.0802
 3877SOL    HW223091   2.625   1.879   5.179  0.4896  0.1229  0.2857
 3878SOL     OW23092   4.050   2.735   8.660 -0.1905  0.2705 -0.2748
 3878SOL    HW123093   4.061   2.801   8.729  1.6750 -1.0062  0.6516
 3878SOL    HW223094   3.956   2.725   8.643  0.3020 -2.0685 -1.6317
 3879SOL     OW23095   2.148   3.659   2.740 -0.3167 -0.0695 -0.0291
 3879SOL    HW123096   2.228   3.644   2.688  0.0286 -0.6747  0.6763
 3879SOL    HW223097   2.086   3.695   2.677 -1.5673 -1.7460  0.2390
 3880SOL     OW23098   4.478   4.541   5.327  0.5535 -0.5518  0.3519
 3880SOL    HW123099   4.556   4.562   5.274 -0.9974  1.5575 -1.1523
 3880SOL    HW223100   4.427   4.622   5.319  1.4856  0.0001  0.0157
 3881SOL     OW23101   2.532   4.034   4.542 -0.0202 -0.4348  0.1282
 3881SOL    HW123102   2.476   4.111   4.554 -0.2376 -0.9960  2.7216
 3881SOL    HW223103   2.559   4.017   4.632  1.1026 -0.5221 -0.2122
 3882SOL     OW23104   3.113   3.416   3.316 -0.0452 -0.3770  0.3698
 3882SOL    HW123105   3.152   3.332   3.339 -0.0199 -0.2216  0.8928
 3882SOL    HW223106   3.116   3.470   3.395  0.8467  0.1660 -0.0358
 3883SOL     OW23107   4.717   2.964   6.072 -0.0558 -0.4038  0.1771
 3883SOL    HW123108   4.710   3.054   6.040  1.7198 -0.2624  0.1703
 3883SOL    HW223109   4.696   2.975   6.164 -1.4289 -0.3071 -0.1508
 3884SOL     OW23110   3.309   2.575   6.782  0.0691 -0.4056  0.0978
 3884SOL    HW123111   3.342   2.618   6.861 -0.5634  0.4267 -0.0977
 3884SOL    HW223112   3.379   2.593   6.718  1.1868  0.8151  1.6629
 3885SOL     OW23113   4.499   0.385   9.404  0.1384  0.0741 -0.0853
 3885SOL    HW123114   4.424   0.445   9.399  0.5186  0.5744  0.3752
 3885SOL    HW223115   4.492   0.343   9.489 -0.3131  0.5417  0.1108
 3886SOL     OW23116   1.955   4.214  12.083 -0.0626 -0.4999 -0.0862
 3886SOL    HW123117   1.986   4.302  12.062 -0.0257 -0.0119  2.1019
 3886SOL    HW223118   1.998   4.184  12.163 -1.8055 -0.9196  0.6849
 3887SOL     OW23119   4.541   0.526   1.139 -0.3798  0.7451  0.1065
 3887SOL    HW123120   4.445   0.530   1.130 -0.4124 -0.6747 -0.1759
 3887SOL    HW223121   4.564   0.497   1.226  1.3936  2.3302  0.1617
 3888SOL     OW23122   0.563   3.795   5.833 -0.3522 -0.5934 -0.3177
 3888SOL    HW123123   0.525   3.707   5.836  3.8183 -2.3745  0.5175
 3888SOL    HW223124   0.483   3.837   5.865 -1.2662 -2.3768 -0.2203
 3889SOL     OW23125   4.549   4.282   4.994  0.0905 -0.0459  0.1400
 3889SOL    HW123126   4.643   4.268   4.984  0.1126  0.6852 -0.7653
 3889SOL    HW223127   4.521   4.264   4.905 -2.7476 -0.3029  1.0968
 3890SOL     OW23128   1.450   1.540   4.637  0.3778 -0.1168 -0.7400
 3890SOL    HW123129   1.499   1.588   4.704 -0.6608  0.9181 -0.7165
 3890SOL    HW223130   1.450   1.452   4.675  1.6026 -0.5433 -1.7359
 3891SOL     OW23131   1.181   4.676   6.748 -0.4526 -0.6644 -0.0388
 3891SOL    HW123132   1.121   4.718   6.810  0.5406  0.7229 -0.0329
 3891SOL    HW223133   1.166   4.722   6.665 -0.3856 -1.5239 -0.5238
 3892SOL     OW23134   3.836   4.209  10.975  0.4093  0.2552  0.7022
 3892SOL    HW123135   3.743   4.198  10.995  0.1212  2.4074  0.5908
 3892SOL    HW223136   3.859   4.121  10.946  0.7668  0.3723  0.6266
 3893SOL     OW23137   3.349   3.641  11.119  0.6472  0.7804 -0.2451
 3893SOL    HW123138   3.344   3.662  11.026 -2.2560 -2.9280 -0.9115
 3893SOL    HW223139   3.378   3.550  11.117  0.0386  0.6452 -2.6162
 3894SOL     OW23140   1.152   1.509   3.294  0.3498 -0.2433 -0.8678
 3894SOL    HW123141   1.194   1.425   3.313  1.7045  0.7377  0.5539
 3894SOL    HW223142   1.119   1.540   3.378 -0.9089 -0.4149 -1.3038
 3895SOL     OW23143   0.995   4.591   2.470 -0.3473  0.3785  0.6810
 3895SOL    HW123144   1.010   4.681   2.440  0.7548 -0.1026 -0.2165
 3895SOL    HW223145   1.078   4.584   2.517  0.7573  2.1734 -0.9859
 3896SOL     OW23146   3.315   4.027   8.933  0.7189 -0.4906 -0.1220
 3896SOL    HW123147   3.277   4.000   8.849 -1.1366 -2.7586  1.4255
 3896SOL    HW223148   3.405   4.048   8.911  0.8295 -0.4734  0.3413
 3897SOL     OW23149   0.802   3.056  15.689 -0.3807  0.6292 -0.8055
 3897SOL    HW123150   0.803   3.127  15.624  0.8795  0.2952 -1.1642
 3897SOL    HW223151   0.710   3.037  15.675 -0.8204  1.7684  0.5711
 3898SOL     OW23152   0.687   1.070   5.849 -0.4535 -0.4755 -0.6014
 3898SOL    HW123153   0.634   0.994   5.869 -0.8543 -0.1777 -0.5410
 3898SOL    HW223154   0.630   1.140   5.881  0.7885  0.9250 -1.3830
 3899SOL     OW23155   1.458   0.599   5.193  0.2528 -0.1852 -0.1963
 3899SOL    HW123156   1.500   0.671   5.239  1.0076 -1.3425  0.8986
 3899SOL    HW223157   1.503   0.525   5.233 -1.8341 -1.5006 -0.2356
 3900SOL     OW23158   4.469   4.247   3.491 -0.1125 -0.1409  0.1944
 3900SOL    HW123159   4.395   4.186   3.494 -0.0247 -0.4403 -3.2311
 3900SOL    HW223160   4.428   4.328   3.522 -1.0952 -1.5703  2.6561
 3901SOL     OW23161   2.056   1.874  12.547 -0.1999  0.0829  0.3053
 3901SOL    HW123162   2.114   1.895  12.620  1.1107 -1.2520 -0.3671
 3901SOL    HW223163   1.980   1.930  12.565 -1.2864 -0.6163 -2.0499
 3902SOL     OW23164   3.041   2.981   6.382  0.5547 -0.1089  0.8053
 3902SOL    HW123165   3.104   2.909   6.386 -0.7617 -1.2144  1.6166
 3902SOL    HW223166   2.980   2.941   6.320 -0.6648  1.4103  1.0094
 3903SOL     OW23167   2.670   4.329   6.275 -0.2862  0.2502  0.0184
 3903SOL    HW123168   2.635   4.412   6.241 -1.3170 -0.1489  0.1378
 3903SOL    HW223169   2.607   4.264   6.244  0.1564  1.0750 -2.6292
 3904SOL     OW23170   3.710   2.271   5.199 -0.7687 -0.1251 -0.0545
 3904SOL    HW123171   3.723   2.354   5.245  2.3184 -2.4160  3.2169
 3904SOL    HW223172   3.675   2.282   5.111  1.8615 -1.5276 -1.2721
 3905SOL     OW23173   2.008   0.440   4.153  0.0479 -0.1086 -0.3910
 3905SOL    HW123174   2.072   0.414   4.219  0.2850 -2.7139 -1.6600
 3905SOL    HW223175   2.010   0.535   4.167  1.5065 -0.0717 -0.8317
 3906SOL     OW23176   1.697   2.010   9.338 -0.0331  0.6563 -0.0655
 3906SOL    HW123177   1.680   2.088   9.285 -2.7370  0.2851  0.2243
 3906SOL    HW223178   1.604   1.999   9.358 -0.3039  0.0142 -1.7178
 3907SOL     OW23179   1.365   4.398   9.462  0.2434  0.2727  0.3694
 3907SOL    HW123180   1.380   4.419   9.554 -0.3747  1.3979  0.2216
 3907SOL    HW223181   1.270   4.409   9.458  0.1838 -0.5536 -0.6011
 3908SOL     OW23182   1.290   2.509   8.370 -0.4208 -0.2759 -0.2482
 3908SOL    HW123183   1.217   2.554   8.413  0.2577 -0.8942  1.5774
 3908SOL    HW223184   1.250   2.423   8.370  1.6254 -1.2455  1.0642
 3909SOL     OW23185   1.958   2.713   6.776  0.1705 -0.4394 -0.3384
 3909SOL    HW123186   1.918   2.630   6.800 -0.5263  0.6271  2.2176
 3909SOL    HW223187   1.995   2.744   6.859  1.4213 -0.9018 -0.7375
 3910SOL     OW23188   1.934   1.759   1.022 -0.2712  0.0572 -0.0576
 3910SOL    HW123189   1.866   1.777   0.957  3.0232 -1.2559 -3.8327
 3910SOL    HW223190   1.984   1.691   0.978 -0.1434 -1.0876  1.8561
 3911SOL     OW23191   2.625   0.401   4.984  0.0547  0.0696  0.4181
 3911SOL    HW123192   2.573   0.469   4.940  0.9023 -0.3694 -1.2338
 3911SOL    HW223193   2.704   0.393   4.932  1.0268  0.3489  1.8335
 3912SOL     OW23194   1.285   0.816  10.590  0.1054 -0.6167 -0.0665
 3912SOL    HW123195   1.191   0.797  10.595  0.0437 -0.1491  0.5522
 3912SOL    HW223196   1.290   0.901  10.633  1.5842 -0.3648 -0.7476
 3913SOL     OW23197   2.767   0.592   2.736  0.5737  0.0751  0.0240
 3913SOL    HW123198   2.774   0.670   2.681 -0.2010 -0.1717 -0.4205
 3913SOL    HW223199   2.710   0.618   2.808 -0.2666  1.4079 -1.1193
 3914SOL     OW23200   0.620   1.103  10.788 -0.2774 -0.4014 -0.6881
 3914SOL    HW123201   0.624   1.103  10.693  1.9477  1.0439 -0.5866
 3914SOL    HW223202   0.654   1.016  10.810 -1.0656  0.3646  3.6434
 3915SOL     OW23203   1.451   1.939   1.668  0.2647  0.0517  0.5927
 3915SOL    HW123204   1.477   1.879   1.599 -2.1612  1.0788 -1.2260
 3915SOL    HW223205   1.357   1.926   1.682  0.1980  2.7628  2.6807
 3916SOL     OW23206   2.887   4.488  17.260  0.0029  0.1829 -0.1155
 3916SOL    HW123207   2.855   4.496  17.170  0.0581  1.3762 -0.0272
 3916SOL    HW223208   2.852   4.571  17.292 -0.2227  0.1056 -0.1647
 3917SOL     OW23209   3.432   1.944   6.373 -0.1497 -0.0204  0.3571
 3917SOL    HW123210   3.446   1.988   6.457  1.4027  1.0339 -0.4553
 3917SOL    HW223211   3.440   2.019   6.315  0.7967 -0.2189  0.2297
 3918SOL     OW23212   2.082   2.071   4.903  0.1611  0.3994 -0.7406
 3918SOL    HW123213   2.121   2.146   4.947 -1.5194  1.2658 -0.7408
 3918SOL    HW223214   1.998   2.064   4.949  0.2677  0.3192 -0.5607
 3919SOL     OW23215   2.174   2.544  12.064  0.2211 -0.7745 -0.2786
 3919SOL    HW123216   2.170   2.603  12.140 -0.9841  0.4868 -1.3079
 3919SOL    HW223217   2.150   2.459  12.101 -0.5557 -0.7636 -0.7530
 3920SOL     OW23218   3.214   1.452   7.568  0.5012 -0.3003  0.2071
 3920SOL    HW123219   3.179   1.384   7.626 -1.1639  0.9676  0.6802
 3920SOL    HW223220   3.285   1.410   7.519  1.0127  0.7199  0.0762
 3921SOL     OW23221   2.423   0.601   1.260 -0.2401  0.6716  0.3802
 3921SOL    HW123222   2.471   0.643   1.189 -3.2363  1.5591 -1.0958
 3921SOL    HW223223   2.460   0.512   1.257  2.2968  1.7607 -0.6630
 3922SOL     OW23224   0.222   2.485  16.676  0.0274  0.2058 -0.6220
 3922SOL    HW123225   0.244   2.513  16.587  0.0492  0.2927 -0.5894
 3922SOL    HW223226   0.289   2.416  16.681 -1.4116 -1.2055 -0.7326
 3923SOL     OW23227   1.159   4.100   5.301 -0.4821  0.3297 -0.4862
 3923SOL    HW123228   1.078   4.151   5.303 -0.4596  0.4174 -1.4721
 3923SOL    HW223229   1.220   4.161   5.259 -2.1786  3.0170  0.9738
 3924SOL     OW23230   2.877   4.407   2.937 -0.5129 -0.1977  0.0183
 3924SOL    HW123231   2.876   4.405   3.033  3.8911  0.9181  0.0901
 3924SOL    HW223232   2.948   4.467   2.911 -0.6094  0.0798  0.3997
 3925SOL     OW23233   0.462   2.951   5.971 -0.1954  0.5764  0.3754
 3925SOL    HW123234   0.386   2.988   5.926  0.1617 -1.5064 -1.9031
 3925SOL    HW223235   0.509   2.914   5.897  0.4057  1.3739  0.3683
 3926SOL     OW23236   4.177   0.308   2.862  0.1286 -0.5908 -0.5957
 3926SOL    HW123237   4.092   0.308   2.817  0.0580  1.1170 -0.4751
 3926SOL    HW223238   4.205   0.224   2.827  2.0772 -0.2305  0.1071
 3927SOL     OW23239   2.759   3.718   2.718  0.0708  0.0891  0.0504
 3927SOL    HW123240   2.733   3.680   2.802 -3.2023  0.4252 -0.7734
 3927SOL    HW223241   2.831   3.774   2.745 -1.1017  1.8789 -0.4969
 3928SOL     OW23242   1.995   0.501  17.500 -0.1210  0.3414 -0.2734
 3928SOL    HW123243   1.922   0.554  17.468 -0.2519 -0.5554 -1.4527
 3928SOL    HW223244   1.957   0.413  17.504 -2.0970  1.1307 -1.8273
 3929SOL     OW23245   4.653   1.323  12.473 -0.2621 -0.4456  0.7246
 3929SOL    HW123246   4.647   1.320  12.378 -0.7512  1.6619  0.6780
 3929SOL    HW223247   4.637   1.230  12.491  2.1593 -0.8433  0.7082
 3930SOL     OW23248   0.749   4.235   2.160 -0.1756 -0.2564 -0.1460
 3930SOL    HW123249   0.686   4.279   2.103  0.6473  0.7331 -0.3024
 3930SOL    HW223250   0.828   4.225   2.107  0.0483 -0.1426  0.1660
 3931SOL     OW23251   0.945   4.207  13.893  0.0126  0.0253 -0.2926
 3931SOL    HW123252   0.887   4.132  13.907 -2.5987  2.4418  1.8170
 3931SOL    HW223253   0.875   4.272  13.893 -0.1465 -0.1398 -2.6856
 3932SOL     OW23254   2.953   1.884   5.893  0.6606  0.3659 -0.0601
 3932SOL    HW123255   2.923   1.840   5.973 -0.3285  1.7138  0.3092
 3932SOL    HW223256   2.877   1.941   5.881  0.6300  0.6088  1.2583
 3933SOL     OW23257   1.000   1.921   3.131 -0.3603 -0.0954 -0.0975
 3933SOL    HW123258   0.951   1.844   3.103  1.7589 -1.0828 -1.0672
 3933SOL    HW223259   1.068   1.924   3.063  2.1069  1.5604  2.4716
 3934SOL     OW23260   1.673   2.527   7.313  0.2556  0.1271  0.1489
 3934SOL    HW123261   1.659   2.432   7.312  0.9741  0.0095  1.6052
 3934SOL    HW223262   1.732   2.539   7.238 -1.7174 -0.3983 -1.5057
 3935SOL     OW23263   3.149   4.271   6.683  0.1064  0.8687  0.8037
 3935SOL    HW123264   3.242   4.285   6.663 -0.4532  0.4872 -2.0721
 3935SOL    HW223265   3.110   4.286   6.597 -3.2977  1.7341  2.5202
 3936SOL     OW23266   4.199   3.886   1.294 -0.4788  0.1292 -0.6162
 3936SOL    HW123267   4.284   3.859   1.260  0.2242 -0.4839  1.6517
 3936SOL    HW223268   4.176   3.960   1.238  0.8968  1.7326  0.9444
 3937SOL     OW23269   2.781   4.505  17.000  0.4059 -0.1303  0.4722
 3937SOL    HW123270   2.691   4.486  17.025 -0.4366  2.4809 -0.5503
 3937SOL    HW223271   2.797   4.444  16.928  1.0767  0.7160 -0.0967
 3938SOL     OW23272   0.802   0.379   6.380  0.0621  0.0999  0.0135
 3938SOL    HW123273   0.715   0.340   6.381  1.0005 -2.0240 -1.0520
 3938SOL    HW223274   0.801   0.426   6.297  0.8481 -0.3802 -0.2788
 3939SOL     OW23275   0.665   4.437   8.777 -0.4549  0.8051 -0.0550
 3939SOL    HW123276   0.704   4.511   8.823 -1.5489  0.2293  1.8109
 3939SOL    HW223277   0.733   4.374   8.799 -0.8721  0.2016 -0.4963
 3940SOL     OW23278   1.055   3.728  15.514  0.0724 -0.2173 -0.4148
 3940SOL    HW123279   1.024   3.645  15.551  0.6293 -0.1661  0.1675
 3940SOL    HW223280   1.118   3.701  15.447  0.7337 -2.1352  0.9704
 3941SOL     OW23281   0.735   0.653   9.080  0.4295 -0.3247  0.0515
 3941SOL    HW123282   0.663   0.699   9.123 -0.6380 -1.0661 -0.9256
 3941SOL    HW223283   0.754   0.591   9.150  1.6754 -2.4365 -2.1706
 3942SOL     OW23284   2.079   2.850   8.690 -0.7594 -0.1089  0.0283
 3942SOL    HW123285   2.122   2.818   8.769 -0.8449  1.3830  0.6657
 3942SOL    HW223286   2.154   2.898   8.655 -1.9944  2.1721  0.5023
 3943SOL     OW23287   0.165   4.192   5.326  0.7731 -0.2007  0.1592
 3943SOL    HW123288   0.074   4.216   5.306  0.3890 -0.8344  1.1702
 3943SOL    HW223289   0.164   4.098   5.342  0.2439 -0.1419  0.4888
 3944SOL     OW23290   3.987   0.233   7.345 -0.0481 -0.1885 -0.2095
 3944SOL    HW123291   3.938   0.159   7.308  0.9892 -0.7813 -0.4078
 3944SOL    HW223292   4.044   0.190   7.408 -2.1302 -1.8378  0.5684
 3945SOL     OW23293   1.388   3.589   4.518  0.2124 -0.2105  0.8800
 3945SOL    HW123294   1.351   3.659   4.464  1.2781  0.1831  0.6611
 3945SOL    HW223295   1.326   3.590   4.591  1.6641 -0.4568  2.1143
 3946SOL     OW23296   0.336   2.093  12.355 -0.3730  0.6270 -0.4325
 3946SOL    HW123297   0.337   2.002  12.383 -3.0454  1.1016  1.1757
 3946SOL    HW223298   0.267   2.131  12.411 -0.8860 -1.7334  0.5298
 3947SOL     OW23299   3.976   2.602   5.754  0.0869 -0.0824 -0.0858
 3947SOL    HW123300   3.998   2.686   5.716  2.7011 -0.4728  0.5589
 3947SOL    HW223301   3.981   2.621   5.848  2.7999 -0.3482 -0.1684
 3948SOL     OW23302   3.895   3.045   4.536  0.0652 -0.0933  0.0963
 3948SOL    HW123303   3.922   3.042   4.445 -2.7626  1.5056 -0.7829
 3948SOL    HW223304   3.899   2.952   4.560  0.7378  0.1362  0.8700
 3949SOL     OW23305   0.610   0.118   7.689  0.1281 -0.4863  0.1591
 3949SOL    HW123306   0.520   0.127   7.658  0.8264  1.0656 -1.4455
 3949SOL    HW223307   0.622   0.184   7.758 -0.0427  0.9773 -1.2070
 3950SOL     OW23308   2.821   3.072  16.520  0.3252  0.5947  0.0539
 3950SOL    HW123309   2.801   2.985  16.487  0.2751  1.2385 -1.5821
 3950SOL    HW223310   2.910   3.078  16.485 -0.2341  2.8666 -1.0001
 3951SOL     OW23311   0.394   4.643  10.854 -0.2316 -0.0950  0.8646
 3951SOL    HW123312   0.401   4.557  10.813 -1.5748 -1.3401  3.2393
 3951SOL    HW223313   0.321   4.677  10.803 -0.1785 -0.1343  0.7631
 3952SOL     OW23314   2.872   0.094   1.953  0.5962 -0.3644  0.1306
 3952SOL    HW123315   2.958   0.078   1.913  0.0607 -2.3853 -0.2321
 3952SOL    HW223316   2.896   0.164   2.014  2.9533 -0.7240 -0.3817
 3953SOL     OW23317   1.799   3.658   2.667 -0.4475 -0.2496  0.3225
 3953SOL    HW123318   1.800   3.573   2.710 -0.8337  0.1683  1.1542
 3953SOL    HW223319   1.712   3.653   2.630 -0.1855  1.6633 -0.5605
 3954SOL     OW23320   4.565   3.422   2.449  0.3233 -0.1911 -0.1081
 3954SOL    HW123321   4.535   3.333   2.468  1.5137 -0.0154  2.7071
 3954SOL    HW223322   4.630   3.411   2.380 -0.5278  0.1645 -0.9570
 3955SOL     OW23323   1.867   4.173   7.214  0.2587  0.3136 -0.3890
 3955SOL    HW123324   1.937   4.166   7.279  1.8909 -0.6389 -2.2392
 3955SOL    HW223325   1.817   4.252   7.232 -2.5780 -1.1598 -1.6935
 3956SOL     OW23326   1.690   4.181   5.570 -0.0903  0.3247 -0.2201
 3956SOL    HW123327   1.652   4.191   5.657 -1.4136 -0.6047 -0.6806
 3956SOL    HW223328   1.783   4.166   5.584 -0.7474 -2.8714  0.9102
 3957SOL     OW23329   2.787   2.204   6.533  0.4464  0.1717  0.2260
 3957SOL    HW123330   2.823   2.287   6.501 -2.8035  0.4331 -2.7360
 3957SOL    HW223331   2.695   2.222   6.512  0.6201  0.9208  0.1105
 3958SOL     OW23332   2.989   4.429  15.099  0.5384  0.0620  0.3022
 3958SOL    HW123333   3.029   4.506  15.059 -0.1836  0.7515  0.9048
 3958SOL    HW223334   3.053   4.421  15.170 -1.9012  0.1736  2.5002
 3959SOL     OW23335   2.485   1.267   4.351  0.3738  0.3309 -0.0985
 3959SOL    HW123336   2.476   1.193   4.412  0.9119 -2.0676 -2.9119
 3959SOL    HW223337   2.509   1.330   4.419  0.2943 -2.7096  2.7431
 3960SOL     OW23338   2.927   1.459   8.081  0.0862 -0.0510 -0.2434
 3960SOL    HW123339   2.847   1.409   8.070  0.0582 -0.3223  1.1857
 3960SOL    HW223340   2.993   1.389   8.075  1.6978  1.2069  2.3779
 3961SOL     OW23341   2.868   0.054   5.922  0.5712  0.0415 -0.2236
 3961SOL    HW123342   2.824   0.110   5.987 -1.2155 -1.0252 -0.5125
 3961SOL    HW223343   2.936   0.010   5.974 -0.9310 -1.1921  0.7093
 3962SOL     OW23344   2.856   0.793   0.358  0.0190  0.4826 -0.1687
 3962SOL    HW123345   2.940   0.794   0.405  0.4581 -1.0716 -0.9315
 3962SOL    HW223346   2.874   0.840   0.277 -0.1610  1.2237  0.2201
 3963SOL     OW23347   3.465   1.497   3.965 -0.2056 -0.0150  0.0404
 3963SOL    HW123348   3.524   1.533   3.899  0.0535 -0.3702  0.0832
 3963SOL    HW223349   3.379   1.491   3.922 -0.0995 -0.1203 -0.1570
 3964SOL     OW23350   4.119   3.003   5.169  0.3694  0.2596 -0.3707
 3964SOL    HW123351   4.075   2.926   5.134 -0.8362  0.7575  0.0659
 3964SOL    HW223352   4.136   2.963   5.254 -2.1908  0.6951  0.3456
 3965SOL     OW23353   0.750   4.213   8.156 -0.4581  0.1340  0.1727
 3965SOL    HW123354   0.735   4.302   8.188  3.3191  1.8942 -2.9475
 3965SOL    HW223355   0.659   4.187   8.139  0.1531 -0.4846 -2.0745
 3966SOL     OW23356   0.636   0.865   8.533 -0.0865 -0.1018  0.0239
 3966SOL    HW123357   0.693   0.815   8.474  0.4607 -2.2958  2.3922
 3966SOL    HW223358   0.548   0.849   8.500 -0.4064  1.0322  0.3287
 3967SOL     OW23359   0.788   2.447   6.491 -0.0683 -0.1171  0.1748
 3967SOL    HW123360   0.737   2.528   6.492  0.1295 -0.0067  2.5240
 3967SOL    HW223361   0.800   2.418   6.582 -1.9734 -0.3207  0.3592
 3968SOL     OW23362   4.355   2.680   8.656 -0.1991 -0.8096  0.1352
 3968SOL    HW123363   4.365   2.769   8.623  2.1651 -0.6673  1.1834
 3968SOL    HW223364   4.261   2.665   8.649 -0.5905  1.5791  0.1866
 3969SOL     OW23365   1.112   1.017   3.050  0.5892  0.1985 -0.3243
 3969SOL    HW123366   1.156   1.049   2.972  0.3170  0.1994 -0.4769
 3969SOL    HW223367   1.024   1.020   3.012  0.0286  1.1891  1.0283
 3970SOL     OW23368   2.799   3.601   3.512 -0.0164 -0.2660 -0.2297
 3970SOL    HW123369   2.849   3.626   3.433 -1.9192  0.7153 -1.1120
 3970SOL    HW223370   2.767   3.512   3.494  1.6275 -1.0154  0.5018
 3971SOL     OW23371   3.048   4.065  14.148 -0.1470  0.3787 -0.4475
 3971SOL    HW123372   2.973   4.124  14.147 -0.9271 -0.6046  0.7974
 3971SOL    HW223373   3.009   3.990  14.103  1.6023 -0.0528 -1.2162
 3972SOL     OW23374   2.555   4.413  13.424 -0.0716 -0.8527  0.6140
 3972SOL    HW123375   2.642   4.424  13.386 -0.4079  0.1250  0.1223
 3972SOL    HW223376   2.529   4.504  13.438 -0.8076 -1.1764  1.3436
 3973SOL     OW23377   0.457   3.805   3.622 -0.2262  0.0431  0.1036
 3973SOL    HW123378   0.367   3.775   3.637 -0.7182  0.8610 -1.1799
 3973SOL    HW223379   0.458   3.889   3.577 -0.0020 -1.1014 -2.0129
 3974SOL     OW23380   2.948   3.330   3.600 -0.5815 -0.3833  0.1786
 3974SOL    HW123381   2.876   3.345   3.661  0.3657 -1.0751  1.4543
 3974SOL    HW223382   2.899   3.336   3.517  0.1618  0.4485 -0.1914
 3975SOL     OW23383   3.522   2.656   6.257  0.0533  0.7286 -0.3750
 3975SOL    HW123384   3.596   2.694   6.305  0.2493 -0.1208 -0.0166
 3975SOL    HW223385   3.563   2.639   6.172 -1.9881  0.3286 -1.2642
 3976SOL     OW23386   3.590   1.752   6.251 -0.3933 -0.2430  0.1007
 3976SOL    HW123387   3.524   1.807   6.292 -0.8220 -0.7641  0.1140
 3976SOL    HW223388   3.645   1.718   6.321  1.6171  2.1780 -0.3160
 3977SOL     OW23389   0.552   1.373  14.035  0.0320 -0.2463  0.1767
 3977SOL    HW123390   0.464   1.339  14.018 -0.1712  0.5031 -0.2600
 3977SOL    HW223391   0.594   1.307  13.980 -1.2550 -1.2745  0.4362
 3978SOL     OW23392   0.692   3.126   4.111 -0.2985  0.4941 -0.0547
 3978SOL    HW123393   0.646   3.139   4.028 -0.8143 -0.8180  0.0139
 3978SOL    HW223394   0.627   3.161   4.171 -0.1536 -0.4768  0.6779
 3979SOL     OW23395   0.432   4.690  15.533 -0.4527 -0.1418 -0.4612
 3979SOL    HW123396   0.399   4.602  15.512 -1.7889 -0.2565  2.1700
 3979SOL    HW223397   0.458   4.722  15.447  3.1641  1.1782  1.1421
 3980SOL     OW23398   3.421   2.937   5.142 -0.2600  0.4285 -0.2205
 3980SOL    HW123399   3.421   2.994   5.065 -1.6775 -0.0715 -0.5827
 3980SOL    HW223400   3.364   2.985   5.201  0.9245 -2.2926  3.1061
 3981SOL     OW23401   2.594   4.559   3.149 -0.3077  0.0153 -0.4515
 3981SOL    HW123402   2.642   4.641   3.138 -0.5920  0.0447 -1.4551
 3981SOL    HW223403   2.540   4.559   3.071 -0.1705 -1.7833 -0.5531
 3982SOL     OW23404   2.659   1.650   5.951  0.4524 -0.3755  0.1835
 3982SOL    HW123405   2.663   1.678   5.859 -0.2644  1.1144  0.6084
 3982SOL    HW223406   2.565   1.656   5.966  0.4224  0.9055 -0.4327
 3983SOL     OW23407   4.598   0.944   6.401 -0.2141  0.5008 -0.3496
 3983SOL    HW123408   4.574   0.914   6.489 -2.8493  1.6289 -0.6935
 3983SOL    HW223409   4.550   1.026   6.391 -1.0810 -0.2058 -1.9517
 3984SOL     OW23410   3.234   4.052   7.980  0.1862 -0.2840  0.6348
 3984SOL    HW123411   3.197   3.975   8.024  0.6746 -0.0954  1.3664
 3984SOL    HW223412   3.241   4.113   8.053 -1.1540 -0.3345  0.8020
 3985SOL     OW23413   0.323   4.593  17.173 -0.2309 -0.1445  0.3184
 3985SOL    HW123414   0.234   4.629  17.178 -0.1349  0.3490 -1.6182
 3985SOL    HW223415   0.338   4.550  17.257 -1.0109  0.4499  0.7709
 3986SOL     OW23416   2.756   0.533   4.699 -0.3392 -0.4513  0.4680
 3986SOL    HW123417   2.821   0.469   4.671 -1.4494 -1.3494 -0.0098
 3986SOL    HW223418   2.783   0.606   4.642 -1.3134 -0.1887  0.3535
 3987SOL     OW23419   3.111   0.782   0.465  0.3747 -0.1807  0.0302
 3987SOL    HW123420   3.102   0.764   0.558  0.0500 -0.6452 -0.0923
 3987SOL    HW223421   3.189   0.731   0.443  0.4932 -0.0671  0.1854
 3988SOL     OW23422   3.562   4.506   7.384 -0.1505 -0.5785  0.2872
 3988SOL    HW123423   3.573   4.582   7.440  2.2680 -2.1723  1.9956
 3988SOL    HW223424   3.473   4.518   7.352 -0.1360  2.7722  1.5145
 3989SOL     OW23425   4.081   2.924   5.894  0.5752  0.0438 -0.3927
 3989SOL    HW123426   4.004   2.898   5.844 -0.8604  2.7138  0.3866
 3989SOL    HW223427   4.150   2.929   5.828 -0.2454  2.3810 -1.0883
 3990SOL     OW23428   2.314   1.278  10.933  0.5827  0.1293 -0.2165
 3990SOL    HW123429   2.351   1.229  10.860 -0.5147 -3.2346  1.4741
 3990SOL    HW223430   2.347   1.366  10.916 -2.3051  0.8303 -2.2500
 3991SOL     OW23431   2.113   3.863   2.332  0.3423  0.2450  0.1350
 3991SOL    HW123432   2.134   3.777   2.295 -1.0735 -0.3141  0.6422
 3991SOL    HW223433   2.099   3.852   2.426  4.9739 -0.7811  0.7078
 3992SOL     OW23434   0.397   2.622   6.727  0.2305  0.2121  0.0674
 3992SOL    HW123435   0.323   2.648   6.673  0.7531 -1.1196 -1.3013
 3992SOL    HW223436   0.351   2.555   6.777 -0.1162  0.5769  0.2354
 3993SOL     OW23437   3.173   3.648   4.948  0.4463 -0.2868  0.9740
 3993SOL    HW123438   3.247   3.637   5.007 -1.2532 -0.6492  3.0456
 3993SOL    HW223439   3.109   3.586   4.984 -0.6929 -1.1041 -2.4977
 3994SOL     OW23440   4.643   3.139  15.074  0.7026 -0.0161 -0.1036
 3994SOL    HW123441   4.724   3.112  15.029  0.3840 -1.2856  0.0978
 3994SOL    HW223442   4.663   3.232  15.080 -2.7687  0.6901  0.1943
 3995SOL     OW23443   1.530   0.926   7.771  0.8598  0.1346  0.0315
 3995SOL    HW123444   1.582   0.855   7.809 -0.1342 -0.6358 -0.0512
 3995SOL    HW223445   1.481   0.950   7.850 -1.5465 -2.5098 -0.6457
 3996SOL     OW23446   4.603   3.649   4.083  0.7292  0.3641 -0.4519
 3996SOL    HW123447   4.523   3.612   4.046 -0.0310  2.0582 -0.5208
 3996SOL    HW223448   4.655   3.570   4.071  0.7442  0.2708  0.2186
 3997SOL     OW23449   4.380   0.182   4.668 -0.2633  0.2473  0.3070
 3997SOL    HW123450   4.385   0.230   4.751 -3.1794 -0.2511  0.7590
 3997SOL    HW223451   4.464   0.137   4.660  0.2052  1.3012 -0.7228
 3998SOL     OW23452   4.103   1.835  16.044 -0.2307 -0.0968 -0.2148
 3998SOL    HW123453   4.123   1.822  15.951 -0.6130 -0.9528 -0.1774
 3998SOL    HW223454   4.098   1.931  16.042  0.1465 -0.0869 -0.6359
 3999SOL     OW23455   2.055   0.976   3.769 -0.4882 -0.5829 -0.6609
 3999SOL    HW123456   1.963   0.966   3.794 -0.3880  1.4311  0.6128
 3999SOL    HW223457   2.036   1.039   3.699  0.7481  1.8119  1.1215
 4000SOL     OW23458   4.422   0.766  13.549  0.4982 -0.2488  0.0905
 4000SOL    HW123459   4.497   0.796  13.498 -0.4774  0.1260 -1.1188
 4000SOL    HW223460   4.400   0.840  13.605  2.2823  0.7608 -0.5682
 4001SOL     OW23461   4.075   3.449   5.944  0.3836  0.1756 -0.3295
 4001SOL    HW123462   4.061   3.449   6.039  1.0534  2.6527 -0.2420
 4001SOL    HW223463   4.064   3.356   5.923 -3.3862  0.0990  2.0275
 4002SOL     OW23464   1.109   3.829   7.269  0.1343 -0.2007 -0.2988
 4002SOL    HW123465   1.172   3.884   7.317  2.5256 -2.5833 -0.7275
 4002SOL    HW223466   1.088   3.768   7.340 -0.1947  1.4046  0.9876
 4003SOL     OW23467   1.284   0.127   2.562 -0.1295  0.4196  0.4685
 4003SOL    HW123468   1.363   0.170   2.527 -0.3317 -0.7387 -1.4477
 4003SOL    HW223469   1.244   0.111   2.476  2.0192  3.5892 -1.1282
 4004SOL     OW23470   3.125   1.007  15.385  0.4516 -0.4894 -0.6938
 4004SOL    HW123471   3.209   1.046  15.363  0.9222 -2.4612 -2.3795
 4004SOL    HW223472   3.135   1.001  15.480 -0.6243 -2.1036 -0.6816
 4005SOL     OW23473   2.999   3.987   8.459 -0.3607  0.3944  0.6429
 4005SOL    HW123474   2.979   4.075   8.490  1.1458  0.4356  1.4577
 4005SOL    HW223475   2.966   3.999   8.370  1.7942  3.3655  0.2744
 4006SOL     OW23476   0.982   2.636   4.038 -0.1741  0.1962  0.5004
 4006SOL    HW123477   1.068   2.672   4.015 -0.7572  0.8668 -0.6225
 4006SOL    HW223478   1.006   2.545   4.057 -0.2200  0.1400  0.2903
 4007SOL     OW23479   0.536   2.692   1.344  0.2975  0.1487  0.4026
 4007SOL    HW123480   0.491   2.773   1.365  0.5676  0.1826  0.8585
 4007SOL    HW223481   0.626   2.722   1.329 -0.9679  3.4643 -0.4652
 4008SOL     OW23482   3.330   2.624   5.961 -0.4399  0.3313  0.1044
 4008SOL    HW123483   3.298   2.650   5.875  1.8600  0.5382 -0.6644
 4008SOL    HW223484   3.408   2.679   5.964 -0.1314  0.0244 -2.4146
 4009SOL     OW23485   0.663   0.924   6.647  0.5217  0.2921  0.0469
 4009SOL    HW123486   0.659   1.018   6.661 -0.7940  0.1323  0.7781
 4009SOL    HW223487   0.668   0.891   6.737 -0.4923  1.6616  0.5929
 4010SOL     OW23488   0.063   1.125  17.161 -0.5136  0.7660  0.3810
 4010SOL    HW123489   0.142   1.080  17.192 -3.2490 -3.3120  1.4289
 4010SOL    HW223490   0.007   1.115  17.238 -1.2297  3.0312  0.1572
 4011SOL     OW23491   2.652   4.037   6.303  0.1567  0.0503  0.0808
 4011SOL    HW123492   2.615   4.009   6.387 -0.3012  0.7391  0.1068
 4011SOL    HW223493   2.692   4.120   6.329 -0.8415  1.1995 -1.9864
 4012SOL     OW23494   2.992   4.451   2.444  0.3165 -0.1311 -0.0280
 4012SOL    HW123495   2.955   4.393   2.511  0.1918  1.3407  1.1655
 4012SOL    HW223496   3.021   4.393   2.373  1.9611  1.2974 -0.5138
 4013SOL     OW23497   2.051   3.799   7.660  0.3742  0.2008 -0.2245
 4013SOL    HW123498   2.144   3.819   7.667  0.3782  0.5814 -1.4230
 4013SOL    HW223499   2.065   3.704   7.652  0.9390  0.3718 -1.2001
 4014SOL     OW23500   1.651   4.402  17.170 -0.0357 -0.0047  0.2535
 4014SOL    HW123501   1.581   4.423  17.107 -1.1117  1.5332  1.9734
 4014SOL    HW223502   1.638   4.467  17.238  0.5953 -0.3986  0.7453
 4015SOL     OW23503   1.914   4.714   3.703  0.3071  0.1199  0.5141
 4015SOL    HW123504   1.896   0.065   3.647 -1.7391 -0.1834  0.7712
 4015SOL    HW223505   1.889   4.640   3.647  2.1460  0.0099 -0.1621
 4016SOL     OW23506   3.158   3.989   3.414  0.1055 -0.2284  0.4862
 4016SOL    HW123507   3.112   4.018   3.493  0.7307  2.4470 -0.1482
 4016SOL    HW223508   3.100   4.007   3.340  1.6349  0.7070 -0.4637
 4017SOL     OW23509   0.628   2.768   5.314 -0.4388  0.7310  0.2573
 4017SOL    HW123510   0.598   2.858   5.329  0.8273  0.8806  1.9475
 4017SOL    HW223511   0.719   2.789   5.293 -0.1387  1.4392  2.2178
 4018SOL     OW23512   1.531   4.393   3.440  0.3792  0.1304 -0.5028
 4018SOL    HW123513   1.535   4.362   3.530 -0.0896  1.7869  0.0808
 4018SOL    HW223514   1.623   4.389   3.414  0.3796 -0.4978 -0.4028
 4019SOL     OW23515   4.660   2.255   7.046  0.0952 -0.4946 -0.1146
 4019SOL    HW123516   4.674   2.289   6.958 -1.1176  1.5904  0.5125
 4019SOL    HW223517   4.680   2.333   7.097 -4.3324  0.6397 -0.1136
 4020SOL     OW23518   1.233   3.151   1.219  0.1770 -0.0512  0.0692
 4020SOL    HW123519   1.194   3.124   1.302  0.3447 -1.3896 -0.2955
 4020SOL    HW223520   1.247   3.082   1.154  1.4662  1.8621 -1.6906
 4021SOL     OW23521   0.223   1.878   0.888 -0.3196  0.0463  0.2099
 4021SOL    HW123522   0.219   1.827   0.807 -0.5619 -1.6359  1.2874
 4021SOL    HW223523   0.303   1.842   0.927 -0.3847 -0.9795 -0.6014
 4022SOL     OW23524   4.027   2.285  12.562  0.3272  0.1313 -0.8751
 4022SOL    HW123525   4.020   2.358  12.500  0.2191  0.6441 -0.2498
 4022SOL    HW223526   3.936   2.272  12.587  0.5479 -1.3866 -0.8323
 4023SOL     OW23527   1.970   2.774   4.850  0.7307 -0.1406 -0.0763
 4023SOL    HW123528   1.958   2.715   4.924  0.9882 -0.5978 -0.3996
 4023SOL    HW223529   2.062   2.798   4.857  1.2309 -2.4015  0.9129
 4024SOL     OW23530   4.141   3.290   1.870  0.3151  0.1034  0.3836
 4024SOL    HW123531   4.094   3.299   1.952 -0.3280 -0.7501  0.1095
 4024SOL    HW223532   4.076   3.324   1.808  2.2359 -0.1028 -1.7673
 4025SOL     OW23533   2.612   1.107  10.715 -0.4320  0.7385  0.3180
 4025SOL    HW123534   2.618   1.063  10.800 -1.3065  1.0196  0.5263
 4025SOL    HW223535   2.520   1.093  10.693 -0.4568  2.0918 -0.4281
 4026SOL     OW23536   4.598   2.590   4.119 -0.1557 -0.1239  0.0432
 4026SOL    HW123537   4.568   2.508   4.157 -0.1951 -0.1409 -0.0250
 4026SOL    HW223538   4.691   2.599   4.140  0.1922 -1.3550 -0.9793
 4027SOL     OW23539   1.705   3.857   4.375  0.3388  0.6580 -0.2030
 4027SOL    HW123540   1.704   3.775   4.423 -0.0128 -0.0764 -1.4525
 4027SOL    HW223541   1.618   3.887   4.401  0.2808 -1.2214  1.7270
 4028SOL     OW23542   3.089   2.910   6.641 -0.1078 -0.0922 -0.4099
 4028SOL    HW123543   3.011   2.856   6.656  0.7769 -1.6247 -1.3197
 4028SOL    HW223544   3.080   2.960   6.560 -1.9014 -2.5500 -1.7370
 4029SOL     OW23545   3.675   1.538   6.904 -0.3491 -0.1355  0.0550
 4029SOL    HW123546   3.696   1.486   6.981 -0.3973 -1.1024 -0.5784
 4029SOL    HW223547   3.761   1.546   6.864 -1.2931  2.5795 -1.4436
 4030SOL     OW23548   3.401   0.536   9.687  0.0976 -0.0737  0.4992
 4030SOL    HW123549   3.491   0.522   9.717  0.1530 -0.4172  0.1799
 4030SOL    HW223550   3.384   0.629   9.696 -1.9545 -0.3119 -0.8103
 4031SOL     OW23551   1.556   2.563   8.268  0.1285  0.3223  0.2398
 4031SOL    HW123552   1.467   2.554   8.301 -0.4070 -3.2071 -2.1854
 4031SOL    HW223553   1.535   2.590   8.179  0.3909 -2.5445 -0.7007
 4032SOL     OW23554   1.134   2.306   4.626  0.6163 -0.3798  0.4539
 4032SOL    HW123555   1.129   2.309   4.722  0.0887 -0.5412  0.4296
 4032SOL    HW223556   1.043   2.276   4.624  1.4489 -3.0917  3.6384
 4033SOL     OW23557   1.088   1.933   5.211  0.1071  1.0184 -0.0445
 4033SOL    HW123558   1.044   1.850   5.231  3.2894 -0.8186 -0.6077
 4033SOL    HW223559   1.026   1.998   5.243 -1.7444 -1.1144  0.6485
 4034SOL     OW23560   4.167   2.610  12.203  0.4327 -0.2746 -0.4781
 4034SOL    HW123561   4.248   2.571  12.171  0.7804  0.3355 -0.3336
 4034SOL    HW223562   4.195   2.698  12.227  2.6427 -0.8110 -1.1373
 4035SOL     OW23563   2.095   4.716   1.976  0.5165 -0.0279  0.1326
 4035SOL    HW123564   2.087   4.719   2.071 -1.3707 -0.1770 -0.0264
 4035SOL    HW223565   2.188   0.016   1.977  0.8438 -1.2844  1.5503
 4036SOL     OW23566   2.638   1.269   3.731  0.0202  0.4849  0.2283
 4036SOL    HW123567   2.657   1.294   3.641  0.0094  1.3010  0.4549
 4036SOL    HW223568   2.714   1.216   3.756  0.3467  1.2953  0.9574
 4037SOL     OW23569   0.607   2.629   6.522  0.0213 -0.0129  0.3119
 4037SOL    HW123570   0.555   2.596   6.449  0.7174  0.0514 -0.2118
 4037SOL    HW223571   0.537   2.637   6.586  0.8862 -1.0890  1.3853
 4038SOL     OW23572   2.353   4.454   2.197 -0.2156  0.0494  0.5950
 4038SOL    HW123573   2.389   4.468   2.285  0.8117 -2.8819  0.6575
 4038SOL    HW223574   2.371   4.360   2.189 -1.5257 -0.2136  0.7085
 4039SOL     OW23575   2.252   4.645   3.149  0.4928  0.5529 -0.1326
 4039SOL    HW123576   2.284   4.585   3.083  0.7112  0.1997  0.2925
 4039SOL    HW223577   2.233   0.003   3.104  0.5258 -1.0582 -3.0659
 4040SOL     OW23578   3.430   3.121  16.209  0.0704  0.5177 -0.1415
 4040SOL    HW123579   3.425   3.174  16.289  1.9432 -1.4774  1.2760
 4040SOL    HW223580   3.407   3.175  16.133 -1.3548  2.5107  1.7287
 4041SOL     OW23581   4.489   3.541   7.659  0.2704 -0.0261  0.2920
 4041SOL    HW123582   4.443   3.457   7.657 -0.3937  0.3536 -0.6900
 4041SOL    HW223583   4.583   3.525   7.650  0.1166  0.1483 -1.7068
 4042SOL     OW23584   2.329   0.324  16.643  0.0828 -0.1016 -0.1324
 4042SOL    HW123585   2.302   0.402  16.595  1.5512 -0.1203 -0.9792
 4042SOL    HW223586   2.257   0.270  16.612  1.8125 -0.8541 -2.8209
 4043SOL     OW23587   3.251   2.865   2.518 -0.0607 -0.1617  0.2536
 4043SOL    HW123588   3.313   2.804   2.479  1.9874  2.2652 -0.2721
 4043SOL    HW223589   3.266   2.948   2.472 -0.1862 -0.2141  0.1181
 4044SOL     OW23590   2.300   3.691   8.278 -0.3609  0.0918  0.0673
 4044SOL    HW123591   2.304   3.753   8.350  1.5538 -1.8713  1.6673
 4044SOL    HW223592   2.210   3.713   8.256 -0.6371 -2.1665 -1.0635
 4045SOL     OW23593   2.926   4.516   3.516  0.2156 -0.7203  0.2953
 4045SOL    HW123594   2.879   4.445   3.471  1.6480 -1.0301 -0.7029
 4045SOL    HW223595   2.893   4.500   3.605  2.0294  0.9350  1.2639
 4046SOL     OW23596   2.771   4.487   3.785  0.2271 -0.0910 -0.5425
 4046SOL    HW123597   2.788   4.506   3.877  3.2636  0.6660 -1.2366
 4046SOL    HW223598   2.723   4.567   3.762  1.0804  0.8619  0.9515
 4047SOL     OW23599   0.081   0.705  10.853  0.0103 -0.0116  0.2212
 4047SOL    HW123600   0.102   0.622  10.810 -0.1561  1.8174 -3.4197
 4047SOL    HW223601   0.164   0.751  10.839 -0.0554  0.1330  0.3065
 4048SOL     OW23602   0.887   3.027   3.252  0.0668 -0.3071  0.1266
 4048SOL    HW123603   0.895   2.934   3.273  0.1366 -0.3538 -0.1053
 4048SOL    HW223604   0.975   3.065   3.262 -0.1886  0.5167 -0.7842
 4049SOL     OW23605   1.975   2.535   3.563  0.2403 -0.7583  0.0620
 4049SOL    HW123606   2.060   2.521   3.604  0.3381 -1.3341 -0.3236
 4049SOL    HW223607   1.921   2.510   3.638 -2.1684 -3.6672 -2.6094
 4050SOL     OW23608   0.796   3.005   8.753  0.5654  0.4969 -0.0401
 4050SOL    HW123609   0.821   2.914   8.739  0.6711  0.4152  0.6841
 4050SOL    HW223610   0.729   2.998   8.821 -0.8452 -0.5327 -1.5279
 4051SOL     OW23611   0.052   3.908  13.995  0.0774  0.4989  0.2702
 4051SOL    HW123612   4.720   3.982  14.015 -1.3984 -0.1960 -1.2957
 4051SOL    HW223613   0.135   3.934  14.035  0.2182 -0.2131  0.4524
 4052SOL     OW23614   2.203   4.441   8.108 -0.1020  0.5252  0.8287
 4052SOL    HW123615   2.115   4.466   8.080 -0.5294 -1.5805  0.3061
 4052SOL    HW223616   2.183   4.437   8.201 -0.1519 -0.0510  0.7924
 4053SOL     OW23617   0.057   1.453  13.159  0.1994 -0.4741 -0.4865
 4053SOL    HW123618   0.083   1.531  13.109 -1.1305  0.0490 -0.3532
 4053SOL    HW223619   0.036   1.388  13.092 -1.6369  0.3106 -0.6635
 4054SOL     OW23620   2.644   0.292   7.461 -0.0017  0.5549 -0.6989
 4054SOL    HW123621   2.717   0.350   7.440 -0.4454  1.7372  1.0380
 4054SOL    HW223622   2.681   0.205   7.445 -2.9596 -0.7605 -0.2623
 4055SOL     OW23623   4.024   3.784  16.646  0.2099  0.1178  0.2955
 4055SOL    HW123624   4.047   3.877  16.650  1.0747 -0.0664 -0.3102
 4055SOL    HW223625   4.033   3.757  16.737  0.8988  3.0105  1.0983
 4056SOL     OW23626   2.219   0.336  12.293 -0.4665 -0.6066  0.3865
 4056SOL    HW123627   2.161   0.281  12.347 -2.6286  2.7925  1.5775
 4056SOL    HW223628   2.177   0.419  12.317  1.2419  0.4500 -0.3047
 4057SOL     OW23629   4.569   3.521  11.753  0.7469 -0.6842  0.0913
 4057SOL    HW123630   4.555   3.591  11.817  0.1424  0.4097 -1.2397
 4057SOL    HW223631   4.559   3.561  11.667  0.9303  1.7252  1.1795
 4058SOL     OW23632   3.505   3.226   6.479  0.1348  0.1012 -0.3122
 4058SOL    HW123633   3.540   3.306   6.439  0.9304  0.1668  0.5269
 4058SOL    HW223634   3.422   3.259   6.514  1.6875  0.2463  3.1682
 4059SOL     OW23635   1.244   2.951   5.493  0.2932 -0.8485 -0.2206
 4059SOL    HW123636   1.294   3.033   5.497  1.2368 -1.4006 -0.7311
 4059SOL    HW223637   1.216   2.957   5.402 -0.9604 -2.8400  0.0315
 4060SOL     OW23638   1.235   4.545   8.227 -0.1856 -0.0317 -0.0875
 4060SOL    HW123639   1.206   4.455   8.219 -1.2221  0.0415  2.7038
 4060SOL    HW223640   1.215   4.568   8.318 -2.8040 -1.9129 -0.2066
 4061SOL     OW23641   1.122   4.575   0.285  0.6748  0.1202  0.2646
 4061SOL    HW123642   1.071   4.650   0.254  1.8036  1.5088  1.7719
 4061SOL    HW223643   1.204   4.591   0.239  1.0107 -1.3969  0.3337
 4062SOL     OW23644   0.307   3.150   4.499 -0.8092  0.2697 -0.3428
 4062SOL    HW123645   0.321   3.230   4.447  1.3245 -0.0292 -0.2133
 4062SOL    HW223646   0.264   3.187   4.576 -0.6368  0.7939 -0.4924
 4063SOL     OW23647   1.486   1.084   3.126 -0.5154 -0.1164  0.1102
 4063SOL    HW123648   1.475   1.006   3.071 -0.8299 -0.1234  0.1861
 4063SOL    HW223649   1.578   1.100   3.104  0.1147 -0.3538  2.5814
 4064SOL     OW23650   3.769   0.983   9.977  0.2908  0.5211  0.2221
 4064SOL    HW123651   3.708   1.050  10.009 -0.5048  0.8367 -1.9173
 4064SOL    HW223652   3.803   0.943  10.057  0.4316 -0.8621 -0.5347
 4065SOL     OW23653   3.859   1.520   8.326 -0.7663  0.7455  0.3054
 4065SOL    HW123654   3.864   1.479   8.413  1.4318  1.5746  0.5595
 4065SOL    HW223655   3.890   1.610   8.338  0.6477  0.4161 -1.0438
 4066SOL     OW23656   2.923   3.057   1.545  0.3067  0.0045 -0.3563
 4066SOL    HW123657   2.937   3.106   1.626  2.9683 -1.7590  0.2487
 4066SOL    HW223658   2.843   3.089   1.504 -0.5701  0.1426  1.4804
 4067SOL     OW23659   4.045   0.726   8.407  0.1829 -0.1109  0.1852
 4067SOL    HW123660   4.018   0.813   8.378  0.4382 -0.7679 -1.9683
 4067SOL    HW223661   3.975   0.677   8.364 -0.5300  0.2538  0.9245
 4068SOL     OW23662   1.879   0.764   0.417  0.1687  0.1111  0.0219
 4068SOL    HW123663   1.787   0.737   0.424  0.9032 -2.1610  0.9331
 4068SOL    HW223664   1.937   0.689   0.426 -0.4965 -0.7601 -3.0913
 4069SOL     OW23665   2.624   1.561  17.560  0.1014 -0.3208 -0.9541
 4069SOL    HW123666   2.605   1.637  17.615 -1.3394 -2.6243  1.7422
 4069SOL    HW223667   2.713   1.535  17.583  0.7187  1.5748 -1.1694
 4070SOL     OW23668   2.218   2.081   6.342  0.1335 -0.0510 -0.1932
 4070SOL    HW123669   2.301   2.112   6.306  0.9499  0.0124  1.7384
 4070SOL    HW223670   2.208   1.993   6.307  2.1011 -0.6806  0.8618
 4071SOL     OW23671   2.664   1.191  11.783  0.1843 -0.0331  0.4469
 4071SOL    HW123672   2.611   1.242  11.721  1.8879  0.8665 -0.2577
 4071SOL    HW223673   2.675   1.249  11.859 -0.2246 -1.6904  1.7577
 4072SOL     OW23674   0.274   3.014   1.220  0.3821  0.0756 -0.0218
 4072SOL    HW123675   0.246   2.923   1.210 -1.2013  0.8199 -2.3708
 4072SOL    HW223676   0.221   3.041   1.295  2.0886 -1.4936  1.7609
 4073SOL     OW23677   2.969   1.783   3.707 -0.3580  0.4667  0.0801
 4073SOL    HW123678   2.886   1.826   3.725 -0.7677  0.2071 -1.1615
 4073SOL    HW223679   2.985   1.744   3.793 -1.0582  1.4804  0.6630
 4074SOL     OW23680   2.996   1.698   1.363 -0.1049  0.1460  0.1666
 4074SOL    HW123681   3.055   1.667   1.431  0.8115  1.9272  0.1877
 4074SOL    HW223682   2.962   1.774   1.410  0.7082 -0.4878  1.7897
 4075SOL     OW23683   2.216   2.460   1.886 -0.0572  0.2315  0.2624
 4075SOL    HW123684   2.208   2.553   1.864  1.1789  0.3938  0.5139
 4075SOL    HW223685   2.196   2.462   1.980  0.3502  0.7100  0.3402
 4076SOL     OW23686   4.681   1.124   6.895  0.5021  0.0185 -0.6201
 4076SOL    HW123687   4.596   1.145   6.856  0.3466 -1.1641 -0.9208
 4076SOL    HW223688   4.702   1.039   6.856 -1.2460 -0.8612  0.3472
 4077SOL     OW23689   3.072   2.547   9.776  0.3937  0.0254  0.5403
 4077SOL    HW123690   2.990   2.585   9.746  0.9418 -0.1163 -1.1080
 4077SOL    HW223691   3.084   2.474   9.716  1.4739  1.3655 -0.8587
 4078SOL     OW23692   1.732   3.504  15.838 -0.0560 -0.1571 -0.3585
 4078SOL    HW123693   1.681   3.554  15.901 -1.1152 -1.3630 -0.2745
 4078SOL    HW223694   1.675   3.491  15.763  1.3950 -1.3203 -1.2576
 4079SOL     OW23695   1.613   4.519   3.123 -0.1449  0.5726  0.6094
 4079SOL    HW123696   1.590   4.612   3.119  0.0247  0.3796 -4.1973
 4079SOL    HW223697   1.551   4.493   3.192 -0.1433  0.1140  0.4396
 4080SOL     OW23698   2.884   1.470  11.590 -0.3822 -0.9153  0.4379
 4080SOL    HW123699   2.927   1.458  11.674  0.5744  0.1114  0.1026
 4080SOL    HW223700   2.837   1.552  11.610 -1.8308 -1.5747 -0.2516
 4081SOL     OW23701   2.352   1.821   6.123 -0.7233  0.0997  0.3316
 4081SOL    HW123702   2.257   1.828   6.138 -1.0268 -1.4584 -0.7952
 4081SOL    HW223703   2.349   1.742   6.068 -2.6079  0.1643  0.3315
 4082SOL     OW23704   0.383   4.343   2.229  0.0474  0.5349 -0.4337
 4082SOL    HW123705   0.336   4.389   2.160 -0.0426 -0.2452 -0.8860
 4082SOL    HW223706   0.320   4.277   2.257 -1.3545  2.7600  1.7516
 4083SOL     OW23707   0.848   4.383  12.811  0.0726  0.0032 -0.2399
 4083SOL    HW123708   0.880   4.402  12.899  2.1736 -0.9817 -0.7969
 4083SOL    HW223709   0.755   4.398  12.829  0.4112 -0.7213  2.0889
 4084SOL     OW23710   3.305   2.449  16.103 -0.0684  0.1687  0.5854
 4084SOL    HW123711   3.246   2.496  16.045 -2.3768 -0.8821  2.0793
 4084SOL    HW223712   3.372   2.425  16.039 -0.0276 -1.7137  1.3203
 4085SOL     OW23713   0.794   3.932   7.400  0.1909  0.1736 -0.6163
 4085SOL    HW123714   0.788   3.911   7.306 -0.1321  0.9980 -0.7839
 4085SOL    HW223715   0.713   3.981   7.415 -1.0523 -2.1999  0.3963
 4086SOL     OW23716   1.217   3.166   3.083  0.8891 -0.5740  0.5403
 4086SOL    HW123717   1.222   3.072   3.071 -0.4455 -0.2143 -2.7516
 4086SOL    HW223718   1.307   3.192   3.102  1.4226 -2.3625  0.3766
 4087SOL     OW23719   1.827   0.287   6.916  0.1477  0.1462 -0.7254
 4087SOL    HW123720   1.884   0.211   6.918 -0.4980 -0.2652  1.6610
 4087SOL    HW223721   1.740   0.251   6.935  0.7013 -1.5944 -1.5171
 4088SOL     OW23722   3.580   1.122   5.466  0.4538 -0.3486 -0.4728
 4088SOL    HW123723   3.648   1.056   5.453  0.0521 -0.6848 -0.8634
 4088SOL    HW223724   3.632   1.199   5.444  1.6322 -1.5494 -1.8472
 4089SOL     OW23725   1.594   1.360   4.361 -0.9234 -0.3016 -0.2020
 4089SOL    HW123726   1.636   1.403   4.436  2.9050 -1.3204 -1.7970
 4089SOL    HW223727   1.626   1.398   4.279 -0.2267  1.2211  0.7697
 4090SOL     OW23728   2.056   0.441   6.991  0.4321 -0.2057  0.5573
 4090SOL    HW123729   2.032   0.444   7.084 -0.2969  1.0765  0.3335
 4090SOL    HW223730   1.964   0.434   6.965  1.0016 -2.6588 -0.8078
 4091SOL     OW23731   2.644   1.078   2.410 -0.0059 -0.0173  0.1156
 4091SOL    HW123732   2.592   1.059   2.332 -0.1605  1.9792 -0.2596
 4091SOL    HW223733   2.686   1.162   2.388 -1.7053  0.7303 -0.2722
 4092SOL     OW23734   1.543   4.554  12.506 -0.1026 -0.2857  0.1090
 4092SOL    HW123735   1.621   4.499  12.492  0.5590  0.3794  1.1458
 4092SOL    HW223736   1.496   4.538  12.424 -0.0639 -0.4279  0.1145
 4093SOL     OW23737   1.972   0.990   7.037  0.1718  0.2880  0.4230
 4093SOL    HW123738   1.930   0.940   6.968  3.7564  0.7855 -2.1080
 4093SOL    HW223739   2.045   0.935   7.065  1.9899  2.1141 -0.7256
 4094SOL     OW23740   1.201   0.656  15.294 -0.6713 -0.2192  0.1691
 4094SOL    HW123741   1.153   0.586  15.339  2.4583 -1.9851  0.7368
 4094SOL    HW223742   1.272   0.606  15.255 -0.8913 -2.4021  2.5167
 4095SOL     OW23743   1.768   0.372  10.836 -0.0540 -0.5759 -0.4576
 4095SOL    HW123744   1.807   0.307  10.777  1.3972  0.0803 -0.2301
 4095SOL    HW223745   1.778   0.448  10.780 -1.6707  1.0021  1.3997
 4096SOL     OW23746   3.334   1.253  17.353 -0.3150 -0.2824 -0.0207
 4096SOL    HW123747   3.342   1.162  17.381 -0.4318 -0.4174 -0.4318
 4096SOL    HW223748   3.406   1.294  17.402 -0.4078 -0.0032 -0.1144
 4097SOL     OW23749   3.519   0.422   4.289 -0.4075 -0.0587 -0.0558
 4097SOL    HW123750   3.568   0.472   4.354  0.2693 -1.8472  0.7876
 4097SOL    HW223751   3.443   0.404   4.345 -1.8189 -0.6099 -2.1480
 4098SOL     OW23752   3.336   1.896  16.157 -0.0848 -0.0078  0.2725
 4098SOL    HW123753   3.261   1.945  16.122  0.7155  0.4593 -0.7936
 4098SOL    HW223754   3.304   1.806  16.169 -0.9020  0.0977 -1.0216
 4099SOL     OW23755   2.503   3.331  17.693  0.2511  0.9519  0.4095
 4099SOL    HW123756   2.537   3.353  17.606 -0.1805 -0.3140 -0.0826
 4099SOL    HW223757   2.549   3.249   0.013  0.2640  1.2030  1.3935
 4100SOL     OW23758   4.513   0.361   3.128 -0.0511  0.3789  0.5901
 4100SOL    HW123759   4.464   0.444   3.126 -0.3942  0.1135 -2.0570
 4100SOL    HW223760   4.600   0.391   3.101  1.0141 -1.9487  1.4144
 4101SOL     OW23761   2.562   4.614   6.895 -0.9356 -0.1076  0.2577
 4101SOL    HW123762   2.591   4.621   6.986  1.3171  2.3850 -0.6355
 4101SOL    HW223763   2.651   4.596   6.864 -1.3157  0.0761 -0.9507
 4102SOL     OW23764   3.850   0.687   7.191  0.4911 -0.1746 -0.0731
 4102SOL    HW123765   3.906   0.613   7.170 -2.5314 -2.1598 -1.2344
 4102SOL    HW223766   3.859   0.729   7.105 -0.3785 -0.6406 -0.3975
 4103SOL     OW23767   0.762   3.180   4.560  0.3616 -0.5783  0.0022
 4103SOL    HW123768   0.787   3.214   4.646  0.5628 -1.9428  0.4898
 4103SOL    HW223769   0.682   3.129   4.574  0.1603  0.4319  2.6426
 4104SOL     OW23770   3.072   1.083  13.419  0.3450  0.1237 -0.0520
 4104SOL    HW123771   3.071   1.087  13.515  0.0260  1.7874 -0.1298
 4104SOL    HW223772   2.980   1.070  13.398  0.5440  2.5243 -2.3507
 4105SOL     OW23773   1.637   2.294   3.144  0.2560 -0.4224 -0.0520
 4105SOL    HW123774   1.663   2.372   3.095  0.3663 -0.9067 -0.7658
 4105SOL    HW223775   1.693   2.229   3.102  1.4803  0.9738 -0.6096
 4106SOL     OW23776   0.516   2.661   5.672  0.1285  0.2685  0.5117
 4106SOL    HW123777   0.510   2.568   5.648  2.8856  0.0057  0.8454
 4106SOL    HW223778   0.421   2.672   5.667  0.0797 -0.1208  0.5499
 4107SOL     OW23779   2.000   0.567   4.749 -0.3605 -0.7321  0.5839
 4107SOL    HW123780   1.926   0.548   4.691 -0.4631 -1.0212  0.8063
 4107SOL    HW223781   1.947   0.615   4.813  1.3736  2.0662 -0.1060
 4108SOL     OW23782   2.418   0.801  10.745 -0.2887  0.4088  0.0871
 4108SOL    HW123783   2.404   0.738  10.674 -0.7924  0.0811  0.4715
 4108SOL    HW223784   2.407   0.877  10.687 -0.5102  0.3566  0.0578
 4109SOL     OW23785   4.554   2.154   2.899 -0.2189  0.3328 -0.0007
 4109SOL    HW123786   4.524   2.245   2.898 -1.1744  0.0203  0.5953
 4109SOL    HW223787   4.522   2.120   2.815  0.5806  0.0604 -0.1938
 4110SOL     OW23788   3.354   4.177   3.318 -0.4776 -0.6285 -0.0787
 4110SOL    HW123789   3.307   4.104   3.359 -0.9315  0.8606  2.0461
 4110SOL    HW223790   3.442   4.163   3.354 -1.5808 -0.9715  2.4976
 4111SOL     OW23791   4.423   1.733  16.004 -0.0454 -0.4897 -0.1352
 4111SOL    HW123792   4.470   1.705  16.083  0.0509 -1.8566 -0.6761
 4111SOL    HW223793   4.357   1.665  15.996  2.1377 -2.6292 -0.0648
 4112SOL     OW23794   3.095   4.552   1.695 -0.0122  0.4699  0.5688
 4112SOL    HW123795   3.161   4.500   1.742  1.3444  3.5616  2.1211
 4112SOL    HW223796   3.118   4.644   1.704 -0.5008  0.5866  0.6101
 4113SOL     OW23797   4.682   0.160   2.793 -0.5909 -1.0084  0.4268
 4113SOL    HW123798   4.599   0.141   2.838 -1.2069  0.9915  0.1507
 4113SOL    HW223799   0.018   0.115   2.852  2.8289 -0.3718 -2.6005
 4114SOL     OW23800   3.534   4.233   2.849 -0.1220  0.0757 -0.2009
 4114SOL    HW123801   3.629   4.232   2.854 -0.1710  1.5146  1.0733
 4114SOL    HW223802   3.526   4.146   2.888  2.1368 -0.6611 -1.3767
 4115SOL     OW23803   3.450   0.442   3.572 -0.4760 -0.9322  0.2797
 4115SOL    HW123804   3.518   0.486   3.623  0.6399 -0.9904 -1.1845
 4115SOL    HW223805   3.493   0.359   3.552  1.1744 -0.0778  0.3508
 4116SOL     OW23806   1.114   0.339   0.375  0.1744  0.5052 -0.4371
 4116SOL    HW123807   1.137   0.418   0.424 -1.5688 -0.9667  2.7774
 4116SOL    HW223808   1.175   0.279   0.417 -1.0285 -0.6890 -0.4016
 4117SOL     OW23809   4.110   1.003   0.816  0.2971 -0.5592  0.7112
 4117SOL    HW123810   4.132   1.081   0.867 -2.6873  0.0245  1.1243
 4117SOL    HW223811   4.188   1.002   0.762  0.4567  1.8824  0.8716
 4118SOL     OW23812   4.291   3.425   5.575  0.4047 -0.1775  0.6273
 4118SOL    HW123813   4.316   3.493   5.637 -0.8443  0.5252  0.3734
 4118SOL    HW223814   4.378   3.393   5.551 -0.7825 -1.6184 -1.7636
 4119SOL     OW23815   2.652   0.389   5.283 -0.1114  0.4928  0.2766
 4119SOL    HW123816   2.643   0.381   5.188 -0.8003  2.8771  0.1391
 4119SOL    HW223817   2.667   0.483   5.289 -1.1609  0.8304 -2.3123
 4120SOL     OW23818   3.067   3.735   7.329  0.2047 -0.3623 -0.4091
 4120SOL    HW123819   3.056   3.654   7.377 -0.9518 -0.7123 -1.2531
 4120SOL    HW223820   3.042   3.804   7.391 -0.7873 -0.7380 -0.3893
 4121SOL     OW23821   4.165   2.472   8.479 -0.5999  0.1611  0.0468
 4121SOL    HW123822   4.140   2.380   8.487  0.8423 -0.1818  0.5957
 4121SOL    HW223823   4.115   2.508   8.552 -1.5877 -1.5698  0.2077
 4122SOL     OW23824   1.282   0.352  10.660 -0.3092  0.1869 -0.5264
 4122SOL    HW123825   1.249   0.431  10.619  1.2761  0.3451 -1.5179
 4122SOL    HW223826   1.350   0.327  10.597  2.3679  1.8616  1.6736
 4123SOL     OW23827   0.698   3.282   5.275  0.3027 -0.3919 -0.1203
 4123SOL    HW123828   0.703   3.283   5.180  0.1565  1.3904 -0.1140
 4123SOL    HW223829   0.791   3.294   5.295 -0.1405  4.7374 -1.2036
 4124SOL     OW23830   0.112   1.612  12.545 -0.1454 -0.3980  0.0896
 4124SOL    HW123831   0.192   1.566  12.570 -1.0432 -0.9071  2.0023
 4124SOL    HW223832   0.150   1.675  12.483 -1.1973  0.9192  0.7805
 4125SOL     OW23833   4.241   3.201   4.771 -0.0035 -0.0772 -0.2368
 4125SOL    HW123834   4.157   3.162   4.795 -0.2552  0.6138 -0.0017
 4125SOL    HW223835   4.213   3.292   4.763 -1.6333 -0.6392 -1.0610
 4126SOL     OW23836   1.541   2.007   5.688 -0.2952  0.0713  0.1368
 4126SOL    HW123837   1.522   2.085   5.635 -2.6505 -0.9834 -0.5763
 4126SOL    HW223838   1.602   2.045   5.751  0.4124 -1.7706  0.5340
 4127SOL     OW23839   2.923   4.264   8.114  0.3102 -0.1376 -0.4753
 4127SOL    HW123840   2.930   4.356   8.137 -0.2875 -0.2608  0.1978
 4127SOL    HW223841   3.012   4.230   8.119  0.1212 -0.4882  0.4332
 4128SOL     OW23842   0.860   2.219   5.908  0.0120 -0.4355  0.0872
 4128SOL    HW123843   0.811   2.258   5.836 -0.2283  0.5687  0.7970
 4128SOL    HW223844   0.841   2.280   5.979 -3.5140 -0.6317 -0.6540
 4129SOL     OW23845   2.048   2.539  11.353  0.5634 -0.7161  0.0315
 4129SOL    HW123846   2.130   2.492  11.339  1.7813  1.2844  0.3951
 4129SOL    HW223847   2.096   2.621  11.366  1.5988 -1.5278  1.3106
 4130SOL     OW23848   3.463   3.676   9.897  0.2172  0.2648 -0.0572
 4130SOL    HW123849   3.388   3.649   9.950  0.7131 -0.7330  0.1455
 4130SOL    HW223850   3.427   3.676   9.808  0.9111  2.4872 -0.3510
 4131SOL     OW23851   1.241   0.293   6.792 -0.5424  0.0896 -0.1429
 4131SOL    HW123852   1.173   0.226   6.782 -0.7578  1.0072 -4.7335
 4131SOL    HW223853   1.270   0.305   6.702 -2.2654 -0.9255 -0.8288
 4132SOL     OW23854   1.384   3.451   7.316  0.2726 -0.3957 -0.4657
 4132SOL    HW123855   1.368   3.486   7.404 -2.5399  0.2162 -1.1908
 4132SOL    HW223856   1.410   3.364   7.344  1.3895 -0.3135 -1.2869
 4133SOL     OW23857   4.059   4.271   0.536 -0.1099 -0.3104  0.1169
 4133SOL    HW123858   3.976   4.230   0.560 -0.2685  0.4506  0.8535
 4133SOL    HW223859   4.126   4.230   0.591 -1.6635 -0.4062  1.9261
 4134SOL     OW23860   3.373   4.112  17.549 -0.3832  0.0194  0.9077
 4134SOL    HW123861   3.280   4.115  17.570 -1.0252  0.3900 -1.9455
 4134SOL    HW223862   3.369   4.035  17.492  3.7271 -0.2348  0.9864
 4135SOL     OW23863   4.543   1.713   7.146  0.0244  0.1278 -0.7817
 4135SOL    HW123864   4.521   1.764   7.068  1.2823  1.4670 -0.2556
 4135SOL    HW223865   4.456   1.674   7.151  0.7909 -1.2953  1.2186
 4136SOL     OW23866   3.650   0.639   0.589  0.1256 -0.4437  0.0331
 4136SOL    HW123867   3.565   0.682   0.601  1.0675  1.5429 -0.4671
 4136SOL    HW223868   3.682   0.684   0.511 -1.9245  1.6147  0.3772
 4137SOL     OW23869   3.635   1.912   1.659  0.6229  0.2618 -0.0070
 4137SOL    HW123870   3.677   1.997   1.664  0.0148  0.4758  1.6083
 4137SOL    HW223871   3.548   1.937   1.692  1.8732  1.7040  2.1688
 4138SOL     OW23872   3.170   4.181   7.059 -0.4180  0.0601  0.1373
 4138SOL    HW123873   3.096   4.156   7.114 -1.0306  1.0448 -0.2390
 4138SOL    HW223874   3.159   4.128   6.981  0.7791 -1.0166  0.7028
 4139SOL     OW23875   3.522   4.408   8.118 -0.3352  0.2944  0.1784
 4139SOL    HW123876   3.525   4.327   8.068 -0.3348 -0.3714  1.2655
 4139SOL    HW223877   3.539   4.469   8.047 -0.5089 -1.9967 -1.8186
 4140SOL     OW23878   3.115   4.006   6.849 -0.7470 -0.4493  0.5716
 4140SOL    HW123879   3.049   3.946   6.814 -1.8402  1.4261 -0.5681
 4140SOL    HW223880   3.093   4.089   6.806 -2.0267 -2.0046 -1.7507
 4141SOL     OW23881   4.457   4.689   7.635 -0.1332  0.0362  0.0323
 4141SOL    HW123882   4.387   4.632   7.603  0.5474 -2.0466  2.2050
 4141SOL    HW223883   4.509   4.635   7.695 -0.4564  0.1223  0.3889
 4142SOL     OW23884   4.100   1.238   7.889  0.2501 -0.3336  0.0744
 4142SOL    HW123885   4.049   1.207   7.964 -2.4477  0.2332 -1.5334
 4142SOL    HW223886   4.135   1.154   7.861  2.1049  0.5688 -0.3361
 4143SOL     OW23887   0.102   4.133   4.527 -0.0657  0.2459 -0.0787
 4143SOL    HW123888   0.075   4.094   4.610  0.6196  2.0247  0.9827
 4143SOL    HW223889   0.091   4.054   4.474 -0.8612 -0.7063  1.4981
 4144SOL     OW23890   0.247   4.113   7.039 -0.7023 -0.3362 -0.1901
 4144SOL    HW123891   0.174   4.169   7.065 -0.3353  0.3959 -0.7162
 4144SOL    HW223892   0.211   4.076   6.958  1.0644 -1.6125 -0.3935
 4145SOL     OW23893   3.460   1.339  15.509  0.6053 -0.3971 -0.0812
 4145SOL    HW123894   3.519   1.331  15.434  2.9798 -0.9033  1.8272
 4145SOL    HW223895   3.431   1.429  15.492 -0.7742 -0.9337 -0.5406
 4146SOL     OW23896   3.364   2.819   4.126  0.1661  0.4145  0.0585
 4146SOL    HW123897   3.434   2.839   4.064  0.4816  1.5044  0.7653
 4146SOL    HW223898   3.318   2.903   4.123  1.7215  1.1429 -3.4091
 4147SOL     OW23899   1.236   2.268   7.263  0.1851  0.2597  1.1897
 4147SOL    HW123900   1.196   2.253   7.349 -2.7958 -0.2077 -0.2982
 4147SOL    HW223901   1.192   2.198   7.214 -1.3055  2.3472 -0.4274
 4148SOL     OW23902   2.799   3.468   8.171 -0.9046 -0.1520 -0.0447
 4148SOL    HW123903   2.706   3.479   8.191 -1.0976 -1.3959 -0.2961
 4148SOL    HW223904   2.830   3.457   8.260 -0.6334 -1.5046 -0.3063
 4149SOL     OW23905   4.502   2.599  13.010 -0.1417  0.5672  0.1631
 4149SOL    HW123906   4.489   2.532  13.077 -0.8187  0.9178  0.3815
 4149SOL    HW223907   4.494   2.676  13.066 -1.5231  0.4957  0.0535
 4150SOL     OW23908   3.927   0.435   4.325  0.3628  0.1425  0.6045
 4150SOL    HW123909   3.885   0.513   4.289 -1.3252 -0.5926  0.9896
 4150SOL    HW223910   3.969   0.400   4.246 -4.7290 -1.1886 -1.4839
 4151SOL     OW23911   1.885   1.815   1.306 -0.3036  0.3036 -0.5468
 4151SOL    HW123912   1.968   1.861   1.293 -0.9750  1.7729  0.3388
 4151SOL    HW223913   1.896   1.753   1.234 -0.3549 -0.5824  0.2033
 4152SOL     OW23914   4.253   3.216   0.570  1.0757 -0.1024  0.2735
 4152SOL    HW123915   4.259   3.310   0.553 -0.1998 -0.2681 -1.0243
 4152SOL    HW223916   4.168   3.201   0.611  0.8217  4.9909  1.5855
 4153SOL     OW23917   2.363   3.663   6.898  0.2509  0.3237  0.2403
 4153SOL    HW123918   2.335   3.589   6.951  1.6482  0.8784  1.7587
 4153SOL    HW223919   2.342   3.738   6.954  0.0387  1.1642 -0.9589
 4154SOL     OW23920   2.607   0.937   3.888 -0.1605 -0.6998  0.1239
 4154SOL    HW123921   2.567   1.003   3.944 -0.5068  0.8007 -1.8550
 4154SOL    HW223922   2.677   0.899   3.941 -1.8854 -2.0319  1.4197
 4155SOL     OW23923   4.528   1.289   8.647 -0.4677  0.1174  0.5893
 4155SOL    HW123924   4.503   1.301   8.556  0.7504 -0.7984  0.1292
 4155SOL    HW223925   4.588   1.363   8.655  0.3240 -0.6312  1.5833
 4156SOL     OW23926   0.861   4.701  12.649 -0.3659  0.5827 -0.1390
 4156SOL    HW123927   0.773   0.006  12.625 -0.9976 -0.7999  0.4705
 4156SOL    HW223928   0.903   0.060  12.671 -2.3267  1.8721 -1.3365
 4157SOL     OW23929   0.168   2.989   5.392 -0.4547 -0.1166 -0.1580
 4157SOL    HW123930   0.249   2.939   5.398 -0.3186 -0.0831 -1.7929
 4157SOL    HW223931   0.119   2.945   5.323 -0.3677  1.3907 -1.1965
 4158SOL     OW23932   4.282   2.776   6.998 -0.2847  0.4045  0.5473
 4158SOL    HW123933   4.268   2.789   6.904 -1.6446  2.0894  0.9804
 4158SOL    HW223934   4.207   2.720   7.021  0.1875 -1.0792 -1.5465
 4159SOL     OW23935   0.920   3.651   6.931  0.3587 -0.4114  0.5522
 4159SOL    HW123936   0.969   3.611   7.002  2.3616 -0.3504 -0.7922
 4159SOL    HW223937   0.938   3.580   6.869 -2.2207 -1.1521  0.6642
 4160SOL     OW23938   3.119   1.855   6.520 -0.5377 -0.0903 -0.1246
 4160SOL    HW123939   3.062   1.927   6.544  0.8600  0.7519  0.6815
 4160SOL    HW223940   3.100   1.846   6.427  0.9607  1.4182 -0.5673
 4161SOL     OW23941   4.118   4.350   8.364 -0.0716  0.6530  0.2112
 4161SOL    HW123942   4.167   4.268   8.363  1.5710  1.6367  0.1440
 4161SOL    HW223943   4.160   4.407   8.429  1.0637 -0.8310  0.7930
 4162SOL     OW23944   2.033   3.411   2.737  0.6327 -0.0737  0.2396
 4162SOL    HW123945   2.046   3.384   2.828  0.0618  0.3510  0.4454
 4162SOL    HW223946   2.079   3.493   2.718  1.6271 -0.5550  0.5527
 4163SOL     OW23947   2.012   4.365   6.624  0.1252 -0.0765 -0.1142
 4163SOL    HW123948   1.999   4.271   6.639 -0.3094 -0.0560 -0.3825
 4163SOL    HW223949   2.100   4.376   6.660  0.4499  0.3349 -1.0315
 4164SOL     OW23950   3.312   2.346   5.409  0.2233 -0.3066 -0.3437
 4164SOL    HW123951   3.387   2.286   5.402 -0.4973 -1.4261  1.5486
 4164SOL    HW223952   3.257   2.299   5.470 -0.3201  2.8009  1.5710
 4165SOL     OW23953   0.150   0.133   5.929  0.5702  0.2046 -0.1647
 4165SOL    HW123954   0.071   0.087   5.903 -0.5446  2.3906 -0.6743
 4165SOL    HW223955   0.127   0.224   5.907 -0.3306  0.5221  2.0350
 4166SOL     OW23956   1.622   3.155   4.970 -0.3187 -0.1604  0.1513
 4166SOL    HW123957   1.603   3.106   4.890  3.0608 -0.0112 -0.7499
 4166SOL    HW223958   1.697   3.109   5.007  0.2198  0.6711  0.0818
 4167SOL     OW23959   1.321   3.450  11.328  0.1666  0.5518 -0.3126
 4167SOL    HW123960   1.334   3.544  11.339  0.0962  0.4779  0.4744
 4167SOL    HW223961   1.266   3.434  11.406  1.1990 -0.8435  0.1271
 4168SOL     OW23962   0.238   1.681   4.088 -0.1571 -0.2710 -0.0448
 4168SOL    HW123963   0.245   1.768   4.049  1.3011 -0.1425  0.4997
 4168SOL    HW223964   0.144   1.665   4.084 -0.5944  2.4016 -0.0567
 4169SOL     OW23965   2.589   0.289  16.461  0.1066  0.2691  0.6091
 4169SOL    HW123966   2.601   0.307  16.554  2.6607 -2.8934  0.8903
 4169SOL    HW223967   2.570   0.379  16.434  2.4909  0.3925 -0.7239
 4170SOL     OW23968   2.696   1.985  16.769  0.8061  0.0747  0.6579
 4170SOL    HW123969   2.776   2.008  16.816  1.4724  2.5130 -1.6904
 4170SOL    HW223970   2.699   2.057  16.706  1.6024 -1.2568 -0.8158
 4171SOL     OW23971   2.869   4.211   0.047  0.3602 -0.0482 -0.6489
 4171SOL    HW123972   2.900   4.292   0.008  0.3672  1.0622  1.6737
 4171SOL    HW223973   2.776   4.226   0.031  0.7013  0.2866 -2.2751
 4172SOL     OW23974   0.500   0.845   1.103  0.0350  0.6603 -0.4497
 4172SOL    HW123975   0.528   0.816   1.016 -1.9784  0.3432 -0.9885
 4172SOL    HW223976   0.534   0.935   1.099 -1.7249  1.3718  0.8570
 4173SOL     OW23977   4.280   1.865  15.806  0.3456  0.0012  0.5322
 4173SOL    HW123978   4.327   1.832  15.883 -0.1249  0.5978  1.0768
 4173SOL    HW223979   4.333   1.940  15.778 -0.9389  0.1532 -1.4716
 4174SOL     OW23980   3.014   3.679   8.838  0.3564 -0.5072  0.3627
 4174SOL    HW123981   3.096   3.630   8.834  1.5974  1.7342 -1.7318
 4174SOL    HW223982   2.988   3.704   8.749 -0.7130  1.1098  1.1313
 4175SOL     OW23983   3.024   4.047   3.200  0.6742 -0.7777 -0.0880
 4175SOL    HW123984   3.064   4.126   3.164  1.5877 -0.4397  1.6515
 4175SOL    HW223985   2.935   4.070   3.171  0.2355 -0.8732  1.1808
 4176SOL     OW23986   0.142   3.810   8.179  0.6984  0.1429  0.5868
 4176SOL    HW123987   0.189   3.870   8.236 -3.3154  3.2831  0.6278
 4176SOL    HW223988   0.126   3.726   8.223 -0.5020  0.5705  0.9595
 4177SOL     OW23989   1.397   2.244   4.563  0.1491  0.3926 -0.4688
 4177SOL    HW123990   1.305   2.245   4.591  0.3349  0.3528  0.1386
 4177SOL    HW223991   1.384   2.251   4.468  2.0381  0.4696 -0.7232
 4178SOL     OW23992   1.771   1.799   8.929  0.2929  0.0500 -0.8492
 4178SOL    HW123993   1.793   1.709   8.954  1.3164  0.3592 -0.6661
 4178SOL    HW223994   1.850   1.847   8.954  0.0557 -0.3775  0.7476
 4179SOL     OW23995   4.304   4.073   5.172  0.3262 -0.6086  0.5514
 4179SOL    HW123996   4.327   4.159   5.209 -0.7931 -0.6845  1.4117
 4179SOL    HW223997   4.264   4.096   5.088 -0.9695 -0.4541  1.2124
 4180SOL     OW23998   1.468   2.737   9.031 -0.0066 -0.4196 -0.1734
 4180SOL    HW123999   1.498   2.789   9.106  0.3158 -0.1612 -0.4809
 4180SOL    HW224000   1.403   2.789   8.984  0.8003  0.5172 -0.2683
 4181SOL     OW24001   4.723   4.575   5.210 -0.2414  0.0237  0.2680
 4181SOL    HW124002   0.026   4.586   5.119  1.4289 -2.1479  0.5229
 4181SOL    HW224003   0.081   4.578   5.258  0.6677  0.8400 -1.3688
 4182SOL     OW24004   0.599   0.779  14.409  0.8388  0.3624  0.1199
 4182SOL    HW124005   0.551   0.741  14.483 -1.6906 -1.3454 -2.4002
 4182SOL    HW224006   0.637   0.859  14.446 -0.8015  0.5421  1.3910
 4183SOL     OW24007   3.179   2.114   7.897 -0.4323 -0.3146  0.5732
 4183SOL    HW124008   3.268   2.081   7.910 -0.0198  0.6453  0.2256
 4183SOL    HW224009   3.169   2.164   7.978 -0.5309  0.2061  0.2390
 4184SOL     OW24010   2.302   1.314  16.589  0.0945 -0.3430 -0.1396
 4184SOL    HW124011   2.384   1.342  16.547 -0.8817 -0.0871 -1.9091
 4184SOL    HW224012   2.242   1.354  16.526  1.2689  0.0890 -0.9848
 4185SOL     OW24013   1.869   1.365   8.594  0.1065  0.6126  0.1102
 4185SOL    HW124014   1.918   1.315   8.659  1.1937  2.3516  0.6541
 4185SOL    HW224015   1.913   1.450   8.597 -1.9297  1.5845  2.4963
 4186SOL     OW24016   0.197   2.173   1.271  0.0258 -0.1415  0.2309
 4186SOL    HW124017   0.109   2.206   1.289 -1.0847 -2.6619 -0.4967
 4186SOL    HW224018   0.171   2.098   1.217 -1.0440  0.8325 -0.6124
 4187SOL     OW24019   3.362   3.402   7.128  0.3588 -0.5551 -0.2696
 4187SOL    HW124020   3.431   3.336   7.117  0.1106 -0.6331 -1.3408
 4187SOL    HW224021   3.382   3.467   7.061 -1.2442 -0.9414 -1.1032
 4188SOL     OW24022   0.785   4.445   7.796  0.1334 -0.0271  0.2157
 4188SOL    HW124023   0.845   4.425   7.867 -0.2505  0.4086  0.6610
 4188SOL    HW224024   0.806   4.536   7.779  1.9469 -0.2843  1.1075
 4189SOL     OW24025   3.282   3.613   1.883 -0.4268  0.0487 -0.0774
 4189SOL    HW124026   3.362   3.663   1.900  0.5911 -1.3574 -0.7304
 4189SOL    HW224027   3.282   3.628   1.788 -0.4570  2.5921  0.3195
 4190SOL     OW24028   4.002   3.772   7.315  0.1286 -0.4302  0.0731
 4190SOL    HW124029   3.910   3.794   7.325  0.1600 -0.3537  0.1880
 4190SOL    HW224030   4.033   3.761   7.405 -2.0105 -0.5648  0.7724
 4191SOL     OW24031   4.115   3.953   6.351 -0.2334 -0.2089 -0.1675
 4191SOL    HW124032   4.176   4.022   6.380 -1.3498  1.3885 -1.6297
 4191SOL    HW224033   4.036   3.996   6.382 -1.1787 -1.2674 -1.1338
 4192SOL     OW24034   2.979   0.845  11.813 -0.1748 -0.3292 -0.0292
 4192SOL    HW124035   2.965   0.865  11.906  0.2774 -0.1033 -0.0085
 4192SOL    HW224036   3.041   0.772  11.821  1.9141  1.5654  1.1897
 4193SOL     OW24037   0.998   4.126   9.863  0.0602 -0.0311 -0.8541
 4193SOL    HW124038   0.915   4.078   9.862 -1.4109  2.5194  1.3818
 4193SOL    HW224039   1.037   4.099   9.779  3.0423  0.1739  0.4742
 4194SOL     OW24040   2.586   4.184   1.905 -0.0140  0.0403  0.3682
 4194SOL    HW124041   2.629   4.114   1.854 -0.4963  0.8108 -1.1107
 4194SOL    HW224042   2.570   4.239   1.828 -1.9419 -0.0818  0.6999
 4195SOL     OW24043   1.097   2.573   4.616  0.2026  0.2846 -0.6179
 4195SOL    HW124044   1.016   2.539   4.580  0.4506 -1.2981  0.3526
 4195SOL    HW224045   1.144   2.493   4.639 -2.9359 -2.0857 -2.4520
 4196SOL     OW24046   3.395   4.654   8.706 -0.0849  0.2401  0.1800
 4196SOL    HW124047   3.488   4.632   8.709 -0.5279 -1.3027  2.1567
 4196SOL    HW224048   3.397   4.724   8.771  0.2175  1.8262 -1.5270
 4197SOL     OW24049   0.167   0.143   7.138  0.6261  0.3294 -0.2514
 4197SOL    HW124050   0.200   0.123   7.226 -0.2662 -0.5420 -0.1232
 4197SOL    HW224051   0.147   0.237   7.146  0.2210  0.1253  1.2394
 4198SOL     OW24052   2.855   1.685  15.250  0.2295  0.4255 -0.0989
 4198SOL    HW124053   2.866   1.773  15.288 -1.4004  0.2320  0.8375
 4198SOL    HW224054   2.899   1.705  15.168  0.3250  1.4551  0.2024
 4199SOL     OW24055   0.937   3.957  16.025  0.2225  0.4935 -0.9126
 4199SOL    HW124056   0.981   4.038  16.050 -0.2866  0.4247  0.2024
 4199SOL    HW224057   0.918   3.979  15.934 -0.3677  1.0695 -0.6544
 4200SOL     OW24058   0.457   4.137   4.786  0.3657 -0.2217 -0.2343
 4200SOL    HW124059   0.514   4.170   4.855 -0.6596 -0.1140  0.5506
 4200SOL    HW224060   0.455   4.199   4.713  0.9892  1.2048  0.9589
 4201SOL     OW24061   4.556   2.234  12.994  0.2934 -0.0336  0.0168
 4201SOL    HW124062   4.506   2.182  13.056 -1.2336  2.5079  0.9155
 4201SOL    HW224063   4.551   2.319  13.037  0.4231 -0.2129  0.3868
 4202SOL     OW24064   3.264   1.245   6.458 -0.1437  0.5246  0.2859
 4202SOL    HW124065   3.266   1.309   6.386  2.2809  0.2643  0.1042
 4202SOL    HW224066   3.181   1.206   6.432  0.3570  0.5544 -1.3692
 4203SOL     OW24067   4.585   2.628  10.516  0.3159  0.0391  0.6819
 4203SOL    HW124068   4.630   2.655  10.596  2.9450 -1.6684 -0.2267
 4203SOL    HW224069   4.492   2.635  10.539 -0.2169 -0.1579 -1.3970
 4204SOL     OW24070   3.859   0.667   4.199 -0.8467  0.1431  0.0391
 4204SOL    HW124071   3.864   0.744   4.255  0.7905 -1.2848  1.8650
 4204SOL    HW224072   3.949   0.675   4.166  0.2867  1.0359  3.4066
 4205SOL     OW24073   3.307   0.749   3.677  0.1054 -0.0117  0.3248
 4205SOL    HW124074   3.371   0.679   3.690 -1.0550 -0.7319  2.2350
 4205SOL    HW224075   3.324   0.764   3.584  3.0832 -3.0142  0.3909
 4206SOL     OW24076   2.558   1.451   5.630 -0.0492  0.0117  0.0513
 4206SOL    HW124077   2.466   1.465   5.606 -0.1009 -0.0663  0.2016
 4206SOL    HW224078   2.584   1.538   5.658  1.8183 -1.0407  1.5895
 4207SOL     OW24079   4.486   1.947  14.813 -0.7621 -0.2255 -0.6224
 4207SOL    HW124080   4.525   2.034  14.814  4.0934 -2.3924 -1.0533
 4207SOL    HW224081   4.417   1.957  14.879  0.1401  1.3593  0.0709
 4208SOL     OW24082   3.929   1.366   8.552  0.4266  0.4828 -0.1569
 4208SOL    HW124083   3.988   1.291   8.560 -0.2245 -0.1024 -0.7838
 4208SOL    HW224084   3.979   1.432   8.599  0.9390 -0.6885  0.9335
 4209SOL     OW24085   0.947   0.061   4.972  0.0482 -0.2246 -0.7187
 4209SOL    HW124086   0.957   4.704   5.021 -0.1089 -0.4377 -1.0389
 4209SOL    HW224087   0.963   0.126   5.040  1.0061 -0.8856 -0.3198
 4210SOL     OW24088   3.056   0.811   1.578 -0.4904 -0.5589 -0.1097
 4210SOL    HW124089   3.038   0.730   1.531 -0.4045 -0.9644  0.5515
 4210SOL    HW224090   3.058   0.785   1.670  1.8783 -0.2699 -0.0852
 4211SOL     OW24091   0.253   0.277  15.037 -0.2661  0.2176  0.1640
 4211SOL    HW124092   0.182   0.339  15.021  0.5225  1.1596  0.3037
 4211SOL    HW224093   0.263   0.236  14.951 -0.3936 -0.4307  0.4586
 4212SOL     OW24094   2.824   2.854  15.720 -0.0664 -0.0510  0.0246
 4212SOL    HW124095   2.833   2.900  15.637  1.3551  1.7150  1.1662
 4212SOL    HW224096   2.788   2.929  15.766 -1.8279 -0.7393 -0.2153
 4213SOL     OW24097   2.885   1.681   3.966 -0.2613  0.3099 -0.5016
 4213SOL    HW124098   2.893   1.637   4.050  0.0657  0.8440 -0.2470
 4213SOL    HW224099   2.798   1.654   3.937 -0.5334 -0.6552  1.2644
 4214SOL     OW24100   3.010   4.015  15.219 -0.5398 -0.0600  0.2318
 4214SOL    HW124101   2.962   3.998  15.301 -0.7531  1.5266  0.4419
 4214SOL    HW224102   2.991   3.936  15.169  1.9478 -0.0834 -0.6766
 4215SOL     OW24103   0.153   0.410   8.127  0.3946 -0.6324  0.2049
 4215SOL    HW124104   0.131   0.428   8.219 -0.5510  1.4888 -0.4523
 4215SOL    HW224105   0.087   0.345   8.102  1.3686 -1.4309 -0.2886
 4216SOL     OW24106   3.486   0.917  14.220 -0.7861  0.3392  0.2919
 4216SOL    HW124107   3.413   0.915  14.283 -1.0032 -0.0291  0.0320
 4216SOL    HW224108   3.451   0.846  14.166 -2.0259  0.9896  0.2314
 4217SOL     OW24109   2.843   3.157   2.603  0.4818  0.4295  0.3233
 4217SOL    HW124110   2.873   3.135   2.514  0.7773  0.7883  0.3349
 4217SOL    HW224111   2.761   3.198   2.579 -0.2512 -0.5768  1.1033
 4218SOL     OW24112   0.183   1.392  17.143  0.3844 -0.5447  0.3517
 4218SOL    HW124113   0.099   1.439  17.147  0.1386 -0.8792 -0.9316
 4218SOL    HW224114   0.146   1.304  17.137  0.9536 -0.8085  0.8098
 4219SOL     OW24115   0.968   0.649   9.323 -0.9759  0.3737 -0.2395
 4219SOL    HW124116   0.936   0.560   9.335 -2.6395  1.1146  0.7999
 4219SOL    HW224117   1.046   0.653   9.378 -0.7039  1.9698 -0.7403
 4220SOL     OW24118   1.685   0.881   6.484  0.2635  1.0821 -0.1131
 4220SOL    HW124119   1.638   0.913   6.407 -1.0106  1.3484  0.7838
 4220SOL    HW224120   1.616   0.876   6.550  0.9011 -1.5105  0.3611
 4221SOL     OW24121   4.374   2.992   3.827  0.1941  0.8839 -0.1622
 4221SOL    HW124122   4.421   2.910   3.839  0.9420  1.3331 -0.0417
 4221SOL    HW224123   4.301   2.973   3.886  0.3214  0.6696 -0.0740
 4222SOL     OW24124   0.688   2.135   3.265  0.1022 -0.5310 -0.8150
 4222SOL    HW124125   0.714   2.185   3.187  2.0405 -1.4802 -0.7707
 4222SOL    HW224126   0.654   2.205   3.321  1.9338 -0.8096  0.6402
 4223SOL     OW24127   2.193   1.922   0.928 -0.0242  0.2176 -0.6619
 4223SOL    HW124128   2.112   1.921   0.879 -0.3004 -1.2592 -0.1514
 4223SOL    HW224129   2.261   1.877   0.878 -1.1347 -0.0114 -1.9658
 4224SOL     OW24130   3.996   0.946  15.005  0.0377 -0.3625  0.0779
 4224SOL    HW124131   3.917   0.929  14.954  0.1866 -1.0466  0.0669
 4224SOL    HW224132   3.954   0.903  15.080  0.5271 -0.6609  0.1790
 4225SOL     OW24133   4.262   4.312  12.525  0.6891  1.3161  0.0253
 4225SOL    HW124134   4.213   4.247  12.475  0.6800 -0.2815  2.1183
 4225SOL    HW224135   4.187   4.361  12.558 -0.2501 -1.3486  1.8045
 4226SOL     OW24136   4.315   3.480   6.815  0.7550  0.0513 -0.1236
 4226SOL    HW124137   4.305   3.477   6.720  0.8735 -3.0493 -0.0384
 4226SOL    HW224138   4.401   3.438   6.823  0.3704 -0.4152  1.5468
 4227SOL     OW24139   1.810   3.771   1.543 -0.1403  0.5270 -0.1127
 4227SOL    HW124140   1.752   3.790   1.617  0.8038  1.6882  0.3309
 4227SOL    HW224141   1.748   3.781   1.471  0.7539 -2.9972 -1.3713
 4228SOL     OW24142   2.430   0.833   9.111  0.5039 -0.0888 -0.0639
 4228SOL    HW124143   2.356   0.777   9.086 -1.0390  2.6357 -1.5147
 4228SOL    HW224144   2.446   0.807   9.202 -1.9495  2.7031  1.1616
 4229SOL     OW24145   1.159   2.701  12.274 -0.3349  0.1615 -0.0649
 4229SOL    HW124146   1.142   2.689  12.367 -2.6420  1.7535 -0.2879
 4229SOL    HW224147   1.167   2.796  12.282  1.0992 -0.1054  1.7330
 4230SOL     OW24148   3.794   1.302  14.878 -0.2795 -0.0001 -0.4517
 4230SOL    HW124149   3.796   1.246  14.955  0.1346  1.3798  0.5327
 4230SOL    HW224150   3.884   1.296  14.844  1.0174 -0.1758  3.0588
 4231SOL     OW24151   3.438   1.525  17.005  0.2227 -0.0327  0.3005
 4231SOL    HW124152   3.364   1.496  17.060 -0.6271  1.6628  0.0576
 4231SOL    HW224153   3.421   1.619  16.994  1.5712 -0.2143 -3.2450
 4232SOL     OW24154   0.814   2.331  10.866  0.3162 -0.4010  0.1569
 4232SOL    HW124155   0.851   2.248  10.837 -1.8533 -1.7726  1.2876
 4232SOL    HW224156   0.849   2.344  10.954  0.1478  1.3605 -0.0319
 4233SOL     OW24157   4.318   2.994   2.555  0.2355 -0.3820  0.4598
 4233SOL    HW124158   4.357   2.966   2.638  0.6243  1.9872  1.0740
 4233SOL    HW224159   4.253   3.055   2.591 -0.2054  0.4903 -1.8446
 4234SOL     OW24160   1.260   4.565   6.123 -0.4179  0.4550  0.5605
 4234SOL    HW124161   1.230   4.482   6.087  0.6132  0.3140  0.0296
 4234SOL    HW224162   1.195   4.630   6.098  0.3621  0.6164 -1.0598
 4235SOL     OW24163   4.342   1.394   7.638 -0.2501 -0.1673 -0.3073
 4235SOL    HW124164   4.348   1.302   7.663 -0.6830  0.0346  0.5420
 4235SOL    HW224165   4.386   1.394   7.553  0.3505 -1.8815  0.0007
 4236SOL     OW24166   0.688   1.706   9.051 -0.4898  0.3058  0.1318
 4236SOL    HW124167   0.600   1.678   9.073 -0.7233 -0.3215 -1.5962
 4236SOL    HW224168   0.678   1.800   9.060  0.5911  0.4062  0.3700
 4237SOL     OW24169   2.253   3.303  10.678 -0.0871  0.5210  0.3478
 4237SOL    HW124170   2.169   3.306  10.724 -0.6830  0.1293 -0.7098
 4237SOL    HW224171   2.278   3.213  10.695 -1.3073  0.8665  3.8890
 4238SOL     OW24172   1.605   0.612   6.834 -0.6120 -0.2728  0.7561
 4238SOL    HW124173   1.519   0.622   6.874 -0.2261 -0.6615  1.6739
 4238SOL    HW224174   1.668   0.633   6.903  0.3789  1.4385 -0.6511
 4239SOL     OW24175   0.409   1.424   6.925  0.2348  0.5091 -0.0412
 4239SOL    HW124176   0.336   1.462   6.973  0.2434  0.5039 -0.0242
 4239SOL    HW224177   0.434   1.354   6.985  0.7989  0.3613 -0.4433
 4240SOL     OW24178   0.169   3.522   8.034  0.0086  0.0907  0.2193
 4240SOL    HW124179   0.167   3.427   8.029 -0.9258  0.1283 -0.1793
 4240SOL    HW224180   0.141   3.542   8.123 -0.7580 -2.4797  0.5340
 4241SOL     OW24181   3.522   3.072   9.010 -0.4667 -0.1490 -0.1562
 4241SOL    HW124182   3.509   3.126   9.088  0.4389 -1.0556  0.6210
 4241SOL    HW224183   3.551   3.136   8.944 -0.3993 -0.4798 -0.4439
 4242SOL     OW24184   2.524   0.964   5.974 -0.4439  0.0035  0.8996
 4242SOL    HW124185   2.559   0.926   5.893 -2.6332 -0.4254  0.1335
 4242SOL    HW224186   2.607   0.987   6.015 -0.7913  1.1391  0.9875
 4243SOL     OW24187   2.449   4.232  17.410  0.1149  0.2660 -0.1479
 4243SOL    HW124188   2.466   4.147  17.449 -5.2237 -0.8337 -0.2363
 4243SOL    HW224189   2.439   4.210  17.317 -1.4610 -0.0365  0.1011
 4244SOL     OW24190   3.024   1.936   9.487 -0.3986  0.0591  0.3767
 4244SOL    HW124191   2.999   1.848   9.516  0.5486 -0.2026  0.4042
 4244SOL    HW224192   3.093   1.955   9.550 -0.1021  0.2507 -0.0040
 4245SOL     OW24193   3.179   2.935  12.177  0.0447  0.3689  0.2862
 4245SOL    HW124194   3.104   2.958  12.232  0.5436 -1.5106  1.7624
 4245SOL    HW224195   3.231   3.015  12.170  1.6526 -0.6795  0.1295
 4246SOL     OW24196   1.826   2.132   3.051  0.5238 -0.2623  0.3293
 4246SOL    HW124197   1.861   2.092   2.971  1.6239 -1.9938  1.6693
 4246SOL    HW224198   1.904   2.142   3.105  0.5162  0.1213  0.2684
 4247SOL     OW24199   3.139   0.362   8.046  0.1851 -0.1344 -0.1488
 4247SOL    HW124200   3.187   0.426   8.099  0.6033  0.9721 -1.8704
 4247SOL    HW224201   3.113   0.304   8.118  0.0752  1.3168  0.9949
 4248SOL     OW24202   3.423   1.417   7.389  0.1623  0.0184  0.2752
 4248SOL    HW124203   3.481   1.492   7.394 -0.8699  0.9669 -2.1815
 4248SOL    HW224204   3.463   1.363   7.321 -1.9822 -0.2460 -0.7933
 4249SOL     OW24205   2.767   0.948   3.562  0.4081  0.1159 -0.0322
 4249SOL    HW124206   2.827   0.925   3.633  1.3396  1.0927 -0.5055
 4249SOL    HW224207   2.732   0.863   3.534  0.6562 -0.0272  0.0831
 4250SOL     OW24208   2.818   4.403   5.099  0.1609  0.5529  0.0317
 4250SOL    HW124209   2.727   4.431   5.101 -0.3256 -1.1140  0.9188
 4250SOL    HW224210   2.858   4.465   5.159 -0.2819 -0.1156  1.0065
 4251SOL     OW24211   1.743   0.220   5.846 -0.1057  0.3999 -0.2325
 4251SOL    HW124212   1.797   0.298   5.834  1.2386 -0.7638 -1.6703
 4251SOL    HW224213   1.687   0.242   5.921 -1.8528 -2.8139 -0.5938
 4252SOL     OW24214   0.169   0.478  10.735 -0.1652 -0.2882 -0.0622
 4252SOL    HW124215   0.187   0.388  10.710 -1.0318 -0.1258 -1.2594
 4252SOL    HW224216   0.074   0.484  10.722 -0.0631 -1.3296 -1.2946
 4253SOL     OW24217   0.007   0.562   3.749  0.2758  0.3950  0.2250
 4253SOL    HW124218   4.644   0.590   3.724  0.1030  0.6217  1.0837
 4253SOL    HW224219   0.046   0.542   3.663 -2.5823 -1.6312 -0.6061
 4254SOL     OW24220   0.186   1.058   6.263 -0.4389 -0.1123  0.2494
 4254SOL    HW124221   0.099   1.096   6.253  0.3288  1.8661  1.0313
 4254SOL    HW224222   0.191   0.985   6.201 -2.2789  0.8648 -1.0574
 4255SOL     OW24223   1.967   3.322   1.523  0.4676 -0.2262  0.1816
 4255SOL    HW124224   1.917   3.398   1.494  0.7776 -0.8703 -2.0040
 4255SOL    HW224225   1.887   3.269   1.527 -0.5322  1.3041  0.5137
 4256SOL     OW24226   0.635   4.567   3.125  0.0474 -0.2546 -0.4124
 4256SOL    HW124227   0.702   4.508   3.159  0.8635 -0.3460 -2.1538
 4256SOL    HW224228   0.646   4.571   3.030 -2.0523 -0.8939 -0.6887
 4257SOL     OW24229   2.972   1.295  17.518 -0.3202 -0.1832  0.1472
 4257SOL    HW124230   2.925   1.360  17.570  2.7053  2.1460  0.0125
 4257SOL    HW224231   3.019   1.359  17.464  0.5132 -4.1523 -3.7932
 4258SOL     OW24232   2.733   1.410  12.729 -0.4557 -0.3113 -0.1469
 4258SOL    HW124233   2.750   1.339  12.790  2.2997  0.1165 -0.4551
 4258SOL    HW224234   2.824   1.426  12.704 -0.6649  1.2307  0.1015
 4259SOL     OW24235   4.282   1.657   8.838 -0.0087  0.5828 -0.2853
 4259SOL    HW124236   4.316   1.590   8.896 -0.2142  0.2223 -0.5773
 4259SOL    HW224237   4.250   1.718   8.905  0.0960  1.4782 -1.0546
 4260SOL     OW24238   3.574   1.844   3.311  0.5419 -0.3984  0.2865
 4260SOL    HW124239   3.605   1.766   3.264 -0.5032  0.0204 -1.0857
 4260SOL    HW224240   3.663   1.871   3.334 -0.3393  1.9453  0.9171
 4261SOL     OW24241   4.527   3.329   4.835  0.4563  0.2779  0.2814
 4261SOL    HW124242   4.457   3.270   4.861  1.3844  0.3309  2.9610
 4261SOL    HW224243   4.495   3.413   4.869 -1.2852 -0.2752 -0.0049
 4262SOL     OW24244   1.444   0.507   9.650 -0.0794  0.2354 -0.2276
 4262SOL    HW124245   1.379   0.501   9.720  1.4515 -3.5900  0.8740
 4262SOL    HW224246   1.524   0.479   9.696 -0.0631  0.1251 -0.3240
 4263SOL     OW24247   2.298   4.621   5.400  0.4042  0.4491  0.3943
 4263SOL    HW124248   2.302   4.647   5.308  0.3684  1.8144  0.7870
 4263SOL    HW224249   2.212   4.579   5.408  0.5657  0.1292  0.4678
 4264SOL     OW24250   4.040   4.223  12.417 -0.1772  0.3711 -0.5260
 4264SOL    HW124251   3.991   4.142  12.432 -0.1558  0.1606 -1.5812
 4264SOL    HW224252   4.023   4.237  12.324  1.8423 -1.3847 -1.1490
 4265SOL     OW24253   1.763   3.536   2.166 -0.4384 -0.6472 -0.0605
 4265SOL    HW124254   1.742   3.518   2.074  0.7274  3.6094 -1.1640
 4265SOL    HW224255   1.858   3.542   2.161 -0.4873  1.0464  1.1196
 4266SOL     OW24256   4.129   1.464   6.616  1.1213 -0.3227 -0.0583
 4266SOL    HW124257   4.124   1.370   6.599 -0.5577 -0.5729  1.7356
 4266SOL    HW224258   4.201   1.475   6.678 -0.7525 -1.7984  2.3953
 4267SOL     OW24259   0.202   2.666   7.310 -0.3444 -0.5482  0.3419
 4267SOL    HW124260   0.149   2.658   7.389  1.4448  0.3254  1.6506
 4267SOL    HW224261   0.136   2.655   7.242 -2.1358 -0.5208  2.0766
 4268SOL     OW24262   0.369   2.866  12.157  0.3375 -0.2479  0.5297
 4268SOL    HW124263   0.330   2.936  12.104 -1.3576 -1.0547  0.7080
 4268SOL    HW224264   0.289   2.820  12.183 -0.4650  0.6047 -0.4183
 4269SOL     OW24265   2.368   4.469   7.569 -0.1758  0.3522 -0.4244
 4269SOL    HW124266   2.301   4.402   7.558 -0.4864  0.8364 -1.4511
 4269SOL    HW224267   2.338   4.557   7.547  1.2733  1.1361  0.7328
 4270SOL     OW24268   0.888   4.545   7.284  0.0047  0.6660  0.2869
 4270SOL    HW124269   0.983   4.542   7.271 -0.0833 -0.3071 -0.0994
 4270SOL    HW224270   0.872   4.451   7.278 -3.3448  1.3868 -2.3737
 4271SOL     OW24271   1.541   1.431   3.057  0.2719  0.4234 -0.2008
 4271SOL    HW124272   1.454   1.395   3.074  0.8448 -0.4037  0.9918
 4271SOL    HW224273   1.519   1.515   3.018 -0.0628  0.9114  1.0494
 4272SOL     OW24274   2.879   4.635  13.610  0.5344 -0.0413 -0.0520
 4272SOL    HW124275   2.843   4.569  13.551 -1.5868  1.0429  0.0440
 4272SOL    HW224276   2.801   4.650  13.662 -0.5328  0.2491 -1.7167
 4273SOL     OW24277   0.505   3.516   4.520 -0.0111 -0.0444  0.3880
 4273SOL    HW124278   0.492   3.471   4.603 -0.5461 -1.4515 -0.4578
 4273SOL    HW224279   0.582   3.472   4.484  0.8480  1.3612  0.5015
 4274SOL     OW24280   1.468   1.615   1.481 -0.1529 -0.0715  0.0284
 4274SOL    HW124281   1.472   1.548   1.413 -1.6762  2.7934 -2.8715
 4274SOL    HW224282   1.422   1.688   1.440  0.9122  0.7126  0.1944
 4275SOL     OW24283   1.301   2.978  13.601 -0.3434 -0.3117 -0.3369
 4275SOL    HW124284   1.335   3.023  13.678 -1.8625 -0.2171  0.2730
 4275SOL    HW224285   1.210   3.007  13.592 -0.1174  0.6373  0.4348
 4276SOL     OW24286   0.286   3.375   1.783 -0.4104  0.0844  0.2135
 4276SOL    HW124287   0.239   3.379   1.700 -2.0480 -2.7012  1.0444
 4276SOL    HW224288   0.352   3.441   1.760  0.5317 -0.3907  1.5664
 4277SOL     OW24289   1.622   2.077   4.553  0.0670 -0.6028  0.1848
 4277SOL    HW124290   1.690   2.117   4.499 -0.6951 -0.4584 -0.6610
 4277SOL    HW224291   1.552   2.142   4.562 -0.6798 -1.2355 -0.9596
 4278SOL     OW24292   4.392   4.513   9.572  0.2962 -0.1459  0.0533
 4278SOL    HW124293   4.450   4.463   9.513  1.0049 -0.5110  1.0562
 4278SOL    HW224294   4.443   4.534   9.650  1.9457  0.4907 -1.1796
 4279SOL     OW24295   1.420   3.415   9.769  0.2899 -0.6968 -0.3222
 4279SOL    HW124296   1.339   3.411   9.820  0.8525  0.2139  0.6362
 4279SOL    HW224297   1.436   3.321   9.765  0.8245 -0.4889 -3.4148
 4280SOL     OW24298   1.477   2.049   1.027  0.0785 -0.1004 -0.9033
 4280SOL    HW124299   1.521   2.104   0.962  1.3597 -0.9062 -0.7085
 4280SOL    HW224300   1.552   2.031   1.084 -1.8528 -1.7683  1.0965
 4281SOL     OW24301   3.190   2.554   7.173 -0.6126  0.0824 -0.4879
 4281SOL    HW124302   3.250   2.599   7.113 -0.5182 -0.9395 -1.1755
 4281SOL    HW224303   3.142   2.628   7.209  0.7170  0.2637  0.8749
 4282SOL     OW24304   1.310   0.730   9.145 -0.3561  0.1680  0.0883
 4282SOL    HW124305   1.216   0.713   9.130 -0.2204 -0.1697 -0.3806
 4282SOL    HW224306   1.340   0.730   9.054  0.8460 -3.1710  0.4916
 4283SOL     OW24307   1.815   4.492  16.707 -0.3739  0.4916 -0.4137
 4283SOL    HW124308   1.844   4.557  16.771 -0.7512  0.0578  0.2018
 4283SOL    HW224309   1.774   4.553  16.646 -1.6840  0.3699  0.3369
 4284SOL     OW24310   3.723   4.710  12.933 -0.4741  0.1919  0.0737
 4284SOL    HW124311   3.716   4.698  12.838  1.1246  0.5121 -0.0746
 4284SOL    HW224312   3.794   0.048  12.943 -0.7360  0.2029  1.8258
 4285SOL     OW24313   0.196   1.779  11.847  0.3258 -0.1842 -0.2637
 4285SOL    HW124314   0.269   1.817  11.895 -0.0221 -1.7563  1.5459
 4285SOL    HW224315   0.151   1.852  11.805  2.9320  1.5578 -0.0333
 4286SOL     OW24316   2.547   0.608  15.719  0.2651  0.4518  0.1104
 4286SOL    HW124317   2.530   0.558  15.639 -1.2309  1.1278  0.0098
 4286SOL    HW224318   2.481   0.566  15.773  1.0394  0.7985  1.3216
 4287SOL     OW24319   2.009   1.433   4.970 -0.1883  0.2311 -0.2646
 4287SOL    HW124320   1.969   1.419   4.885 -1.4549 -1.6128  0.6358
 4287SOL    HW224321   2.093   1.473   4.946 -0.1198  1.1600  1.5026
 4288SOL     OW24322   3.186   0.399  14.733 -0.4646  0.3088  0.3470
 4288SOL    HW124323   3.221   0.467  14.790 -0.2160  0.2421  0.2722
 4288SOL    HW224324   3.146   0.457  14.668 -0.6332 -0.4869 -0.2642
 4289SOL     OW24325   0.049   0.910  11.077  0.2456 -0.1052  0.1456
 4289SOL    HW124326   0.144   0.914  11.079  0.3174 -2.5145  2.3802
 4289SOL    HW224327   0.031   0.828  11.030 -0.6775  0.1259  0.1006
 4290SOL     OW24328   0.315   2.427   5.338 -0.5797 -0.5252  0.2712
 4290SOL    HW124329   0.294   2.443   5.246 -1.7815 -0.9749  0.4687
 4290SOL    HW224330   0.317   2.331   5.338 -1.9521 -0.5523 -0.2789
 4291SOL     OW24331   1.515   0.032   3.084 -0.0964 -0.0721 -0.0504
 4291SOL    HW124332   1.452   4.720   3.023  0.4467  1.1934 -1.3868
 4291SOL    HW224333   1.557   0.093   3.023 -0.7152  0.9431  0.5468
 4292SOL     OW24334   1.818   4.522   2.863 -0.3747  0.5023  0.2767
 4292SOL    HW124335   1.733   4.551   2.828 -0.6889 -1.1549 -0.3092
 4292SOL    HW224336   1.789   4.440   2.903  1.6166 -0.9890 -1.3327
 4293SOL     OW24337   3.211   1.459   3.873 -0.2362  0.4496 -0.3662
 4293SOL    HW124338   3.180   1.369   3.868  0.4852  0.2615 -1.5659
 4293SOL    HW224339   3.159   1.491   3.799  1.9464  1.4030 -1.4969
 4294SOL     OW24340   1.148   0.631   4.601 -0.1543 -0.3123 -0.0873
 4294SOL    HW124341   1.070   0.633   4.545 -1.1716  1.5612  1.3961
 4294SOL    HW224342   1.166   0.725   4.596 -1.0476 -0.1979 -1.0445
 4295SOL     OW24343   3.134   0.368   5.805  0.2547  0.4652 -0.2596
 4295SOL    HW124344   3.168   0.365   5.894  1.0827 -1.6947 -0.6474
 4295SOL    HW224345   3.162   0.458   5.793  1.8489 -0.3611 -2.6896
 4296SOL     OW24346   2.468   2.262   5.928  0.3191  0.0654  0.3317
 4296SOL    HW124347   2.387   2.288   5.971  0.3001  0.8483 -0.1781
 4296SOL    HW224348   2.491   2.190   5.987  0.5175 -1.0917 -1.1682
 4297SOL     OW24349   1.198   2.951   3.430 -0.4401  0.1125  0.1486
 4297SOL    HW124350   1.158   3.026   3.386  2.3333  2.6503  1.9973
 4297SOL    HW224351   1.275   2.992   3.470 -0.5541  1.4661 -1.0215
 4298SOL     OW24352   1.356   1.619   8.443  0.0420  0.0417  0.4321
 4298SOL    HW124353   1.371   1.629   8.538  2.6739 -1.2272  0.1470
 4298SOL    HW224354   1.397   1.536   8.418 -1.8692 -1.1180  1.1002
 4299SOL     OW24355   0.250   0.559   3.862 -0.0364 -0.1620  0.3530
 4299SOL    HW124356   0.285   0.499   3.796 -3.9825  1.6687 -3.3085
 4299SOL    HW224357   0.157   0.551   3.840 -0.5242  2.0978  1.6482
 4300SOL     OW24358   4.175   4.244   1.369  0.5994  0.2978  0.6402
 4300SOL    HW124359   4.184   4.255   1.464  2.1861 -0.0681  0.5342
 4300SOL    HW224360   4.087   4.278   1.355  1.5804  2.8079  0.5580
 4301SOL     OW24361   0.982   3.447   2.713 -0.0958 -0.1998  0.2179
 4301SOL    HW124362   0.915   3.401   2.663  0.6292  3.2010 -3.9742
 4301SOL    HW224363   0.982   3.414   2.802  1.1465 -3.0718 -0.8460
 4302SOL     OW24364   0.029   3.717   5.541 -0.0670  0.1115  0.3446
 4302SOL    HW124365   4.705   3.674   5.611 -0.2028 -0.3551 -0.0353
 4302SOL    HW224366   0.122   3.706   5.560 -0.3451 -1.3703  0.8431
 4303SOL     OW24367   1.418   4.435   1.421  0.6182 -0.5757  0.1183
 4303SOL    HW124368   1.461   4.515   1.388 -1.3321 -0.6423 -2.5324
 4303SOL    HW224369   1.478   4.413   1.493  0.0292  2.1831  1.4819
 4304SOL     OW24370   3.563   1.557   2.829 -0.3630 -0.1962 -0.4012
 4304SOL    HW124371   3.472   1.531   2.843 -0.7257  0.9909 -0.5204
 4304SOL    HW224372   3.609   1.492   2.881 -2.5437 -1.1026  0.3777
 4305SOL     OW24373   1.965   4.717  13.085  0.1932  0.5628 -0.2416
 4305SOL    HW124374   2.000   0.062  13.029 -2.4293 -0.6890 -3.4063
 4305SOL    HW224375   1.877   4.700  13.052  0.5268 -1.2891 -0.1639
 4306SOL     OW24376   1.947   1.995   2.860  0.0408 -0.0907 -0.1159
 4306SOL    HW124377   2.038   2.022   2.855  0.1085 -0.1069  1.0352
 4306SOL    HW224378   1.925   2.013   2.768  2.5663  3.6067  0.0518
 4307SOL     OW24379   2.322   2.299   3.281 -0.0697 -0.0120  0.4133
 4307SOL    HW124380   2.332   2.260   3.368 -0.5681  0.7691  0.8304
 4307SOL    HW224381   2.271   2.227   3.243  0.7195 -0.3042 -0.0827
 4308SOL     OW24382   3.534   1.147   2.443  0.0960 -0.2669  0.1844
 4308SOL    HW124383   3.513   1.117   2.355 -2.0772  1.5323  0.0872
 4308SOL    HW224384   3.485   1.084   2.497  0.7084 -0.4856  0.4857
 4309SOL     OW24385   0.481   3.299  13.839  0.5935  0.1015  0.3156
 4309SOL    HW124386   0.484   3.286  13.745  0.8650  0.4022  0.2848
 4309SOL    HW224387   0.546   3.368  13.851  0.2360  0.2074  1.6129
 4310SOL     OW24388   0.185   2.026   6.191  0.5133 -0.5863 -0.1555
 4310SOL    HW124389   0.149   1.976   6.264 -1.5906 -0.1171 -0.8805
 4310SOL    HW224390   0.227   1.961   6.134  2.2180 -0.1290  0.5696
 4311SOL     OW24391   1.353   4.416  15.265  0.3471 -0.4046  0.2239
 4311SOL    HW124392   1.428   4.357  15.252  0.8171 -0.1811  1.9718
 4311SOL    HW224393   1.337   4.405  15.358  0.3166  0.2380  0.2908
 4312SOL     OW24394   1.271   3.686   5.088  0.1306 -0.1116 -0.2803
 4312SOL    HW124395   1.346   3.660   5.034 -1.6147 -2.3510 -1.6476
 4312SOL    HW224396   1.309   3.761   5.134 -1.5382 -0.8425  2.3215
 4313SOL     OW24397   3.440   2.169  14.618  0.5437  0.2763 -0.1495
 4313SOL    HW124398   3.353   2.141  14.648  0.7801  0.7943  1.0160
 4313SOL    HW224399   3.493   2.094  14.643  0.6816 -0.0427 -1.4184
 4314SOL     OW24400   3.967   0.245   8.939  0.7032 -0.3113  0.0168
 4314SOL    HW124401   4.061   0.236   8.953  0.8659  4.9484  2.1779
 4314SOL    HW224402   3.952   0.152   8.955  2.2646 -0.4056  0.8822
 4315SOL     OW24403   3.617   2.094  16.943  0.1446  0.1980  0.2067
 4315SOL    HW124404   3.597   2.040  16.867  0.1938 -0.7750  0.8851
 4315SOL    HW224405   3.696   2.055  16.979 -0.0023  0.8631  1.2686
 4316SOL     OW24406   2.144   4.146   3.339 -0.3064 -0.7109 -0.0452
 4316SOL    HW124407   2.154   4.097   3.421  1.8368 -0.2663 -0.0237
 4316SOL    HW224408   2.219   4.205   3.330 -0.5617 -0.8595 -3.0972
 4317SOL     OW24409   3.996   0.306   4.075 -0.1141  0.1683 -0.0709
 4317SOL    HW124410   3.911   0.332   4.041  0.0267 -0.1389 -0.6695
 4317SOL    HW224411   4.060   0.334   4.009  1.7227 -1.7244  0.8841
 4318SOL     OW24412   4.415   3.261  11.699  0.1700  0.1669  0.1807
 4318SOL    HW124413   4.469   3.335  11.728  1.0880  0.3607 -2.0356
 4318SOL    HW224414   4.467   3.188  11.732 -0.1255  0.2599  0.8586
 4319SOL     OW24415   1.867   1.912   4.501 -0.0473  0.0431 -0.1731
 4319SOL    HW124416   1.786   1.951   4.468 -0.6860 -0.0273  1.3163
 4319SOL    HW224417   1.897   1.866   4.422  1.2400  1.9432 -0.7895
 4320SOL     OW24418   3.984   2.110   5.143 -0.1125  0.3504  0.3547
 4320SOL    HW124419   3.926   2.179   5.175  0.3782  0.2078  1.5423
 4320SOL    HW224420   4.045   2.104   5.217  1.8320  1.4048 -1.1395
 4321SOL     OW24421   2.196   0.600   1.395 -1.0202 -0.5831 -0.4349
 4321SOL    HW124422   2.275   0.591   1.341  0.1805 -2.0775  1.5631
 4321SOL    HW224423   2.224   0.672   1.452  0.2133 -1.9905  0.7305
 4322SOL     OW24424   0.965   0.686   5.847 -0.2171  0.4799  0.0373
 4322SOL    HW124425   1.002   0.738   5.776 -1.7381  0.2473 -0.9339
 4322SOL    HW224426   0.980   0.599   5.812  2.7667  0.3603  1.6080
 4323SOL     OW24427   2.721   2.075   5.897 -0.0480 -0.0556 -0.5554
 4323SOL    HW124428   2.647   2.044   5.950  0.1905 -0.8686 -0.6933
 4323SOL    HW224429   2.745   2.153   5.947 -0.9779 -0.5629  0.6702
 4324SOL     OW24430   3.911   0.625  13.876 -0.6467  0.0926 -0.2979
 4324SOL    HW124431   3.945   0.687  13.812  2.7052 -0.2169  1.1769
 4324SOL    HW224432   3.961   0.632  13.957 -2.8989 -1.9721  1.2676
 4325SOL     OW24433   4.545   1.119   0.153 -0.5467  0.0315 -0.4654
 4325SOL    HW124434   4.592   1.089   0.074 -0.0744 -0.1554 -0.1133
 4325SOL    HW224435   4.494   1.192   0.119  0.1330  0.9677  0.5587
 4326SOL     OW24436   1.071   2.376   4.066 -0.6834  0.1446  0.4421
 4326SOL    HW124437   1.157   2.335   4.066 -1.4614 -1.5210 -0.4055
 4326SOL    HW224438   1.020   2.316   4.121  1.2635  0.3666  2.4602
 4327SOL     OW24439   1.196   0.847  14.932  0.4394 -0.3359  0.2783
 4327SOL    HW124440   1.114   0.808  14.899  1.0730 -1.0003 -0.5106
 4327SOL    HW224441   1.172   0.877  15.019 -0.8808 -0.5995  0.0117
 4328SOL     OW24442   4.119   2.796   5.369 -0.1296 -0.2427  0.1828
 4328SOL    HW124443   4.034   2.763   5.340 -0.2652  0.5988 -0.4093
 4328SOL    HW224444   4.174   2.719   5.377 -0.4494 -0.5684 -0.6881
 4329SOL     OW24445   1.041   0.356   8.416  0.1527  0.0123  0.0557
 4329SOL    HW124446   1.008   0.315   8.496 -2.6902 -0.1807 -1.1725
 4329SOL    HW224447   1.117   0.399   8.454  0.2058  1.7908 -2.0043
 4330SOL     OW24448   2.650   3.272   9.274 -0.0617 -0.1540 -0.3236
 4330SOL    HW124449   2.630   3.179   9.286  1.7137 -0.4998 -0.0505
 4330SOL    HW224450   2.566   3.308   9.301 -1.2041 -2.2098 -1.1567
 4331SOL     OW24451   4.107   3.385   8.345  0.2393  0.0886 -0.4631
 4331SOL    HW124452   4.110   3.380   8.440  1.8833 -0.6608 -0.5563
 4331SOL    HW224453   4.194   3.420   8.326  1.0062 -0.8890  1.3354
 4332SOL     OW24454   3.112   2.241   5.574 -0.3126 -0.5479  0.2569
 4332SOL    HW124455   3.178   2.229   5.642  1.4751  1.7563 -1.0909
 4332SOL    HW224456   3.030   2.232   5.624 -0.3820  1.0931  0.4493
 4333SOL     OW24457   0.248   4.029   3.324 -0.0153 -0.3212 -0.4727
 4333SOL    HW124458   0.259   3.935   3.340  0.3892 -0.4053 -1.2363
 4333SOL    HW224459   0.233   4.058   3.414 -0.2623  1.6004 -1.1380
 4334SOL     OW24460   3.217   4.668   4.070 -0.4563 -0.2276  0.4742
 4334SOL    HW124461   3.251   4.718   4.144  1.4150 -0.3791 -0.2723
 4334SOL    HW224462   3.146   0.002   4.043  0.7030  1.4317  1.0249
 4335SOL     OW24463   1.643   2.347   1.889 -0.5948 -0.0223  0.1463
 4335SOL    HW124464   1.716   2.406   1.908 -0.1980 -0.4420 -0.0714
 4335SOL    HW224465   1.689   2.268   1.861  0.6860  0.7444  0.0756
 4336SOL     OW24466   3.018   2.124   3.057 -0.2098  0.1582 -0.0243
 4336SOL    HW124467   3.057   2.063   2.994 -1.4214  0.1381 -0.7459
 4336SOL    HW224468   2.991   2.198   3.003  2.6447  1.7777  0.7913
 4337SOL     OW24469   1.065   4.540  14.954 -0.1897 -0.2261 -0.1364
 4337SOL    HW124470   1.000   4.518  15.021  0.4072 -0.6177  0.3129
 4337SOL    HW224471   1.031   4.623  14.922  0.0169 -0.4557 -0.9776
 4338SOL     OW24472   0.287   3.082   6.991  0.3708 -0.8641 -0.2884
 4338SOL    HW124473   0.232   3.063   7.067 -0.1255 -2.6551 -1.0881
 4338SOL    HW224474   0.301   2.994   6.955 -0.6332 -1.2812  0.3500
 4339SOL     OW24475   0.020   4.431   3.549  0.5837 -0.1567  0.1848
 4339SOL    HW124476   0.085   4.375   3.591  0.7231  0.4171  0.7405
 4339SOL    HW224477   4.665   4.378   3.555  0.5103  0.1782  2.3249
 4340SOL     OW24478   1.754   1.243   4.672 -0.4258  0.0511 -0.3399
 4340SOL    HW124479   1.758   1.188   4.751 -0.8287  0.4702 -0.0264
 4340SOL    HW224480   1.662   1.240   4.644 -0.4672  0.7120 -0.2647
 4341SOL     OW24481   2.691   3.179   6.453  0.4068 -0.4496 -0.6186
 4341SOL    HW124482   2.781   3.199   6.479  0.8665 -1.3689 -1.4756
 4341SOL    HW224483   2.678   3.225   6.370  1.4661  2.5733  0.9072
 4342SOL     OW24484   2.358   3.696   3.173  0.4522 -0.1408  0.4432
 4342SOL    HW124485   2.267   3.681   3.200  1.8673 -1.8236  4.2085
 4342SOL    HW224486   2.356   3.727   3.083  1.8673 -1.6035 -0.0798
 4343SOL     OW24487   3.001   3.310   6.713 -0.2108 -0.0766  0.5611
 4343SOL    HW124488   3.060   3.377   6.751  1.0091 -1.2876  0.8039
 4343SOL    HW224489   2.917   3.356   6.716  0.7267  1.6890 -0.1193
 4344SOL     OW24490   1.719   3.380   7.375  0.2826 -0.4622  0.0003
 4344SOL    HW124491   1.768   3.382   7.292 -0.7263  0.2284 -0.5791
 4344SOL    HW224492   1.671   3.297   7.371  0.1940 -0.4002 -0.2200
 4345SOL     OW24493   1.135   2.443  10.778 -0.2514 -0.0549  0.4039
 4345SOL    HW124494   1.130   2.454  10.873 -1.6031 -0.5632  0.3976
 4345SOL    HW224495   1.134   2.537  10.766 -1.6050 -0.0702  0.3893
 4346SOL     OW24496   3.604   1.835   6.709  0.3913  0.0874  0.4044
 4346SOL    HW124497   3.568   1.907   6.761 -1.0678 -0.9900  0.8752
 4346SOL    HW224498   3.618   1.879   6.626  2.4741  1.4030  1.4426
 4347SOL     OW24499   1.072   2.575  17.653  0.2076  0.5433  0.0946
 4347SOL    HW124500   1.119   2.658  17.651  1.1218  0.0023 -0.6903
 4347SOL    HW224501   1.143   2.512  17.662  0.7179  1.1842  0.6087
 4348SOL     OW24502   2.064   4.711   4.790  0.5996  0.0384  0.4070
 4348SOL    HW124503   1.997   4.645   4.769  0.5933  0.1546  0.0767
 4348SOL    HW224504   2.077   0.017   4.701  1.9202 -0.2423  0.5081
 4349SOL     OW24505   1.770   1.900   4.787 -0.0742 -0.0881 -0.3987
 4349SOL    HW124506   1.762   1.912   4.693  0.8673  1.6906 -0.2530
 4349SOL    HW224507   1.808   1.987   4.799  1.4120 -0.9586  1.1762
 4350SOL     OW24508   2.699   3.591  13.061 -0.0543  0.9685  0.1879
 4350SOL    HW124509   2.790   3.614  13.081  0.5096 -0.7161 -0.4249
 4350SOL    HW224510   2.713   3.516  13.004 -0.4608  1.2266 -0.2544
 4351SOL     OW24511   4.700   2.331   2.084  0.1316  0.1938  0.0170
 4351SOL    HW124512   4.712   2.246   2.042  0.3708  0.5113 -0.5443
 4351SOL    HW224513   0.061   2.373   2.081 -0.7373  1.7519 -2.2217
 4352SOL     OW24514   2.184   2.491   5.824 -0.4621  0.2222  0.1544
 4352SOL    HW124515   2.119   2.514   5.890  0.2809  0.4072  0.8112
 4352SOL    HW224516   2.237   2.427   5.872  0.5238  0.2787 -0.8699
 4353SOL     OW24517   3.432   4.056   6.745  0.1095 -0.1422  0.1093
 4353SOL    HW124518   3.379   4.015   6.813 -0.8173  1.0678  0.1282
 4353SOL    HW224519   3.519   4.035   6.778  0.7387 -1.2430 -2.3099
 4354SOL     OW24520   3.010   4.067   6.055 -0.1612  0.1243 -0.4315
 4354SOL    HW124521   2.937   4.015   6.022  1.7531 -2.1868 -1.0015
 4354SOL    HW224522   3.033   4.036   6.142 -0.3495 -1.0759 -0.8078
 4355SOL     OW24523   2.250   2.359   6.048  0.0148 -0.3471 -0.0070
 4355SOL    HW124524   2.175   2.354   6.108 -1.2598 -0.1142 -1.5723
 4355SOL    HW224525   2.288   2.436   6.091 -0.0755 -0.3215  0.0273
 4356SOL     OW24526   3.760   1.914   1.146 -0.2848  0.6477  0.2459
 4356SOL    HW124527   3.689   1.857   1.175 -1.5226  2.7699  1.4181
 4356SOL    HW224528   3.833   1.857   1.169 -3.5952 -4.3607 -1.7735
 4357SOL     OW24529   2.552   4.696  13.488  0.7880 -0.0951  0.1982
 4357SOL    HW124530   2.604   0.041  13.528 -1.8466  0.4067  2.8325
 4357SOL    HW224531   2.466   0.006  13.514  0.9533 -0.1416  0.7918
 4358SOL     OW24532   2.542   1.251   1.040  0.6715 -0.3400 -0.1666
 4358SOL    HW124533   2.577   1.199   0.968  1.7662 -0.1257  0.1993
 4358SOL    HW224534   2.528   1.185   1.109  0.4254 -0.4048 -0.2811
 4359SOL     OW24535   2.314   0.539   0.382 -0.0473  0.4843 -0.2760
 4359SOL    HW124536   2.350   0.603   0.320 -0.8987  0.9389 -0.3068
 4359SOL    HW224537   2.379   0.519   0.450 -1.6286 -0.0616  1.0529
 4360SOL     OW24538   3.135   0.304   2.540  0.6824 -0.3922  0.4108
 4360SOL    HW124539   3.103   0.289   2.629  0.6026 -1.0678  0.2635
 4360SOL    HW224540   3.215   0.252   2.540  0.9051 -0.0602  1.0566
 4361SOL     OW24541   1.400   2.028   3.851  0.0370 -0.2928  0.5062
 4361SOL    HW124542   1.390   1.959   3.916  1.0087 -1.0983 -0.1940
 4361SOL    HW224543   1.321   2.049   3.801 -1.1961 -2.4311  1.5526
 4362SOL     OW24544   3.429   4.289  17.339  0.5363  0.1965  0.2879
 4362SOL    HW124545   3.412   4.234  17.416  0.7785  0.3135  0.4258
 4362SOL    HW224546   3.475   4.229  17.280  0.3411  0.6880 -0.3666
 4363SOL     OW24547   2.756   3.943   0.676 -0.5753  0.4131  0.2821
 4363SOL    HW124548   2.676   3.893   0.693  0.2889 -1.4990 -1.2706
 4363SOL    HW224549   2.723   3.991   0.600 -0.5823  0.9797  0.6484
 4364SOL     OW24550   0.768   4.562  16.919 -0.1141  0.1951  0.2557
 4364SOL    HW124551   0.737   4.571  17.009 -1.1521 -0.3802 -0.0474
 4364SOL    HW224552   0.687   4.526  16.882  0.2221  0.5051 -0.7850
 4365SOL     OW24553   3.526   0.599   7.678  0.4251  0.1603 -0.0339
 4365SOL    HW124554   3.537   0.554   7.762 -0.6833 -3.7584 -1.9479
 4365SOL    HW224555   3.540   0.525   7.618  0.0862  0.5419 -0.5891
 4366SOL     OW24556   2.651   1.438   2.617 -0.2741  0.1878 -0.2235
 4366SOL    HW124557   2.675   1.365   2.559  2.9272  0.2061  1.0773
 4366SOL    HW224558   2.650   1.384   2.696 -0.5261  0.4836 -0.0282
 4367SOL     OW24559   3.001   3.780   3.089 -0.6969 -0.2206  0.2720
 4367SOL    HW124560   2.957   3.750   3.168 -2.2202 -0.0168 -0.5051
 4367SOL    HW224561   3.043   3.860   3.122 -1.0750 -0.5422  1.5049
 4368SOL     OW24562   3.837   2.366   4.539 -0.0773 -0.8228  0.2085
 4368SOL    HW124563   3.808   2.276   4.526 -3.9187  0.3431  0.6919
 4368SOL    HW224564   3.769   2.417   4.496 -2.0111 -1.8811  2.0027
 4369SOL     OW24565   1.574   4.661   4.524 -0.4560  0.3205 -0.0943
 4369SOL    HW124566   1.592   0.019   4.568 -1.0641 -0.9658  2.5571
 4369SOL    HW224567   1.542   4.608   4.597 -0.9747  2.7473  1.4713
 4370SOL     OW24568   0.753   1.860   5.268 -0.0564 -0.1599 -0.1175
 4370SOL    HW124569   0.734   1.942   5.315 -1.9612 -1.5582  1.5552
 4370SOL    HW224570   0.710   1.871   5.183 -2.1305  0.9087  1.0515
 4371SOL     OW24571   3.458   0.478   4.824 -0.2414 -0.2846  0.1061
 4371SOL    HW124572   3.484   0.415   4.758  0.7349 -1.7379  1.8673
 4371SOL    HW224573   3.516   0.442   4.892 -1.3702  0.4679  1.4808
 4372SOL     OW24574   0.086   4.212  10.607  0.4018 -0.0139 -0.2467
 4372SOL    HW124575   0.146   4.285  10.619 -0.8316  1.2885 -2.0018
 4372SOL    HW224576   0.016   4.237  10.667 -1.5403 -2.3513 -1.5173
 4373SOL     OW24577   1.500   0.802   7.050  0.0714  0.3483  0.2087
 4373SOL    HW124578   1.496   0.766   7.138  1.3027  0.5872  0.3532
 4373SOL    HW224579   1.565   0.871   7.058 -0.1328  0.5489  0.1584
 4374SOL     OW24580   3.977   1.038   8.998  0.1666  0.1083  0.3727
 4374SOL    HW124581   4.019   1.051   9.083  0.3876  1.4477  0.0619
 4374SOL    HW224582   4.053   1.045   8.941  1.2118 -1.5870  1.5513
 4375SOL     OW24583   0.686   2.989  16.565  0.8234  0.8587 -0.0169
 4375SOL    HW124584   0.604   3.029  16.536  0.4259  0.2506  0.2613
 4375SOL    HW224585   0.730   3.063  16.608  0.8031 -0.0194  1.5143
 4376SOL     OW24586   4.461   3.570   4.998  0.0420 -0.0202  0.1790
 4376SOL    HW124587   4.447   3.634   5.068  0.6067 -0.6755  0.8925
 4376SOL    HW224588   4.475   3.629   4.925  3.8174 -0.6806  0.3803
 4377SOL     OW24589   0.608   3.740   2.369 -0.1483 -0.0125  0.3693
 4377SOL    HW124590   0.676   3.714   2.431 -0.2418 -1.3700 -0.0888
 4377SOL    HW224591   0.665   3.772   2.299 -0.9012  4.6735  1.8731
 4378SOL     OW24592   1.485   3.138  15.785 -0.2207  0.5077 -0.3039
 4378SOL    HW124593   1.526   3.097  15.862 -1.9413 -0.8282 -0.1234
 4378SOL    HW224594   1.569   3.165  15.748 -0.1888  1.3607  0.3779
 4379SOL     OW24595   1.710   1.023  16.018  0.2186 -0.1435 -0.3208
 4379SOL    HW124596   1.719   1.118  16.021 -0.4913 -0.0289 -1.6422
 4379SOL    HW224597   1.630   1.015  15.967 -0.8101  1.2121  1.0639
 4380SOL     OW24598   0.763   3.281   0.849 -0.0808 -0.3474  0.2304
 4380SOL    HW124599   0.848   3.261   0.889  0.4524  3.3992  0.9017
 4380SOL    HW224600   0.777   3.213   0.783  4.5502  1.6774 -0.8456
 4381SOL     OW24601   1.787   3.918   9.314 -0.1340  0.0223  0.5644
 4381SOL    HW124602   1.858   3.937   9.253 -0.1410 -0.1067  0.5155
 4381SOL    HW224603   1.730   3.993   9.298  0.6953  0.4595 -0.3511
 4382SOL     OW24604   0.604   1.825   7.847  0.5202 -0.5361 -0.2418
 4382SOL    HW124605   0.628   1.902   7.899 -1.0494  0.8932 -1.6296
 4382SOL    HW224606   0.537   1.790   7.905 -1.0832 -0.0092 -1.7729
 4383SOL     OW24607   2.284   1.939   9.008  0.0727  0.5685 -0.1906
 4383SOL    HW124608   2.346   1.894   8.952  0.8032 -0.0075  1.0815
 4383SOL    HW224609   2.302   1.893   9.090 -0.9845 -1.1223 -0.9261
 4384SOL     OW24610   2.040   1.673   4.652 -0.0057  0.3153 -0.5539
 4384SOL    HW124611   2.057   1.716   4.736  0.1208  0.0819 -0.4569
 4384SOL    HW224612   1.962   1.718   4.622 -0.9063 -0.9345 -0.0656
 4385SOL     OW24613   2.665   2.309   7.835  0.0607 -0.5564  1.0914
 4385SOL    HW124614   2.700   2.397   7.849  0.3077 -0.1198 -2.2852
 4385SOL    HW224615   2.718   2.288   7.759 -1.2103  0.0875  0.0249
 4386SOL     OW24616   0.671   0.186   3.618  0.1389 -0.5878  0.0125
 4386SOL    HW124617   0.575   0.181   3.624  0.2213  0.2521  1.8038
 4386SOL    HW224618   0.686   0.162   3.709  1.5234 -0.7566 -0.2718
 4387SOL     OW24619   4.472   2.003   7.384 -0.1189  0.8833 -0.3109
 4387SOL    HW124620   4.539   2.016   7.317  0.2258 -1.2327 -0.3627
 4387SOL    HW224621   4.392   1.976   7.339  0.8236 -0.9318 -0.8925
 4388SOL     OW24622   2.098   2.906   7.349  0.1662 -0.0279 -0.6656
 4388SOL    HW124623   2.141   2.846   7.288 -0.5166 -2.0745  0.8644
 4388SOL    HW224624   2.128   2.981   7.296  1.8797 -0.6078 -0.5171
 4389SOL     OW24625   3.650   0.628   4.445  0.0508 -0.1351  0.1706
 4389SOL    HW124626   3.572   0.677   4.418 -0.5940 -0.1567  2.0120
 4389SOL    HW224627   3.707   0.641   4.370 -0.0386  1.2085  0.3239
 4390SOL     OW24628   2.385   2.102   1.001  0.8862  0.4205  0.8972
 4390SOL    HW124629   2.459   2.043   1.017  0.0846 -0.4732  1.3569
 4390SOL    HW224630   2.328   2.042   0.952  0.5956  0.2078  1.4931
 4391SOL     OW24631   4.164   3.411  14.008 -0.1528 -0.1578 -0.5108
 4391SOL    HW124632   4.153   3.321  14.038  1.3052 -0.0790  0.2762
 4391SOL    HW224633   4.185   3.390  13.917  2.0510 -2.6083  0.5563
 4392SOL     OW24634   2.293   3.432   1.820 -0.6800 -0.1992  0.7155
 4392SOL    HW124635   2.218   3.433   1.880 -0.8703  2.1023  0.4729
 4392SOL    HW224636   2.251   3.443   1.734 -0.4553  1.8485  0.8624
 4393SOL     OW24637   2.297   0.472   9.781  0.1999 -0.2547  0.0140
 4393SOL    HW124638   2.378   0.457   9.829  0.1887  1.4359  0.5558
 4393SOL    HW224639   2.331   0.493   9.694  0.4974 -0.5374  0.0643
 4394SOL     OW24640   4.601   2.807   5.859  0.7833 -0.1636  0.3926
 4394SOL    HW124641   4.639   2.789   5.945 -1.1608  0.3908  1.3703
 4394SOL    HW224642   4.604   2.901   5.875 -0.5480  0.3274 -2.2721
 4395SOL     OW24643   1.204   4.632   0.641  0.5705 -0.1351  0.1264
 4395SOL    HW124644   1.113   4.662   0.639  1.3359  2.1057 -0.0638
 4395SOL    HW224645   1.251   4.701   0.687 -0.0202 -0.4789  1.2527
 4396SOL     OW24646   2.993   0.552   5.150 -0.0712 -0.3775  0.9783
 4396SOL    HW124647   2.934   0.626   5.134 -0.1568 -0.6217  0.1329
 4396SOL    HW224648   3.020   0.524   5.062 -1.6515 -2.1900  1.0564
 4397SOL     OW24649   3.372   0.829  14.841 -0.3317 -0.1237 -0.3890
 4397SOL    HW124650   3.366   0.883  14.762 -3.0271  1.6491  1.0201
 4397SOL    HW224651   3.342   0.741  14.819  2.2654 -1.4472  1.2462
 4398SOL     OW24652   3.684   3.575   5.119 -0.0442 -0.0478 -0.4665
 4398SOL    HW124653   3.773   3.542   5.114 -0.2671 -1.1840  2.9260
 4398SOL    HW224654   3.687   3.624   5.037  2.7628 -2.2083 -1.6439
 4399SOL     OW24655   3.613   3.133   2.770 -0.0048 -0.6040 -0.3519
 4399SOL    HW124656   3.531   3.147   2.723 -0.0613  2.3658  0.6644
 4399SOL    HW224657   3.586   3.052   2.813  1.5262 -0.0445  1.7063
 4400SOL     OW24658   0.239   4.117   2.334  0.6829  0.0781  0.0486
 4400SOL    HW124659   0.205   4.061   2.264 -1.6410  1.0407  0.4087
 4400SOL    HW224660   0.200   4.073   2.410 -2.7000  2.2990 -0.4049
 4401SOL     OW24661   1.389   1.250   8.575  0.0092  0.4410  0.1587
 4401SOL    HW124662   1.413   1.280   8.487  2.6871 -0.1158  0.6778
 4401SOL    HW224663   1.426   1.318   8.632  0.4328  0.1958  0.1751
 4402SOL     OW24664   4.679   4.498   4.620 -0.6682  0.3201  0.0049
 4402SOL    HW124665   4.656   4.451   4.540 -1.2790  2.1194 -0.8779
 4402SOL    HW224666   0.040   4.461   4.640 -1.6087 -1.7730  0.0860
 4403SOL     OW24667   1.728   0.673   3.609  0.2795  0.2630  0.1120
 4403SOL    HW124668   1.698   0.594   3.654  2.6617 -1.0984 -0.6755
 4403SOL    HW224669   1.712   0.653   3.517  1.4777  0.5546 -0.1676
 4404SOL     OW24670   0.503   2.499   7.966  0.0589  0.1183 -0.2199
 4404SOL    HW124671   0.502   2.486   7.871 -0.5467  0.7551 -0.2941
 4404SOL    HW224672   0.561   2.425   7.986 -2.0225 -1.0710  1.5316
 4405SOL     OW24673   1.113   3.778   3.589  0.4877  0.2770  0.8501
 4405SOL    HW124674   1.181   3.723   3.550  0.0404 -0.9691  1.7942
 4405SOL    HW224675   1.127   3.764   3.683 -0.0977 -0.8001  0.7841
 4406SOL     OW24676   2.221   0.517  17.651 -0.1807 -0.0282 -0.1623
 4406SOL    HW124677   2.217   0.600  17.699 -1.4402  0.2098 -0.6943
 4406SOL    HW224678   2.143   0.521  17.596 -1.0260  2.8055  1.2464
 4407SOL     OW24679   2.946   2.262   1.562 -0.4861 -0.3053 -0.5333
 4407SOL    HW124680   2.860   2.301   1.574  0.0659  0.8231 -0.2189
 4407SOL    HW224681   2.988   2.331   1.512  0.8131  0.7815  2.0469
 4408SOL     OW24682   3.299   2.310   2.718 -0.1927  0.3128  0.0934
 4408SOL    HW124683   3.294   2.287   2.625  3.3458 -0.8829  0.2142
 4408SOL    HW224684   3.261   2.398   2.715  0.6603  0.5606 -3.8301
 4409SOL     OW24685   3.753   1.530   9.169 -0.4458 -0.5101  0.0954
 4409SOL    HW124686   3.798   1.451   9.139 -1.4957 -0.8976 -0.4640
 4409SOL    HW224687   3.727   1.501   9.257  0.3090 -0.8790  0.1944
 4410SOL     OW24688   2.527   0.356   9.924  0.1908  0.0824 -0.5238
 4410SOL    HW124689   2.552   0.281   9.977 -2.2918  0.7777  1.6162
 4410SOL    HW224690   2.559   0.330   9.838 -1.7935 -0.8476 -0.9753
 4411SOL     OW24691   3.011   0.204   3.760  0.5248  0.0322  0.5582
 4411SOL    HW124692   3.021   0.127   3.703 -2.4611  0.3512 -0.4114
 4411SOL    HW224693   3.083   0.263   3.738  0.5702 -0.5585 -0.9226
 4412SOL     OW24694   1.625   4.317   8.582 -0.4795 -0.0213 -0.0557
 4412SOL    HW124695   1.653   4.271   8.503 -0.9600  1.7331 -1.2387
 4412SOL    HW224696   1.603   4.406   8.555  0.9172  0.6038  0.8218
 4413SOL     OW24697   1.436   0.859  10.312  0.0905  0.2709 -0.2037
 4413SOL    HW124698   1.477   0.930  10.362 -1.8043  0.0378  1.6955
 4413SOL    HW224699   1.363   0.830  10.367  1.4264  1.1891  2.0813
 4414SOL     OW24700   2.670   2.895   2.216 -0.7071 -0.3008 -0.2394
 4414SOL    HW124701   2.612   2.962   2.255 -0.0668 -0.1927  0.5184
 4414SOL    HW224702   2.655   2.915   2.123 -1.9842 -0.0729  0.0051
 4415SOL     OW24703   3.650   2.506  12.663 -0.7196 -0.5049 -0.2257
 4415SOL    HW124704   3.691   2.500  12.577 -0.7877  0.5283 -0.3246
 4415SOL    HW224705   3.647   2.412  12.684 -0.9597  0.4163  3.9584
 4416SOL     OW24706   0.292   0.659   8.153 -0.6413 -0.7496  0.3935
 4416SOL    HW124707   0.369   0.621   8.197 -0.3763 -1.6004 -0.8164
 4416SOL    HW224708   0.235   0.584   8.142  1.4647 -2.0994 -1.3965
 4417SOL     OW24709   2.640   4.040   7.810 -0.3944  0.6605 -0.0695
 4417SOL    HW124710   2.573   4.072   7.749 -1.9189 -1.4223  0.5447
 4417SOL    HW224711   2.631   4.109   7.876 -0.2283  2.5454 -2.0166
 4418SOL     OW24712   2.476   1.547  15.610 -0.6089 -0.6814  0.5400
 4418SOL    HW124713   2.534   1.573  15.539 -0.1600  0.9111  1.4794
 4418SOL    HW224714   2.494   1.453  15.602 -0.7569 -0.7706  1.2196
 4419SOL     OW24715   1.177   0.300   3.698 -0.2326 -0.2092  0.3280
 4419SOL    HW124716   1.237   0.235   3.734  0.7572  0.9630  0.7413
 4419SOL    HW224717   1.126   0.254   3.630 -0.5876 -0.3939  0.7180
 4420SOL     OW24718   4.156   2.401   3.794  0.5030  0.1239 -0.1264
 4420SOL    HW124719   4.160   2.486   3.750  1.7397  0.3036  0.3381
 4420SOL    HW224720   4.066   2.402   3.826  0.1842 -0.9515 -0.9786
 4421SOL     OW24721   3.600   4.470   4.899 -0.3095 -0.0161 -0.2972
 4421SOL    HW124722   3.578   4.384   4.863 -1.6248  0.1858  0.0530
 4421SOL    HW224723   3.673   4.440   4.954 -0.3953 -1.8657 -1.1948
 4422SOL     OW24724   2.578   0.108   1.879  0.1609 -0.4853 -0.2135
 4422SOL    HW124725   2.668   0.141   1.883  0.0837 -0.4151  0.9866
 4422SOL    HW224726   2.588   0.013   1.867 -0.6809 -0.7970  1.5682
 4423SOL     OW24727   1.528   1.671   0.579 -0.6073 -0.1276  0.1498
 4423SOL    HW124728   1.467   1.597   0.574  0.4040 -1.0891  1.9974
 4423SOL    HW224729   1.614   1.629   0.573 -0.6996  0.0782 -2.5943
 4424SOL     OW24730   3.422   4.700   6.926 -0.3267  0.6006  0.4545
 4424SOL    HW124731   3.502   0.022   6.952 -0.1943  0.1347  0.8764
 4424SOL    HW224732   3.366   0.047   6.894  1.0768  0.6593 -1.8374
 4425SOL     OW24733   1.894   2.061   8.370 -0.0175 -0.6322  0.2738
 4425SOL    HW124734   1.807   2.022   8.373 -0.3476 -0.0103 -1.2378
 4425SOL    HW224735   1.946   1.991   8.330  2.0955  1.2519 -0.2694
 4426SOL     OW24736   1.667   3.621   4.061 -0.1273  0.4699 -0.2746
 4426SOL    HW124737   1.681   3.557   4.131  1.1651 -0.5054 -1.4253
 4426SOL    HW224738   1.737   3.678   4.091 -0.4167  1.6010 -1.7954
 4427SOL     OW24739   3.223   3.338   6.547 -0.0831  0.5251 -0.4268
 4427SOL    HW124740   3.227   3.432   6.565 -0.6916 -0.0759  2.7992
 4427SOL    HW224741   3.153   3.308   6.605 -0.7547  2.5657 -0.1681
 4428SOL     OW24742   3.002   2.358  10.254  0.3474  0.2455 -0.4997
 4428SOL    HW124743   3.038   2.365  10.343  0.9703  0.0774 -0.7378
 4428SOL    HW224744   3.065   2.404  10.198  1.3837 -0.9314 -0.2939
 4429SOL     OW24745   1.229   3.753   6.972  0.0819  0.0003  0.0691
 4429SOL    HW124746   1.227   3.840   6.933  0.3379  0.8596  1.9866
 4429SOL    HW224747   1.189   3.785   7.053 -1.9937 -1.6902 -0.2907
 4430SOL     OW24748   3.779   2.421   8.617 -0.2228 -0.0758 -0.3228
 4430SOL    HW124749   3.795   2.504   8.571 -2.2765  0.6347  0.2611
 4430SOL    HW224750   3.684   2.411   8.618 -0.3909  1.6471  0.9652
 4431SOL     OW24751   4.330   0.201   3.921 -0.7449  0.5744 -0.2675
 4431SOL    HW124752   4.286   0.286   3.920  0.5522  1.2378 -0.5652
 4431SOL    HW224753   4.322   0.173   4.012 -3.4598  0.6836 -0.4765
 4432SOL     OW24754   3.722   1.448   9.805  0.3430  0.7773  0.1625
 4432SOL    HW124755   3.797   1.457   9.747  1.0447 -1.0829  0.7595
 4432SOL    HW224756   3.666   1.373   9.782  2.7716 -1.2300  0.7951
 4433SOL     OW24757   1.366   1.029  12.139 -0.1841  0.1645 -0.3932
 4433SOL    HW124758   1.351   0.980  12.220  0.5044 -0.5234 -0.6796
 4433SOL    HW224759   1.344   0.962  12.075 -0.7505  0.6706 -0.7300
 4434SOL     OW24760   4.227   1.440   5.997 -0.0940 -0.2156 -0.3122
 4434SOL    HW124761   4.276   1.456   5.917  3.9836  1.6725  2.5899
 4434SOL    HW224762   4.302   1.419   6.053 -0.6083  0.0317  0.4774
 4435SOL     OW24763   0.355   0.639  12.135 -0.1621 -0.3984 -0.3235
 4435SOL    HW124764   0.432   0.632  12.191 -2.2821 -2.6722  2.3225
 4435SOL    HW224765   0.334   0.731  12.149  1.8376 -0.4986  3.2632
 4436SOL     OW24766   2.639   4.563   1.803 -0.1595 -0.0538 -0.7771
 4436SOL    HW124767   2.727   4.526   1.794 -0.2845 -0.8679  1.3003
 4436SOL    HW224768   2.602   4.550   1.716  0.3186 -0.7596 -0.8711
 4437SOL     OW24769   3.416   2.683  16.989 -0.2661  0.3357 -0.7822
 4437SOL    HW124770   3.477   2.729  16.932  0.3162  1.7392  0.9655
 4437SOL    HW224771   3.440   2.698  17.081 -1.3312  0.9819 -0.6121
 4438SOL     OW24772   1.821   1.735   6.159  0.5975  0.0737 -0.3689
 4438SOL    HW124773   1.795   1.699   6.243  0.4673  0.7327 -0.1237
 4438SOL    HW224774   1.738   1.769   6.125  1.3120  0.8867 -1.3212
 4439SOL     OW24775   1.414   1.905   4.321  0.3186  0.4732  0.5401
 4439SOL    HW124776   1.405   1.864   4.407 -2.4737  0.3105  0.1735
 4439SOL    HW224777   1.378   1.992   4.336  2.4823  1.6662 -1.2567
 4440SOL     OW24778   0.687   2.978   4.919 -0.2454  0.1456  0.0206
 4440SOL    HW124779   0.663   2.958   4.828 -1.1805 -1.3382  0.5946
 4440SOL    HW224780   0.719   3.067   4.907  0.6387 -0.6256 -3.4996
 4441SOL     OW24781   1.095   0.738  11.357  0.3501 -0.0935  0.6158
 4441SOL    HW124782   1.040   0.702  11.288  0.4342  1.4675 -0.2730
 4441SOL    HW224783   1.142   0.805  11.306  0.9741 -0.2523  0.9851
 4442SOL     OW24784   3.145   2.312   5.207 -0.3520 -0.4556  0.5747
 4442SOL    HW124785   3.184   2.231   5.175  0.4061  1.1667 -2.6240
 4442SOL    HW224786   3.193   2.336   5.286  1.2226 -2.8619  0.3414
 4443SOL     OW24787   3.084   2.286  14.017 -0.7868 -1.0029  0.0762
 4443SOL    HW124788   3.176   2.304  14.000 -0.9797 -0.2840 -0.1937
 4443SOL    HW224789   3.073   2.199  13.979 -1.1635 -0.9634  0.0927
 4444SOL     OW24790   1.205   0.198   9.291  0.0191 -0.0696 -0.1277
 4444SOL    HW124791   1.171   0.245   9.367 -1.5377 -0.5501 -0.5223
 4444SOL    HW224792   1.299   0.202   9.305  0.3136  1.6051 -2.6892
 4445SOL     OW24793   1.580   4.095  10.506 -0.3132  0.9017  0.5720
 4445SOL    HW124794   1.625   4.112  10.589  0.0596  1.5068  0.2509
 4445SOL    HW224795   1.507   4.045  10.540  0.0196  1.3512  1.9664
 4446SOL     OW24796   1.746   1.954  14.568  0.2134 -0.1097 -0.3351
 4446SOL    HW124797   1.735   1.859  14.561  0.2661 -0.1296 -0.1507
 4446SOL    HW224798   1.660   1.977  14.601 -0.5125 -0.8796 -1.6690
 4447SOL     OW24799   4.287   0.759   0.904 -0.5833 -0.2420  0.0009
 4447SOL    HW124800   4.217   0.822   0.921  0.6346  0.7282  1.3967
 4447SOL    HW224801   4.255   0.730   0.818 -1.3906 -0.9141  0.5216
 4448SOL     OW24802   1.918   4.546   5.912  0.2660 -0.2236  0.7129
 4448SOL    HW124803   1.914   4.555   6.007 -0.7285  1.1588  0.5368
 4448SOL    HW224804   1.825   4.543   5.888  0.7716 -1.3854 -1.0679
 4449SOL     OW24805   3.479   2.119   9.209  0.8793 -0.1238  0.4055
 4449SOL    HW124806   3.411   2.056   9.185 -0.1207  1.9293 -2.0531
 4449SOL    HW224807   3.517   2.077   9.287 -0.2438 -0.5960  0.6939
 4450SOL     OW24808   0.943   1.033   4.122  0.3582  0.0627 -0.6504
 4450SOL    HW124809   0.980   1.018   4.035  2.6844 -0.1744  0.3732
 4450SOL    HW224810   1.005   0.988   4.179  1.6080  0.7170 -1.4752
 4451SOL     OW24811   3.972   2.604   6.044 -0.6671 -0.0146 -0.1012
 4451SOL    HW124812   4.060   2.618   6.078 -0.5037 -3.9280  1.1484
 4451SOL    HW224813   3.967   2.509   6.035 -2.1411 -0.1269  1.7792
 4452SOL     OW24814   2.323   1.604   4.566 -0.2079  0.1395 -0.5468
 4452SOL    HW124815   2.234   1.641   4.570 -0.3950  0.1406 -4.4786
 4452SOL    HW224816   2.378   1.677   4.594 -0.6245 -0.2246  1.2396
 4453SOL     OW24817   1.820   0.810  16.163 -0.0559  0.3505 -0.1880
 4453SOL    HW124818   1.774   0.888  16.131 -1.8031 -0.9606 -0.8892
 4453SOL    HW224819   1.898   0.815  16.108 -1.2836  2.7373 -1.7155
 4454SOL     OW24820   3.343   4.588   5.861  0.1313  0.0050  0.4716
 4454SOL    HW124821   3.336   4.506   5.908  1.3676 -0.6643 -0.5296
 4454SOL    HW224822   3.396   4.573   5.782 -0.6793 -1.9576  0.3116
 4455SOL     OW24823   3.016   0.308  17.523 -0.2841 -0.2053 -0.2853
 4455SOL    HW124824   2.973   0.247  17.462  0.8935  0.6488 -1.9719
 4455SOL    HW224825   3.055   0.379  17.472 -0.1176  0.7521  1.1800
 4456SOL     OW24826   4.388   1.233   5.019  0.1378  0.1155  0.1718
 4456SOL    HW124827   4.309   1.202   5.063  1.2795 -0.0780  2.1466
 4456SOL    HW224828   4.453   1.200   5.083 -0.4178 -2.8819 -0.8001
 4457SOL     OW24829   3.567   4.282  11.735 -0.5573  0.3793  0.0828
 4457SOL    HW124830   3.588   4.246  11.821  0.2231 -1.1442 -0.7516
 4457SOL    HW224831   3.499   4.219  11.713  0.0019  0.5910 -2.2633
 4458SOL     OW24832   1.971   3.501   2.465 -0.4911 -0.5573  0.2183
 4458SOL    HW124833   1.927   3.448   2.531  0.6717 -0.6485  0.9203
 4458SOL    HW224834   1.909   3.574   2.463 -0.0802 -0.2347 -0.6955
 4459SOL     OW24835   3.596   2.017   7.717  0.4543 -0.7215 -0.3492
 4459SOL    HW124836   3.638   1.931   7.706  2.7623  0.5036 -1.1247
 4459SOL    HW224837   3.574   2.013   7.810  0.6290 -0.3107 -0.2926
 4460SOL     OW24838   1.704   0.734   8.639 -0.4619  0.0494  0.5116
 4460SOL    HW124839   1.684   0.641   8.646  2.6673 -0.7114 -0.4889
 4460SOL    HW224840   1.795   0.722   8.611  0.4979  1.3140  3.1172
 4461SOL     OW24841   1.304   1.504   3.962 -0.1744  0.1300  0.6810
 4461SOL    HW124842   1.352   1.549   3.892  1.6547 -1.1239  1.1488
 4461SOL    HW224843   1.365   1.442   4.001  2.3725  2.0238 -0.2430
 4462SOL     OW24844   2.628   0.309  16.736 -0.3824 -0.0474  0.0209
 4462SOL    HW124845   2.722   0.303  16.751 -0.1281  2.0400 -0.7261
 4462SOL    HW224846   2.619   0.404  16.739 -1.7276 -0.2503  2.5257
 4463SOL     OW24847   0.206   3.108   3.274 -0.7039 -0.1812  0.0007
 4463SOL    HW124848   0.113   3.115   3.252 -0.8020 -0.1401  0.4312
 4463SOL    HW224849   0.197   3.098   3.368  0.7884 -0.1168  0.1486
 4464SOL     OW24850   3.107   1.458   8.916  0.1832  0.5180  0.0673
 4464SOL    HW124851   3.031   1.402   8.930  0.3332  0.3381  0.1477
 4464SOL    HW224852   3.156   1.444   8.997  0.4480 -0.9155 -0.3506
 4465SOL     OW24853   0.161   1.954   1.893  0.3616  0.1862  0.2162
 4465SOL    HW124854   0.070   1.929   1.912  0.6811 -1.7185 -0.7294
 4465SOL    HW224855   0.168   1.936   1.799  0.8030 -2.0609  0.6738
 4466SOL     OW24856   0.570   1.734   8.722  0.5240  0.4283 -0.1627
 4466SOL    HW124857   0.493   1.764   8.770 -0.0993 -0.4113 -0.6464
 4466SOL    HW224858   0.634   1.804   8.731 -0.9922  1.9790 -1.4217
 4467SOL     OW24859   2.164   1.010   2.609 -0.0470 -0.0315 -0.3522
 4467SOL    HW124860   2.171   1.105   2.606  1.1403 -0.1160 -0.1587
 4467SOL    HW224861   2.252   0.984   2.637  1.1704  2.1664 -2.1498
 4468SOL     OW24862   3.658   2.967   7.276 -0.8333 -0.0304 -0.4856
 4468SOL    HW124863   3.671   2.876   7.304  2.0788  0.4769 -0.2665
 4468SOL    HW224864   3.729   2.955   7.213  0.0415  1.8800  0.1598
 4469SOL     OW24865   1.475   1.025  15.035  0.0278  1.0175 -0.1356
 4469SOL    HW124866   1.443   1.007  15.124 -2.0799  3.2000 -0.4304
 4469SOL    HW224867   1.553   1.078  15.051  0.7039  0.1720 -0.7055
 4470SOL     OW24868   1.935   2.543   8.006  0.2169  0.3560  0.6790
 4470SOL    HW124869   1.994   2.600   8.055  1.8432 -0.0740 -0.7779
 4470SOL    HW224870   1.869   2.600   7.965  0.4769 -0.8286 -1.3969
 4471SOL     OW24871   4.214   2.481   2.473  0.1890 -0.1857 -0.0780
 4471SOL    HW124872   4.203   2.484   2.377  2.3368  2.1500 -0.2501
 4471SOL    HW224873   4.219   2.574   2.493  2.7331 -0.8424  2.1527
 4472SOL     OW24874   3.933   0.124   0.863 -0.8230 -0.0665 -0.1997
 4472SOL    HW124875   3.999   0.078   0.811 -2.1178 -0.8837 -1.1085
 4472SOL    HW224876   3.864   0.059   0.867  0.0416 -1.0320 -0.9618
 4473SOL     OW24877   0.924   2.743   3.714 -0.7543  0.6475 -0.0600
 4473SOL    HW124878   0.848   2.734   3.771 -0.0419  0.4446  0.8537
 4473SOL    HW224879   0.978   2.675   3.754  0.3840  0.6691 -1.5749
 4474SOL     OW24880   1.104   0.189  17.173 -0.3108 -0.2042 -0.2649
 4474SOL    HW124881   1.115   0.095  17.166  0.0657 -0.1587 -0.2736
 4474SOL    HW224882   1.100   0.196  17.268  0.9599  0.7610 -0.2837
 4475SOL     OW24883   3.135   3.971   9.149 -0.4713  0.2320 -0.4084
 4475SOL    HW124884   3.056   3.989   9.097 -1.0247 -2.1711 -0.3948
 4475SOL    HW224885   3.206   4.016   9.103 -1.7044  1.4489 -1.1338
 4476SOL     OW24886   3.533   0.540   3.253 -0.1428  0.0002 -0.2821
 4476SOL    HW124887   3.588   0.462   3.255  1.0678  0.8516 -0.6936
 4476SOL    HW224888   3.530   0.538   3.158 -1.0691  0.3852 -0.2589
 4477SOL     OW24889   4.097   4.567   5.134 -0.6388 -0.3150 -0.5845
 4477SOL    HW124890   4.111   4.528   5.221  0.0967 -1.0382 -1.0260
 4477SOL    HW224891   4.185   4.553   5.100 -0.5011  0.9323 -0.7478
 4478SOL     OW24892   1.394   2.797  13.403 -0.6614 -0.0630  0.7488
 4478SOL    HW124893   1.368   2.886  13.426  1.9208  1.0638 -0.7612
 4478SOL    HW224894   1.327   2.743  13.446  0.7746 -2.4401  0.0372
 4479SOL     OW24895   3.270   3.380  14.882 -0.6090  0.5044  0.1506
 4479SOL    HW124896   3.184   3.378  14.840  0.4184  1.1182 -1.9815
 4479SOL    HW224897   3.319   3.452  14.841 -1.7890  0.6571 -1.0097
 4480SOL     OW24898   1.928   1.361   0.947 -0.1718 -0.5279 -0.3964
 4480SOL    HW124899   1.986   1.310   1.004 -1.7564 -1.2459  0.5792
 4480SOL    HW224900   1.994   1.427   0.923 -2.8192  2.3695  0.3457
 4481SOL     OW24901   2.462   2.909   8.092 -0.7165 -0.2740  0.3000
 4481SOL    HW124902   2.497   2.981   8.040  1.8623 -0.4267  1.8296
 4481SOL    HW224903   2.374   2.906   8.054  0.0854  0.8985 -1.6693
 4482SOL     OW24904   2.612   1.879   8.448 -0.0053 -0.8788  0.5473
 4482SOL    HW124905   2.657   1.955   8.410  0.0290 -0.4577  1.4251
 4482SOL    HW224906   2.633   1.902   8.539  1.5942 -2.7569  0.6536
 4483SOL     OW24907   0.854   3.371  13.390 -0.4426 -0.1006 -0.6336
 4483SOL    HW124908   0.879   3.404  13.304 -1.1763 -1.5134 -1.3779
 4483SOL    HW224909   0.797   3.445  13.414  0.7568  0.3532  0.8189
 4484SOL     OW24910   1.053   3.614   0.213 -0.3776 -0.1583 -0.1868
 4484SOL    HW124911   1.134   3.565   0.202 -1.4149 -2.0205  0.4214
 4484SOL    HW224912   1.031   3.607   0.306  0.9365  1.0244  0.2104
 4485SOL     OW24913   3.756   3.573   2.630 -0.3128 -0.0466  0.0224
 4485SOL    HW124914   3.813   3.506   2.593 -0.5311  0.3731 -1.0608
 4485SOL    HW224915   3.795   3.656   2.603  1.3343 -0.0445  2.3622
 4486SOL     OW24916   1.889   4.530   9.610 -0.5973  0.3377 -0.2374
 4486SOL    HW124917   1.793   4.531   9.611 -0.5710 -0.7682  2.4388
 4486SOL    HW224918   1.893   4.610   9.663  3.3166  0.1868 -0.2819
 4487SOL     OW24919   4.416   0.169   9.254 -0.0717 -0.1069 -0.1747
 4487SOL    HW124920   4.447   0.238   9.313  0.8568 -0.9646  0.3569
 4487SOL    HW224921   4.462   0.092   9.288 -1.5027 -1.5905 -1.5874
 4488SOL     OW24922   1.919   0.903   7.848  0.2381  0.5566 -1.0801
 4488SOL    HW124923   1.841   0.848   7.844 -0.0706  0.9924 -1.0351
 4488SOL    HW224924   1.889   0.978   7.899  0.6552  0.5043 -0.7591
 4489SOL     OW24925   1.959   0.075   7.707  0.6781  0.3902  0.0914
 4489SOL    HW124926   1.913   0.093   7.789  1.6251 -1.8246  1.1320
 4489SOL    HW224927   2.043   0.052   7.747 -0.2530 -0.0090  1.8336
 4490SOL     OW24928   1.109   4.132   8.809 -0.1927  0.0376 -0.3794
 4490SOL    HW124929   1.176   4.162   8.870 -1.8989  1.2247  0.9191
 4490SOL    HW224930   1.138   4.181   8.732  0.2766  1.8909  0.9851
 4491SOL     OW24931   2.162   4.016   3.856 -0.2396 -0.0158  0.6866
 4491SOL    HW124932   2.202   4.097   3.886  1.8006 -1.0432  0.7172
 4491SOL    HW224933   2.234   3.977   3.808  0.1107  0.4221  0.8534
 4492SOL     OW24934   1.936   4.157   6.898  0.0528  0.8833  0.8056
 4492SOL    HW124935   1.982   4.235   6.930  0.4449  0.0637  2.2223
 4492SOL    HW224936   1.995   4.113   6.838 -1.4003  0.0526 -0.0091
 4493SOL     OW24937   2.879   1.727  13.508  0.1946  0.0447  0.3108
 4493SOL    HW124938   2.908   1.664  13.574  1.4214  0.4241  0.1253
 4493SOL    HW224939   2.800   1.680  13.479 -0.6440 -0.6789  3.7180
 4494SOL     OW24940   3.360   3.060   8.598 -0.2253 -0.3161  0.0599
 4494SOL    HW124941   3.319   3.046   8.512  2.1544  1.2533 -1.3515
 4494SOL    HW224942   3.447   3.089   8.571  0.0152  0.2798  1.4774
 4495SOL     OW24943   3.651   4.068   6.005  0.2975  0.0573  0.6118
 4495SOL    HW124944   3.679   4.151   6.042  0.1190  1.5586 -2.6095
 4495SOL    HW224945   3.562   4.056   6.038  0.1531 -0.6010 -0.0039
 4496SOL     OW24946   0.918   3.258  12.674  0.5476 -0.0223 -0.1057
 4496SOL    HW124947   0.885   3.264  12.764 -0.6605 -3.1857 -0.3474
 4496SOL    HW224948   0.896   3.341  12.632 -0.9829 -0.6574 -0.5609
 4497SOL     OW24949   0.112   2.683   6.326 -0.4239 -0.4431 -0.0774
 4497SOL    HW124950   0.040   2.655   6.270 -0.1581 -0.7448 -0.2684
 4497SOL    HW224951   0.163   2.729   6.259  1.9238 -0.4464  1.7052
 4498SOL     OW24952   0.186   3.255   3.871 -0.2693 -0.1535  0.4756
 4498SOL    HW124953   0.186   3.285   3.962  0.2190  0.5382  0.2426
 4498SOL    HW224954   0.093   3.261   3.851 -0.2484 -1.1161  0.0702
 4499SOL     OW24955   4.486   3.254   3.356 -0.2921  0.1338  0.3021
 4499SOL    HW124956   4.414   3.254   3.419  0.0688  1.8079  0.7316
 4499SOL    HW224957   4.494   3.350   3.349  3.0677 -0.0952  0.5725
 4500SOL     OW24958   1.763   1.616   1.474 -0.0203 -0.1597  0.0764
 4500SOL    HW124959   1.775   1.696   1.423 -1.2030 -0.4366 -0.6367
 4500SOL    HW224960   1.669   1.620   1.489  0.1769  1.7069  0.7779
 4501SOL     OW24961   3.247   2.406   9.207 -0.2445 -0.3524  0.1230
 4501SOL    HW124962   3.183   2.411   9.278  0.4526 -1.0805  0.8115
 4501SOL    HW224963   3.274   2.495   9.183  0.9603 -0.4957  0.9177
 4502SOL     OW24964   1.890   0.707   6.491  0.2513 -0.7647 -0.0106
 4502SOL    HW124965   1.851   0.647   6.554  0.6139  1.7322  2.5632
 4502SOL    HW224966   1.824   0.775   6.477  1.9628  0.4472 -2.2059
 4503SOL     OW24967   1.980   4.161  17.061  0.1834 -0.3028  0.3246
 4503SOL    HW124968   1.973   4.257  17.053  2.0925  0.0367  2.4834
 4503SOL    HW224969   1.886   4.145  17.067  0.2562 -0.0384  2.3472
 4504SOL     OW24970   1.952   4.056   3.608 -0.3724 -0.2710 -0.2455
 4504SOL    HW124971   2.016   4.072   3.677 -1.4241 -0.5301  0.7841
 4504SOL    HW224972   1.898   3.990   3.651 -1.4193 -0.1193 -1.3206
 4505SOL     OW24973   1.305   2.162   1.753  0.0271  0.3378  0.0336
 4505SOL    HW124974   1.375   2.111   1.711 -0.1018  1.2002 -1.2303
 4505SOL    HW224975   1.350   2.246   1.764 -1.2386  1.2331 -1.6087
 4506SOL     OW24976   4.230   4.271   4.564  0.1809  0.2224  0.0695
 4506SOL    HW124977   4.306   4.329   4.560 -1.0682  1.7107 -2.1405
 4506SOL    HW224978   4.252   4.201   4.503  0.3850 -0.3464  0.7923
 4507SOL     OW24979   1.521   2.499  11.137  0.0583 -0.4754  0.0793
 4507SOL    HW124980   1.582   2.540  11.198 -1.5243 -1.3244  2.2255
 4507SOL    HW224981   1.571   2.420  11.119 -0.5951 -0.5409 -1.5308
 4508SOL     OW24982   0.756   2.009  11.090  0.4312 -0.4153 -0.2257
 4508SOL    HW124983   0.779   2.097  11.061 -0.4646  0.7874  2.7090
 4508SOL    HW224984   0.662   2.003  11.073  0.5376 -0.6153 -0.7129
 4509SOL     OW24985   1.841   1.920   5.312  0.0987  0.7549 -0.3434
 4509SOL    HW124986   1.764   1.868   5.335 -0.9602  2.3874 -0.1735
 4509SOL    HW224987   1.828   2.003   5.358 -1.3853  0.2414  0.1764
 4510SOL     OW24988   0.096   3.636   6.752 -0.4825  0.3136 -0.0273
 4510SOL    HW124989   0.150   3.558   6.757 -0.4630  0.5411  3.1626
 4510SOL    HW224990   0.142   3.693   6.814  0.7040 -1.9590  1.1602
 4511SOL     OW24991   4.110   3.723   3.679 -0.5840  0.3597  0.1795
 4511SOL    HW124992   4.149   3.738   3.766  3.1385  0.3125 -1.4841
 4511SOL    HW224993   4.018   3.748   3.683 -0.9618 -1.4348  2.7265
 4512SOL     OW24994   4.288   0.567   3.708 -0.2238  0.5501 -0.0497
 4512SOL    HW124995   4.270   0.648   3.755  2.2377  2.3496 -2.1656
 4512SOL    HW224996   4.374   0.602   3.685 -0.1442 -0.0845 -0.7325
 4513SOL     OW24997   3.849   2.078   4.039  0.2026 -0.0780  0.2756
 4513SOL    HW124998   3.772   2.112   3.995  0.5458 -0.1665 -0.3888
 4513SOL    HW224999   3.871   1.998   3.991  0.6982 -0.6677  1.4699
 4514SOL     OW25000   1.804   1.530   2.934 -0.2536 -0.1814 -0.0814
 4514SOL    HW125001   1.855   1.573   3.003  1.9782  0.6857 -2.2637
 4514SOL    HW225002   1.730   1.590   2.947 -0.6628 -0.8100  0.4890
 4515SOL     OW25003   3.148   1.540   4.711 -0.1245 -0.4404  0.6778
 4515SOL    HW125004   3.173   1.514   4.799 -1.6253  1.2118  1.5699
 4515SOL    HW225005   3.058   1.508   4.710  0.4264 -1.9826 -0.2339
 4516SOL     OW25006   1.326   0.704   8.098 -0.1070  0.0393 -0.0832
 4516SOL    HW125007   1.361   0.777   8.048  1.7888 -1.3207 -0.7306
 4516SOL    HW225008   1.280   0.747   8.171 -1.0696  1.6420 -1.6257
 4517SOL     OW25009   0.845   4.423   3.191  0.7165  1.2930  0.1446
 4517SOL    HW125010   0.884   4.336   3.197 -2.1589  0.0152  0.8403
 4517SOL    HW225011   0.878   4.448   3.105  1.7794 -2.1416 -0.4442
 4518SOL     OW25012   4.244   1.720   4.812 -0.0291 -0.1216 -0.1750
 4518SOL    HW125013   4.320   1.688   4.763  0.0570 -0.1748 -0.0089
 4518SOL    HW225014   4.199   1.640   4.839 -0.9904 -0.1186 -1.7653
 4519SOL     OW25015   4.145   0.404   3.146  0.3598 -0.0462  0.0294
 4519SOL    HW125016   4.189   0.487   3.125  1.4132 -0.5318  0.2895
 4519SOL    HW225017   4.171   0.347   3.074 -0.0067  0.7009 -0.6974
 4520SOL     OW25018   1.741   2.983  12.698  0.2004  0.4813  0.4299
 4520SOL    HW125019   1.734   3.078  12.691 -2.4079  0.3481  1.1273
 4520SOL    HW225020   1.754   2.985  12.793  1.2464  0.2155  0.2854
 4521SOL     OW25021   1.114   2.515   8.734  0.2326 -0.0514 -0.2774
 4521SOL    HW125022   1.188   2.457   8.754 -0.1221 -0.2461  0.4683
 4521SOL    HW225023   1.132   2.549   8.646 -0.2401  1.5867  0.2693
 4522SOL     OW25024   1.491   3.006   6.337 -0.0517 -0.2278 -0.4835
 4522SOL    HW125025   1.439   2.943   6.288  0.4707 -2.3941  1.7379
 4522SOL    HW225026   1.412   3.050   6.369  0.4711  0.3982 -0.0678
 4523SOL     OW25027   3.620   2.892  13.585 -0.2524  0.0008 -0.0205
 4523SOL    HW125028   3.628   2.812  13.533 -1.1858  0.9097 -1.5922
 4523SOL    HW225029   3.622   2.959  13.516 -0.3348 -0.6901 -0.6968
 4524SOL     OW25030   1.815   1.387   8.282 -0.4925 -0.0536  0.0476
 4524SOL    HW125031   1.758   1.315   8.257 -1.5103  1.4240 -1.9049
 4524SOL    HW225032   1.864   1.350   8.355 -1.7364  0.7378  1.3044
 4525SOL     OW25033   3.041   4.034   6.313 -0.1752  0.1411 -0.3130
 4525SOL    HW125034   3.111   4.074   6.365 -2.2921  0.7806  2.0665
 4525SOL    HW225035   2.983   4.110   6.312 -1.0484 -0.5209  0.0358
 4526SOL     OW25036   3.284   3.414   6.099 -0.0382 -0.3980  0.2097
 4526SOL    HW125037   3.231   3.378   6.169 -0.9521  2.8028  1.1863
 4526SOL    HW225038   3.211   3.424   6.037 -0.3792  0.0958  0.6915
 4527SOL     OW25039   3.829   4.683   6.001  0.9220 -0.1091  0.1011
 4527SOL    HW125040   3.736   4.674   6.025  0.8370  0.9024  0.1343
 4527SOL    HW225041   3.876   4.674   6.084  0.1510  0.6991  0.6223
 4528SOL     OW25042   4.050   1.473  16.623 -0.8271  0.1312  0.1731
 4528SOL    HW125043   4.054   1.398  16.682  1.3620  1.8913  2.1904
 4528SOL    HW225044   4.126   1.457  16.567 -0.3727  0.8311  0.5987
 4529SOL     OW25045   4.001   1.889   3.483 -0.0384 -0.3015 -0.1819
 4529SOL    HW125046   4.068   1.897   3.551 -0.5185  1.1478  0.1158
 4529SOL    HW225047   4.008   1.794   3.475  0.5787 -0.2988  0.3758
 4530SOL     OW25048   0.054   1.436   3.163 -0.1428  0.4678 -0.0733
 4530SOL    HW125049   0.000   1.411   3.238  1.7304  1.0626  1.4686
 4530SOL    HW225050   0.031   1.529   3.161  1.6667  0.9613  1.5579
 4531SOL     OW25051   2.575   4.543   5.162 -0.0660 -0.3644 -0.0168
 4531SOL    HW125052   2.509   4.602   5.128 -0.3768 -0.1995  0.8568
 4531SOL    HW225053   2.541   4.535   5.252  1.1681  0.4585  0.5280
 4532SOL     OW25054   2.986   2.261   4.749  0.7220  0.0431 -0.0233
 4532SOL    HW125055   3.001   2.315   4.826 -0.5252 -1.3963  1.2422
 4532SOL    HW225056   2.998   2.321   4.675  1.0902  1.5953  1.3204
 4533SOL     OW25057   3.518   3.383   4.632 -0.0997 -0.6488 -0.2911
 4533SOL    HW125058   3.493   3.435   4.708  0.5619  0.4457 -0.8139
 4533SOL    HW225059   3.570   3.313   4.670 -0.1006  0.4679  1.7635
 4534SOL     OW25060   1.946   0.983  17.103 -0.4872  0.5510  0.2208
 4534SOL    HW125061   2.026   0.931  17.111  0.4110  1.9151 -0.0290
 4534SOL    HW225062   1.938   1.028  17.187  1.1529  2.1607 -0.5125
 4535SOL     OW25063   3.840   2.437  11.990 -1.3686  0.0355 -0.5449
 4535SOL    HW125064   3.845   2.508  12.055 -0.9954 -1.1331  0.7110
 4535SOL    HW225065   3.878   2.363  12.037  0.3085  1.0441 -0.3265
 4536SOL     OW25066   0.494   0.512  12.429  0.5333 -0.2255  0.7166
 4536SOL    HW125067   0.517   0.472  12.513  0.1118 -0.4193  0.7394
 4536SOL    HW225068   0.576   0.504  12.379  0.2625 -1.1618  0.4264
 4537SOL     OW25069   3.396   3.128   2.637  0.1400 -0.0147  0.3540
 4537SOL    HW125070   3.437   3.104   2.553 -0.2098  1.5503 -0.2679
 4537SOL    HW225071   3.306   3.105   2.614  0.6292 -1.1336 -0.4476
 4538SOL     OW25072   0.561   4.636   0.830  0.1420  0.5621 -0.2035
 4538SOL    HW125073   0.497   4.601   0.768 -0.3762 -2.4162  2.0127
 4538SOL    HW225074   0.510   4.616   0.909  1.7193 -0.1380  0.6157
 4539SOL     OW25075   0.175   3.935   2.788  0.5727 -0.4047 -0.0673
 4539SOL    HW125076   0.084   3.951   2.813  0.8214 -1.4453  1.5151
 4539SOL    HW225077   0.222   3.921   2.870  0.8980  1.7870  0.1251
 4540SOL     OW25078   0.785   2.807   8.243  0.0725  0.0382 -0.2117
 4540SOL    HW125079   0.706   2.837   8.288  0.3327  1.2398 -0.5476
 4540SOL    HW225080   0.841   2.883   8.261 -0.7535  0.6698 -0.2729
 4541SOL     OW25081   0.169   0.524   2.766 -0.0120  0.1495 -0.2062
 4541SOL    HW125082   0.252   0.480   2.751  0.1248 -0.6784  2.9095
 4541SOL    HW225083   0.163   0.581   2.690 -3.7188  0.4977  0.3422
 4542SOL     OW25084   1.006   2.651   3.119 -0.4736  0.1277 -0.5887
 4542SOL    HW125085   0.952   2.686   3.191  0.9295  0.7080  0.1879
 4542SOL    HW225086   1.084   2.697   3.151  2.0499 -4.2388 -0.3944
 4543SOL     OW25087   2.382   1.938  17.067 -0.8683 -0.5701  0.8002
 4543SOL    HW125088   2.339   2.023  17.054 -1.8693 -1.2406 -0.2676
 4543SOL    HW225089   2.309   1.891  17.106 -1.1136  0.0561  1.1027
 4544SOL     OW25090   1.067   3.141   2.746 -0.0424  0.7177  0.3898
 4544SOL    HW125091   1.034   3.188   2.822 -0.6835 -2.9697  2.3729
 4544SOL    HW225092   1.020   3.176   2.670  0.9419  0.0539 -0.5358
 4545SOL     OW25093   2.657   3.765   3.686 -0.6898 -0.3351 -0.1176
 4545SOL    HW125094   2.716   3.703   3.643  0.1550  1.0942 -1.0095
 4545SOL    HW225095   2.708   3.801   3.759  0.2449  1.0230 -1.4291
 4546SOL     OW25096   2.883   0.075   8.184 -0.0640 -0.0148 -0.6158
 4546SOL    HW125097   2.955   0.134   8.206 -0.1013 -0.1813 -0.0526
 4546SOL    HW225098   2.885   0.091   8.089  0.4258 -2.2071 -0.9788
 4547SOL     OW25099   2.952   2.135   7.216  0.4004 -0.6100 -0.7909
 4547SOL    HW125100   3.016   2.088   7.270 -2.4560 -0.8116  2.3584
 4547SOL    HW225101   2.871   2.092   7.243 -0.7323  1.5152 -0.8205
 4548SOL     OW25102   1.135   4.686   8.981  0.2879 -0.5005  0.2463
 4548SOL    HW125103   1.056   4.705   9.031 -0.9357  0.4032 -1.9939
 4548SOL    HW225104   1.132   4.591   8.989  0.9584 -0.4028  1.5003
 4549SOL     OW25105   2.984   4.187   1.153 -0.7087 -0.3990  0.5095
 4549SOL    HW125106   3.041   4.245   1.203  1.3553 -2.1089  0.1145
 4549SOL    HW225107   2.900   4.232   1.165 -0.3589  0.9190 -1.9970
 4550SOL     OW25108   1.473   2.931  12.551 -0.2324 -0.5099 -0.1265
 4550SOL    HW125109   1.541   2.909  12.614 -0.4350 -2.0760 -0.4561
 4550SOL    HW225110   1.519   2.922  12.467 -2.5864 -0.7893 -1.3993
 4551SOL     OW25111   3.713   4.426   3.365 -0.4407  0.0358 -0.0699
 4551SOL    HW125112   3.625   4.459   3.383 -1.0535 -0.0554 -2.9410
 4551SOL    HW225113   3.687   4.394   3.279 -0.9104 -0.8589  0.3979
 4552SOL     OW25114   1.198   2.881   6.092 -0.0251 -0.4498 -0.7726
 4552SOL    HW125115   1.121   2.880   6.148 -0.0938 -2.5204 -0.9333
 4552SOL    HW225116   1.208   2.972   6.062  1.1490 -0.4101 -0.2890
 4553SOL     OW25117   4.548   0.007   5.747  0.8812  0.1390 -0.6024
 4553SOL    HW125118   4.458   0.035   5.765  1.1828  0.1710  0.9166
 4553SOL    HW225119   4.562   0.038   5.658 -0.4103 -0.4363 -1.0015
 4554SOL     OW25120   2.422   1.523   2.777  0.7422 -0.0967  0.3309
 4554SOL    HW125121   2.357   1.585   2.744  2.2224  0.9056 -0.7463
 4554SOL    HW225122   2.487   1.528   2.707  0.0557  0.3289 -0.2777
 4555SOL     OW25123   3.117   2.419   2.372 -0.2327 -0.4011 -0.2595
 4555SOL    HW125124   3.062   2.350   2.334 -1.8909 -0.2183  1.7801
 4555SOL    HW225125   3.071   2.488   2.324  0.6305 -0.1933 -0.7785
 4556SOL     OW25126   0.087   3.183  16.204 -0.2045 -0.8591  0.1594
 4556SOL    HW125127   0.107   3.241  16.278 -3.0777  0.0071  0.2605
 4556SOL    HW225128   0.126   3.099  16.229  0.0269 -0.5242  0.9203
 4557SOL     OW25129   1.484   3.881   8.214 -0.3268  0.2586  0.3241
 4557SOL    HW125130   1.492   3.840   8.300 -1.1802 -2.2907 -0.8186
 4557SOL    HW225131   1.420   3.952   8.227 -1.1746 -0.4049 -0.2278
 4558SOL     OW25132   1.698   1.040   2.757  0.1682 -0.6373 -0.0685
 4558SOL    HW125133   1.783   1.026   2.715 -0.1824  1.7759 -1.5615
 4558SOL    HW225134   1.712   1.130   2.786 -0.0840 -1.3617  2.2455
 4559SOL     OW25135   1.385   3.119   8.482  0.0082  0.1629 -0.2367
 4559SOL    HW125136   1.372   3.098   8.389 -1.4050 -0.7944  0.1757
 4559SOL    HW225137   1.353   3.208   8.493 -1.5002 -0.5882  1.4596
 4560SOL     OW25138   3.861   0.009   7.253  0.2195 -0.1968 -0.1175
 4560SOL    HW125139   3.773   0.026   7.286 -0.3455  0.7217 -2.0821
 4560SOL    HW225140   3.850   4.660   7.193  1.1246 -3.0317  3.2108
 4561SOL     OW25141   1.594   0.100   2.323  0.2543 -0.1426 -0.9266
 4561SOL    HW125142   1.680   0.138   2.305  0.5604 -0.5621 -0.3522
 4561SOL    HW225143   1.605   0.008   2.298 -0.2815 -0.8060  1.2410
 4562SOL     OW25144   2.608   1.400   8.999  0.3394 -0.0741 -0.0985
 4562SOL    HW125145   2.533   1.430   8.947 -0.2058  0.8290  1.2201
 4562SOL    HW225146   2.656   1.351   8.932 -0.8107 -0.7561 -0.4201
 4563SOL     OW25147   4.501   4.283  11.354 -0.3183 -0.0308  0.1957
 4563SOL    HW125148   4.592   4.309  11.369 -1.1546  2.1636  1.5374
 4563SOL    HW225149   4.492   4.227  11.277 -0.1545 -0.9074  0.8244
 4564SOL     OW25150   1.843   0.647   6.975 -0.1349  0.6652  0.6622
 4564SOL    HW125151   1.863   0.716   6.911  0.0780  1.3537  1.4751
 4564SOL    HW225152   1.926   0.600   6.981 -0.6130  0.0238  2.0395
 4565SOL     OW25153   4.368   3.551   8.653 -0.5568 -0.2678  0.4652
 4565SOL    HW125154   4.347   3.582   8.742 -0.4228  1.3380 -0.0735
 4565SOL    HW225155   4.283   3.518   8.625  0.1688 -2.1239  0.4503
 4566SOL     OW25156   3.291   3.754   3.487  0.1794 -0.1898 -0.3087
 4566SOL    HW125157   3.222   3.695   3.518 -1.1910  1.7295  0.2781
 4566SOL    HW225158   3.245   3.838   3.479  0.0122 -0.2975 -0.4880
 4567SOL     OW25159   0.105   3.631   3.441 -0.5230  0.5269 -0.5374
 4567SOL    HW125160   0.030   3.676   3.402 -2.1964 -1.5582  0.2864
 4567SOL    HW225161   0.177   3.651   3.381  0.5307 -0.7903  0.2860
 4568SOL     OW25162   0.950   3.407   3.291 -0.4136  0.1915 -0.1748
 4568SOL    HW125163   0.882   3.372   3.233 -0.1045  0.2574 -0.5712
 4568SOL    HW225164   0.973   3.488   3.247 -2.1709  0.0602 -1.3364
 4569SOL     OW25165   2.536   1.688   8.966  0.0453  0.3201 -0.6977
 4569SOL    HW125166   2.536   1.726   8.878  0.3590 -0.5131 -1.0631
 4569SOL    HW225167   2.469   1.620   8.958  0.7048 -0.7324  2.9701
 4570SOL     OW25168   1.835   2.023   5.046 -0.1224  0.2151 -0.0238
 4570SOL    HW125169   1.792   2.106   5.068 -0.4424  0.7146 -2.5422
 4570SOL    HW225170   1.815   1.983   5.131 -0.8286  0.0161 -0.2838
 4571SOL     OW25171   4.400   1.038   0.936  0.3521 -0.2124 -0.0991
 4571SOL    HW125172   4.452   1.117   0.950  0.0444  0.0089 -0.2004
 4571SOL    HW225173   4.387   1.044   0.841 -2.6149 -0.3769  0.3108
 4572SOL     OW25174   2.392   4.661   4.050  0.0711 -0.2766 -0.0182
 4572SOL    HW125175   2.359   4.691   4.135 -1.9167 -2.5432 -0.0153
 4572SOL    HW225176   2.410   0.024   4.014  0.4608  0.1119  1.1243
 4573SOL     OW25177   2.998   2.688   7.347  0.4804  0.6589 -0.4969
 4573SOL    HW125178   2.963   2.758   7.292 -2.3097  0.1593  0.6322
 4573SOL    HW225179   2.931   2.622   7.332 -0.8496  2.1829 -1.2171
 4574SOL     OW25180   2.752   1.587   1.716 -0.0334 -0.2088 -0.3766
 4574SOL    HW125181   2.827   1.647   1.716  0.6109 -0.9970  0.8688
 4574SOL    HW225182   2.676   1.644   1.722 -0.1043 -0.3227 -0.1836
 4575SOL     OW25183   0.497   3.543   3.451  0.3463 -0.2059 -1.2700
 4575SOL    HW125184   0.481   3.449   3.459 -0.9164  0.2693  1.6294
 4575SOL    HW225185   0.574   3.550   3.394  1.6790 -0.8182  0.4592
 4576SOL     OW25186   1.041   4.097   7.745  0.2547  0.1526  0.2524
 4576SOL    HW125187   1.083   4.011   7.751 -0.6257 -0.3210 -0.3677
 4576SOL    HW225188   0.962   4.079   7.795 -0.2298 -1.0126 -0.9118
 4577SOL     OW25189   0.369   2.213   3.194  0.4988  0.8761  0.0118
 4577SOL    HW125190   0.324   2.252   3.269  0.2926 -1.3815  1.0671
 4577SOL    HW225191   0.371   2.130   3.242 -1.5843  1.2420  0.7200
 4578SOL     OW25192   2.889   0.263   7.210  0.0490 -0.0787 -0.4494
 4578SOL    HW125193   2.814   0.224   7.166 -0.1845  0.7122 -0.7532
 4578SOL    HW225194   2.955   0.195   7.215 -1.2046 -1.2767 -0.2080
 4579SOL     OW25195   1.057   2.342   6.720  0.0781 -0.4652 -0.3800
 4579SOL    HW125196   1.114   2.349   6.797  0.9404 -1.9960 -0.8876
 4579SOL    HW225197   0.970   2.365   6.754  0.1604 -1.7398  0.6953
 4580SOL     OW25198   3.607   1.173   9.757  0.6303  0.0071 -0.5231
 4580SOL    HW125199   3.546   1.110   9.718 -1.2844  1.6340 -0.1592
 4580SOL    HW225200   3.591   1.167   9.852 -0.3644  0.1597 -0.6794
 4581SOL     OW25201   4.092   1.372  10.912 -0.0684 -0.6124  0.0556
 4581SOL    HW125202   4.005   1.334  10.917 -0.5141  0.4561  0.5093
 4581SOL    HW225203   4.078   1.439  10.979  1.7451  0.4076 -0.5753
 4582SOL     OW25204   2.511   2.876   4.635 -0.2225 -0.6494  0.0135
 4582SOL    HW125205   2.478   2.793   4.669 -1.5498 -0.2252 -0.2638
 4582SOL    HW225206   2.542   2.850   4.548 -2.7238 -1.5622 -0.5947
 4583SOL     OW25207   0.893   3.964  15.739 -0.1989  0.2265  0.5131
 4583SOL    HW125208   0.861   3.987  15.652 -0.9124 -1.4267  0.3585
 4583SOL    HW225209   0.915   3.872  15.726 -1.4475  0.5998 -4.2238
 4584SOL     OW25210   1.808   3.072  15.681  0.0763  0.8230 -0.3088
 4584SOL    HW125211   1.886   3.018  15.668  1.8049  3.1905  0.2373
 4584SOL    HW225212   1.751   3.010  15.636  2.2025 -0.2292 -1.5745
 4585SOL     OW25213   3.169   0.448   9.454 -0.1958  0.2135 -0.0289
 4585SOL    HW125214   3.081   0.439   9.418 -0.5846  0.8411  0.7475
 4585SOL    HW225215   3.227   0.414   9.387  1.7754 -0.0256  1.7911
 4586SOL     OW25216   0.101   2.121   7.315 -0.4340 -0.1142  1.2110
 4586SOL    HW125217   0.057   2.038   7.333  3.6407 -2.5468 -0.2306
 4586SOL    HW225218   0.040   2.187   7.348  0.2866  1.1892 -0.0909
 4587SOL     OW25219   2.967   4.134   7.231  0.2791 -0.4442 -0.0221
 4587SOL    HW125220   2.920   4.197   7.285  0.9468  0.7673 -0.8411
 4587SOL    HW225221   2.980   4.060   7.291  0.7544 -0.7813 -0.5347
 4588SOL     OW25222   0.949   0.258   9.194  0.5177 -0.1744  0.1852
 4588SOL    HW125223   1.036   0.234   9.225 -0.6454  0.1923  3.7463
 4588SOL    HW225224   0.893   0.213   9.258  0.3225  0.0175  0.1497
 4589SOL     OW25225   3.290   2.544   2.559 -0.2675 -0.1952 -0.1600
 4589SOL    HW125226   3.360   2.568   2.498  0.3988 -1.3423  0.1544
 4589SOL    HW225227   3.219   2.526   2.498 -1.2099 -0.1543  0.9144
 4590SOL     OW25228   2.220   2.756  13.592 -0.5906  0.4306 -0.3184
 4590SOL    HW125229   2.279   2.719  13.657 -0.8618 -1.7369 -1.3181
 4590SOL    HW225230   2.156   2.685  13.592 -2.1217  1.8089 -0.8853
 4591SOL     OW25231   2.874   1.615   5.256 -0.3391  0.0952  0.3341
 4591SOL    HW125232   2.935   1.569   5.314 -0.0559 -0.5262 -0.4532
 4591SOL    HW225233   2.807   1.548   5.262  0.1905 -0.5678 -1.0849
 4592SOL     OW25234   0.004   1.049   8.360  0.3480  0.4721  0.2127
 4592SOL    HW125235   0.051   1.057   8.443  0.6659 -0.6609  0.1416
 4592SOL    HW225236   0.024   0.957   8.346 -0.1137  0.3696  0.2176
 4593SOL     OW25237   0.084   3.587   4.768  0.0476  0.1111 -0.1612
 4593SOL    HW125238   0.108   3.499   4.738  0.1505  0.1797 -0.2786
 4593SOL    HW225239   0.148   3.609   4.835 -0.5595  0.8205  0.1783
 4594SOL     OW25240   4.693   2.391   9.526  0.0974 -0.4313  0.5642
 4594SOL    HW125241   4.692   2.385   9.431 -0.6705 -0.0524  0.5503
 4594SOL    HW225242   0.034   2.328   9.558  1.1963 -0.4471 -1.7029
 4595SOL     OW25243   2.874   0.969   7.285  0.3147  0.1079  0.1084
 4595SOL    HW125244   2.887   1.005   7.373  1.8300 -2.3312  0.8846
 4595SOL    HW225245   2.807   0.901   7.294 -0.5605  1.2216  2.1435
 4596SOL     OW25246   4.192   2.517   7.669  0.0787  0.3740  0.5232
 4596SOL    HW125247   4.164   2.605   7.645 -0.1048  0.4604  1.0657
 4596SOL    HW225248   4.277   2.521   7.624 -0.0966 -3.4444 -0.1544
 4597SOL     OW25249   4.436   0.166   3.342 -0.6064 -0.0276 -1.0690
 4597SOL    HW125250   4.462   0.244   3.293 -1.8808  1.9090  1.3799
 4597SOL    HW225251   4.445   0.179   3.436 -1.3552  1.0876 -1.1509
 4598SOL     OW25252   4.072   0.555  16.177  0.1071 -0.2727  0.2583
 4598SOL    HW125253   4.005   0.591  16.120 -0.2449  0.9636  1.4356
 4598SOL    HW225254   4.141   0.622  16.178 -0.3789  0.2331 -1.6295
 4599SOL     OW25255   1.188   0.628   6.615 -0.3704 -0.8846  0.0797
 4599SOL    HW125256   1.181   0.648   6.522  1.2775 -0.3010  0.0697
 4599SOL    HW225257   1.271   0.583   6.630 -0.8318 -1.5037  0.7311
 4600SOL     OW25258   2.085   0.132  17.658 -0.2240  0.8136 -0.4741
 4600SOL    HW125259   2.045   0.120   0.045 -3.4304  0.8635 -1.9491
 4600SOL    HW225260   2.151   0.062  17.664 -2.5350 -1.3253 -0.1221
 4601SOL     OW25261   1.480   2.556   2.152 -0.1689 -0.1724 -0.2803
 4601SOL    HW125262   1.500   2.605   2.232 -0.7819  0.6080 -0.6003
 4601SOL    HW225263   1.566   2.544   2.112 -0.1224 -1.3264  0.1772
 4602SOL     OW25264   4.407   3.888  17.663  0.0277  0.0742  0.0903
 4602SOL    HW125265   4.403   3.798  17.633  0.8676 -0.0192  0.2638
 4602SOL    HW225266   4.453   3.867   0.044  0.6751  0.9040 -0.0677
 4603SOL     OW25267   2.687   3.889   8.737  0.7569 -0.0981 -0.5235
 4603SOL    HW125268   2.708   3.979   8.764  0.6474 -0.4344  0.7204
 4603SOL    HW225269   2.622   3.868   8.804  0.9754  0.7866 -0.0295
 4604SOL     OW25270   4.042   3.295   4.430 -0.5046  0.7703 -0.0097
 4604SOL    HW125271   4.134   3.303   4.403 -0.7184 -0.1690 -1.0552
 4604SOL    HW225272   4.008   3.227   4.371  2.4202 -0.4451 -0.3043
 4605SOL     OW25273   2.889   4.245   5.699 -0.5335 -0.4523 -0.3655
 4605SOL    HW125274   2.907   4.337   5.679 -2.2136 -0.4658 -1.8802
 4605SOL    HW225275   2.970   4.211   5.659 -0.9849 -1.7351 -0.1860
 4606SOL     OW25276   0.754   4.011   3.225  0.1933  0.4658 -0.0028
 4606SOL    HW125277   0.661   4.032   3.215  0.2661  1.5118  1.4561
 4606SOL    HW225278   0.773   4.012   3.319  0.8281  2.5959 -0.1522
 4607SOL     OW25279   1.286   2.312  10.607 -0.2885  0.1092 -0.2922
 4607SOL    HW125280   1.225   2.352  10.669 -0.5993 -1.5146  0.4405
 4607SOL    HW225281   1.308   2.381  10.544  0.9177  0.2501  0.2928
 4608SOL     OW25282   2.790   1.987   9.272  0.2800 -0.1525 -0.3319
 4608SOL    HW125283   2.735   1.909   9.280 -2.6985  2.2203  2.7054
 4608SOL    HW225284   2.855   1.986   9.342 -2.4246  3.8782  2.2345
 4609SOL     OW25285   1.765   0.408   0.017 -0.0515 -0.0214 -0.1792
 4609SOL    HW125286   1.842   0.446   0.059  0.5664 -0.9051 -0.4879
 4609SOL    HW225287   1.817   0.356  17.655 -0.8543  1.5247 -2.1235
 4610SOL     OW25288   3.448   3.985   3.017 -0.3617  0.1620  0.1478
 4610SOL    HW125289   3.433   3.929   3.093 -2.0822 -1.4063 -1.3469
 4610SOL    HW225290   3.496   3.936   2.950 -0.4378  1.7029 -1.0436
 4611SOL     OW25291   3.674   4.032   8.143  0.3450 -0.3341  0.7597
 4611SOL    HW125292   3.768   4.016   8.150  0.2400 -1.2591 -0.1241
 4611SOL    HW225293   3.666   3.991   8.057 -1.2283 -0.6746  1.0687
 4612SOL     OW25294   1.633   2.207   5.113 -0.0234  0.4774 -0.6180
 4612SOL    HW125295   1.601   2.296   5.098 -1.5539 -0.3162 -2.0454
 4612SOL    HW225296   1.634   2.191   5.018 -1.7098  0.0144 -0.5486
 4613SOL     OW25297   2.836   1.561   0.384  0.0167  0.3553  0.0371
 4613SOL    HW125298   2.846   1.511   0.304 -1.1604  0.4454 -0.1645
 4613SOL    HW225299   2.810   1.487   0.439  2.7592 -1.4900 -1.1874
 4614SOL     OW25300   1.563   0.278   7.032  0.6493 -0.8005  0.2350
 4614SOL    HW125301   1.481   0.285   7.081 -0.4041 -2.2549 -1.3348
 4614SOL    HW225302   1.525   0.263   6.946  0.1459 -2.1696  0.6980
 4615SOL     OW25303   0.483   2.798  16.653 -0.7738  0.5218 -0.5098
 4615SOL    HW125304   0.532   2.875  16.624  0.0356  0.5913  1.0359
 4615SOL    HW225305   0.429   2.781  16.576 -0.2153 -3.0798 -0.1027
 4616SOL     OW25306   0.192   1.938   3.904 -0.3574  0.0915 -0.6118
 4616SOL    HW125307   0.176   1.864   3.846 -0.1865  0.7828 -1.5316
 4616SOL    HW225308   0.279   1.964   3.873  0.2514  0.2697  1.2203
 4617SOL     OW25309   1.110   1.463   7.222 -0.0439 -0.1878 -0.8128
 4617SOL    HW125310   1.023   1.490   7.249  1.5357  0.5981  3.5519
 4617SOL    HW225311   1.117   1.531   7.155  1.0493  1.0427  0.5255
 4618SOL     OW25312   2.322   0.753   3.971  0.1318  0.5465 -0.2750
 4618SOL    HW125313   2.379   0.821   3.935  0.0099  0.5028 -0.5543
 4618SOL    HW225314   2.286   0.721   3.888 -3.0352 -0.2443  1.4102
 4619SOL     OW25315   4.172   0.592   8.856  0.0052 -0.2339  0.3079
 4619SOL    HW125316   4.210   0.504   8.849  0.0379 -0.2209  0.3216
 4619SOL    HW225317   4.188   0.617   8.765  0.3996 -0.0967  0.4174
 4620SOL     OW25318   1.324   4.214   4.415  0.0846  0.5209 -0.7453
 4620SOL    HW125319   1.341   4.189   4.505  0.0286 -1.1305 -1.2035
 4620SOL    HW225320   1.306   4.308   4.421  2.1642  0.7833  0.9887
 4621SOL     OW25321   0.574   1.077   0.900  0.4433  0.4991 -0.1655
 4621SOL    HW125322   0.490   1.036   0.920  0.5918 -0.5167 -1.6287
 4621SOL    HW225323   0.588   1.135   0.975  1.0149 -3.4834  2.7815
 4622SOL     OW25324   2.308   2.914  16.087 -0.0743  0.5344  0.5229
 4622SOL    HW125325   2.287   2.880  16.001 -0.2104  0.6308  0.5186
 4622SOL    HW225326   2.296   2.843  16.150 -3.2776 -1.6802 -2.5942
 4623SOL     OW25327   3.130   2.319  15.797 -0.0015  0.4394 -0.5368
 4623SOL    HW125328   3.040   2.330  15.767 -0.7825  0.4973  1.8578
 4623SOL    HW225329   3.147   2.410  15.821 -0.2686  0.3863 -0.1384
 4624SOL     OW25330   1.863   2.758   5.443  0.1978 -0.1659  0.3595
 4624SOL    HW125331   1.785   2.810   5.423 -0.4688 -1.2046  0.2920
 4624SOL    HW225332   1.844   2.668   5.417  0.8292 -0.5082  1.0930
 4625SOL     OW25333   0.918   0.438   7.753  0.1210 -0.3336 -0.6176
 4625SOL    HW125334   0.998   0.488   7.762 -0.6901  0.8363  0.0101
 4625SOL    HW225335   0.936   0.404   7.666  0.6595 -1.7745  0.0484
 4626SOL     OW25336   0.979   2.916   7.101  0.2849 -0.1533 -0.2394
 4626SOL    HW125337   0.979   2.867   7.019  2.7129  0.0855 -0.3856
 4626SOL    HW225338   1.075   2.917   7.110  0.1911 -0.4182  0.7657
 4627SOL     OW25339   0.551   0.960   2.267 -0.2582 -0.1318  0.3111
 4627SOL    HW125340   0.479   0.909   2.303  0.0548 -0.5291  0.3669
 4627SOL    HW225341   0.497   1.028   2.226  1.0994  0.7057 -0.1009
 4628SOL     OW25342   1.714   0.118   7.199 -0.4789  0.1613 -0.2736
 4628SOL    HW125343   1.668   0.188   7.152 -0.1970  0.5044 -0.0399
 4628SOL    HW225344   1.754   0.065   7.130 -1.6420 -1.7668  0.5209
 4629SOL     OW25345   4.516   2.326   2.522  0.9631 -0.0103  1.1139
 4629SOL    HW125346   4.470   2.288   2.597 -1.0617 -1.2210 -0.7237
 4629SOL    HW225347   4.603   2.337   2.560  1.1196  0.5230  0.5918
 4630SOL     OW25348   3.214   3.280  11.280  0.0644 -0.3071  0.4742
 4630SOL    HW125349   3.195   3.362  11.326 -0.4405  0.7397 -1.6006
 4630SOL    HW225350   3.136   3.274  11.225  0.4470 -1.2999  0.0417
 4631SOL     OW25351   4.631   0.515   4.002 -0.1885  0.8754 -0.0277
 4631SOL    HW125352   4.693   0.516   3.929  0.1473  0.9135  0.2576
 4631SOL    HW225353   4.607   0.423   4.015 -1.7812  0.9085 -2.7073
 4632SOL     OW25354   3.213   4.500   4.943 -0.3991  0.0228 -0.0610
 4632SOL    HW125355   3.185   4.411   4.921  1.8503 -0.4147 -1.2061
 4632SOL    HW225356   3.264   4.482   5.022 -0.8467 -1.8981 -0.2149
 4633SOL     OW25357   2.545   4.652   0.151 -0.0984  0.2860  0.1906
 4633SOL    HW125358   2.567   4.620   0.063  2.3951  0.2693  0.8035
 4633SOL    HW225359   2.598   4.595   0.207  1.8438  0.8053 -1.1077
 4634SOL     OW25360   4.562   0.470   0.720  0.0268 -0.4089  0.3006
 4634SOL    HW125361   4.586   0.488   0.810 -1.1854 -0.1493  0.5701
 4634SOL    HW225362   4.616   0.392   0.709  2.3221  1.3316 -0.7696
 4635SOL     OW25363   3.240   3.866   6.185 -0.7006  0.6473 -0.4482
 4635SOL    HW125364   3.302   3.806   6.226 -2.2212  0.9621  2.2786
 4635SOL    HW225365   3.183   3.882   6.260 -1.3853 -1.8586 -0.4306
 4636SOL     OW25366   2.285   3.180  15.494 -0.2464 -0.6634 -0.3215
 4636SOL    HW125367   2.323   3.267  15.486  1.7040 -1.2207  3.1157
 4636SOL    HW225368   2.359   3.131  15.530 -0.1478 -2.0759 -2.3894
 4637SOL     OW25369   3.203   1.458  15.256  0.4031  0.3957  0.1858
 4637SOL    HW125370   3.292   1.494  15.261  0.2615  0.9505 -1.2950
 4637SOL    HW225371   3.162   1.509  15.186 -0.1757 -1.0372 -0.4992
 4638SOL     OW25372   0.919   2.191   4.212  0.1617 -0.1714 -0.3022
 4638SOL    HW125373   0.947   2.100   4.218 -1.5812 -0.7676 -1.5131
 4638SOL    HW225374   0.877   2.199   4.297 -0.9815 -4.2793 -0.4834
 4639SOL     OW25375   4.590   1.199   7.166 -0.5225  0.1538 -0.2930
 4639SOL    HW125376   4.506   1.156   7.183  0.4115 -1.5651 -0.0469
 4639SOL    HW225377   4.644   1.121   7.178 -0.9817 -0.0569  0.4504
 4640SOL     OW25378   0.546   0.092   5.321  0.3370  0.2874 -0.7439
 4640SOL    HW125379   0.501   0.140   5.390  0.6322 -1.2682  0.5372
 4640SOL    HW225380   0.553   0.161   5.255 -0.9899 -0.8418 -2.0708
 4641SOL     OW25381   4.153   1.008  10.335 -0.4756 -0.5836 -0.3906
 4641SOL    HW125382   4.142   0.925  10.381 -3.2107 -0.5131 -0.8917
 4641SOL    HW225383   4.209   0.990  10.260  1.2347  0.1092  0.7308
 4642SOL     OW25384   2.824   4.547   8.581  0.2724  0.1737  0.5638
 4642SOL    HW125385   2.913   4.512   8.589 -0.5345 -1.8236  0.7778
 4642SOL    HW225386   2.791   4.510   8.663 -1.5069 -2.0150 -1.1429
 4643SOL     OW25387   3.366   2.324   8.947  0.5359 -0.1526  0.4399
 4643SOL    HW125388   3.326   2.379   9.015 -0.7984  0.2327 -0.6516
 4643SOL    HW225389   3.397   2.249   8.996  0.5036  0.3180  1.1868
 4644SOL     OW25390   1.737   0.301   2.961 -0.3599 -0.1541  0.0730
 4644SOL    HW125391   1.726   0.378   3.016 -1.0323  0.9805 -1.6383
 4644SOL    HW225392   1.662   0.281   2.906  0.6657 -1.4202 -0.8720
 4645SOL     OW25393   2.163   3.356   8.408 -0.2453  0.6373 -0.7172
 4645SOL    HW125394   2.098   3.396   8.350 -1.4725 -2.4592 -1.4742
 4645SOL    HW225395   2.101   3.313   8.466 -0.6589 -0.3456 -1.8838
 4646SOL     OW25396   2.103   0.030   9.511 -0.0875  0.2968 -0.6289
 4646SOL    HW125397   2.057   0.033   9.595  0.7601 -0.8313 -0.1200
 4646SOL    HW225398   2.023   0.052   9.463  0.6473  0.5009 -1.7715
 4647SOL     OW25399   4.637   3.615  16.049  0.6066 -0.2795  0.3285
 4647SOL    HW125400   4.674   3.590  16.134 -1.1735  0.3733  1.2974
 4647SOL    HW225401   4.585   3.690  16.078  3.2085  1.8589 -0.5279
 4648SOL     OW25402   4.155   3.948   4.701  0.3052  0.2721  0.0261
 4648SOL    HW125403   4.199   3.864   4.703 -0.3956 -0.1246 -1.5231
 4648SOL    HW225404   4.143   3.953   4.606 -0.5855  1.8643  0.2194
 4649SOL     OW25405   0.716   2.559   2.704 -0.4220  0.1513 -0.4578
 4649SOL    HW125406   0.785   2.610   2.748  1.4192 -2.1632 -0.6394
 4649SOL    HW225407   0.671   2.623   2.650 -1.2603  2.1861  2.6385
 4650SOL     OW25408   2.959   0.133  10.420  0.2216 -0.0393 -0.2568
 4650SOL    HW125409   3.005   0.127  10.336  0.8223 -2.2238  0.2047
 4650SOL    HW225410   2.939   0.226  10.419  2.2080  0.4370  2.3820
 4651SOL     OW25411   2.566   1.164   0.637 -0.0554 -0.0468 -0.8853
 4651SOL    HW125412   2.637   1.120   0.590 -0.1899 -1.7728  0.5100
 4651SOL    HW225413   2.559   1.113   0.719  1.4362 -0.3161 -0.9292
 4652SOL     OW25414   4.723   1.691   7.814 -0.5924 -0.4598  0.0134
 4652SOL    HW125415   4.700   1.602   7.786 -0.1689 -0.8296  0.8332
 4652SOL    HW225416   4.661   1.703   7.886 -0.1484  0.1530  0.2934
 4653SOL     OW25417   3.748   0.096   8.028  0.5684  0.0217  0.1244
 4653SOL    HW125418   3.655   0.111   8.043  0.5179  1.7878 -1.9160
 4653SOL    HW225419   3.777   0.063   8.114  1.4459 -4.2180 -1.7916
 4654SOL     OW25420   3.352   1.277   8.150  0.5049 -0.1439 -0.2388
 4654SOL    HW125421   3.338   1.182   8.160 -1.0683  0.1887  0.7678
 4654SOL    HW225422   3.415   1.290   8.221  1.9841  2.1657 -2.0032
 4655SOL     OW25423   3.341   2.425  14.005  0.5848  0.0940 -0.4087
 4655SOL    HW125424   3.425   2.395  14.042  1.6746  2.7621 -0.7021
 4655SOL    HW225425   3.315   2.502  14.055 -0.9902  0.5691 -2.0031
 4656SOL     OW25426   2.369   2.883  13.867 -0.1074 -0.7183  0.4279
 4656SOL    HW125427   2.384   2.791  13.887 -0.8516 -0.4651  2.1819
 4656SOL    HW225428   2.439   2.910  13.807 -2.1110  0.4259 -1.3578
 4657SOL     OW25429   4.327   0.473  17.065  0.3454  0.3424 -0.2943
 4657SOL    HW125430   4.336   0.404  16.999  1.8838  0.7387 -0.5018
 4657SOL    HW225431   4.250   0.516  17.028  0.7535  1.5320  0.2757
 4658SOL     OW25432   0.526   2.664   9.393 -0.4250 -0.1178  0.1159
 4658SOL    HW125433   0.501   2.756   9.404 -0.7075 -0.1943  0.1100
 4658SOL    HW225434   0.597   2.681   9.330 -2.2552 -0.4372 -2.0190
 4659SOL     OW25435   1.285   4.061   8.331  0.3490 -0.4421  0.2166
 4659SOL    HW125436   1.230   4.059   8.253  2.8848  0.3335 -1.6073
 4659SOL    HW225437   1.237   4.002   8.389  0.6771 -0.8969  0.0259
 4660SOL     OW25438   2.234   2.579   5.577  0.3339  0.2875  0.0312
 4660SOL    HW125439   2.318   2.534   5.569 -0.2776 -0.4144 -2.3122
 4660SOL    HW225440   2.201   2.567   5.666 -2.6943 -0.7623 -1.2459
 4661SOL     OW25441   4.018   3.416   5.561 -0.2269 -0.0230 -0.0814
 4661SOL    HW125442   4.017   3.467   5.642  0.7102 -1.2625  0.7180
 4661SOL    HW225443   4.113   3.416   5.550 -0.5345 -1.2150 -2.7500
 4662SOL     OW25444   0.706   0.456   2.802 -0.6171  0.3047 -0.0336
 4662SOL    HW125445   0.790   0.482   2.762  0.0922 -0.4495  0.9885
 4662SOL    HW225446   0.721   0.463   2.896 -2.3828  1.5100  0.1524
 4663SOL     OW25447   1.352   1.070   8.210 -0.3016 -0.3721 -1.0451
 4663SOL    HW125448   1.277   1.125   8.233  0.6198  0.2600  0.4673
 4663SOL    HW225449   1.397   1.059   8.294 -0.0931  4.1835 -0.5377
 4664SOL     OW25450   2.703   1.130   0.323 -0.0929 -0.1201  0.3654
 4664SOL    HW125451   2.655   1.164   0.247  1.6593 -0.8950 -1.1024
 4664SOL    HW225452   2.787   1.174   0.306 -0.0145 -0.1865  0.5837
 4665SOL     OW25453   4.665   1.401  14.901 -0.6476 -0.3779  1.3518
 4665SOL    HW125454   4.647   1.493  14.881  0.0965 -0.8185 -1.2863
 4665SOL    HW225455   0.015   1.389  14.843  0.4126  0.8235  2.4693
 4666SOL     OW25456   0.042   4.162   6.358  0.6068 -0.1549 -0.2140
 4666SOL    HW125457   4.675   4.138   6.346  1.2204 -2.6135 -0.0702
 4666SOL    HW225458   0.059   4.193   6.269  2.0594  0.6679  0.3525
 4667SOL     OW25459   3.640   0.336   4.968  0.6811  0.0081  0.3729
 4667SOL    HW125460   3.666   0.308   5.056 -0.6194 -0.1302  0.7192
 4667SOL    HW225461   3.691   0.283   4.907  2.2732 -0.8173  2.4434
 4668SOL     OW25462   0.964   3.697   9.008  0.2878 -0.3243 -0.3150
 4668SOL    HW125463   0.943   3.604   9.009  0.2597 -0.2993  1.7706
 4668SOL    HW225464   0.969   3.720   9.101  1.7631  3.3653 -1.2687
 4669SOL     OW25465   4.661   1.797   7.573  0.3775 -0.3782 -0.2102
 4669SOL    HW125466   0.004   1.864   7.558 -0.3156  0.3650  0.0232
 4669SOL    HW225467   4.696   1.745   7.646  1.6772 -1.1346 -1.3568
 4670SOL     OW25468   3.838   3.306   7.154  0.4061  0.2508  0.1632
 4670SOL    HW125469   3.922   3.345   7.130  0.2315  0.7374  0.3381
 4670SOL    HW225470   3.876   3.262   7.230  1.1397  0.7341  0.0822
 4671SOL     OW25471   1.200   4.715   7.511 -0.3808 -0.7609  0.1938
 4671SOL    HW125472   1.254   4.697   7.434  0.5334 -0.1049  0.6869
 4671SOL    HW225473   1.129   0.041   7.471 -0.8384 -0.6881  1.1140
 4672SOL     OW25474   4.195   3.306   2.903 -0.3547  0.1001 -0.3429
 4672SOL    HW125475   4.248   3.314   2.982 -0.7169 -1.0312  0.0266
 4672SOL    HW225476   4.146   3.231   2.937  0.1595 -0.2863 -0.4628
 4673SOL     OW25477   3.815   3.992   5.802  0.3083 -0.2129 -0.4250
 4673SOL    HW125478   3.789   3.922   5.743 -0.0081  1.9535 -2.8787
 4673SOL    HW225479   3.737   4.021   5.849  1.0798  0.6956  0.2912
 4674SOL     OW25480   3.739   4.487   7.685  0.0844 -0.5040 -0.6681
 4674SOL    HW125481   3.834   4.503   7.683  0.4371 -2.8054 -3.1799
 4674SOL    HW225482   3.694   4.557   7.638  2.6805  0.6369 -1.4909
 4675SOL     OW25483   3.271   1.560  11.356  0.4284  0.6983 -0.5495
 4675SOL    HW125484   3.289   1.549  11.262  1.0115  0.6448 -0.4326
 4675SOL    HW225485   3.227   1.482  11.389  0.2767  1.0156 -0.0081
 4676SOL     OW25486   3.761   0.696  15.591  0.0796 -0.0830 -0.4778
 4676SOL    HW125487   3.732   0.779  15.554  0.2408  1.4485  2.8732
 4676SOL    HW225488   3.856   0.698  15.581  0.3824 -1.9813  1.9904
 4677SOL     OW25489   1.626   4.597   9.564  1.2347  0.1310 -1.0699
 4677SOL    HW125490   1.613   4.619   9.656 -1.8014  1.2114 -1.7953
 4677SOL    HW225491   1.558   4.654   9.528 -1.3510 -1.4514  1.3570
 4678SOL     OW25492   2.982   0.075   3.994  0.2229 -0.1053 -0.1572
 4678SOL    HW125493   3.012   0.114   3.912 -0.5951 -1.3422 -1.0475
 4678SOL    HW225494   2.892   0.054   3.968 -0.3592 -0.2516  1.9973
 4679SOL     OW25495   3.054   4.075   5.510 -0.1709  0.8543  0.5446
 4679SOL    HW125496   3.054   4.055   5.417  3.1502 -2.0541  1.1690
 4679SOL    HW225497   3.074   3.992   5.554  2.8326  1.4526  0.3106
 4680SOL     OW25498   0.770   4.130   2.785 -0.4488  0.2073  0.4483
 4680SOL    HW125499   0.699   4.131   2.849 -1.3765 -1.9127 -0.5445
 4680SOL    HW225500   0.726   4.098   2.706  2.2686  1.0560 -1.4199
 4681SOL     OW25501   4.066   2.676   2.903  0.0542  0.2916  0.1618
 4681SOL    HW125502   4.050   2.687   2.997  0.3101  2.0058  0.0010
 4681SOL    HW225503   4.026   2.758   2.873 -0.5466  0.0042  0.1802
 4682SOL     OW25504   3.643   4.522   8.822  0.1120 -0.5516 -0.1445
 4682SOL    HW125505   3.580   4.479   8.879  1.3734 -2.4184 -0.1603
 4682SOL    HW225506   3.717   4.461   8.813  1.4790  1.2502 -1.2386
 4683SOL     OW25507   4.652   2.949   6.326  0.7204  0.7062 -0.0372
 4683SOL    HW125508   4.557   2.962   6.327  0.6016  0.0302 -1.8384
 4683SOL    HW225509   4.656   2.859   6.358 -0.6632  1.2336  1.6165
 4684SOL     OW25510   0.067   0.764   4.458 -0.6073  0.2856  0.3853
 4684SOL    HW125511   4.714   0.806   4.495 -0.2797  1.7031 -0.5540
 4684SOL    HW225512   0.130   0.787   4.526 -0.8172 -1.8693  1.2934
 4685SOL     OW25513   1.192   4.307  13.891  0.2777  0.0460 -0.4298
 4685SOL    HW125514   1.189   4.319  13.986 -1.6703 -0.2393 -0.4512
 4685SOL    HW225515   1.111   4.257  13.881 -0.6078  1.6116 -1.0748
 4686SOL     OW25516   3.343   4.334   6.897 -0.2685 -0.6723  0.4321
 4686SOL    HW125517   3.269   4.283   6.931  0.1538 -2.5036 -1.3309
 4686SOL    HW225518   3.409   4.322   6.965  3.1760  2.3135 -2.4124
 4687SOL     OW25519   1.578   1.580   6.966  0.0047  0.2624  0.1407
 4687SOL    HW125520   1.522   1.504   6.977 -0.4309  0.6701  0.7632
 4687SOL    HW225521   1.577   1.633   7.046  0.0481 -0.7109  0.7794
 4688SOL     OW25522   0.929   1.707   1.949 -0.3981 -0.5972  0.2495
 4688SOL    HW125523   0.944   1.801   1.937 -1.5606 -0.5615 -0.8595
 4688SOL    HW225524   1.019   1.686   1.973 -1.1016 -2.3934  1.2906
 4689SOL     OW25525   2.458   3.892   9.286  0.1643  0.2361 -0.4446
 4689SOL    HW125526   2.376   3.936   9.305  0.1018  0.9389 -2.3563
 4689SOL    HW225527   2.423   3.812   9.246 -0.0120  0.1008 -0.0170
 4690SOL     OW25528   1.199   0.186  12.533 -0.3737  0.0284  0.0398
 4690SOL    HW125529   1.127   0.153  12.587 -0.6263  0.6506  0.0835
 4690SOL    HW225530   1.160   0.187  12.445 -1.0384 -1.8085  0.3159
 4691SOL     OW25531   1.844   2.630   3.872  0.4399  0.2082 -0.5100
 4691SOL    HW125532   1.774   2.569   3.846 -1.0348  1.4384  0.5683
 4691SOL    HW225533   1.838   2.624   3.967  0.2117 -2.4342 -0.6853
 4692SOL     OW25534   0.357   2.456   0.112  0.2192  0.3382 -0.5568
 4692SOL    HW125535   0.359   2.414   0.198 -0.3196 -0.5653 -0.9754
 4692SOL    HW225536   0.444   2.486   0.087 -0.0627  1.9779  0.4097
 4693SOL     OW25537   3.152   0.001   8.529 -0.2455 -0.1091  0.0364
 4693SOL    HW125538   3.223   0.016   8.591 -0.3809  0.3551  0.0846
 4693SOL    HW225539   3.082   4.712   8.593 -0.7069 -0.3064 -0.5080
 4694SOL     OW25540   2.022   2.852   2.794 -0.4298  0.2381 -0.2955
 4694SOL    HW125541   1.991   2.906   2.867 -1.7294  0.2140 -0.8184
 4694SOL    HW225542   1.951   2.789   2.781  0.2800 -0.8337  1.0407
 4695SOL     OW25543   4.573   2.276  16.983  0.0113  0.2461  0.1460
 4695SOL    HW125544   4.528   2.204  17.028  0.8976  0.1711  0.9209
 4695SOL    HW225545   4.662   2.261  17.016 -0.3567 -0.5738  0.7676
 4696SOL     OW25546   2.054   3.590   8.040  0.2029 -0.1538  0.0851
 4696SOL    HW125547   1.966   3.614   8.008  0.3600  1.9753  1.2129
 4696SOL    HW225548   2.053   3.496   8.022 -0.7038 -0.1500  0.0870
 4697SOL     OW25549   0.511   4.522   6.284  0.0354 -0.4689  0.2691
 4697SOL    HW125550   0.532   4.520   6.191  0.0112  1.7296  0.2121
 4697SOL    HW225551   0.539   4.609   6.311  1.0558 -0.5505 -0.5338
 4698SOL     OW25552   3.610   3.406   8.534 -0.1074 -0.0361 -0.2848
 4698SOL    HW125553   3.552   3.478   8.506  0.2219  0.7379  1.0299
 4698SOL    HW225554   3.562   3.329   8.503 -0.6139  0.4120 -0.6226
 4699SOL     OW25555   0.625   0.282   5.160  1.0796  0.1372 -0.0337
 4699SOL    HW125556   0.619   0.344   5.233 -1.7563  0.1493 -0.2907
 4699SOL    HW225557   0.565   0.331   5.104 -1.0187 -3.3308 -0.8406
 4700SOL     OW25558   1.678   3.302   8.809 -0.5171 -0.3764  0.3206
 4700SOL    HW125559   1.719   3.326   8.892  1.1859 -0.4339 -0.5092
 4700SOL    HW225560   1.602   3.253   8.840 -2.8303  2.1229 -1.4524
 4701SOL     OW25561   4.199   1.907   7.646  0.1399  0.1028  0.0912
 4701SOL    HW125562   4.114   1.875   7.675 -0.4615  1.7833  0.1877
 4701SOL    HW225563   4.241   1.939   7.726  0.2472 -2.3223  1.0060
 4702SOL     OW25564   1.400   3.586  10.088 -0.1490 -0.1677  0.4507
 4702SOL    HW125565   1.372   3.495  10.099 -1.3415  0.0824 -0.5095
 4702SOL    HW225566   1.381   3.602   9.995  0.4865 -2.3569 -0.0417
 4703SOL     OW25567   4.465   2.263   8.443 -0.2694  0.5071 -0.3351
 4703SOL    HW125568   4.481   2.324   8.515  0.9754  1.3737 -1.3477
 4703SOL    HW225569   4.420   2.319   8.379  0.6583 -0.0638 -1.4906
 4704SOL     OW25570   4.189   4.009   6.839  0.1061  0.3964  0.5560
 4704SOL    HW125571   4.242   4.010   6.759 -2.2892  2.4180 -1.0236
 4704SOL    HW225572   4.190   3.916   6.862 -1.1772  0.7964  2.1965
 4705SOL     OW25573   0.401   3.434   4.767 -0.1878 -0.5882  0.8964
 4705SOL    HW125574   0.337   3.370   4.799 -4.3926  2.0946 -2.2130
 4705SOL    HW225575   0.371   3.507   4.821  0.7565  0.6347 -0.2187
 4706SOL     OW25576   1.352   1.817   4.044  0.0499 -0.5534 -0.1743
 4706SOL    HW125577   1.331   1.728   4.072 -1.7470 -0.0505  0.1204
 4706SOL    HW225578   1.381   1.860   4.123 -1.2388 -2.2535  1.2327
 4707SOL     OW25579   2.088   4.457   5.512  0.6779  0.6812  0.1069
 4707SOL    HW125580   2.133   4.373   5.511  0.1696  0.4211 -1.9416
 4707SOL    HW225581   2.022   4.445   5.580 -0.7141  0.0160 -1.3626
 4708SOL     OW25582   3.453   1.765   1.883  0.3600 -0.0123 -0.0046
 4708SOL    HW125583   3.529   1.786   1.828 -0.4221 -0.5311 -1.2831
 4708SOL    HW225584   3.465   1.835   1.948 -0.8085  0.3274 -0.1497
 4709SOL     OW25585   4.229   2.831   9.196  0.5570  0.1315 -0.1084
 4709SOL    HW125586   4.185   2.911   9.224  1.9964  0.4402  1.2477
 4709SOL    HW225587   4.190   2.816   9.110 -1.3136 -1.7713  1.0542
 4710SOL     OW25588   0.387   0.699  10.063  0.0344 -0.3821 -0.0903
 4710SOL    HW125589   0.476   0.672  10.041  0.3539  0.2874  0.3711
 4710SOL    HW225590   0.407   0.718  10.155  0.1736 -0.6489 -0.0636
 4711SOL     OW25591   3.969   2.904  10.249  0.5399 -0.4773  0.1913
 4711SOL    HW125592   4.022   2.967  10.200  0.3413  0.1167  0.7396
 4711SOL    HW225593   4.029   2.858  10.309 -0.0930 -0.8586  0.5330
 4712SOL     OW25594   1.004   2.476   6.229  0.4867  0.1374  0.5993
 4712SOL    HW125595   1.046   2.483   6.315  2.6951 -1.5490 -0.3407
 4712SOL    HW225596   1.038   2.389   6.210  0.4598  0.1944  0.2936
 4713SOL     OW25597   1.138   2.403  10.090 -0.0388 -0.5065  0.8271
 4713SOL    HW125598   1.132   2.311  10.063 -2.4652 -0.2597  0.5301
 4713SOL    HW225599   1.172   2.407  10.179 -1.1769 -1.4042  1.3048
 4714SOL     OW25600   1.051   3.858  14.728 -0.0012  0.2292 -0.2839
 4714SOL    HW125601   0.962   3.829  14.748 -0.6567  1.6471 -1.0725
 4714SOL    HW225602   1.104   3.782  14.752  0.6579  1.1233  1.1100
 4715SOL     OW25603   0.276   2.396  10.857  0.2577  0.6100  0.0399
 4715SOL    HW125604   0.315   2.401  10.944  0.6882  2.4605 -0.2539
 4715SOL    HW225605   0.356   2.379  10.808 -0.1202 -3.9029  1.0157
 4716SOL     OW25606   0.793   2.327   2.174  0.6464 -0.2366 -0.1112
 4716SOL    HW125607   0.722   2.325   2.110  1.8296 -2.3618 -1.3433
 4716SOL    HW225608   0.796   2.232   2.182  0.0640 -0.2289  0.2107
 4717SOL     OW25609   0.783   0.302   8.950  0.1883  0.5052  0.4601
 4717SOL    HW125610   0.788   0.319   9.044 -1.3550  1.4760  0.3603
 4717SOL    HW225611   0.864   0.341   8.917 -0.5767  1.2082 -0.5802
 4718SOL     OW25612   4.561   4.341   8.645 -0.7872  0.2342  0.0904
 4718SOL    HW125613   4.642   4.386   8.669 -1.2700 -0.2620  2.6051
 4718SOL    HW225614   4.514   4.345   8.728 -0.1485  1.1619  0.4178
 4719SOL     OW25615   2.576   1.498   4.549 -0.1881 -0.4334 -0.0422
 4719SOL    HW125616   2.491   1.539   4.563 -0.1154  0.2442 -1.6155
 4719SOL    HW225617   2.576   1.444   4.628 -1.5209 -1.0921 -0.4864
 4720SOL     OW25618   3.113   4.508   2.854 -0.1262  0.0827  0.5551
 4720SOL    HW125619   3.159   4.435   2.812  0.1123 -0.3043  1.5000
 4720SOL    HW225620   3.090   4.561   2.778  0.6706 -2.3621 -1.3879
 4721SOL     OW25621   0.484   2.973   0.242  0.2338 -0.2691  0.6152
 4721SOL    HW125622   0.396   3.010   0.241  0.8078  1.0738 -1.8141
 4721SOL    HW225623   0.461   2.900   0.185 -1.9110 -0.7058  2.0714
 4722SOL     OW25624   2.459   3.474   5.930 -0.0989  0.1718  0.0334
 4722SOL    HW125625   2.405   3.405   5.969  0.3383 -0.7715 -1.0204
 4722SOL    HW225626   2.536   3.473   5.986  0.8377 -0.0431 -1.2513
 4723SOL     OW25627   4.132   2.012  12.468 -0.0910 -0.8212 -0.0480
 4723SOL    HW125628   4.223   2.028  12.493 -0.1577  1.0746 -1.0400
 4723SOL    HW225629   4.097   2.101  12.469 -1.0410 -1.1808 -1.3412
 4724SOL     OW25630   2.709   0.570   8.126  0.2802 -0.1698  0.2813
 4724SOL    HW125631   2.740   0.568   8.036 -0.9604  0.3932 -0.1590
 4724SOL    HW225632   2.618   0.593   8.106  0.1285  0.0009  1.1389
 4725SOL     OW25633   1.479   2.413   7.499  0.0436  0.4262  0.4105
 4725SOL    HW125634   1.523   2.466   7.566  1.6905  1.2245 -1.3196
 4725SOL    HW225635   1.398   2.387   7.543 -0.2584  0.5577 -0.0731
 4726SOL     OW25636   1.353   0.098   4.879 -0.3142 -0.3193  0.0461
 4726SOL    HW125637   1.392   0.182   4.901  1.9825 -1.3491 -0.0581
 4726SOL    HW225638   1.339   0.105   4.784  1.8766 -0.4523 -0.2823
 4727SOL     OW25639   3.014   4.652   2.655 -0.0265  0.2588  0.5482
 4727SOL    HW125640   2.997   4.603   2.574 -1.8554  3.5335 -1.0558
 4727SOL    HW225641   2.930   4.696   2.648 -0.2755 -0.2626  0.2331
 4728SOL     OW25642   1.522   0.217  12.603  0.7548 -0.5223 -0.2538
 4728SOL    HW125643   1.520   0.121  12.598  0.9753 -0.5816  0.8328
 4728SOL    HW225644   1.601   0.236  12.553 -0.2646 -0.6195 -1.9136
 4729SOL     OW25645   4.693   4.010   5.158 -0.4545  0.2803  0.9316
 4729SOL    HW125646   4.658   4.098   5.176  1.2612  0.8916  1.2983
 4729SOL    HW225647   4.709   3.989   5.250 -0.4648  1.8074  1.2942
 4730SOL     OW25648   3.273   2.214   4.673 -0.4854 -0.0707 -0.8223
 4730SOL    HW125649   3.276   2.260   4.590  0.2413  3.7581  1.3277
 4730SOL    HW225650   3.232   2.284   4.724 -0.9353 -0.6735 -0.3599
 4731SOL     OW25651   1.463   2.821   2.713 -0.0414  0.3289 -0.5667
 4731SOL    HW125652   1.547   2.867   2.710  0.1734 -0.1252 -1.6418
 4731SOL    HW225653   1.431   2.840   2.625 -0.1184 -1.3295 -0.8881
 4732SOL     OW25654   0.455   1.950   3.826  0.3589  0.1786  0.3679
 4732SOL    HW125655   0.527   1.987   3.776  1.4994 -5.1958 -1.9729
 4732SOL    HW225656   0.449   1.864   3.785 -0.1383  1.1401 -1.5688
 4733SOL     OW25657   2.048   2.564  13.619  0.5650  0.5141  0.8730
 4733SOL    HW125658   1.993   2.505  13.671 -0.4273 -0.6556 -1.4946
 4733SOL    HW225659   2.033   2.536  13.529  2.5377 -1.0099  1.0066
 4734SOL     OW25660   0.742   0.684  11.448 -0.1171  0.6065 -0.1416
 4734SOL    HW125661   0.801   0.609  11.444 -0.4068  0.1430  4.1856
 4734SOL    HW225662   0.657   0.640  11.454 -1.2735  3.0677  1.8619
 4735SOL     OW25663   0.531   1.244   5.971 -0.6180 -0.1750 -0.2391
 4735SOL    HW125664   0.464   1.306   5.944 -0.7899  0.3757  1.4182
 4735SOL    HW225665   0.536   1.264   6.065 -3.5210 -1.1109  0.1136
 4736SOL     OW25666   2.226   1.335   4.557  0.2692  0.2027 -0.3377
 4736SOL    HW125667   2.150   1.343   4.614 -0.3878 -0.3578 -1.1334
 4736SOL    HW225668   2.248   1.427   4.544  1.9903 -0.2979 -0.9412
 4737SOL     OW25669   0.262   2.583   9.318 -0.2421  0.1959  0.1388
 4737SOL    HW125670   0.349   2.623   9.322  0.3202 -0.8554 -1.7663
 4737SOL    HW225671   0.224   2.625   9.396 -1.2407 -2.1909  0.9217
 4738SOL     OW25672   0.758   3.824  14.772 -0.6786  0.3907  0.1526
 4738SOL    HW125673   0.730   3.733  14.767  0.5777 -0.0518  1.2485
 4738SOL    HW225674   0.751   3.829  14.868  0.5855  0.3540  0.2510
 4739SOL     OW25675   3.459   2.397   2.343 -0.2445 -0.3287 -0.6065
 4739SOL    HW125676   3.473   2.326   2.281  2.8201 -0.9562  0.8223
 4739SOL    HW225677   3.523   2.362   2.404  0.6304  1.7560 -0.3115
 4740SOL     OW25678   1.740   3.601   1.903 -0.1829 -0.5924 -0.3368
 4740SOL    HW125679   1.651   3.587   1.872 -1.1243  1.4987  1.4735
 4740SOL    HW225680   1.762   3.691   1.879 -1.1081  0.0137  1.1334
 4741SOL     OW25681   0.907   1.498   3.448  0.5658 -0.0091 -0.2349
 4741SOL    HW125682   0.876   1.505   3.538 -3.2523 -2.3004 -1.3761
 4741SOL    HW225683   0.863   1.577   3.416  0.0250 -1.3451 -2.7822
 4742SOL     OW25684   0.648   0.765   5.887 -0.1000 -0.1522  0.3794
 4742SOL    HW125685   0.594   0.790   5.812  2.0274 -1.4228 -1.5479
 4742SOL    HW225686   0.671   0.674   5.866  2.4600  0.3480  1.0742
 4743SOL     OW25687   1.702   4.130   4.446  0.0522 -0.1362 -0.0154
 4743SOL    HW125688   1.686   4.157   4.356 -0.6842  0.0782  0.1846
 4743SOL    HW225689   1.708   4.036   4.430  0.8267 -0.3348  1.4923
 4744SOL     OW25690   3.433   1.291  14.904 -0.0683 -0.1036  0.0610
 4744SOL    HW125691   3.466   1.364  14.852 -0.6521  0.8872  1.0723
 4744SOL    HW225692   3.458   1.316  14.992  0.1471  0.0871 -0.0553
 4745SOL     OW25693   0.837   1.104   3.707  0.1639 -0.1330  1.0260
 4745SOL    HW125694   0.856   1.100   3.613 -1.4009  1.4326  0.6507
 4745SOL    HW225695   0.871   1.190   3.730  0.6064 -0.0391  0.0417
 4746SOL     OW25696   3.106   1.266   7.725  0.1862 -0.1853  0.4151
 4746SOL    HW125697   3.023   1.290   7.684  0.0311 -3.2477 -1.0797
 4746SOL    HW225698   3.091   1.223   7.809 -1.2443 -1.3054 -0.3973
 4747SOL     OW25699   4.208   4.321   2.980  0.0649  0.4640 -0.1477
 4747SOL    HW125700   4.255   4.250   3.024  1.1629  2.1645  1.4561
 4747SOL    HW225701   4.241   4.331   2.891 -2.0553  0.5423 -0.9190
 4748SOL     OW25702   3.595   0.504   9.908  0.2610  0.5144  0.4794
 4748SOL    HW125703   3.616   0.457   9.989  1.1192 -1.0415 -0.6297
 4748SOL    HW225704   3.682   0.497   9.869  0.2939 -0.6193  0.7508
 4749SOL     OW25705   2.172   3.395  16.765  0.6517  0.2042 -0.3799
 4749SOL    HW125706   2.252   3.345  16.782 -0.0561 -1.1138 -0.8954
 4749SOL    HW225707   2.111   3.338  16.811  2.0653 -0.2540  0.9345
 4750SOL     OW25708   4.228   1.221   8.237 -0.2427  0.1941 -0.5290
 4750SOL    HW125709   4.293   1.178   8.182 -0.9608 -0.7761 -0.6222
 4750SOL    HW225710   4.256   1.190   8.323  0.7972 -0.4709 -1.1088
 4751SOL     OW25711   4.352   3.707   8.902  0.1060 -0.0050 -0.1348
 4751SOL    HW125712   4.264   3.736   8.879 -0.7342 -2.7652 -0.3593
 4751SOL    HW225713   4.350   3.724   8.997  2.7845  0.3618 -0.1310
 4752SOL     OW25714   4.194   1.506   8.235 -0.6603  0.4053  0.4108
 4752SOL    HW125715   4.187   1.411   8.229 -0.4320  0.3745  0.6212
 4752SOL    HW225716   4.235   1.524   8.320 -0.7850 -1.3069  0.8332
 4753SOL     OW25717   2.891   4.481   9.749  0.1097 -0.2039 -0.2710
 4753SOL    HW125718   2.976   4.458   9.710  1.0507  0.4741  1.3842
 4753SOL    HW225719   2.861   4.403   9.796 -0.2971 -1.6683 -2.9330
 4754SOL     OW25720   4.202   3.828   5.961  0.3473  0.2994  0.6533
 4754SOL    HW125721   4.291   3.836   5.997  0.4288  0.6180  0.3788
 4754SOL    HW225722   4.221   3.763   5.894 -3.7309 -2.4337  2.1609
 4755SOL     OW25723   3.841   1.644  16.602 -0.1362 -0.5858  0.3335
 4755SOL    HW125724   3.920   1.590  16.598 -0.1509 -0.4582 -1.6411
 4755SOL    HW225725   3.829   1.675  16.692  0.2511  1.3308 -0.2754
 4756SOL     OW25726   3.212   2.911   4.738 -0.5194 -0.1838  0.2296
 4756SOL    HW125727   3.172   2.955   4.813  1.9475 -0.2063  1.5417
 4756SOL    HW225728   3.140   2.909   4.674  0.6054  1.4021 -1.0923
 4757SOL     OW25729   0.869   0.231   7.265  0.0820 -0.3121 -0.1716
 4757SOL    HW125730   0.823   0.180   7.199  0.9617 -0.9803 -0.2668
 4757SOL    HW225731   0.895   0.309   7.214  2.3629 -0.5635  0.5904
 4758SOL     OW25732   2.105   1.112   5.605  0.1308 -0.1322  0.3153
 4758SOL    HW125733   2.165   1.148   5.539  2.0599 -1.6115  1.2789
 4758SOL    HW225734   2.040   1.183   5.602 -0.8123 -0.9480  1.9315
 4759SOL     OW25735   0.651   3.556   3.234 -0.6693  0.1217 -0.1656
 4759SOL    HW125736   0.722   3.620   3.237 -0.4562 -0.0668 -1.3399
 4759SOL    HW225737   0.583   3.595   3.181 -0.6920 -0.2538 -0.4099
 4760SOL     OW25738   2.942   3.537   2.616  0.2406 -0.0705  0.2394
 4760SOL    HW125739   2.911   3.613   2.567 -0.0491 -0.5948 -0.3837
 4760SOL    HW225740   2.969   3.580   2.697  2.6158  1.3944 -1.3213
 4761SOL     OW25741   0.862   1.307  10.789  0.2461 -0.3487  0.3154
 4761SOL    HW125742   0.884   1.303  10.882 -0.0631 -2.8257  0.2854
 4761SOL    HW225743   0.816   1.225  10.771 -0.8121  0.2837  0.1117
 4762SOL     OW25744   0.892   1.017   8.320 -0.1560 -0.4552  0.1900
 4762SOL    HW125745   0.839   0.937   8.325 -2.3733  1.1397  2.0633
 4762SOL    HW225746   0.926   1.023   8.409  0.1481 -0.7534  0.0961
 4763SOL     OW25747   1.352   1.934   1.964 -0.5306 -0.1727  0.1426
 4763SOL    HW125748   1.394   1.869   2.021 -1.4249  0.1587  1.1823
 4763SOL    HW225749   1.421   1.997   1.984 -1.3224  1.6401 -2.8933
 4764SOL     OW25750   1.778   4.110   9.057 -0.3350 -0.4169  0.0512
 4764SOL    HW125751   1.818   4.177   9.113 -3.5131  0.5396  1.2109
 4764SOL    HW225752   1.847   4.044   9.059  1.1732  1.1488 -0.3293
 4765SOL     OW25753   4.261   3.903  10.888 -0.1878 -0.6697 -0.5429
 4765SOL    HW125754   4.335   3.878  10.832  0.5547 -0.2072  0.2350
 4765SOL    HW225755   4.285   3.888  10.979 -1.5129 -2.9044 -0.5468
 4766SOL     OW25756   1.630   0.416   7.389 -0.0647 -0.1530  0.4443
 4766SOL    HW125757   1.674   0.333   7.405 -1.2588 -1.0826 -1.1527
 4766SOL    HW225758   1.653   0.434   7.298  0.8711 -1.0085  0.5204
 4767SOL     OW25759   0.733   3.545   8.894  0.3489  0.0216  0.5387
 4767SOL    HW125760   0.750   3.453   8.914 -0.0485  0.1233  1.3536
 4767SOL    HW225761   0.820   3.566   8.859 -0.4566  0.9844 -0.8689
 4768SOL     OW25762   0.008   3.822   8.675 -0.1346  0.3446  0.2775
 4768SOL    HW125763   0.082   3.882   8.683  2.2088 -2.4170 -1.0165
 4768SOL    HW225764   4.673   3.875   8.728 -1.3278  0.7336 -1.4185
 4769SOL     OW25765   1.062   4.459  13.400 -0.6816 -0.8092 -0.2304
 4769SOL    HW125766   1.002   4.431  13.470  0.1080  1.2610  1.2681
 4769SOL    HW225767   1.010   4.430  13.325  0.8764 -1.5144 -1.0269
 4770SOL     OW25768   1.064   2.764  12.518 -0.2781  0.0934  0.1232
 4770SOL    HW125769   1.102   2.747  12.605 -0.3289  0.3386  0.1935
 4770SOL    HW225770   1.022   2.848  12.535  2.2072  1.3950 -0.2408
 4771SOL     OW25771   3.243   3.862   4.054  0.0421  0.1580 -0.4072
 4771SOL    HW125772   3.199   3.810   4.121 -0.1207 -0.1543 -0.7591
 4771SOL    HW225773   3.325   3.892   4.092  0.1852 -0.8460  0.0602
 4772SOL     OW25774   0.207   1.225   2.830  0.5029  0.1899 -0.2598
 4772SOL    HW125775   0.277   1.290   2.837 -0.8383  1.5348  0.7837
 4772SOL    HW225776   0.126   1.275   2.831 -1.1033 -2.3889 -1.5141
 4773SOL     OW25777   3.847   0.823  15.185  0.1990  0.8307 -0.0334
 4773SOL    HW125778   3.780   0.837  15.252  0.3348 -0.2035  0.3245
 4773SOL    HW225779   3.802   0.772  15.117  0.1012  0.3913  0.3597
 4774SOL     OW25780   3.695   3.588  17.069  0.0019  0.6435  0.0778
 4774SOL    HW125781   3.753   3.654  17.109  1.4051 -0.3227 -0.3424
 4774SOL    HW225782   3.682   3.623  16.981 -0.5610  1.0398  0.3223
 4775SOL     OW25783   4.211   4.602   6.627 -0.8181 -0.5492 -0.6837
 4775SOL    HW125784   4.307   4.602   6.621 -0.9128 -0.5409 -2.2210
 4775SOL    HW225785   4.186   4.617   6.535 -0.8685  0.8679 -0.4392
 4776SOL     OW25786   1.822   3.661   7.937  0.2862  0.3404 -0.0473
 4776SOL    HW125787   1.727   3.660   7.949  0.5537  2.0556  2.2689
 4776SOL    HW225788   1.816   3.730   7.870 -1.4884 -0.9895 -1.2539
 4777SOL     OW25789   4.364   2.315   7.184  0.3315 -0.0538  0.0119
 4777SOL    HW125790   4.439   2.356   7.141  0.1584  1.1029  0.8137
 4777SOL    HW225791   4.342   2.245   7.123 -0.5908  0.3253 -0.0949
 4778SOL     OW25792   2.131   3.659   0.675 -0.0705  0.5577  0.1810
 4778SOL    HW125793   2.150   3.742   0.717 -2.2788  0.8464  0.6067
 4778SOL    HW225794   2.214   3.641   0.630 -0.4074  0.8723 -0.5597
 4779SOL     OW25795   0.819   2.581   0.948  0.0722  0.0158  0.6714
 4779SOL    HW125796   0.887   2.578   1.015  0.0346 -1.3671  0.6559
 4779SOL    HW225797   0.872   2.566   0.869 -0.1934 -1.1308  0.7101
 4780SOL     OW25798   4.430   1.366  17.218 -0.1072 -0.1921  0.0293
 4780SOL    HW125799   4.519   1.364  17.183  0.0052 -0.1751  0.3145
 4780SOL    HW225800   4.451   1.379  17.311  2.5299 -0.3279 -0.5505
 4781SOL     OW25801   1.170   3.791   2.246 -0.8435 -0.5984  0.5689
 4781SOL    HW125802   1.206   3.703   2.245 -0.7194 -0.5093 -1.5237
 4781SOL    HW225803   1.179   3.805   2.341  1.0630  4.2622 -0.3221
 4782SOL     OW25804   1.191   3.996   2.700 -0.9566 -0.3488  0.4407
 4782SOL    HW125805   1.250   3.947   2.644  0.1184 -0.4760  1.6989
 4782SOL    HW225806   1.197   4.083   2.660  0.8272 -0.8798 -0.4238
 4783SOL     OW25807   0.698   2.039  10.737 -0.4022 -0.2518 -0.1523
 4783SOL    HW125808   0.690   1.985  10.816  0.8858 -0.2611 -0.0155
 4783SOL    HW225809   0.790   2.060  10.754 -0.4660 -1.2666  1.4885
 4784SOL     OW25810   2.629   2.725   3.809  0.4726 -0.4324  0.6076
 4784SOL    HW125811   2.710   2.707   3.760 -0.7217  0.5722 -1.7288
 4784SOL    HW225812   2.563   2.756   3.748 -1.0823 -0.1088  2.4417
 4785SOL     OW25813   1.633   1.112   6.307  0.1866 -0.3094  0.7607
 4785SOL    HW125814   1.586   1.183   6.350  0.5602  2.1052 -2.7884
 4785SOL    HW225815   1.571   1.096   6.235  1.0603 -0.9081  0.1412
 4786SOL     OW25816   3.090   2.582   6.452  0.3245 -0.7125  0.1944
 4786SOL    HW125817   3.083   2.487   6.463  0.6119 -0.6698  0.7833
 4786SOL    HW225818   3.141   2.579   6.371  0.5078 -1.3612  0.3324
 4787SOL     OW25819   4.601   0.760   2.301  0.2633 -0.4185  0.2337
 4787SOL    HW125820   4.570   0.847   2.277  1.1738 -0.5187 -1.3328
 4787SOL    HW225821   4.527   0.703   2.281  1.1066 -1.8005  1.0309
 4788SOL     OW25822   1.375   0.796   1.933 -0.5966  0.0882  0.0190
 4788SOL    HW125823   1.397   0.703   1.930  1.0183  0.4505  0.3378
 4788SOL    HW225824   1.288   0.787   1.895 -1.2349  2.4768  0.9263
 4789SOL     OW25825   4.489   3.874  15.962 -0.2348 -0.3544  0.4570
 4789SOL    HW125826   4.523   3.885  16.051  0.9202 -1.4005  0.1309
 4789SOL    HW225827   4.525   3.943  15.907 -1.9525 -0.9325 -1.3867
 4790SOL     OW25828   2.825   2.373  10.535 -0.6069 -0.3677  0.4131
 4790SOL    HW125829   2.823   2.391  10.629 -1.6374  0.1874  0.2789
 4790SOL    HW225830   2.905   2.321  10.542 -1.5932 -1.6335  2.3220
 4791SOL     OW25831   2.274   1.169   1.445  0.0631  0.3001 -0.1323
 4791SOL    HW125832   2.362   1.136   1.430  0.1405 -0.2557  1.5171
 4791SOL    HW225833   2.270   1.166   1.541  1.4404  1.8342 -0.0275
 4792SOL     OW25834   0.158   0.621   5.466  0.1598 -0.0755  0.3630
 4792SOL    HW125835   0.240   0.655   5.502  0.6952 -0.1094 -0.8447
 4792SOL    HW225836   0.155   0.649   5.375  1.7369 -2.0386 -0.2934
 4793SOL     OW25837   3.065   2.155   8.738  0.5385 -0.2539  0.4029
 4793SOL    HW125838   3.097   2.148   8.828  0.7111 -1.3135  0.2608
 4793SOL    HW225839   3.136   2.209   8.704  0.9658  0.2994  2.1936
 4794SOL     OW25840   4.174   0.654   5.502  0.3589 -0.2190 -0.0075
 4794SOL    HW125841   4.175   0.744   5.533 -0.9353  0.0893 -0.8486
 4794SOL    HW225842   4.193   0.608   5.584 -0.0766  1.9466  1.3113
 4795SOL     OW25843   1.696   2.709   9.826  0.3090 -0.2682  0.7593
 4795SOL    HW125844   1.702   2.661   9.743  2.3436  1.4516 -0.0972
 4795SOL    HW225845   1.605   2.736   9.821  0.6468  0.8157  0.3969
 4796SOL     OW25846   3.288   3.627   6.558  0.5831 -0.6551 -0.5670
 4796SOL    HW125847   3.323   3.692   6.497 -2.7916  0.2310 -1.5920
 4796SOL    HW225848   3.266   3.676   6.637 -1.1791  0.5382 -1.7734
 4797SOL     OW25849   3.801   0.108   2.539  0.0248 -0.3004  0.1910
 4797SOL    HW125850   3.737   0.106   2.467 -0.2720  0.3434  0.4379
 4797SOL    HW225851   3.745   0.142   2.609 -2.5744 -0.2063 -1.9404
 4798SOL     OW25852   3.470   4.542   3.346 -0.2034  0.4100 -0.3017
 4798SOL    HW125853   3.385   4.515   3.379  0.3600 -0.3071  0.5600
 4798SOL    HW225854   3.447   4.594   3.269 -1.8692 -0.1767 -0.1954
 4799SOL     OW25855   3.707   0.052   8.755 -0.1163 -0.0997 -0.3468
 4799SOL    HW125856   3.690   0.056   8.850  0.2982  0.5385 -0.3037
 4799SOL    HW225857   3.683   4.684   8.750  2.0351 -0.7643  1.4345
 4800SOL     OW25858   1.862   4.278   3.132  0.3271  0.2032  0.5919
 4800SOL    HW125859   1.895   4.282   3.222  1.5034  0.3255  0.1531
 4800SOL    HW225860   1.942   4.243   3.093  0.5940  0.9905  0.4418
 4801SOL     OW25861   2.965   1.562  16.123  0.2560  0.3759  0.1736
 4801SOL    HW125862   2.959   1.605  16.038  0.2981 -0.9595 -0.5019
 4801SOL    HW225863   2.873   1.547  16.141  1.3958 -2.1611  3.9915
 4802SOL     OW25864   1.010   0.275   6.191 -0.1326  0.0781  1.1343
 4802SOL    HW125865   0.914   0.271   6.198  0.1410 -1.3759  3.9345
 4802SOL    HW225866   1.025   0.364   6.158  0.0608 -0.2242  0.4114
 4803SOL     OW25867   0.007   4.470   4.319 -0.4044 -0.0101  0.2125
 4803SOL    HW125868   4.643   4.478   4.284 -0.8160 -2.4612  0.7253
 4803SOL    HW225869   0.043   4.392   4.278  0.5237  0.3189  0.3959
 4804SOL     OW25870   4.284   3.540   8.015 -0.4132  0.0038 -0.3972
 4804SOL    HW125871   4.293   3.525   8.109 -0.0877  0.0418 -0.4228
 4804SOL    HW225872   4.374   3.555   7.985 -0.4362  3.9202  1.6154
 4805SOL     OW25873   1.376   3.543   9.512  0.3258 -0.0476 -0.1179
 4805SOL    HW125874   1.429   3.622   9.522  2.7118 -1.6223 -0.2651
 4805SOL    HW225875   1.439   3.476   9.485  1.1372 -0.0483  1.8121
 4806SOL     OW25876   3.738   2.536   7.567 -0.1231 -0.3168  0.0189
 4806SOL    HW125877   3.652   2.554   7.530  0.4202  0.6742 -0.7581
 4806SOL    HW225878   3.722   2.573   7.654  0.6528  0.1097 -0.0229
 4807SOL     OW25879   0.102   4.451   0.798 -0.2792 -0.0716  0.0567
 4807SOL    HW125880   0.029   4.500   0.760 -1.8842 -2.2696  0.3274
 4807SOL    HW225881   0.101   4.369   0.748 -2.4667  0.9224 -1.5508
 4808SOL     OW25882   4.577   0.239   6.443  0.0583 -0.0241 -0.6002
 4808SOL    HW125883   4.664   0.226   6.407 -0.2687 -1.3072 -0.9062
 4808SOL    HW225884   4.586   0.234   6.538  0.1226  2.3460 -0.4750
 4809SOL     OW25885   1.384   3.267   4.099 -0.0500  0.2191  0.1977
 4809SOL    HW125886   1.378   3.199   4.166 -0.1906  0.7131  0.6927
 4809SOL    HW225887   1.320   3.330   4.133 -0.6346  0.0188 -0.5340
 4810SOL     OW25888   1.776   0.870  15.095 -0.0653  0.3834 -0.7343
 4810SOL    HW125889   1.728   0.881  15.013 -0.9433  0.3175 -0.2221
 4810SOL    HW225890   1.847   0.809  15.078 -0.0681  0.0866  0.3439
 4811SOL     OW25891   3.570   4.666   5.173  0.1126 -0.5024  0.4602
 4811SOL    HW125892   3.486   4.705   5.197  1.1148  2.0360 -0.0824
 4811SOL    HW225893   3.553   4.645   5.082 -1.3884 -1.2559  0.9220
 4812SOL     OW25894   2.100   4.363   6.347 -0.2953 -0.2007  0.0349
 4812SOL    HW125895   2.072   4.379   6.437 -0.3455 -0.8224  0.1305
 4812SOL    HW225896   2.028   4.307   6.316 -1.2332  0.7481  0.4975
 4813SOL     OW25897   1.022   1.497  14.687  0.3692  0.4313  0.8806
 4813SOL    HW125898   1.091   1.560  14.707  1.7726 -0.6320 -0.6300
 4813SOL    HW225899   1.073   1.419  14.710 -0.4367 -0.6472 -0.9517
 4814SOL     OW25900   3.684   3.068  13.390 -0.7263 -0.6726 -1.2327
 4814SOL    HW125901   3.714   3.145  13.341 -0.2567 -0.0044  0.1118
 4814SOL    HW225902   3.751   3.016  13.346  0.5661  2.1609 -2.6198
 4815SOL     OW25903   2.669   2.726   1.361 -0.9219  0.2195  0.2144
 4815SOL    HW125904   2.680   2.819   1.342 -1.0643  0.5970  1.9368
 4815SOL    HW225905   2.589   2.713   1.311 -0.5971  0.9542 -0.4905
 4816SOL     OW25906   1.178   2.161   2.089  0.1585 -0.3583  1.1508
 4816SOL    HW125907   1.225   2.199   2.163  0.6581  1.1452  0.0423
 4816SOL    HW225908   1.085   2.176   2.108  0.3770 -1.0459  2.7357
 4817SOL     OW25909   2.714   3.258   8.822  0.2046 -0.7981  0.1776
 4817SOL    HW125910   2.674   3.333   8.778  1.2649 -0.6186 -0.4773
 4817SOL    HW225911   2.638   3.206   8.849 -0.5298  0.0515 -0.2522
 4818SOL     OW25912   3.630   2.779   6.538 -0.0201  0.2555  0.0114
 4818SOL    HW125913   3.540   2.781   6.571  0.3630 -0.1873  1.0952
 4818SOL    HW225914   3.657   2.871   6.534  0.0381  0.1134 -2.3422
 4819SOL     OW25915   4.058   3.390   8.614 -0.1857 -0.3150  0.1591
 4819SOL    HW125916   4.097   3.351   8.692 -0.4697  0.2393  0.5759
 4819SOL    HW225917   3.975   3.343   8.615  1.0329 -2.4519  0.6900
 4820SOL     OW25918   0.603   0.766  11.748  0.2560 -0.3100  0.4799
 4820SOL    HW125919   0.603   0.731  11.658 -2.6272 -2.5036  1.3309
 4820SOL    HW225920   0.578   0.687  11.796  0.4767  0.3707  1.7105
 4821SOL     OW25921   0.203   4.141  14.094  0.1439  0.2332  0.2480
 4821SOL    HW125922   0.290   4.179  14.077  1.2312 -2.5831 -0.4134
 4821SOL    HW225923   0.172   4.126  14.004 -1.8312 -0.4129  1.0574
 4822SOL     OW25924   0.905   3.692  17.296  0.4462  0.3636  0.6839
 4822SOL    HW125925   0.812   3.674  17.296  0.8535 -1.7389  0.6867
 4822SOL    HW225926   0.918   3.720  17.386 -0.2697  0.2601  0.8164
 4823SOL     OW25927   3.357   2.002   3.325  0.6986  0.6163  0.1704
 4823SOL    HW125928   3.289   1.934   3.322  0.6806  0.7656 -2.4103
 4823SOL    HW225929   3.437   1.949   3.319  0.8731  1.0026 -0.9906
 4824SOL     OW25930   1.548   4.661   6.198 -0.5728 -0.3596  0.4930
 4824SOL    HW125931   1.471   4.617   6.160  0.0084  0.3255 -1.4760
 4824SOL    HW225932   1.536   4.629   6.287 -0.2822  3.0774  1.7738
 4825SOL     OW25933   2.944   0.540   3.420  0.0669  0.4428 -0.9647
 4825SOL    HW125934   2.956   0.445   3.424 -1.1296  0.3580  0.5773
 4825SOL    HW225935   3.025   0.568   3.377 -0.3627 -0.9710 -2.6731
 4826SOL     OW25936   1.381   0.802   5.655  0.4516 -0.0292 -0.3807
 4826SOL    HW125937   1.464   0.848   5.662 -0.4165  0.9528  3.2310
 4826SOL    HW225938   1.402   0.724   5.705  2.0053  1.0249  0.5943
 4827SOL     OW25939   3.005   1.921   9.094  0.2133  0.0788 -0.3756
 4827SOL    HW125940   3.010   1.834   9.132 -1.9481  0.2246  0.2411
 4827SOL    HW225941   2.937   1.960   9.149 -1.5259  0.5850 -2.8780
 4828SOL     OW25942   1.763   1.035   9.698  0.0211 -0.9840 -0.1333
 4828SOL    HW125943   1.696   0.992   9.753 -2.3015  4.0243  0.9352
 4828SOL    HW225944   1.725   1.118   9.670  0.8338 -0.6545 -0.2405
 4829SOL     OW25945   0.288   3.931   4.775  0.4092  0.2415  0.0583
 4829SOL    HW125946   0.348   4.005   4.765 -0.1313  0.6376 -0.2411
 4829SOL    HW225947   0.202   3.971   4.787  0.7537  0.8074  0.6607
 4830SOL     OW25948   3.079   1.663   8.751  0.6934 -0.3385 -0.6427
 4830SOL    HW125949   3.174   1.672   8.760  0.2398  4.5131 -0.5310
 4830SOL    HW225950   3.074   1.589   8.811  1.1317 -0.8164 -1.1950
 4831SOL     OW25951   0.329   4.141   9.331  0.0702  0.1379 -0.0276
 4831SOL    HW125952   0.404   4.131   9.390  0.6618  1.5175 -0.5454
 4831SOL    HW225953   0.331   4.067   9.270 -2.9785 -0.7187  0.9209
 4832SOL     OW25954   2.293   2.504   9.051 -0.4695  0.1063  0.2058
 4832SOL    HW125955   2.270   2.425   9.100 -0.0614 -1.0195 -1.4178
 4832SOL    HW225956   2.388   2.496   9.050 -0.3097  2.0984 -0.0107
 4833SOL     OW25957   3.008   4.499   7.122 -0.4970 -0.3459 -0.2598
 4833SOL    HW125958   3.084   4.453   7.158  0.1487  0.4514 -0.6155
 4833SOL    HW225959   3.022   4.506   7.028  2.1599  0.6486  0.2244
 4834SOL     OW25960   0.231   2.644   8.598 -0.0259 -0.1361 -0.2511
 4834SOL    HW125961   0.241   2.716   8.535  0.7424 -0.4201 -0.4501
 4834SOL    HW225962   0.149   2.683   8.628 -0.0640 -0.5250  0.1355
 4835SOL     OW25963   3.034   2.952   0.389 -0.0057  0.4426 -0.4127
 4835SOL    HW125964   3.013   2.874   0.440  0.8231 -0.9893 -2.2618
 4835SOL    HW225965   3.004   3.019   0.450  0.7291  1.1683 -0.8602
 4836SOL     OW25966   0.708   0.427   6.948  0.1928  0.4926 -0.0277
 4836SOL    HW125967   0.646   0.364   6.911  0.1868  0.3351  0.2491
 4836SOL    HW225968   0.701   0.504   6.892 -0.2227  0.4767  0.0027
 4837SOL     OW25969   1.964   1.037  10.143 -0.3409 -0.1693  0.0302
 4837SOL    HW125970   2.014   1.028  10.062  0.2258 -1.8157  0.5618
 4837SOL    HW225971   1.892   0.975  10.129 -0.9509  0.7925 -1.1107
 4838SOL     OW25972   2.988   3.375   7.018  0.1661 -0.1926  0.1726
 4838SOL    HW125973   3.046   3.407   6.949  1.0079  0.0645  1.0077
 4838SOL    HW225974   2.969   3.451   7.072  2.1408  2.5552 -2.9837
 4839SOL     OW25975   2.654   4.684  15.874  0.0364  0.5040 -0.2967
 4839SOL    HW125976   2.661   4.706  15.967 -2.5798  1.6120 -0.3590
 4839SOL    HW225977   2.740   4.713  15.842  1.1369 -0.9119  1.4137
 4840SOL     OW25978   1.392   3.104  13.082 -0.0327  0.2132  0.4073
 4840SOL    HW125979   1.456   3.145  13.023 -1.7877  2.6505  0.2247
 4840SOL    HW225980   1.417   3.012  13.070 -0.9799  0.2537 -1.9406
 4841SOL     OW25981   3.409   2.730   9.792  0.0786  0.2049 -0.0408
 4841SOL    HW125982   3.396   2.690   9.706  2.7077 -1.9619  0.5621
 4841SOL    HW225983   3.395   2.658   9.853 -2.5212  2.6057  2.2033
 4842SOL     OW25984   4.280   2.566   7.909  0.2887  0.6390  0.3137
 4842SOL    HW125985   4.200   2.570   7.960 -1.8869 -1.6969 -2.8531
 4842SOL    HW225986   4.245   2.534   7.825  1.1236 -2.1881  1.0370
 4843SOL     OW25987   0.634   2.447   7.701  0.3045 -0.5120 -0.3567
 4843SOL    HW125988   0.719   2.410   7.676 -0.1254 -0.1085 -2.4499
 4843SOL    HW225989   0.606   2.506   7.631  1.3254  0.1963 -0.1672
 4844SOL     OW25990   4.620   2.665   2.734  0.1183  0.2429  0.4361
 4844SOL    HW125991   4.715   2.660   2.745  0.1780  0.1368 -0.1162
 4844SOL    HW225992   4.594   2.581   2.772  1.7903 -0.2588  0.4925
 4845SOL     OW25993   0.664   1.499   0.017  0.1888  0.5616  0.2540
 4845SOL    HW125994   0.624   1.447   0.086 -3.6276  1.0677 -1.5652
 4845SOL    HW225995   0.618   1.481  17.634 -0.6678  0.7339  0.6895
 4846SOL     OW25996   0.671   1.320   1.846 -0.4349 -0.0133 -0.2092
 4846SOL    HW125997   0.721   1.322   1.764 -1.8846  2.7517 -1.0347
 4846SOL    HW225998   0.696   1.409   1.870  0.3284 -0.1567 -0.4790
 4847SOL     OW25999   3.083   3.122  10.325  0.0081  0.4221 -0.0393
 4847SOL    HW126000   3.131   3.050  10.365 -1.6548 -0.5344  0.2732
 4847SOL    HW226001   3.017   3.154  10.388  0.1417 -0.5737  0.6089
 4848SOL     OW26002   3.988   4.205   6.669  0.1030 -1.0253 -0.0320
 4848SOL    HW126003   3.951   4.190   6.756  0.8760 -0.0833  0.4525
 4848SOL    HW226004   3.972   4.126   6.617  3.2309  0.3935 -3.1468
 4849SOL     OW26005   2.564   2.209   1.724 -0.4171 -0.0411  0.5266
 4849SOL    HW126006   2.544   2.217   1.818 -1.3923  3.0847  0.0642
 4849SOL    HW226007   2.594   2.121   1.702 -1.2434  0.1690 -1.4036
 4850SOL     OW26008   3.349   0.551  10.072  0.0759 -0.1296 -0.0832
 4850SOL    HW126009   3.304   0.568   9.989  1.0346  1.9544 -0.1828
 4850SOL    HW226010   3.401   0.474  10.051 -1.2791 -0.9393 -0.4659
 4851SOL     OW26011   3.876   1.019   3.705 -0.1265  0.5984 -0.2507
 4851SOL    HW126012   3.780   1.025   3.705 -0.1297  0.4041 -1.4541
 4851SOL    HW226013   3.898   0.947   3.645 -1.9237  1.0123 -1.4178
 4852SOL     OW26014   1.922   3.940   8.084  0.2054  0.1720 -0.2578
 4852SOL    HW126015   1.851   4.001   8.065 -0.1948 -0.5390 -1.0220
 4852SOL    HW226016   1.921   3.885   8.006  0.7064  0.9488 -0.8196
 4853SOL     OW26017   1.507   3.795  16.651 -0.1459  0.5019  0.0182
 4853SOL    HW126018   1.491   3.880  16.693 -1.9389  1.0193 -1.7045
 4853SOL    HW226019   1.421   3.772  16.618  0.4453 -0.5324 -0.7746
 4854SOL     OW26020   4.675   3.327   8.308 -0.1776 -0.5043 -0.2747
 4854SOL    HW126021   4.626   3.275   8.245 -0.2934 -0.1644 -0.4604
 4854SOL    HW226022   4.620   3.325   8.386 -0.6226 -0.5532 -0.5879
 4855SOL     OW26023   4.683   3.580   8.805 -0.2306  0.3558  0.1916
 4855SOL    HW126024   0.021   3.586   8.877  0.7655 -1.5254 -0.5141
 4855SOL    HW226025   4.699   3.667   8.768 -1.7084  0.9399  0.9570
 4856SOL     OW26026   4.481   2.398  13.208  0.5477 -0.8753 -0.2814
 4856SOL    HW126027   4.547   2.347  13.255  0.9617  1.1854  1.4202
 4856SOL    HW226028   4.409   2.372  13.265  0.1923 -0.0732 -0.3639
 4857SOL     OW26029   1.203   3.382   5.263  0.0370  0.3378 -0.6146
 4857SOL    HW126030   1.255   3.325   5.321  1.1501  1.2353 -0.7203
 4857SOL    HW226031   1.257   3.459   5.279 -0.5635  0.4376  0.8640
 4858SOL     OW26032   2.780   2.885   4.739  0.2929 -0.0479  0.5159
 4858SOL    HW126033   2.797   2.792   4.749  0.2172  0.1282  2.2983
 4858SOL    HW226034   2.687   2.883   4.719  0.6061  0.3309 -0.9656
 4859SOL     OW26035   2.202   1.759   6.403  0.2015  0.6767 -0.4446
 4859SOL    HW126036   2.132   1.741   6.341  0.0819  0.0705 -0.1295
 4859SOL    HW226037   2.258   1.689   6.370  0.3076  0.0278  1.1144
 4860SOL     OW26038   4.175   1.178   9.155 -0.2810  0.1183 -0.0844
 4860SOL    HW126039   4.211   1.112   9.214  1.7427  0.6051 -0.7524
 4860SOL    HW226040   4.256   1.227   9.138 -0.5445  0.1508 -1.2792
 4861SOL     OW26041   2.111   1.946   3.537 -0.2419  0.0219 -0.3564
 4861SOL    HW126042   2.172   1.910   3.602 -0.2884 -0.0563 -0.3557
 4861SOL    HW226043   2.169   1.973   3.466  0.1461  1.0367  0.3575
 4862SOL     OW26044   3.411   3.147   4.942  0.2377  0.9782  0.0790
 4862SOL    HW126045   3.425   3.139   4.847  1.2770  0.3348  0.2883
 4862SOL    HW226046   3.316   3.156   4.943  0.1830  0.8033 -2.7060
 4863SOL     OW26047   3.940   1.572   5.779  0.2458 -0.5516 -0.1346
 4863SOL    HW126048   3.921   1.513   5.852 -1.6404 -0.0987 -0.2684
 4863SOL    HW226049   3.996   1.642   5.814  0.6528 -1.4938  1.0897
 4864SOL     OW26050   1.191   2.021   7.131  0.0647  0.3962  0.4014
 4864SOL    HW126051   1.235   1.943   7.096 -2.0810 -0.2721 -0.8329
 4864SOL    HW226052   1.112   2.024   7.076  0.6304  2.3309 -0.3218
 4865SOL     OW26053   3.370   4.368   2.673  0.0084 -0.1200  0.1230
 4865SOL    HW126054   3.418   4.303   2.725  0.3634 -1.2832 -1.6654
 4865SOL    HW226055   3.378   4.336   2.583 -0.5521 -0.2818  0.1338
 4866SOL     OW26056   0.408   1.715   9.891  0.0157  0.3565  0.2323
 4866SOL    HW126057   0.394   1.707   9.797  0.6007 -1.9079  0.3289
 4866SOL    HW226058   0.345   1.782   9.915 -1.1104 -1.0453  1.2021
 4867SOL     OW26059   4.276   3.524   1.869  0.2858  0.0120 -0.1240
 4867SOL    HW126060   4.332   3.530   1.946 -1.6187  0.5865  1.2048
 4867SOL    HW226061   4.236   3.438   1.884  1.3208 -0.2578  1.1214
 4868SOL     OW26062   4.536   0.700   8.497  0.2404  0.2713  0.4357
 4868SOL    HW126063   4.545   0.706   8.401 -0.2680  0.4933  0.4043
 4868SOL    HW226064   4.572   0.612   8.510  0.6450 -0.0472 -2.7945
 4869SOL     OW26065   3.362   1.294   0.209  0.2803  0.3608 -0.3712
 4869SOL    HW126066   3.285   1.317   0.260 -0.9079  0.2535 -2.1039
 4869SOL    HW226067   3.417   1.254   0.277  2.3173 -0.2337 -2.3607
 4870SOL     OW26068   0.224   4.677   4.792 -0.0641  0.2818 -0.3303
 4870SOL    HW126069   0.212   0.035   4.744  0.8912  0.1288 -0.8417
 4870SOL    HW226070   0.294   4.636   4.741 -0.6365 -0.0334 -0.8688
 4871SOL     OW26071   3.943   0.852  12.293 -0.2620  0.6709 -0.7000
 4871SOL    HW126072   3.960   0.944  12.272  1.2255  0.7193  0.6693
 4871SOL    HW226073   4.027   0.812  12.268 -1.7717 -3.5770  1.0857
 4872SOL     OW26074   1.804   2.019   2.055 -0.4960  1.0332  0.0813
 4872SOL    HW126075   1.774   1.964   1.982  1.5419 -1.5455  1.1833
 4872SOL    HW226076   1.887   2.054   2.023 -0.1854  0.4712  0.2698
 4873SOL     OW26077   3.027   0.802  12.179 -0.3274  0.0244  0.9900
 4873SOL    HW126078   3.084   0.766  12.111 -2.3708  2.1059 -1.8070
 4873SOL    HW226079   2.952   0.841  12.134  0.8766  0.2864 -0.7984
 4874SOL     OW26080   2.795   4.685   6.439 -0.0583  0.3411  0.1952
 4874SOL    HW126081   2.702   4.707   6.447  0.0767  0.0852  2.6354
 4874SOL    HW226082   2.820   0.019   6.368  0.0756  0.2197  0.1424
 4875SOL     OW26083   1.636   3.286   3.495 -0.4536  0.2508  0.1958
 4875SOL    HW126084   1.690   3.357   3.530 -0.2957  1.2141 -1.9934
 4875SOL    HW226085   1.552   3.331   3.482 -0.4045  0.0862 -0.6727
 4876SOL     OW26086   3.355   2.782   6.577  0.7302  0.6347 -0.4005
 4876SOL    HW126087   3.310   2.762   6.495 -0.1605  0.6798  0.0794
 4876SOL    HW226088   3.280   2.775   6.636 -0.4027 -1.6585 -2.1012
 4877SOL     OW26089   2.679   4.600   7.136 -0.2191  0.0063 -0.3506
 4877SOL    HW126090   2.632   4.549   7.202 -0.2037  0.9086  0.3585
 4877SOL    HW226091   2.766   4.565   7.154  0.1853  1.1494 -0.0846
 4878SOL     OW26092   2.700   3.221   2.322 -0.4207  0.4264  0.4989
 4878SOL    HW126093   2.655   3.304   2.338  0.5068  0.8093  1.1155
 4878SOL    HW226094   2.633   3.161   2.352 -2.3354  1.1886 -2.2607
 4879SOL     OW26095   1.286   0.159   3.287 -0.4469 -0.3834 -0.0299
 4879SOL    HW126096   1.291   0.063   3.281 -1.3224 -0.4662  0.5148
 4879SOL    HW226097   1.254   0.182   3.200 -1.0524 -2.6126 -0.4126
 4880SOL     OW26098   4.236   4.196   0.014 -0.2342  0.7525 -0.1303
 4880SOL    HW126099   4.180   4.201   0.092 -0.1146  1.7555 -0.1122
 4880SOL    HW226100   4.326   4.207   0.044 -0.6572  1.3675  0.9252
 4881SOL     OW26101   3.135   1.251   9.301 -0.1059  0.0436  0.1757
 4881SOL    HW126102   3.098   1.188   9.240 -0.1005  0.9348 -0.7431
 4881SOL    HW226103   3.198   1.189   9.338  2.0817  2.0343 -0.1547
 4882SOL     OW26104   2.608   1.074   4.541  0.1370  0.2283  0.6790
 4882SOL    HW126105   2.690   1.096   4.586  0.8701  0.8487 -0.9590
 4882SOL    HW226106   2.542   1.111   4.599  0.4318 -0.2575  1.3294
 4883SOL     OW26107   1.765   3.702   7.414 -0.0582  0.1905 -0.1248
 4883SOL    HW126108   1.703   3.633   7.440  0.0329 -0.5638 -1.9659
 4883SOL    HW226109   1.746   3.707   7.321 -0.8254  2.1375  0.1163
 4884SOL     OW26110   1.029   2.463   3.807  0.0201  0.1063 -0.4944
 4884SOL    HW126111   1.057   2.432   3.893 -0.3132 -0.4328 -0.5795
 4884SOL    HW226112   1.113   2.470   3.762  0.2357  0.6745 -0.0048
 4885SOL     OW26113   0.120   0.697  11.349 -0.6390  0.3968 -0.4945
 4885SOL    HW126114   0.156   0.709  11.437  1.1978 -0.2377 -1.1611
 4885SOL    HW226115   0.035   0.742  11.346 -0.3019  1.0684  0.0674
 4886SOL     OW26116   3.084   2.923   4.286  0.2295 -0.7237 -0.2899
 4886SOL    HW126117   3.041   2.921   4.371 -0.1487 -2.2182 -0.5170
 4886SOL    HW226118   3.173   2.910   4.319  0.0653 -1.9721 -0.3514
 4887SOL     OW26119   0.231   3.655   2.232 -0.0949  0.2158 -0.0360
 4887SOL    HW126120   0.141   3.688   2.226  0.3246  1.1511 -1.0990
 4887SOL    HW226121   0.223   3.579   2.175  2.3562  0.2463 -0.4087
 4888SOL     OW26122   2.570   0.498  15.433 -0.1388  0.1835  0.4968
 4888SOL    HW126123   2.594   0.587  15.409  2.1771 -0.3469  0.8336
 4888SOL    HW226124   2.632   0.444  15.383  0.3566 -1.5221  2.9407
 4889SOL     OW26125   3.399   3.611   5.115  0.5069  0.2011 -0.0927
 4889SOL    HW126126   3.475   3.577   5.161  1.6146 -1.2434 -2.9911
 4889SOL    HW226127   3.365   3.678   5.175 -1.7843 -2.7514  1.9727
 4890SOL     OW26128   3.657   4.682  11.133  0.4305  0.0078  0.1132
 4890SOL    HW126129   3.747   4.711  11.148 -0.5624  3.1934 -0.1664
 4890SOL    HW226130   3.640   4.697  11.040  3.0006  1.0551 -0.1915
 4891SOL     OW26131   2.382   1.619   0.541 -0.1863  0.0226 -0.4954
 4891SOL    HW126132   2.466   1.659   0.563  2.1288 -4.0364 -1.9086
 4891SOL    HW226133   2.408   1.582   0.456 -2.1422 -2.7809  0.1474
 4892SOL     OW26134   3.657   2.706   6.895  0.2178 -0.3073 -0.3669
 4892SOL    HW126135   3.697   2.619   6.902  1.4999  0.2660 -0.7515
 4892SOL    HW226136   3.718   2.743   6.832 -0.9977 -0.9800 -1.9493
 4893SOL     OW26137   0.963   2.601   9.083 -0.1818 -0.3693 -0.4114
 4893SOL    HW126138   0.886   2.589   9.027  1.0772 -0.1141 -2.2025
 4893SOL    HW226139   1.011   2.525   9.048  0.3764  0.3021 -1.1041
 4894SOL     OW26140   2.521   3.048   8.937  0.1792  0.0250 -0.5208
 4894SOL    HW126141   2.533   2.953   8.935  0.1325  0.0350 -1.2040
 4894SOL    HW226142   2.543   3.068   9.028  3.3474  0.3600 -1.3401
 4895SOL     OW26143   1.035   3.652   7.504 -0.3016  0.1649  0.0898
 4895SOL    HW126144   0.941   3.641   7.517 -0.1305  1.5893  2.4780
 4895SOL    HW226145   1.054   3.564   7.537 -0.3317  0.6464  1.3881
 4896SOL     OW26146   3.421   0.793   0.669  0.3025  0.0551  0.1850
 4896SOL    HW126147   3.413   0.888   0.658  0.0269  0.1495  1.2041
 4896SOL    HW226148   3.471   0.785   0.750 -1.7609  0.2253  1.4614
 4897SOL     OW26149   3.731   1.073   9.133 -0.0323 -0.1403  0.4199
 4897SOL    HW126150   3.776   1.123   9.201 -1.0639  1.4387 -0.0600
 4897SOL    HW226151   3.803   1.036   9.081 -1.2304 -1.1507 -0.5205
 4898SOL     OW26152   4.366   3.702  14.926  0.0868  0.0390 -0.1022
 4898SOL    HW126153   4.392   3.745  15.008  1.5003  0.9826 -1.0608
 4898SOL    HW226154   4.362   3.774  14.863  0.5603  0.1845  0.0308
 4899SOL     OW26155   2.356   4.516   0.971 -0.6145 -0.2742  0.3437
 4899SOL    HW126156   2.276   4.506   1.021 -0.6554  0.3290  0.4069
 4899SOL    HW226157   2.408   4.576   1.025 -0.4860  0.5282 -0.6441
 4900SOL     OW26158   1.389   4.503   6.683  0.0099  0.0238  0.1649
 4900SOL    HW126159   1.365   4.412   6.699  3.6380 -0.3478  3.2516
 4900SOL    HW226160   1.305   4.548   6.692  1.0084  1.7371  0.8537
 4901SOL     OW26161   4.612   0.056   2.485  0.0354 -0.0349 -0.0256
 4901SOL    HW126162   4.639   4.694   2.516  2.4895 -0.2627 -2.8312
 4901SOL    HW226163   4.627   0.116   2.558 -2.2240 -0.6432  0.9579
 4902SOL     OW26164   0.371   1.228   6.747 -0.1968  0.6336 -0.1279
 4902SOL    HW126165   0.279   1.206   6.758  0.1472 -2.3484 -3.0224
 4902SOL    HW226166   0.390   1.309   6.793  0.3937 -1.1684  2.8016
 4903SOL     OW26167   1.603   2.100  17.071 -0.2110 -0.3736  0.0683
 4903SOL    HW126168   1.610   2.054  17.155 -1.5719  1.0461  0.9652
 4903SOL    HW226169   1.557   2.180  17.098 -0.6853 -1.2605  1.8726
 4904SOL     OW26170   4.036   1.629   8.077 -0.1706  0.1954 -0.3282
 4904SOL    HW126171   4.090   1.593   8.147  2.6018  1.1254 -1.9946
 4904SOL    HW226172   3.964   1.565   8.076  1.1110 -1.2589  1.6772
 4905SOL     OW26173   1.911   4.126  15.990  0.6226 -0.2822 -0.0250
 4905SOL    HW126174   1.825   4.125  16.033 -0.4463  1.9869 -2.0905
 4905SOL    HW226175   1.932   4.033  15.982 -0.4900 -0.6454  1.1998
 4906SOL     OW26176   0.313   3.965   3.984 -0.0640  0.2265 -0.1032
 4906SOL    HW126177   0.357   3.880   3.978  0.0465  0.2873 -0.1658
 4906SOL    HW226178   0.244   3.945   4.047  1.3041 -2.6593  0.4883
 4907SOL     OW26179   4.494   1.806   6.912 -0.2127  0.4024 -0.8057
 4907SOL    HW126180   4.561   1.874   6.902 -0.8226  0.9753 -0.9613
 4907SOL    HW226181   4.440   1.803   6.833  0.9893 -2.4578 -1.5239
 4908SOL     OW26182   4.593   4.303  10.766  0.0757  0.0774 -0.0155
 4908SOL    HW126183   4.587   4.395  10.742  0.0012 -0.2653 -1.3386
 4908SOL    HW226184   4.518   4.293  10.824  0.3695  1.5001  0.5959
 4909SOL     OW26185   4.078   1.120   8.586 -0.1909 -0.2328  0.8965
 4909SOL    HW126186   4.138   1.097   8.515  0.2791 -0.2264  1.2946
 4909SOL    HW226187   4.128   1.087   8.661  1.8763  1.1394  0.1104
 4910SOL     OW26188   4.107   4.584   7.108 -0.0966 -0.0224  0.5455
 4910SOL    HW126189   4.092   4.523   7.036  0.6299  0.4176  0.0215
 4910SOL    HW226190   4.015   4.590   7.136 -0.3462  0.8100 -0.4445
 4911SOL     OW26191   0.860   2.750   3.348 -0.4132 -0.8600  0.3286
 4911SOL    HW126192   0.786   2.709   3.305 -2.1461  2.3763  0.2141
 4911SOL    HW226193   0.822   2.806   3.416  0.0778 -0.1768  0.0442
 4912SOL     OW26194   0.723   2.368   5.716 -0.0419 -0.4343 -0.3325
 4912SOL    HW126195   0.640   2.371   5.669 -0.2504 -0.8463  0.0174
 4912SOL    HW226196   0.722   2.459   5.747  0.1704 -0.7340  0.5365
 4913SOL     OW26197   3.652   3.588  10.810  0.6610 -0.5131 -0.2842
 4913SOL    HW126198   3.596   3.646  10.759  0.2266  1.5756  2.5348
 4913SOL    HW226199   3.727   3.648  10.801  0.2239  0.0664 -0.0926
 4914SOL     OW26200   3.755   4.086   3.033  0.1865  0.1579 -0.6953
 4914SOL    HW126201   3.848   4.066   3.029  0.0256 -1.0990  1.6265
 4914SOL    HW226202   3.724   4.002   3.067 -1.0759  1.0150  0.2819
 4915SOL     OW26203   2.022   0.175   4.070  0.1778  0.2701 -0.1129
 4915SOL    HW126204   2.005   0.264   4.103 -0.4025  0.5491 -1.1769
 4915SOL    HW226205   2.048   0.201   3.981  0.2152  2.1566  0.4358
 4916SOL     OW26206   3.863   0.409   7.731 -0.2614  0.1871 -0.0821
 4916SOL    HW126207   3.951   0.445   7.717 -0.6344  1.2449  0.2257
 4916SOL    HW226208   3.813   0.446   7.657  2.4560  1.2316 -1.3801
 4917SOL     OW26209   1.923   1.735   3.891  0.4593 -0.2417  0.0781
 4917SOL    HW126210   1.954   1.672   3.826  1.1251  0.5539 -0.3747
 4917SOL    HW226211   1.952   1.819   3.855  2.0579 -0.5932  0.5629
 4918SOL     OW26212   3.642   4.151  13.035  0.1428 -0.3112 -0.3780
 4918SOL    HW126213   3.559   4.187  13.066 -0.0449 -0.4586 -0.7161
 4918SOL    HW226214   3.675   4.102  13.110 -0.4655  0.9142  0.6964
 4919SOL     OW26215   0.757   1.985   8.752  0.0809 -0.2452 -0.2102
 4919SOL    HW126216   0.763   2.049   8.823 -0.1740  0.5902 -0.9462
 4919SOL    HW226217   0.811   1.911   8.782 -0.1096 -0.3964 -0.2363
 4920SOL     OW26218   4.700   1.575   5.789 -0.1358 -0.9710  0.3747
 4920SOL    HW126219   0.058   1.611   5.820 -0.0953 -0.4172 -0.3867
 4920SOL    HW226220   4.705   1.603   5.697  3.1608 -1.7200  0.3296
 4921SOL     OW26221   0.291   2.077   7.820  0.3743  0.4404  0.2173
 4921SOL    HW126222   0.257   2.006   7.875  2.2529 -1.1196 -0.6203
 4921SOL    HW226223   0.377   2.097   7.858  0.8161  1.6058 -1.3815
 4922SOL     OW26224   0.331   1.980   5.833 -0.3724 -0.2673  0.2937
 4922SOL    HW126225   0.364   2.059   5.875  1.3039 -0.2594 -1.0549
 4922SOL    HW226226   0.251   2.012   5.792  1.1376  0.6607 -1.8769
 4923SOL     OW26227   3.614   1.465  14.744 -0.4736  0.5765 -0.0716
 4923SOL    HW126228   3.666   1.416  14.807 -1.0884 -1.1056 -0.8744
 4923SOL    HW226229   3.689   1.514  14.708  0.2905 -0.0511  0.6704
 4924SOL     OW26230   3.989   2.612  14.497 -0.0680  0.2043 -0.1460
 4924SOL    HW126231   3.998   2.689  14.441 -0.1777  0.2550 -0.0945
 4924SOL    HW226232   3.997   2.550  14.425 -1.1698  1.0812 -1.0107
 4925SOL     OW26233   2.809   0.426   8.352  0.3790  0.2312  0.0910
 4925SOL    HW126234   2.823   0.508   8.401 -1.6607  1.2272 -0.9916
 4925SOL    HW226235   2.789   0.462   8.266  0.4686 -1.2468 -0.5322
 4926SOL     OW26236   3.675   4.044  12.748 -0.2096  0.1457  0.0864
 4926SOL    HW126237   3.603   3.999  12.792  0.5951  1.5858  2.8644
 4926SOL    HW226238   3.639   4.019  12.663  2.0923 -1.7978 -0.3523
 4927SOL     OW26239   4.480   1.816   7.982  0.0771 -0.0030 -0.5041
 4927SOL    HW126240   4.411   1.750   7.988  0.4923 -0.3456  0.4811
 4927SOL    HW226241   4.449   1.858   7.902  0.9865  1.7721  0.0808
 4928SOL     OW26242   1.701   2.545   3.027  0.2672 -0.1161 -0.9181
 4928SOL    HW126243   1.631   2.611   3.036  1.4815  0.8363  1.2858
 4928SOL    HW226244   1.672   2.501   2.946 -1.2444  3.1121 -2.1358
 4929SOL     OW26245   3.736   3.384   2.824  0.3526 -0.0156  0.0844
 4929SOL    HW126246   3.729   3.440   2.746  5.3670  1.8665  0.9450
 4929SOL    HW226247   3.692   3.302   2.805 -0.6528  0.6090 -0.2666
 4930SOL     OW26248   3.710   2.590   3.015 -0.4490  0.3015  0.1288
 4930SOL    HW126249   3.780   2.647   3.045 -0.7409  0.2637  0.8712
 4930SOL    HW226250   3.747   2.503   3.027 -1.7811 -0.5510 -1.8784
 4931SOL     OW26251   4.078   3.946   9.363  0.4079  0.5213  0.3793
 4931SOL    HW126252   3.998   3.894   9.353  1.6289 -1.7839  2.6183
 4931SOL    HW226253   4.146   3.881   9.346 -2.1154 -1.7221 -1.1941
 4932SOL     OW26254   0.454   0.701  17.170 -0.0262  0.5925  0.1790
 4932SOL    HW126255   0.483   0.790  17.151 -1.1592  1.1693  1.1459
 4932SOL    HW226256   0.363   0.698  17.139 -0.1868 -0.6610  0.7698
 4933SOL     OW26257   0.858   0.954   4.836 -0.2021  0.1207 -0.3729
 4933SOL    HW126258   0.836   0.958   4.743 -1.0112 -2.4065 -0.2936
 4933SOL    HW226259   0.947   0.991   4.832 -0.3607  0.3102 -1.9719
 4934SOL     OW26260   4.450   3.174   1.818  0.0820  0.2028 -0.3604
 4934SOL    HW126261   4.384   3.139   1.879  1.8925 -2.7411 -0.0916
 4934SOL    HW226262   4.404   3.146   1.739  0.9746 -0.5532 -0.6100
 4935SOL     OW26263   3.142   1.480  14.785 -0.0438  0.2737 -0.1084
 4935SOL    HW126264   3.230   1.517  14.776  0.7425 -1.0131  2.3002
 4935SOL    HW226265   3.111   1.503  14.873  0.3599 -1.9068  0.6106
 4936SOL     OW26266   4.204   2.876   4.042 -0.0716  0.0672  0.4178
 4936SOL    HW126267   4.119   2.920   4.049  0.8770  2.0887 -1.0118
 4936SOL    HW226268   4.176   2.784   4.051 -0.5738  0.0527 -1.2485
 4937SOL     OW26269   1.666   0.346  11.077  0.2238 -0.4008  0.3492
 4937SOL    HW126270   1.613   0.424  11.093  0.7931  0.0405  0.1036
 4937SOL    HW226271   1.715   0.361  10.996 -0.2758  2.2069  0.5395
 4938SOL     OW26272   2.662   0.966  10.932  0.1179  0.4834  0.1361
 4938SOL    HW126273   2.756   0.953  10.936  0.0620 -0.1536 -0.6050
 4938SOL    HW226274   2.632   0.979  11.022 -1.4476  0.5255 -0.3773
 4939SOL     OW26275   2.493   0.249   9.369 -0.0301  0.3127  0.2522
 4939SOL    HW126276   2.437   0.179   9.401 -1.7258  0.9309 -1.4124
 4939SOL    HW226277   2.422   0.313   9.363  0.8589  1.2354 -0.4906
 4940SOL     OW26278   3.949   0.254   1.939  0.1008  0.2746  0.2053
 4940SOL    HW126279   3.991   0.340   1.937  2.4267 -0.8521 -0.0592
 4940SOL    HW226280   3.941   0.240   1.845 -1.3386 -1.7122  0.6319
 4941SOL     OW26281   2.721   3.134   5.283 -0.5289  0.1943 -0.6400
 4941SOL    HW126282   2.688   3.094   5.203 -2.2767  1.2307 -0.4346
 4941SOL    HW226283   2.677   3.080   5.348 -0.5669  0.7041 -0.2447
 4942SOL     OW26284   2.783   0.175  11.049 -0.0316  0.7546 -0.4410
 4942SOL    HW126285   2.854   0.156  11.110 -0.6596  1.9815  0.6628
 4942SOL    HW226286   2.815   0.133  10.969 -0.5478 -1.8908  0.7537
 4943SOL     OW26287   3.680   3.813   6.369 -0.2114 -0.5506  0.2201
 4943SOL    HW126288   3.710   3.774   6.288 -0.1665 -1.3469  0.6235
 4943SOL    HW226289   3.751   3.781   6.425 -0.7228 -0.7454  0.7676
 4944SOL     OW26290   2.445   2.487   2.787  0.1958  0.5546  0.0773
 4944SOL    HW126291   2.440   2.545   2.863 -2.0565 -0.2451  0.5284
 4944SOL    HW226292   2.537   2.497   2.764  0.4696 -2.2510 -0.0663
 4945SOL     OW26293   1.254   3.352   6.633  0.1578  0.2213 -0.3630
 4945SOL    HW126294   1.245   3.271   6.583  0.3544  1.4111 -2.3191
 4945SOL    HW226295   1.339   3.379   6.598 -0.1392  0.8730 -0.5850
 4946SOL     OW26296   4.093   1.344  15.225 -0.2471  0.6037 -0.0572
 4946SOL    HW126297   4.117   1.276  15.162  1.2639 -1.8514  3.2137
 4946SOL    HW226298   4.143   1.414  15.183  0.6861 -0.5393 -0.8648
 4947SOL     OW26299   1.286   2.296   7.641  0.3539 -0.1783  0.4915
 4947SOL    HW126300   1.272   2.216   7.589 -3.2859  0.3205  0.6779
 4947SOL    HW226301   1.328   2.247   7.712  0.8982 -1.3814 -0.6496
 4948SOL     OW26302   2.271   2.903   2.638 -0.5082 -0.3379  0.2870
 4948SOL    HW126303   2.314   2.866   2.715 -1.4252  0.8617  1.3612
 4948SOL    HW226304   2.275   2.998   2.649  0.5216 -0.1376 -1.7431
 4949SOL     OW26305   0.391   1.628   6.297  0.8116 -0.8525  0.4678
 4949SOL    HW126306   0.347   1.548   6.268 -0.4637 -0.5759  1.6442
 4949SOL    HW226307   0.342   1.652   6.375 -0.5507  2.2193 -1.3193
 4950SOL     OW26308   3.304   1.385  17.630  0.1701 -0.0810  0.4605
 4950SOL    HW126309   3.298   1.289  17.632 -0.0788 -0.0172  2.8732
 4950SOL    HW226310   3.363   1.404   0.003  2.0729  0.4918 -1.2594
 4951SOL     OW26311   2.461   3.287   4.645  0.2698 -0.5849  0.0144
 4951SOL    HW126312   2.517   3.355   4.608 -0.4285  0.3688  0.7101
 4951SOL    HW226313   2.380   3.338   4.643  1.1691  0.8279 -0.1379
 4952SOL     OW26314   0.377   0.866   8.450  0.1096 -0.5636  0.2040
 4952SOL    HW126315   0.412   0.911   8.373  0.7074 -0.6133  0.4437
 4952SOL    HW226316   0.292   0.907   8.459  0.0335 -1.1946  2.4585
 4953SOL     OW26317   3.804   2.705  11.852  0.2585  0.0370  0.4225
 4953SOL    HW126318   3.838   2.617  11.869 -0.1284 -0.2245 -0.1625
 4953SOL    HW226319   3.711   2.697  11.872  0.0617 -1.4212 -1.0702
 4954SOL     OW26320   1.157   0.486  12.665  0.0636 -0.0700 -0.4730
 4954SOL    HW126321   1.094   0.502  12.735  0.7457 -0.0412  0.1376
 4954SOL    HW226322   1.107   0.444  12.596 -0.6515 -0.4444  0.2731
 4955SOL     OW26323   4.271   0.062   0.379  0.0818  0.4379 -0.0266
 4955SOL    HW126324   4.243   0.060   0.288 -0.2684  3.1333  0.0251
 4955SOL    HW226325   4.331   0.137   0.383 -0.3072  0.7588 -0.2357
 4956SOL     OW26326   2.460   4.416   2.452 -0.3651  0.2361 -0.0814
 4956SOL    HW126327   2.541   4.365   2.447  0.7235  1.8117  1.2939
 4956SOL    HW226328   2.392   4.356   2.482 -2.3453  1.3133 -2.3977
 4957SOL     OW26329   3.385   0.520  15.123 -0.2538  0.7745 -0.1333
 4957SOL    HW126330   3.478   0.537  15.140  0.2591 -1.5029 -0.6488
 4957SOL    HW226331   3.340   0.581  15.181 -0.8524 -0.0214  0.2374
 4958SOL     OW26332   1.383   1.274   7.812 -0.0400  0.2914  0.3225
 4958SOL    HW126333   1.293   1.244   7.799 -0.8618  1.6086  3.0669
 4958SOL    HW226334   1.435   1.247   7.736  1.3938  0.3135  1.2957
 4959SOL     OW26335   2.709   0.944   7.794  0.3368 -0.5628  0.4221
 4959SOL    HW126336   2.722   1.020   7.738 -1.4188 -1.2252 -0.8895
 4959SOL    HW226337   2.801   0.922   7.812  0.7887 -0.4368 -1.6912
 4960SOL     OW26338   2.228   1.141   4.370  0.0309 -0.4168 -0.1859
 4960SOL    HW126339   2.134   1.161   4.370 -0.2200 -1.5692  1.3703
 4960SOL    HW226340   2.244   1.205   4.440  0.5169  0.7634 -1.3777
 4961SOL     OW26341   0.691   1.575   1.940 -0.2271 -0.7553  0.4576
 4961SOL    HW126342   0.611   1.628   1.938 -0.4017 -1.0565 -0.5607
 4961SOL    HW226343   0.763   1.633   1.918  0.4144 -1.3418  1.0164
 4962SOL     OW26344   3.713   4.110   5.294 -0.0112  0.3712 -0.4818
 4962SOL    HW126345   3.657   4.036   5.270  1.1348 -0.5500 -0.3172
 4962SOL    HW226346   3.657   4.188   5.297  0.9185  0.9483  2.0264
 4963SOL     OW26347   1.623   2.314   2.432  0.9612  0.0177  0.2017
 4963SOL    HW126348   1.638   2.276   2.345  1.8289  2.5761 -0.7856
 4963SOL    HW226349   1.703   2.287   2.478  0.8514 -0.9354 -0.1605
 4964SOL     OW26350   3.316   4.622   7.829  0.1451  0.0162  0.2999
 4964SOL    HW126351   3.289   4.668   7.908 -2.2250  0.2617 -0.6379
 4964SOL    HW226352   3.409   4.626   7.851 -0.1040 -0.4711  1.4004
 4965SOL     OW26353   3.064   0.157   5.664  0.5709  0.3804  0.8448
 4965SOL    HW126354   3.066   0.244   5.704  0.4470  0.7344  0.0780
 4965SOL    HW226355   2.968   0.150   5.668  0.6649 -0.3715  1.9310
 4966SOL     OW26356   2.454   3.615   3.514 -0.6057 -0.1213 -0.3725
 4966SOL    HW126357   2.510   3.668   3.572  0.2844  0.7440 -2.0253
 4966SOL    HW226358   2.486   3.627   3.425  2.1328 -2.2758  0.2988
 4967SOL     OW26359   1.760   4.529   3.974 -0.4838 -0.0805 -0.0955
 4967SOL    HW126360   1.714   4.448   3.996  2.2701 -1.8973 -1.2044
 4967SOL    HW226361   1.815   4.500   3.902  0.1680 -0.2102  0.4580
 4968SOL     OW26362   1.655   0.771   2.480  0.5407 -0.5511 -0.9319
 4968SOL    HW126363   1.680   0.757   2.389  0.2224  1.1954 -1.2844
 4968SOL    HW226364   1.732   0.742   2.528  1.6737  2.6344 -0.8714
 4969SOL     OW26365   1.297   4.272  10.526  0.1840  0.1264  0.2454
 4969SOL    HW126366   1.205   4.277  10.500 -0.2906  1.7199  2.3001
 4969SOL    HW226367   1.310   4.177  10.519  1.5726  0.2084  1.8149
 4970SOL     OW26368   0.913   2.263  13.310  0.1835  0.6086 -0.8203
 4970SOL    HW126369   0.953   2.177  13.324 -2.2138 -0.2911  0.4724
 4970SOL    HW226370   0.983   2.309  13.263  1.0009 -0.2386 -0.4268
 4971SOL     OW26371   1.833   3.109  17.109 -0.7924 -0.1190 -0.0615
 4971SOL    HW126372   1.798   3.031  17.154  1.1176 -0.5950  0.6231
 4971SOL    HW226373   1.923   3.082  17.091 -0.8957  0.8671 -2.0000
 4972SOL     OW26374   4.409   2.503  15.788 -0.2696 -0.6310  0.6464
 4972SOL    HW126375   4.395   2.572  15.724  2.1894 -0.4503  0.3289
 4972SOL    HW226376   4.386   2.422  15.742  0.0667  0.2994 -1.1309
 4973SOL     OW26377   2.749   0.673   6.326 -0.3776 -0.1310  0.1179
 4973SOL    HW126378   2.661   0.712   6.330  0.1661  1.2034 -1.1102
 4973SOL    HW226379   2.775   0.681   6.418 -1.3863 -1.2890  0.5098
 4974SOL     OW26380   1.878   4.160   7.646 -0.5017 -0.2039 -0.2559
 4974SOL    HW126381   1.955   4.179   7.699 -0.2802  0.9581 -0.9994
 4974SOL    HW226382   1.913   4.207   7.571  1.1532 -0.8429  0.1171
 4975SOL     OW26383   3.734   3.081  17.545 -0.4667  0.8737 -0.4740
 4975SOL    HW126384   3.676   3.137  17.598  0.2605  0.0487  1.2047
 4975SOL    HW226385   3.812   3.083  17.601 -0.6809  0.6811 -0.1701
 4976SOL     OW26386   2.737   4.264   4.398 -0.4512  0.0882  0.1022
 4976SOL    HW126387   2.748   4.237   4.489 -0.2448  1.4021  0.4773
 4976SOL    HW226388   2.642   4.263   4.388 -0.5396 -1.2092  1.1660
 4977SOL     OW26389   3.991   2.072   5.683  0.3498 -0.0625 -0.5674
 4977SOL    HW126390   3.995   2.164   5.708  2.7943 -0.6490  1.1667
 4977SOL    HW226391   3.935   2.023   5.744 -0.1052  0.6958 -0.3797
 4978SOL     OW26392   3.795   1.263   8.874  0.1753 -0.7532 -0.1082
 4978SOL    HW126393   3.836   1.212   8.944 -2.1409 -3.9567 -1.1008
 4978SOL    HW226394   3.851   1.340   8.863  0.2547 -0.8887 -0.6464
 4979SOL     OW26395   0.014   2.397   6.809  0.0552  0.1901  0.2691
 4979SOL    HW126396   4.690   2.470   6.770 -0.0019  0.4017  0.7360
 4979SOL    HW226397   0.035   2.359   6.723 -2.0894 -1.5278  0.5125
 4980SOL     OW26398   1.646   4.340   1.566  0.4645  0.4480  0.0062
 4980SOL    HW126399   1.688   4.397   1.630  2.7611 -0.3038 -0.8333
 4980SOL    HW226400   1.711   4.311   1.502  1.3103 -0.3857  1.2354
 4981SOL     OW26401   2.721   2.944   7.749  0.2428 -0.2097  0.6941
 4981SOL    HW126402   2.656   2.973   7.813  0.1767 -1.3982  1.1777
 4981SOL    HW226403   2.793   3.005   7.767  0.6841 -0.8849  1.2612
 4982SOL     OW26404   3.980   4.583   4.104  0.1466  0.6345 -0.4022
 4982SOL    HW126405   3.919   4.535   4.047  1.6327  0.8463 -2.1610
 4982SOL    HW226406   3.988   4.508   4.164  0.4144  0.9605 -0.0381
 4983SOL     OW26407   2.253   4.231   3.963 -0.3140  0.3979 -0.5166
 4983SOL    HW126408   2.334   4.282   3.967 -0.3777  0.3658  0.9648
 4983SOL    HW226409   2.189   4.301   3.974  0.6685  1.1068  0.7303
 4984SOL     OW26410   1.364   2.499   7.248  0.3329 -0.5905  0.2154
 4984SOL    HW126411   1.327   2.411   7.239 -0.0626 -0.1384 -2.7840
 4984SOL    HW226412   1.408   2.489   7.332  1.0942 -0.7793 -0.2030
 4985SOL     OW26413   0.644   4.599   2.158 -0.6001 -0.3850  0.0222
 4985SOL    HW126414   0.737   4.576   2.164 -0.5895 -0.0702  1.2780
 4985SOL    HW226415   0.633   4.614   2.065 -1.0959  0.9790  0.2934
 4986SOL     OW26416   0.513   3.706   8.636  0.8204  0.0793  0.1489
 4986SOL    HW126417   0.577   3.768   8.673  3.1792 -2.2170 -0.1326
 4986SOL    HW226418   0.556   3.623   8.653  1.0114  0.1900  0.2007
 4987SOL     OW26419   3.404   4.361   6.560  1.1778 -0.2365  0.6754
 4987SOL    HW126420   3.420   4.455   6.560  2.1202 -0.3910  1.7602
 4987SOL    HW226421   3.485   4.322   6.529  1.0248  0.5392 -0.7226
 4988SOL     OW26422   0.699   4.212   4.042  0.4550  0.3168 -0.2760
 4988SOL    HW126423   0.750   4.186   3.965 -1.8437  0.6255 -1.8902
 4988SOL    HW226424   0.717   4.305   4.047 -1.9505  0.7075  1.2255
 4989SOL     OW26425   4.173   3.175  14.130  0.1058 -0.4889  0.1043
 4989SOL    HW126426   4.244   3.193  14.192 -0.4822 -1.0301  0.9141
 4989SOL    HW226427   4.173   3.080  14.127 -2.7560 -0.4439 -0.4558
 4990SOL     OW26428   0.775   3.522   2.949 -0.0255  0.5555 -0.5279
 4990SOL    HW126429   0.779   3.617   2.966  0.7751  0.3920  0.2139
 4990SOL    HW226430   0.755   3.530   2.856 -1.6351  0.0347 -0.2270
 4991SOL     OW26431   3.897   2.693  12.526  0.0378 -0.3893  0.8109
 4991SOL    HW126432   3.938   2.608  12.512  0.6159 -0.2263  1.5545
 4991SOL    HW226433   3.824   2.693  12.463  1.4673 -1.1827 -0.8436
 4992SOL     OW26434   0.378   3.039   3.576  0.4265 -0.1625  0.1620
 4992SOL    HW126435   0.306   3.053   3.637 -0.3510  1.3021 -1.0764
 4992SOL    HW226436   0.389   2.944   3.567 -1.0480 -0.3158 -0.1276
 4993SOL     OW26437   1.350   2.843   8.439 -0.2146  0.1280  0.6319
 4993SOL    HW126438   1.445   2.847   8.445 -0.2078  2.0537 -0.5985
 4993SOL    HW226439   1.327   2.934   8.456 -3.0020 -0.4517  0.0275
 4994SOL     OW26440   4.301   3.866   7.166 -0.6716 -0.5065  0.0619
 4994SOL    HW126441   4.344   3.824   7.241 -0.9662  1.1218  1.1369
 4994SOL    HW226442   4.253   3.800   7.115 -0.3066 -0.1341 -0.7649
 4995SOL     OW26443   1.230   3.115  15.872  0.1395 -0.5635 -0.1791
 4995SOL    HW126444   1.324   3.128  15.857  0.3827 -1.3201  0.6782
 4995SOL    HW226445   1.217   3.185  15.936  0.6900 -2.0996  1.6132
 4996SOL     OW26446   3.490   1.421   7.924 -0.4032  0.5935 -0.0343
 4996SOL    HW126447   3.566   1.472   7.953  1.4732 -1.5328 -1.2348
 4996SOL    HW226448   3.456   1.392   8.008  1.9773  0.2880  0.8326
 4997SOL     OW26449   0.122   3.139   1.397  0.5370 -0.1510 -0.0151
 4997SOL    HW126450   0.044   3.149   1.452  0.0059  0.3313 -0.8402
 4997SOL    HW226451   0.126   3.215   1.339  3.6738  0.7812  1.4501
 4998SOL     OW26452   2.672   2.907  16.688 -0.1163  0.7004  0.0415
 4998SOL    HW126453   2.635   2.895  16.775  1.5975  1.1171  0.8219
 4998SOL    HW226454   2.691   2.820  16.652 -1.9851  0.5629 -0.5855
 4999SOL     OW26455   4.009   2.469   5.174  0.4257 -0.0408  0.0435
 4999SOL    HW126456   4.080   2.492   5.114  0.9184  0.8161  0.9623
 4999SOL    HW226457   3.937   2.489   5.114 -1.1748  0.1281  1.9895
 5000SOL     OW26458   0.786   3.611   7.252  0.8021 -0.1519 -0.3475
 5000SOL    HW126459   0.873   3.584   7.224  0.7258 -0.7679  0.0119
 5000SOL    HW226460   0.791   3.625   7.347 -1.1525 -0.4734 -0.1914
 5001SOL     OW26461   0.928   3.016   5.378  0.1408  0.0443 -0.3281
 5001SOL    HW126462   0.865   2.994   5.309 -1.2113 -0.6986  1.1501
 5001SOL    HW226463   0.979   3.084   5.333 -1.9455  1.4753 -0.5506
 5002SOL     OW26464   4.319   1.418   0.445  0.1585 -0.4857 -0.0867
 5002SOL    HW126465   4.337   1.470   0.524 -1.3265 -0.6456  0.3474
 5002SOL    HW226466   4.248   1.365   0.480  1.5032 -0.5515  2.5593
 5003SOL     OW26467   4.242   3.127  13.329 -0.1439 -0.0862 -0.3392
 5003SOL    HW126468   4.183   3.056  13.305 -3.3775  2.4958  0.0354
 5003SOL    HW226469   4.308   3.089  13.388 -1.1875 -0.4713  0.5776
 5004SOL     OW26470   1.341   0.964   1.617  0.3598  0.6199  0.5498
 5004SOL    HW126471   1.367   0.872   1.629  0.0427  0.9260  3.6309
 5004SOL    HW226472   1.281   0.971   1.692 -2.0529  1.4717 -1.4491
 5005SOL     OW26473   1.667   1.910   7.642 -0.0682  0.1929  0.4712
 5005SOL    HW126474   1.591   1.853   7.634  0.5460 -0.7749  1.5093
 5005SOL    HW226475   1.674   1.923   7.737 -0.4430 -0.0750  0.5375
 5006SOL     OW26476   2.162   4.403   4.497  0.0022 -0.8776 -0.5147
 5006SOL    HW126477   2.114   4.468   4.447  1.8331  1.4691  0.7711
 5006SOL    HW226478   2.194   4.450   4.575  0.2632 -1.6988 -0.1262
 5007SOL     OW26479   2.012   4.566   9.255  0.0767 -0.1326  0.3653
 5007SOL    HW126480   1.938   4.592   9.309 -0.1992 -2.8963  1.3578
 5007SOL    HW226481   2.088   4.595   9.305  1.6621 -2.0120 -0.9267
 5008SOL     OW26482   1.707   2.131   8.753  0.5285 -0.1150  0.6049
 5008SOL    HW126483   1.786   2.107   8.803  0.5220 -1.6848 -0.1233
 5008SOL    HW226484   1.697   2.224   8.771 -0.5674 -0.0312 -0.4104
 5009SOL     OW26485   3.065   1.842   2.505 -0.1296 -0.1616  0.0412
 5009SOL    HW126486   3.059   1.933   2.533  2.2044 -0.1270  0.4464
 5009SOL    HW226487   3.101   1.859   2.418 -1.0889 -0.1736 -0.3528
 5010SOL     OW26488   3.055   2.049  13.664 -0.1102  0.2391 -0.1291
 5010SOL    HW126489   3.129   1.991  13.677  0.2367  0.3467 -1.7294
 5010SOL    HW226490   3.090   2.127  13.620  0.8858  0.1775  0.5663
 5011SOL     OW26491   1.930   2.878   7.871  0.4715  0.2694 -0.7898
 5011SOL    HW126492   1.986   2.836   7.805  1.4526  2.3962 -1.2991
 5011SOL    HW226493   1.850   2.825   7.871  0.2352  0.6270 -0.3837
 5012SOL     OW26494   0.714   0.263   6.027 -0.9098  0.0505 -0.6405
 5012SOL    HW126495   0.624   0.286   6.005 -0.8898 -0.1344 -0.9237
 5012SOL    HW226496   0.737   0.355   6.038 -0.3721 -0.1492 -0.1161
 5013SOL     OW26497   2.395   2.831   2.024 -0.5148 -0.0108 -0.1891
 5013SOL    HW126498   2.411   2.768   2.094  0.1985  0.2440 -0.1328
 5013SOL    HW226499   2.483   2.863   2.004  0.2602 -1.6674  0.5381
 5014SOL     OW26500   2.967   2.065  13.930 -0.3044 -0.1414  0.0283
 5014SOL    HW126501   3.005   2.046  13.844 -1.9698 -2.3139 -0.2279
 5014SOL    HW226502   2.879   2.085  13.899 -0.3077 -2.1324 -1.2392
 5015SOL     OW26503   2.070   2.076   9.530 -0.8411 -0.0999  0.5407
 5015SOL    HW126504   2.076   2.131   9.607  1.4404  0.8839 -0.3263
 5015SOL    HW226505   2.059   2.133   9.454  1.9782  0.3603  0.4751
 5016SOL     OW26506   2.126   2.286  14.786  0.1183 -0.1271 -0.1487
 5016SOL    HW126507   2.084   2.229  14.850  0.7186  0.1511  0.4895
 5016SOL    HW226508   2.134   2.357  14.850  1.4497 -1.3007  0.9901
 5017SOL     OW26509   4.437   3.635   2.709  0.3416  0.6611 -0.1469
 5017SOL    HW126510   4.420   3.718   2.665 -1.6496  0.5175  0.3737
 5017SOL    HW226511   4.359   3.586   2.683  1.3969 -0.6253 -0.8612
 5018SOL     OW26512   4.124   3.157   2.672 -0.6251  0.1210  0.5101
 5018SOL    HW126513   4.168   3.194   2.749  0.2101 -1.0258  0.6021
 5018SOL    HW226514   4.039   3.147   2.715 -0.5945  1.9048  0.9873
 5019SOL     OW26515   3.165   2.019   4.847  0.5982  0.1304 -0.0718
 5019SOL    HW126516   3.206   2.086   4.792  2.4004  0.0645  1.1635
 5019SOL    HW226517   3.151   1.947   4.787  0.5402  0.9698 -1.0598
 5020SOL     OW26518   4.653   2.081   6.601 -0.2401 -0.2353 -0.7190
 5020SOL    HW126519   4.596   2.125   6.537 -0.9017 -0.4262 -0.2667
 5020SOL    HW226520   4.596   2.051   6.672  0.2540  1.3520  0.3267
 5021SOL     OW26521   0.743   0.013  10.883 -0.3317 -0.2865  0.1936
 5021SOL    HW126522   0.809   0.034  10.949  0.8097  0.2097 -1.1092
 5021SOL    HW226523   0.712   0.100  10.859  1.3133  0.7215  1.6696
 5022SOL     OW26524   2.900   1.953   6.662  0.3598  0.0611 -0.1732
 5022SOL    HW126525   2.926   1.996   6.743  2.6056 -0.9428 -0.3707
 5022SOL    HW226526   2.878   2.035   6.618 -0.3469 -0.4416 -0.7466
 5023SOL     OW26527   4.075   3.740   6.589 -0.0289 -0.2231  0.2785
 5023SOL    HW126528   4.126   3.772   6.664 -1.8983  1.8240  0.6549
 5023SOL    HW226529   4.083   3.808   6.523 -0.2103  1.1517  1.6750
 5024SOL     OW26530   3.123   2.246  11.483 -0.0121 -0.6267 -0.5345
 5024SOL    HW126531   3.093   2.155  11.469  0.2486 -0.8323  0.3012
 5024SOL    HW226532   3.097   2.276  11.396  0.0313 -2.2312 -1.1149
 5025SOL     OW26533   0.043   0.893   6.784 -0.2578 -0.4662  0.0848
 5025SOL    HW126534   0.122   0.893   6.838 -0.3489 -3.1447  0.1925
 5025SOL    HW226535   0.073   0.954   6.717  0.4615 -0.6036  0.2831
 5026SOL     OW26536   1.261   1.052   3.466 -0.0183 -0.4816  0.4409
 5026SOL    HW126537   1.309   0.976   3.434 -0.9425 -1.9804  2.6008
 5026SOL    HW226538   1.276   1.041   3.560  3.8478 -0.4149 -0.1958
 5027SOL     OW26539   4.590   1.069  16.553  0.6148  0.3398  0.3597
 5027SOL    HW126540   4.626   0.989  16.593 -2.1366 -0.8630  0.4158
 5027SOL    HW226541   4.658   1.077  16.487 -0.5499 -0.7863 -0.9526
 5028SOL     OW26542   3.602   1.237   6.028 -0.1796 -0.0167 -0.3067
 5028SOL    HW126543   3.635   1.156   6.065 -0.1990 -0.3438 -1.0105
 5028SOL    HW226544   3.651   1.252   5.947  3.2253 -1.6125  1.4507
 5029SOL     OW26545   2.209   3.156   6.288  0.3795 -0.2993 -0.0194
 5029SOL    HW126546   2.140   3.093   6.310  0.7765 -0.2645  1.2930
 5029SOL    HW226547   2.284   3.098   6.293  0.8597  0.4351  1.2688
 5030SOL     OW26548   1.777   1.615   6.765 -0.5763 -0.0714 -0.1114
 5030SOL    HW126549   1.709   1.606   6.832  0.6450 -2.6311  0.7741
 5030SOL    HW226550   1.851   1.635   6.822  0.3179 -0.1502 -1.2466
 5031SOL     OW26551   0.943   1.631   6.073 -0.7065  0.1033 -0.0182
 5031SOL    HW126552   0.902   1.709   6.111 -1.2172 -0.0367 -0.2836
 5031SOL    HW226553   1.015   1.617   6.135  0.4644  2.8948 -0.7721
 5032SOL     OW26554   1.111   0.076   5.721 -0.1762 -0.6925  0.2348
 5032SOL    HW126555   1.105   0.145   5.656 -0.6534 -0.0886  0.9242
 5032SOL    HW226556   1.024   0.084   5.761  0.4592  2.0709  1.0917
 5033SOL     OW26557   4.679   0.363   6.149  0.0484 -0.0546 -0.0134
 5033SOL    HW126558   4.707   0.427   6.215 -0.1073  1.1100 -1.0777
 5033SOL    HW226559   4.584   0.370   6.163 -0.2734 -1.8454 -1.4578
 5034SOL     OW26560   3.984   2.427   2.826  0.3527 -0.8874  0.2046
 5034SOL    HW126561   3.921   2.402   2.893 -0.7023  0.2025 -0.3758
 5034SOL    HW226562   4.025   2.506   2.863 -1.5037 -0.2551  0.8989
 5035SOL     OW26563   1.781   0.112   7.908  0.2441 -1.0509 -0.1070
 5035SOL    HW126564   1.712   0.127   7.843  0.1581  0.7992  0.3947
 5035SOL    HW226565   1.747   0.036   7.955 -1.1613 -0.5916 -0.3590
 5036SOL     OW26566   2.933   3.411  14.248 -0.0658  0.3293  0.3192
 5036SOL    HW126567   2.952   3.317  14.256 -0.5171  0.3292  1.3182
 5036SOL    HW226568   2.888   3.402  14.164 -0.1329  0.7493  0.3147
 5037SOL     OW26569   0.566   3.032   5.344 -0.1575  0.5538 -0.2590
 5037SOL    HW126570   0.595   3.123   5.352 -0.8365  0.8040 -0.6344
 5037SOL    HW226571   0.541   3.016   5.435  1.9109  0.7614  0.3394
 5038SOL     OW26572   0.705   2.109  12.689  0.2028  0.1865  0.5005
 5038SOL    HW126573   0.715   2.181  12.628 -1.2664 -0.8703 -0.9608
 5038SOL    HW226574   0.743   2.042  12.632  1.2526 -0.5370  2.0362
 5039SOL     OW26575   1.602   1.356   7.213 -0.2008  0.1029 -0.0339
 5039SOL    HW126576   1.522   1.337   7.163 -0.4026  2.5176 -0.6522
 5039SOL    HW226577   1.575   1.416   7.283 -2.9174 -0.1708 -0.8467
 5040SOL     OW26578   4.723   4.136   0.915 -0.2629 -0.7764 -0.4482
 5040SOL    HW126579   0.056   4.120   0.840  0.2516  3.1554 -0.9081
 5040SOL    HW226580   4.657   4.193   0.875 -0.2822  0.2961  1.1434
 5041SOL     OW26581   3.686   0.323   5.263 -0.0717 -0.0657 -0.7236
 5041SOL    HW126582   3.761   0.354   5.214  0.6553  1.7323  1.5050
 5041SOL    HW226583   3.649   0.407   5.293 -0.6883  0.0095 -1.6776
 5042SOL     OW26584   3.743   2.811  10.161 -0.0914  0.4302  0.1202
 5042SOL    HW126585   3.747   2.786  10.069 -0.4543  0.3731  0.1217
 5042SOL    HW226586   3.832   2.833  10.189 -0.1820  0.5823  0.2888
 5043SOL     OW26587   1.423   4.612   4.026 -0.0417 -0.2938  0.6217
 5043SOL    HW126588   1.449   4.674   4.094 -0.8126  2.4418 -1.5908
 5043SOL    HW226589   1.503   4.559   4.029 -0.2717 -0.6274  0.7728
 5044SOL     OW26590   0.670   2.948   3.101  0.2670 -0.3913 -0.0860
 5044SOL    HW126591   0.589   2.955   3.151  0.4509  0.5333  0.0862
 5044SOL    HW226592   0.733   2.989   3.160  0.1454 -2.7955  1.7359
 5045SOL     OW26593   1.361   3.751   9.868 -0.4791 -0.6542 -0.4996
 5045SOL    HW126594   1.426   3.770   9.801  1.3555 -1.1420  1.1701
 5045SOL    HW226595   1.283   3.781   9.820 -1.7405 -0.3090  1.7368
 5046SOL     OW26596   0.436   0.396  10.599  0.0976  0.0352  0.1203
 5046SOL    HW126597   0.349   0.355  10.595  0.9452 -1.9166  2.1008
 5046SOL    HW226598   0.457   0.413  10.508 -2.0542 -0.5919 -0.5026
 5047SOL     OW26599   1.352   3.325  11.801 -0.2305  0.3377  0.2435
 5047SOL    HW126600   1.324   3.403  11.752  0.6121  0.1253 -0.5725
 5047SOL    HW226601   1.373   3.265  11.730  0.0643  1.0013 -0.2290
 5048SOL     OW26602   4.172   1.861   8.087 -0.1024  0.5438  0.0510
 5048SOL    HW126603   4.189   1.851   8.181 -1.4980 -0.3318  0.2218
 5048SOL    HW226604   4.108   1.790   8.076  0.4254  0.0153  0.3555
 5049SOL     OW26605   1.718   0.892   2.996 -0.0707  0.6243 -0.6482
 5049SOL    HW126606   1.705   0.951   2.922  0.0006  2.7743  1.0482
 5049SOL    HW226607   1.805   0.855   2.980 -0.8663 -0.4938 -2.3414
 5050SOL     OW26608   2.379   1.239   8.360 -0.3188 -0.6937  0.6570
 5050SOL    HW126609   2.438   1.193   8.300 -2.2312 -0.5761 -1.3491
 5050SOL    HW226610   2.426   1.246   8.443 -0.3341  0.2228  0.5898
 5051SOL     OW26611   2.740   2.402   3.849  0.4889  0.0332  0.3515
 5051SOL    HW126612   2.780   2.454   3.780 -1.2150 -0.8183 -1.2706
 5051SOL    HW226613   2.815   2.377   3.904  0.3439  0.8806  0.9277
 5052SOL     OW26614   0.347   0.212  10.969 -0.6710 -0.4483  0.4175
 5052SOL    HW126615   0.387   0.254  11.046  1.5385 -2.7351  0.5115
 5052SOL    HW226616   0.257   0.243  10.970 -0.1068  1.2615 -0.4394
 5053SOL     OW26617   3.361   1.370   0.483 -0.2301  0.2703  0.7006
 5053SOL    HW126618   3.418   1.381   0.558  0.0934 -0.4344  0.5557
 5053SOL    HW226619   3.394   1.440   0.427 -1.2877 -0.7840 -1.2810
 5054SOL     OW26620   0.426   1.886   4.781  0.3542  0.2214 -0.2061
 5054SOL    HW126621   0.421   1.981   4.773 -0.5042  0.3673  2.2574
 5054SOL    HW226622   0.469   1.864   4.698  1.5074 -0.0813  0.4742
 5055SOL     OW26623   1.871   1.523   6.524 -0.6783  0.0579  0.7249
 5055SOL    HW126624   1.966   1.512   6.527 -0.7140 -0.7062 -0.8077
 5055SOL    HW226625   1.851   1.584   6.595 -2.3790 -0.2493  0.5193
 5056SOL     OW26626   3.452   0.920   3.172  0.3093  0.0108  0.1698
 5056SOL    HW126627   3.510   0.994   3.189  1.2640 -0.3547 -1.5244
 5056SOL    HW226628   3.506   0.868   3.112 -0.9919 -0.0780 -0.9294
 5057SOL     OW26629   2.492   1.411  16.409 -0.1542 -0.0993 -0.3056
 5057SOL    HW126630   2.459   1.493  16.371 -1.1397 -0.1623  0.4187
 5057SOL    HW226631   2.486   1.351  16.335  3.1467  0.8113 -1.3116
 5058SOL     OW26632   4.171   1.960   4.895  0.4513  0.3575  0.8959
 5058SOL    HW126633   4.230   1.930   4.964 -0.4478 -1.2581  0.9628
 5058SOL    HW226634   4.184   1.876   4.850 -0.3464  0.0679  1.1932
 5059SOL     OW26635   3.447   2.317  17.021 -0.1910 -0.5953  0.0305
 5059SOL    HW126636   3.441   2.339  16.928  0.8873  1.4531  0.4603
 5059SOL    HW226637   3.489   2.232  17.008 -1.8786 -1.6034  1.1282
 5060SOL     OW26638   3.955   1.553  13.747  0.5011 -0.2726  0.0880
 5060SOL    HW126639   3.963   1.644  13.776  0.3167 -0.6893  1.4393
 5060SOL    HW226640   4.019   1.522  13.811  0.3550 -0.9538 -0.0929
 5061SOL     OW26641   1.270   3.649   6.013 -0.0453  0.3039 -0.0808
 5061SOL    HW126642   1.208   3.649   5.941  0.4744  0.7735 -0.5253
 5061SOL    HW226643   1.253   3.742   6.032  1.7131  0.5973  0.1155
 5062SOL     OW26644   4.724   1.042   2.397  0.1777 -0.4659  0.3615
 5062SOL    HW126645   4.663   1.045   2.323 -0.3280  1.2046  0.8528
 5062SOL    HW226646   0.002   1.135   2.420 -2.4141 -0.1694 -0.4676
 5063SOL     OW26647   1.828   4.463  10.554  0.1419  0.8275  0.1083
 5063SOL    HW126648   1.819   4.485  10.647  4.2188  0.1111  0.6859
 5063SOL    HW226649   1.921   4.443  10.545  0.0891  1.3855 -1.5062
 5064SOL     OW26650   3.627   2.037  13.136  0.2304 -0.3246  0.5600
 5064SOL    HW126651   3.698   2.101  13.140 -0.2877  0.3261 -0.8930
 5064SOL    HW226652   3.588   2.050  13.050 -0.7562 -0.1142  1.0432
 5065SOL     OW26653   4.717   0.644   2.951 -0.0515 -0.1908 -0.3561
 5065SOL    HW126654   0.002   0.568   3.008 -0.5406 -1.5530 -2.0745
 5065SOL    HW226655   0.057   0.615   2.886  1.7100  0.4704  1.1005
 5066SOL     OW26656   3.164   2.932  12.576  0.1633  0.4636  0.4308
 5066SOL    HW126657   3.190   2.868  12.510 -0.2530  1.3178 -0.5608
 5066SOL    HW226658   3.227   2.902  12.642  1.0380  0.3032 -0.4710
 5067SOL     OW26659   0.600   2.592   3.470  0.2460  0.0302  0.4167
 5067SOL    HW126660   0.552   2.657   3.521  0.3930 -0.6016  1.3424
 5067SOL    HW226661   0.602   2.628   3.381 -0.3611  0.0465  0.4102
 5068SOL     OW26662   3.808   1.804   5.368  0.9978 -0.1304  0.1940
 5068SOL    HW126663   3.787   1.752   5.291 -0.6198 -0.1565  0.6531
 5068SOL    HW226664   3.735   1.793   5.429  1.5922 -0.7194  0.8025
 5069SOL     OW26665   0.228   3.203  12.423 -0.1008 -0.0387 -0.3607
 5069SOL    HW126666   0.310   3.241  12.391 -1.6725  2.2658 -1.6631
 5069SOL    HW226667   0.252   3.173  12.510 -1.3399  3.8600  1.3485
 5070SOL     OW26668   0.316   3.388  15.352 -0.2614  0.3774  0.3607
 5070SOL    HW126669   0.286   3.298  15.349 -2.9132  1.2486  0.9784
 5070SOL    HW226670   0.259   3.443  15.299 -2.4175 -0.7278  1.5145
 5071SOL     OW26671   4.304   3.165   1.571  0.5366  0.0178 -0.7734
 5071SOL    HW126672   4.273   3.238   1.518 -0.1610  0.5638  0.3887
 5071SOL    HW226673   4.241   3.101   1.538  2.0391 -1.6257 -0.4804
 5072SOL     OW26674   1.818   0.617   2.658  0.8376 -0.5126 -0.5618
 5072SOL    HW126675   1.872   0.563   2.715 -0.0507 -1.6256 -0.7873
 5072SOL    HW226676   1.734   0.605   2.704  0.9268 -1.1005 -0.5537
 5073SOL     OW26677   4.362   4.447   8.470 -0.0370  0.2628  0.5337
 5073SOL    HW126678   4.344   4.368   8.420  0.7179  0.9726 -0.8440
 5073SOL    HW226679   4.427   4.402   8.524  0.9832  2.4056  1.0814
 5074SOL     OW26680   2.285   4.275  14.649  0.2430  0.0310 -0.0515
 5074SOL    HW126681   2.279   4.277  14.553 -0.0992  0.8677 -0.0174
 5074SOL    HW226682   2.370   4.233  14.651  0.5569  0.4742 -3.1475
 5075SOL     OW26683   1.808   0.500   6.653 -0.3516  0.6493  0.2815
 5075SOL    HW126684   1.753   0.498   6.731 -1.0525  0.4912 -0.2088
 5075SOL    HW226685   1.765   0.425   6.613  0.3195  0.9287 -0.9637
 5076SOL     OW26686   1.864   0.738  16.427 -0.1388  0.4099 -0.1701
 5076SOL    HW126687   1.957   0.733  16.447 -0.3855  0.2525  0.9511
 5076SOL    HW226688   1.867   0.736  16.331 -1.0923 -1.4531 -0.1762
 5077SOL     OW26689   3.114   0.440   6.490  0.3910 -0.0805 -0.4067
 5077SOL    HW126690   3.200   0.463   6.526 -0.1551  0.9818  0.2393
 5077SOL    HW226691   3.069   0.440   6.574  0.8713 -1.9101 -0.1673
 5078SOL     OW26692   0.632   4.377  17.609 -0.1095 -0.3898 -0.2993
 5078SOL    HW126693   0.559   4.422  17.652 -0.9131 -3.7894  1.9142
 5078SOL    HW226694   0.703   4.390  17.672 -1.2802 -1.4204  1.2317
 5079SOL     OW26695   0.285   4.283   5.088 -1.3054 -0.4442  0.0677
 5079SOL    HW126696   0.226   4.272   5.162 -0.8666 -0.7985  0.3601
 5079SOL    HW226697   0.353   4.334   5.132 -2.7218 -0.0410  1.8068
 5080SOL     OW26698   0.194   4.401   7.271  0.0424 -0.4220  0.0986
 5080SOL    HW126699   0.169   4.365   7.357  1.7222 -0.6847  0.4683
 5080SOL    HW226700   0.109   4.421   7.231  0.3753  1.5441  0.3900
 5081SOL     OW26701   3.963   3.923   5.287 -0.3467 -0.6742 -0.4188
 5081SOL    HW126702   3.986   4.006   5.246  1.2455 -1.8109 -1.7918
 5081SOL    HW226703   3.879   3.913   5.243 -0.9522 -0.2925  0.6346
 5082SOL     OW26704   3.744   4.109   2.357 -0.0709  0.1175 -0.2040
 5082SOL    HW126705   3.696   4.103   2.275 -0.0641 -1.6650 -0.0641
 5082SOL    HW226706   3.686   4.069   2.421 -0.1813  0.9191  0.2056
 5083SOL     OW26707   1.789   3.636   3.445 -0.6023  0.3699 -0.0556
 5083SOL    HW126708   1.828   3.587   3.372  1.1253 -0.3880  1.3777
 5083SOL    HW226709   1.711   3.676   3.405 -1.2806  0.5278  1.4494
 5084SOL     OW26710   4.419   2.990   4.192 -0.3993 -0.7788  0.2024
 5084SOL    HW126711   4.358   2.917   4.191 -2.1685  0.6732  2.4225
 5084SOL    HW226712   4.368   3.068   4.170  0.9939 -0.1950 -1.0234
 5085SOL     OW26713   3.050   0.886   8.870 -0.3173  0.5595  0.1159
 5085SOL    HW126714   3.101   0.959   8.836 -0.8964  0.6296 -0.6216
 5085SOL    HW226715   3.059   0.824   8.797 -0.2184  1.4071 -0.5855
 5086SOL     OW26716   0.458   2.858   7.381 -0.1463 -0.0718  0.5242
 5086SOL    HW126717   0.492   2.854   7.292 -0.7309  3.9101  0.1325
 5086SOL    HW226718   0.463   2.950   7.405  0.8740 -0.1921  0.7675
 5087SOL     OW26719   3.562   1.737   3.863  0.0858  0.0162  0.3409
 5087SOL    HW126720   3.650   1.775   3.869  0.8604 -1.6808 -0.1419
 5087SOL    HW226721   3.547   1.753   3.770  3.4204 -0.9422 -0.3667
 5088SOL     OW26722   2.647   0.257  11.306 -0.2986  0.2597 -0.0133
 5088SOL    HW126723   2.576   0.288  11.250  0.9780  1.0774 -1.1899
 5088SOL    HW226724   2.709   0.219  11.244 -2.1231 -0.6204 -1.3008
 5089SOL     OW26725   0.503   2.536   1.781  0.3342  0.1569  0.1701
 5089SOL    HW126726   0.519   2.594   1.855 -1.9536 -0.1432  0.8987
 5089SOL    HW226727   0.415   2.565   1.757  0.9113  1.6758 -0.0514
 5090SOL     OW26728   3.516   2.334   8.236  0.3084 -0.3254  0.3162
 5090SOL    HW126729   3.528   2.422   8.272  2.0943  0.4025 -2.0548
 5090SOL    HW226730   3.607   2.304   8.237  0.3107 -0.3726 -2.7558
 5091SOL     OW26731   2.309   0.287  16.983 -0.1625  0.2621 -0.0124
 5091SOL    HW126732   2.238   0.351  16.986  0.0611  0.4402  1.5977
 5091SOL    HW226733   2.289   0.248  17.068  0.7137  0.4404  0.2782
 5092SOL     OW26734   2.250   3.107   5.086 -0.0803  0.4999  0.4253
 5092SOL    HW126735   2.311   3.158   5.139 -1.8879  1.3256  1.6836
 5092SOL    HW226736   2.296   3.103   5.001 -1.3520  1.0255 -0.2753
 5093SOL     OW26737   2.047   0.246   9.176  0.1802  0.4051 -0.5995
 5093SOL    HW126738   2.118   0.287   9.126 -0.5240 -0.1021 -1.9989
 5093SOL    HW226739   2.025   0.316   9.238  0.9799  0.7278 -0.6805
 5094SOL     OW26740   0.920   0.153  11.012 -1.0360 -0.3141  0.0089
 5094SOL    HW126741   0.938   0.225  10.952  2.4395 -0.3346  1.0414
 5094SOL    HW226742   0.970   0.173  11.091  0.8668  3.0521 -2.0559
 5095SOL     OW26743   0.667   0.346  11.283  0.9114 -0.4413 -0.7817
 5095SOL    HW126744   0.679   0.251  11.274  0.1354 -0.2980 -3.3719
 5095SOL    HW226745   0.751   0.374  11.320 -0.2041  0.3724  1.1001
 5096SOL     OW26746   3.939   0.656  16.460 -0.5836  0.3872 -0.0952
 5096SOL    HW126747   3.886   0.681  16.385 -0.2123 -0.6083 -0.6894
 5096SOL    HW226748   3.965   0.568  16.434 -0.6160 -0.1009  1.4811
 5097SOL     OW26749   1.199   1.513   8.824  0.0721 -0.0061 -0.3578
 5097SOL    HW126750   1.210   1.606   8.806  1.1013 -0.1898 -0.7233
 5097SOL    HW226751   1.288   1.476   8.827 -0.5088 -1.5024 -1.5087
 5098SOL     OW26752   0.417   0.293   5.980  0.1657  0.4616  0.5485
 5098SOL    HW126753   0.369   0.331   6.053  1.2189 -0.8365  1.9335
 5098SOL    HW226754   0.361   0.313   5.905 -1.7528 -1.3398  1.4913
 5099SOL     OW26755   3.382   4.404   6.087 -0.1856  0.4177  0.3392
 5099SOL    HW126756   3.356   4.459   6.161  1.5107  0.6387  0.7674
 5099SOL    HW226757   3.332   4.324   6.105  1.6567 -0.8039  0.0393
 5100SOL     OW26758   3.802   4.324   8.700  0.6805 -0.1146  0.2998
 5100SOL    HW126759   3.855   4.253   8.735 -0.2976 -1.1120 -0.2717
 5100SOL    HW226760   3.738   4.268   8.658  2.5178  0.6686 -3.5341
 5101SOL     OW26761   2.841   3.029  17.401 -0.1218  0.7530 -0.1662
 5101SOL    HW126762   2.825   2.980  17.321 -0.3601 -0.7014  0.7642
 5101SOL    HW226763   2.898   2.964  17.443 -0.1526  0.5105 -0.5023
 5102SOL     OW26764   3.839   2.900   7.824 -0.4378  0.3816 -0.2789
 5102SOL    HW126765   3.843   2.944   7.908 -1.7224 -1.6236  0.8344
 5102SOL    HW226766   3.879   2.968   7.770 -0.7517  0.3903 -0.5028
 5103SOL     OW26767   0.350   1.121   4.784  0.2212  0.3063 -0.0663
 5103SOL    HW126768   0.404   1.044   4.801  0.9402  0.8914  0.2999
 5103SOL    HW226769   0.423   1.178   4.761  0.1957  0.2595 -0.2643
 5104SOL     OW26770   0.529   2.317  10.796  0.6878  0.0456 -0.1011
 5104SOL    HW126771   0.557   2.226  10.787 -0.9880 -0.4477 -0.3301
 5104SOL    HW226772   0.611   2.363  10.816  0.5443 -0.3719  1.4878
 5105SOL     OW26773   4.295   4.287   6.060 -0.0411  0.5887  0.5267
 5105SOL    HW126774   4.332   4.353   6.002  0.0421  0.1324  0.0589
 5105SOL    HW226775   4.205   4.288   6.028 -0.2610  1.2405  1.1586
 5106SOL     OW26776   1.659   4.526   5.812 -0.3119 -0.2500 -0.3986
 5106SOL    HW126777   1.610   4.608   5.809  0.0508 -0.0831 -1.9874
 5106SOL    HW226778   1.601   4.468   5.763  1.4991 -0.5553 -2.1664
 5107SOL     OW26779   0.385   0.899  12.148  0.1676  0.2065  0.4015
 5107SOL    HW126780   0.367   0.967  12.213 -0.3998  0.3085  0.1381
 5107SOL    HW226781   0.416   0.954  12.075  0.7408 -0.0737  0.4316
 5108SOL     OW26782   3.149   0.731  11.565  0.2379 -0.1997 -0.7881
 5108SOL    HW126783   3.146   0.725  11.470 -1.5922  0.3287 -0.7814
 5108SOL    HW226784   3.065   0.690  11.588  1.0963 -1.6959 -0.3589
 5109SOL     OW26785   0.825   2.041   7.275  0.5524  0.5996  0.5518
 5109SOL    HW126786   0.736   2.044   7.241  0.7514 -2.5783 -0.2650
 5109SOL    HW226787   0.869   2.020   7.192 -0.2878 -0.2973  0.3411
 5110SOL     OW26788   0.235   2.029   6.893 -0.2599  0.0377 -0.5026
 5110SOL    HW126789   0.152   2.008   6.936  0.4816 -0.4571  0.6827
 5110SOL    HW226790   0.277   2.071   6.968  1.7366  1.5016 -2.4230
 5111SOL     OW26791   2.461   2.478   6.321  0.4072  0.1371 -0.3362
 5111SOL    HW126792   2.530   2.538   6.351 -0.3200  0.9634 -0.3501
 5111SOL    HW226793   2.391   2.542   6.309  0.2295 -0.0084 -0.0899
 5112SOL     OW26794   3.623   3.424   4.223  0.2836 -0.2267  0.0062
 5112SOL    HW126795   3.584   3.339   4.201 -2.2223  0.5840  1.3299
 5112SOL    HW226796   3.625   3.479   4.145  1.0496 -2.3880 -1.4851
 5113SOL     OW26797   1.848   4.544   0.645 -0.0290 -0.0007  0.0083
 5113SOL    HW126798   1.937   4.573   0.623 -0.5738  1.6909  0.0177
 5113SOL    HW226799   1.845   4.579   0.734 -1.2653 -0.9503  0.3229
 5114SOL     OW26800   4.353   3.024  11.282 -0.8495 -0.4809  0.0825
 5114SOL    HW126801   4.415   3.082  11.237 -0.1731 -0.3319  1.1741
 5114SOL    HW226802   4.316   3.077  11.353  2.0367  2.1431 -0.3250
 5115SOL     OW26803   0.948   2.744  12.839  0.7630  0.3775  0.2669
 5115SOL    HW126804   0.947   2.840  12.848  0.3683  0.2416  1.7462
 5115SOL    HW226805   1.038   2.733  12.807 -0.1681 -2.2433 -1.3514
 5116SOL     OW26806   0.418   3.022   5.074  0.1420  0.4011 -0.6216
 5116SOL    HW126807   0.463   3.061   5.150  0.7672 -0.7538 -0.3943
 5116SOL    HW226808   0.489   3.016   5.011  1.2656  0.5338  0.6127
 5117SOL     OW26809   2.349   3.804   2.930  0.1704 -0.5537 -0.2612
 5117SOL    HW126810   2.430   3.818   2.879 -1.4556  2.5176 -2.0110
 5117SOL    HW226811   2.292   3.758   2.869  0.8178 -1.4503 -0.1862
 5118SOL     OW26812   3.304   3.372   3.610  0.2664 -0.4809  0.0346
 5118SOL    HW126813   3.340   3.427   3.540  0.3804 -1.6487 -0.8351
 5118SOL    HW226814   3.226   3.419   3.639  0.3323 -0.2942 -0.0939
 5119SOL     OW26815   3.488   3.370   7.463  0.0329  0.1880  0.4938
 5119SOL    HW126816   3.422   3.433   7.494 -0.9408 -0.3357 -0.5144
 5119SOL    HW226817   3.532   3.418   7.393  1.5995 -1.8804  0.0846
 5120SOL     OW26818   3.062   0.332   1.172 -0.5762  0.2080 -0.6039
 5120SOL    HW126819   3.134   0.310   1.113  1.3239  0.5547  1.6152
 5120SOL    HW226820   3.098   0.413   1.208 -0.8438  0.1065 -0.1057
 5121SOL     OW26821   1.035   4.530   5.090 -0.1016 -0.2972  0.4496
 5121SOL    HW126822   1.118   4.537   5.044 -1.1532 -1.7749 -1.6820
 5121SOL    HW226823   1.015   4.444   5.053  1.5709 -1.0798  1.3699
 5122SOL     OW26824   0.267   0.226   6.663  0.6065 -0.4901 -0.0157
 5122SOL    HW126825   0.313   0.169   6.602  0.9917 -0.6393  0.4131
 5122SOL    HW226826   0.298   0.193   6.747  1.2423  0.4811  0.1316
 5123SOL     OW26827   1.770   4.165   2.271  0.8891 -0.1698  0.4931
 5123SOL    HW126828   1.711   4.106   2.318 -1.3407  1.2064 -0.5825
 5123SOL    HW226829   1.811   4.219   2.338  1.4190  1.7171 -1.3598
 5124SOL     OW26830   3.798   2.431   6.262  0.5942  0.1315 -0.1621
 5124SOL    HW126831   3.871   2.485   6.292  0.3765 -0.0991  0.7962
 5124SOL    HW226832   3.824   2.408   6.173 -1.4670  2.0616 -1.2644
 5125SOL     OW26833   3.734   2.137   3.680 -0.2825  0.2755  0.0744
 5125SOL    HW126834   3.785   2.203   3.632 -0.1893  0.1270 -0.0280
 5125SOL    HW226835   3.660   2.138   3.620 -0.9620  0.5485  0.9228
 5126SOL     OW26836   4.377   2.730   6.246 -0.1997 -0.5401 -0.2547
 5126SOL    HW126837   4.302   2.717   6.304 -0.3124  0.3574 -0.2055
 5126SOL    HW226838   4.335   2.732   6.161 -0.9857  1.1150  0.1735
 5127SOL     OW26839   3.743   3.656   1.376 -0.0763  0.4073 -0.4920
 5127SOL    HW126840   3.780   3.568   1.386  0.4869  0.7113  0.1240
 5127SOL    HW226841   3.822   3.710   1.375  0.1806  0.0310 -0.4335
 5128SOL     OW26842   4.483   3.375  11.459  0.3631  0.2442  0.0129
 5128SOL    HW126843   4.494   3.465  11.489  0.6721 -0.3281  1.6283
 5128SOL    HW226844   4.449   3.321  11.530 -0.6389 -0.0767 -0.7072
 5129SOL     OW26845   1.044   4.681   7.955 -0.3735  0.1238  0.3065
 5129SOL    HW126846   1.008   4.592   7.953 -2.7788  1.1813 -4.1489
 5129SOL    HW226847   1.011   4.710   7.870 -0.0085 -0.4694 -0.0350
 5130SOL     OW26848   3.835   2.489   6.663 -0.2508 -0.1549 -0.1362
 5130SOL    HW126849   3.881   2.462   6.743 -1.6041  2.0659  1.4162
 5130SOL    HW226850   3.890   2.453   6.594 -0.3056 -1.9187  0.7406
 5131SOL     OW26851   4.447   2.457   7.528 -0.5040  0.1106 -0.6418
 5131SOL    HW126852   4.450   2.363   7.544 -0.0707  0.4552  1.2610
 5131SOL    HW226853   4.535   2.489   7.509 -0.1102  2.2451  4.8730
 5132SOL     OW26854   4.291   0.315  15.068 -0.6172 -0.3874  0.1837
 5132SOL    HW126855   4.339   0.367  15.004 -0.5865  0.2913  0.7607
 5132SOL    HW226856   4.359   0.293  15.131  1.0713 -1.1134 -1.8864
 5133SOL     OW26857   0.008   0.729   3.452  0.1619 -0.0336  0.2190
 5133SOL    HW126858   0.068   0.778   3.396  0.8700 -1.6261 -0.4283
 5133SOL    HW226859   0.074   0.687   3.507 -0.0444 -1.2415 -0.4618
 5134SOL     OW26860   2.022   2.756   6.440  0.0178  0.1645 -0.0778
 5134SOL    HW126861   2.012   2.801   6.356 -0.7632  2.5967  1.3189
 5134SOL    HW226862   2.026   2.667   6.405  0.6291 -0.1973  0.9172
 5135SOL     OW26863   2.778   3.116   5.573 -0.7508 -0.0067  0.3783
 5135SOL    HW126864   2.805   3.025   5.580  1.2325  0.5531 -0.0064
 5135SOL    HW226865   2.862   3.160   5.559 -0.5869 -0.2710  0.5235
 5136SOL     OW26866   4.124   2.458   4.620  0.4985 -0.4026  0.1541
 5136SOL    HW126867   4.071   2.482   4.544  0.4301  0.4169  0.4603
 5136SOL    HW226868   4.107   2.364   4.624 -2.0826  0.0571 -0.5077
 5137SOL     OW26869   1.403   1.356   7.018 -0.0260  0.2729  0.9061
 5137SOL    HW126870   1.415   1.287   6.953  1.4611  1.0184  0.3740
 5137SOL    HW226871   1.344   1.415   6.970  0.4723 -1.7114 -2.1531
 5138SOL     OW26872   0.835   2.463   5.433  0.3756  0.1522  0.6836
 5138SOL    HW126873   0.798   2.410   5.504 -2.0436 -0.9061 -1.3944
 5138SOL    HW226874   0.903   2.503   5.488  1.6261 -0.0662 -0.7327
 5139SOL     OW26875   3.495   4.170   6.275 -0.0793 -0.0894  0.4326
 5139SOL    HW126876   3.431   4.129   6.333  1.3604  0.7383  2.5866
 5139SOL    HW226877   3.447   4.139   6.198 -1.8725  1.8708  0.7569
 5140SOL     OW26878   2.376   0.540   6.199  0.1176 -0.0796  0.4098
 5140SOL    HW126879   2.323   0.502   6.269  0.1241 -0.0293  0.4415
 5140SOL    HW226880   2.392   0.458   6.153  1.7983  0.7229 -0.4319
 5141SOL     OW26881   2.536   1.154  14.034 -0.0077 -0.4460 -0.1584
 5141SOL    HW126882   2.500   1.086  14.091 -0.8614 -0.6271 -0.9205
 5141SOL    HW226883   2.475   1.160  13.960  0.4726  1.9408 -0.3619
 5142SOL     OW26884   3.021   0.460   5.412  1.0314  0.0903 -0.3869
 5142SOL    HW126885   3.023   0.532   5.476 -0.0017 -1.0618  0.9325
 5142SOL    HW226886   3.047   0.496   5.327  1.5759  0.7978  0.0766
 5143SOL     OW26887   1.426   2.632   6.609 -0.4359  0.6518  0.0504
 5143SOL    HW126888   1.374   2.704   6.574 -0.5963 -0.1572 -1.3744
 5143SOL    HW226889   1.489   2.603   6.542  0.7544  1.7982  0.6693
 5144SOL     OW26890   3.644   0.164   8.376  0.3125  0.0921  0.4902
 5144SOL    HW126891   3.583   0.179   8.304  0.4219 -2.3256 -0.1141
 5144SOL    HW226892   3.688   0.092   8.331  1.0268 -0.4258  2.0126
 5145SOL     OW26893   0.016   2.146   5.423 -0.9599  0.2916  0.1987
 5145SOL    HW126894   0.047   2.125   5.335  2.9652  0.6418  1.5029
 5145SOL    HW226895   4.707   2.236   5.413 -0.1462  0.7262  1.3496
 5146SOL     OW26896   0.174   2.689   6.603 -0.1378  0.2190 -0.5298
 5146SOL    HW126897   0.147   2.780   6.611 -0.7344 -0.0101  0.0997
 5146SOL    HW226898   0.148   2.659   6.516  0.8803 -2.1766 -0.0377
 5147SOL     OW26899   0.617   1.878  14.420 -0.2687  0.6727  0.8789
 5147SOL    HW126900   0.637   1.955  14.366 -0.5292 -1.2912 -2.0345
 5147SOL    HW226901   0.656   1.806  14.370  0.5827  0.4081  1.9195
 5148SOL     OW26902   0.588   0.131   4.133  0.4644 -0.2786 -0.5594
 5148SOL    HW126903   0.629   0.182   4.204 -1.4154  2.4718 -1.4516
 5148SOL    HW226904   0.539   0.066   4.183 -3.5563  1.3726 -2.3868
 5149SOL     OW26905   0.265   1.868   4.993  0.0232 -0.3997 -0.1515
 5149SOL    HW126906   0.191   1.915   4.953  1.4534  1.9086 -0.0606
 5149SOL    HW226907   0.325   1.845   4.922 -0.6426  2.2369 -1.5948
 5150SOL     OW26908   0.486   1.212   3.256 -0.2135 -0.2971  0.2044
 5150SOL    HW126909   0.408   1.177   3.213 -1.3626  1.3615  0.9446
 5150SOL    HW226910   0.443   1.268   3.321 -0.0452  1.2936 -1.0521
 5151SOL     OW26911   2.412   4.493   9.681  0.1648 -0.4112  0.0294
 5151SOL    HW126912   2.360   4.490   9.762 -1.1242 -0.2005 -0.7910
 5151SOL    HW226913   2.486   4.551   9.698 -1.4043  1.4898  0.4433
 5152SOL     OW26914   0.589   3.583  16.377  0.1187 -0.3255 -0.1132
 5152SOL    HW126915   0.626   3.512  16.430  0.6408  0.7219  0.9340
 5152SOL    HW226916   0.665   3.618  16.331 -1.4620  0.2604 -2.2823
 5153SOL     OW26917   1.909   0.112   4.966 -0.5947 -0.3131  0.3026
 5153SOL    HW126918   1.948   0.080   4.884 -2.9169 -1.9222 -0.1901
 5153SOL    HW226919   1.820   0.075   4.964 -0.2602 -1.0856 -0.5472
 5154SOL     OW26920   4.626   3.283   5.716 -0.1443 -0.4674  0.5145
 5154SOL    HW126921   4.671   3.199   5.712 -0.4623 -0.5939 -0.2782
 5154SOL    HW226922   4.618   3.299   5.622  0.7753 -0.5437  0.4200
 5155SOL     OW26923   2.138   3.158   4.688  0.3961 -0.1139  0.0533
 5155SOL    HW126924   2.193   3.123   4.618  0.4606  1.2581 -0.5715
 5155SOL    HW226925   2.162   3.251   4.686  0.6079 -0.2832 -3.9061
 5156SOL     OW26926   0.444   4.627   4.618 -0.5771 -0.1702 -0.1656
 5156SOL    HW126927   0.402   4.642   4.533  1.3724 -2.1766 -1.4732
 5156SOL    HW226928   0.520   4.682   4.600  0.1020 -1.6034 -1.5929
 5157SOL     OW26929   0.442   1.934  13.703 -0.1007 -0.3377  0.4729
 5157SOL    HW126930   0.464   1.981  13.622 -0.2909 -1.6639 -0.3486
 5157SOL    HW226931   0.510   1.950  13.768  0.1751 -2.6119  0.7601
 5158SOL     OW26932   4.619   0.059   4.615  0.0387  0.2321 -0.3549
 5158SOL    HW126933   4.640   4.690   4.614  0.6956  0.3663  0.3092
 5158SOL    HW226934   4.636   0.083   4.524 -0.6644  1.5349 -0.1462
 5159SOL     OW26935   0.708   0.874  15.523 -0.0383 -0.1178  0.4581
 5159SOL    HW126936   0.747   0.886  15.436 -1.4798  0.8121 -0.0575
 5159SOL    HW226937   0.675   0.785  15.507 -0.2268  0.1040 -0.3685
 5160SOL     OW26938   2.592   2.763   2.613  0.3680 -0.2488 -0.1966
 5160SOL    HW126939   2.626   2.693   2.669  0.6049  0.4818  0.5818
 5160SOL    HW226940   2.641   2.835   2.652  1.1528 -0.3725 -0.9611
 5161SOL     OW26941   3.190   2.508   7.946  0.2352 -0.1461  0.0081
 5161SOL    HW126942   3.168   2.425   7.988 -1.1027  0.0001 -0.4121
 5161SOL    HW226943   3.227   2.544   8.027  0.8928 -0.8309  0.0144
 5162SOL     OW26944   4.467   0.604   6.885 -0.2395  0.1296 -0.2776
 5162SOL    HW126945   4.474   0.559   6.801  1.6555 -1.4439  0.7195
 5162SOL    HW226946   4.403   0.547   6.927 -0.3820 -0.1458 -0.8678
 5163SOL     OW26947   0.976   3.073   9.844  0.3227  0.0305 -0.2806
 5163SOL    HW126948   0.902   3.078   9.904  0.4529  0.9606 -0.1962
 5163SOL    HW226949   0.943   3.013   9.777  3.0883 -2.3897  0.5237
 5164SOL     OW26950   1.559   0.546   6.005 -0.0008  0.3650  0.0129
 5164SOL    HW126951   1.619   0.475   6.028 -0.9326  0.4504  2.7423
 5164SOL    HW226952   1.492   0.524   6.070 -3.4393  1.0381 -3.2959
 5165SOL     OW26953   1.346   0.960   7.975 -0.0210  0.3687 -0.2214
 5165SOL    HW126954   1.346   0.997   8.064 -1.6540  1.3271 -0.6322
 5165SOL    HW226955   1.306   1.029   7.923 -0.2175  0.3816 -0.0511
 5166SOL     OW26956   0.081   2.225   8.355  0.2391  0.1032  0.4264
 5166SOL    HW126957   0.122   2.212   8.269 -0.4359 -1.1855  0.2867
 5166SOL    HW226958   0.117   2.162   8.418 -2.6780 -1.8334  0.1461
 5167SOL     OW26959   3.923   0.193  12.880  0.5809 -0.1605  0.5055
 5167SOL    HW126960   3.932   0.272  12.827  0.4020 -1.2007 -1.0697
 5167SOL    HW226961   3.994   0.143  12.840  1.4782  2.9923 -1.7922
 5168SOL     OW26962   0.222   2.218   1.908  0.1793  0.9651  0.6143
 5168SOL    HW126963   0.313   2.203   1.880  0.0468 -0.3608  0.8999
 5168SOL    HW226964   0.189   2.128   1.908 -1.4531  1.5621  0.9227
 5169SOL     OW26965   4.693   3.532  16.334  0.1756  0.6778 -0.8016
 5169SOL    HW126966   4.644   3.468  16.282 -0.9473 -0.2373  1.3938
 5169SOL    HW226967   0.030   3.477  16.382 -0.9691 -0.6073 -0.7903
 5170SOL     OW26968   3.867   2.596  16.563 -0.4313  0.0225  0.0441
 5170SOL    HW126969   3.900   2.675  16.607 -2.0329  1.1144 -0.7134
 5170SOL    HW226970   3.943   2.581  16.507 -0.4501  0.5896 -0.1349
 5171SOL     OW26971   1.375   0.844  12.349  0.1301  0.1151 -0.2634
 5171SOL    HW126972   1.332   0.840  12.435  0.1321  1.2893 -0.2160
 5171SOL    HW226973   1.465   0.832  12.380 -0.4903  0.6663  1.7817
 5172SOL     OW26974   1.522   0.909   9.726  0.8478 -0.1715 -0.3020
 5172SOL    HW126975   1.527   0.876   9.637  0.9243  0.8294 -0.6707
 5172SOL    HW226976   1.431   0.938   9.728  0.0308 -2.4674 -3.9555
 5173SOL     OW26977   4.244   2.992   9.473 -0.2488  0.1007  0.3460
 5173SOL    HW126978   4.339   2.977   9.469 -0.2836 -0.2560  0.9574
 5173SOL    HW226979   4.238   3.064   9.409  1.2999  1.7935  2.0943
 5174SOL     OW26980   1.040   2.780   1.520  0.0772 -0.3789  0.6099
 5174SOL    HW126981   1.083   2.843   1.577 -0.2098  0.2979  0.0744
 5174SOL    HW226982   1.117   2.753   1.470  1.6717 -0.3772  3.1017
 5175SOL     OW26983   3.424   2.766  12.219  0.0731 -0.1008  0.0169
 5175SOL    HW126984   3.340   2.720  12.226 -1.3639  2.4660 -0.6093
 5175SOL    HW226985   3.394   2.856  12.213 -0.6281 -0.4136 -1.2098
 5176SOL     OW26986   2.485   3.405   2.396  0.4171 -0.4592  0.2956
 5176SOL    HW126987   2.483   3.480   2.337 -1.8536 -0.6247  0.1801
 5176SOL    HW226988   2.419   3.351   2.353 -1.8008  1.3971  1.4128
 5177SOL     OW26989   1.838   3.251   3.922 -0.0854 -0.1241  0.0719
 5177SOL    HW126990   1.834   3.190   3.849  1.7375 -2.0479  1.5673
 5177SOL    HW226991   1.888   3.325   3.888  0.7964  0.4335  2.5657
 5178SOL     OW26992   2.476   3.770   7.868  0.1697  0.0112 -0.2160
 5178SOL    HW126993   2.506   3.697   7.814  1.3643  1.4013 -1.4382
 5178SOL    HW226994   2.559   3.813   7.887 -0.4446  1.0546  0.0762
 5179SOL     OW26995   0.612   0.863   8.103  0.1232  0.8230  0.3641
 5179SOL    HW126996   0.554   0.932   8.135 -1.3279 -0.0002 -0.4536
 5179SOL    HW226997   0.662   0.902   8.031  0.5901  0.1088  0.2924
 5180SOL     OW26998   3.393   2.001  12.302  0.1586 -0.5588  0.0703
 5180SOL    HW126999   3.324   1.935  12.296 -1.6835  1.3388  0.0409
 5180SOL    HW227000   3.405   1.986  12.395  0.5351 -1.2711 -0.0949
 5181SOL     OW27001   0.855   2.976   2.046 -0.2533 -0.1879 -0.2665
 5181SOL    HW127002   0.813   3.059   2.025 -0.6452  0.0205  1.3234
 5181SOL    HW227003   0.823   2.973   2.136 -4.2031 -1.0362 -1.7059
 5182SOL     OW27004   2.913   3.098  12.615 -0.1238  0.1036  0.1522
 5182SOL    HW127005   2.987   3.058  12.660 -0.3522 -1.2688 -0.6939
 5182SOL    HW227006   2.911   3.191  12.637  2.8098  0.0044  0.8100
 5183SOL     OW27007   2.545   0.636   4.844  0.3415 -0.1261  0.0671
 5183SOL    HW127008   2.620   0.617   4.787 -0.0039  1.3863 -0.9142
 5183SOL    HW227009   2.528   0.720   4.802 -0.5443 -0.1881  0.2957
 5184SOL     OW27010   1.626   0.627   2.874 -0.0320 -0.0792 -0.1289
 5184SOL    HW127011   1.618   0.558   2.940 -2.7532 -0.4941 -0.9263
 5184SOL    HW227012   1.642   0.695   2.940 -2.0044  0.1346  0.1218
 5185SOL     OW27013   1.682   1.486   4.809  0.0719 -0.3107 -0.1803
 5185SOL    HW127014   1.668   1.404   4.762  1.5795 -0.6350 -0.0529
 5185SOL    HW227015   1.707   1.446   4.893  2.0074  1.4373  0.0527
 5186SOL     OW27016   3.485   4.009   7.587 -0.1470  0.1902  0.4862
 5186SOL    HW127017   3.481   4.104   7.581 -2.1737  0.0585 -0.3722
 5186SOL    HW227018   3.575   3.999   7.617 -0.7483  0.2210  2.3214
 5187SOL     OW27019   1.533   3.871   3.568  0.2108  0.5399 -0.1223
 5187SOL    HW127020   1.475   3.797   3.584  2.2265 -0.9238  0.3268
 5187SOL    HW227021   1.551   3.860   3.474 -1.1690  1.8865 -0.5669
 5188SOL     OW27022   0.304   4.359   5.515  0.2708 -0.2965  0.5562
 5188SOL    HW127023   0.312   4.342   5.421  0.8723 -0.5815  0.6535
 5188SOL    HW227024   0.242   4.287   5.528  0.2373 -0.1687  1.1106
 5189SOL     OW27025   2.599   2.419   6.860 -0.3777  0.5517  0.0088
 5189SOL    HW127026   2.694   2.419   6.870 -0.2387  1.0183 -1.3667
 5189SOL    HW227027   2.568   2.477   6.930  1.0149  1.5902 -0.2346
 5190SOL     OW27028   4.130   3.240   6.604  0.1032 -0.4435  0.2644
 5190SOL    HW127029   4.061   3.278   6.659  3.8849 -0.7577  5.2446
 5190SOL    HW227030   4.156   3.318   6.557 -0.3484 -0.8410 -0.6470
 5191SOL     OW27031   2.030   4.607  15.591  0.3287  0.5568  0.2777
 5191SOL    HW127032   2.119   4.637  15.569 -0.2220  1.3879 -0.8282
 5191SOL    HW227033   1.983   4.593  15.509 -0.4927 -2.3320  1.2408
 5192SOL     OW27034   2.233   3.340   7.373  0.1641  0.1007  0.9880
 5192SOL    HW127035   2.217   3.434   7.373 -0.6670 -0.0395  0.8980
 5192SOL    HW227036   2.172   3.324   7.445  0.8539 -0.0986  1.5354
 5193SOL     OW27037   0.534   4.015   6.863  0.0650 -0.3711 -0.0094
 5193SOL    HW127038   0.488   3.951   6.808  1.6588 -1.0223 -0.5811
 5193SOL    HW227039   0.623   3.979   6.859  0.6819  1.0453  1.2097
 5194SOL     OW27040   0.434   4.525   1.895  0.6903  0.1021 -0.0073
 5194SOL    HW127041   0.387   4.568   1.966  0.1330 -1.7723  0.7648
 5194SOL    HW227042   0.516   4.574   1.882  1.2110 -0.2707  1.9636
 5195SOL     OW27043   3.779   2.326   2.331 -0.2925 -0.0927  0.2993
 5195SOL    HW127044   3.718   2.256   2.352  0.4843 -1.2788 -1.3016
 5195SOL    HW227045   3.820   2.341   2.416  0.5898 -0.6973 -0.0168
 5196SOL     OW27046   4.325   3.993   8.136 -0.2776 -0.1693 -0.1360
 5196SOL    HW127047   4.394   3.937   8.099  0.3201  0.8109 -0.5107
 5196SOL    HW227048   4.277   4.020   8.058 -0.5901 -1.0323 -0.2393
 5197SOL     OW27049   1.339   1.369  17.621  0.3221 -0.2412  0.1660
 5197SOL    HW127050   1.375   1.438  17.567  0.7777 -0.6162 -0.0084
 5197SOL    HW227051   1.412   1.308  17.607  0.0508 -0.7803  1.0522
 5198SOL     OW27052   1.838   4.223   3.432  0.1141  0.2714 -0.2108
 5198SOL    HW127053   1.902   4.186   3.492 -0.2389 -2.7897 -1.7151
 5198SOL    HW227054   1.754   4.198   3.472 -1.1654  3.8262 -0.6737
 5199SOL     OW27055   3.359   2.560   3.760  0.0987  0.7348 -0.0193
 5199SOL    HW127056   3.321   2.620   3.696  1.8330 -0.3243 -2.0165
 5199SOL    HW227057   3.305   2.589   3.834 -0.0068  1.0968 -0.2403
 5200SOL     OW27058   2.551   3.690   4.801 -0.9529 -0.5456  0.6470
 5200SOL    HW127059   2.475   3.728   4.757 -0.0355 -1.3005 -1.5885
 5200SOL    HW227060   2.545   3.740   4.882 -2.2906  0.2568  0.0621
 5201SOL     OW27061   4.043   0.598  13.067  0.3079 -0.1118  0.0047
 5201SOL    HW127062   4.116   0.561  13.019  0.5299  0.9726 -0.4854
 5201SOL    HW227063   4.054   0.552  13.151  0.4261  0.1504  0.1323
 5202SOL     OW27064   3.192   0.248   4.737  0.4799  0.4846 -0.4993
 5202SOL    HW127065   3.151   0.238   4.651  0.5336 -0.5271 -0.4027
 5202SOL    HW227066   3.284   0.231   4.718  1.0867  0.9926  1.9818
 5203SOL     OW27067   3.501   0.056  11.337 -0.0120 -0.8256 -0.4395
 5203SOL    HW127068   3.565   0.126  11.345 -2.4069  0.9664  3.1113
 5203SOL    HW227069   3.547   0.012  11.265 -1.5244 -0.2507 -1.7553
 5204SOL     OW27070   3.994   3.044  10.661 -0.6884  0.1209 -0.5572
 5204SOL    HW127071   4.076   3.017  10.620 -1.3423 -0.1994 -1.6347
 5204SOL    HW227072   4.020   3.116  10.719 -2.5229 -0.7532  1.3384
 5205SOL     OW27073   2.066   2.605   2.141  0.0602 -0.0108 -0.4308
 5205SOL    HW127074   2.096   2.686   2.100 -0.0067  0.2670  0.0750
 5205SOL    HW227075   1.999   2.637   2.201  1.2671  0.1839  0.8200
 5206SOL     OW27076   0.951   3.462   3.568 -0.1657 -0.0834 -0.4732
 5206SOL    HW127077   0.964   3.431   3.478  1.5490 -0.2702 -0.1687
 5206SOL    HW227078   0.888   3.531   3.549 -2.0269 -2.1282 -1.7135
 5207SOL     OW27079   4.674   3.147   2.147  0.2057  0.1016  0.0591
 5207SOL    HW127080   4.613   3.128   2.219 -0.3201 -0.1496 -0.4528
 5207SOL    HW227081   4.664   3.062   2.103  0.4341  0.2955 -0.3668
 5208SOL     OW27082   3.285   4.334   4.650  0.6040  0.0474 -0.0260
 5208SOL    HW127083   3.304   4.284   4.730 -1.8917 -0.2877  0.3417
 5208SOL    HW227084   3.319   4.268   4.590  3.0496  0.8646  0.4610
 5209SOL     OW27085   2.130   0.037   6.578  0.1835  0.3138  0.1098
 5209SOL    HW127086   2.108   0.088   6.500 -2.5517 -2.7127 -1.1051
 5209SOL    HW227087   2.134   4.675   6.536 -0.6942  0.3098  0.0370
 5210SOL     OW27088   1.873   2.582  14.935 -0.0917  0.0061  0.1679
 5210SOL    HW127089   1.956   2.537  14.924  0.4366  0.6185  1.7797
 5210SOL    HW227090   1.866   2.635  14.855  0.7651 -2.2172 -1.3679
 5211SOL     OW27091   2.623   0.243   7.939 -0.8781 -0.0278 -0.3350
 5211SOL    HW127092   2.624   0.328   7.896  1.5108 -0.2131 -0.6638
 5211SOL    HW227093   2.581   0.270   8.021 -1.7606  1.2662 -1.2153
 5212SOL     OW27094   0.758   1.160   2.522  0.2407 -0.2330  0.5555
 5212SOL    HW127095   0.684   1.209   2.487  1.0499  0.5391 -0.0865
 5212SOL    HW227096   0.818   1.166   2.447  0.5688  1.3493  0.9543
 5213SOL     OW27097   2.610   2.937  11.043  0.4951  0.1611 -0.0393
 5213SOL    HW127098   2.549   2.924  11.116 -0.4167 -0.0537 -0.8312
 5213SOL    HW227099   2.642   3.023  11.071 -1.2249  0.8044 -0.0288
 5214SOL     OW27100   2.990   3.648  16.479 -0.4937  0.3239  0.0489
 5214SOL    HW127101   3.076   3.677  16.450  0.5402 -2.3177  0.4757
 5214SOL    HW227102   2.951   3.626  16.394 -1.2156 -2.0984  0.9891
 5215SOL     OW27103   1.335   1.156  16.429 -0.6996  0.2011  0.5985
 5215SOL    HW127104   1.388   1.219  16.477  0.1270  1.2844 -1.7198
 5215SOL    HW227105   1.409   1.113  16.388 -0.4597 -0.1344  1.4028
 5216SOL     OW27106   0.838   2.170   4.477 -0.1634  0.0386  0.0313
 5216SOL    HW127107   0.840   2.075   4.462 -0.4285  0.0101  0.1763
 5216SOL    HW227108   0.749   2.183   4.508 -1.0886 -3.7108 -0.9613
 5217SOL     OW27109   0.008   0.875   5.686 -0.2134 -0.3506 -0.2320
 5217SOL    HW127110   4.695   0.790   5.666 -4.1639  1.7819 -1.8943
 5217SOL    HW227111   0.004   0.879   5.782 -0.2151  1.8045 -0.3235
 5218SOL     OW27112   0.946   1.676   5.281  0.2189  0.4569  0.6475
 5218SOL    HW127113   0.902   1.636   5.206 -0.1202  2.1078 -0.0279
 5218SOL    HW227114   0.878   1.739   5.303  1.9152  2.6942 -0.5041
 5219SOL     OW27115   1.339   2.990   1.010 -0.5405  0.1016 -0.3945
 5219SOL    HW127116   1.277   3.011   0.941 -0.0309 -0.1637 -0.9290
 5219SOL    HW227117   1.393   2.927   0.963  0.6705  0.6610  0.2524
 5220SOL     OW27118   4.322   1.155   2.934  0.3230  0.4890 -0.3560
 5220SOL    HW127119   4.407   1.138   2.894 -0.5331 -0.4003 -1.7820
 5220SOL    HW227120   4.264   1.118   2.867  0.4672 -0.4693  0.0433
 5221SOL     OW27121   1.122   0.346   0.707  0.2220 -0.5518 -0.2274
 5221SOL    HW127122   1.200   0.295   0.727  0.5594 -1.4020 -3.6922
 5221SOL    HW227123   1.165   0.432   0.700  3.5125 -2.1405  0.5272
 5222SOL     OW27124   0.214   4.445   8.476 -0.1807 -0.1309 -0.4214
 5222SOL    HW127125   0.309   4.452   8.486 -0.2714  0.6233 -0.1328
 5222SOL    HW227126   0.173   4.530   8.462 -2.5008 -1.2913 -0.5978
 5223SOL     OW27127   2.909   0.892   6.819 -0.4745  0.3231  0.2382
 5223SOL    HW127128   2.896   0.840   6.898 -1.0306 -0.1427 -0.1607
 5223SOL    HW227129   2.988   0.942   6.841 -0.4825  0.5379 -0.2206
 5224SOL     OW27130   0.445   0.225   1.157  0.5260 -0.0185 -0.0942
 5224SOL    HW127131   0.432   0.239   1.251  0.2518  1.1079 -0.2924
 5224SOL    HW227132   0.532   0.186   1.155  1.3103  1.7563 -1.1670
 5225SOL     OW27133   0.768   3.662   4.882 -0.8058 -0.0406  0.0888
 5225SOL    HW127134   0.801   3.585   4.928 -0.7469 -1.1522 -1.8051
 5225SOL    HW227135   0.786   3.633   4.793 -2.4177 -0.0091 -0.2486
 5226SOL     OW27136   0.698   2.812   1.136 -0.5344  0.4093 -0.8200
 5226SOL    HW127137   0.773   2.773   1.091 -2.1435 -0.4423 -2.7542
 5226SOL    HW227138   0.740   2.889   1.174  0.1198 -0.3883  0.0598
 5227SOL     OW27139   4.526   2.733   7.414  0.1338  0.0227  0.0020
 5227SOL    HW127140   4.460   2.664   7.406  1.7906 -1.4760 -0.8182
 5227SOL    HW227141   4.544   2.728   7.508 -0.7996 -0.5566  0.1469
 5228SOL     OW27142   2.577   0.604   9.034  0.3436  0.0129  0.4396
 5228SOL    HW127143   2.589   0.535   9.099 -0.3908  0.8382  1.4564
 5228SOL    HW227144   2.527   0.671   9.081  1.2828  1.2981 -0.3953
 5229SOL     OW27145   1.424   2.692  13.147 -0.2914  0.6767 -0.3893
 5229SOL    HW127146   1.515   2.720  13.156 -0.2298 -0.0028  1.1151
 5229SOL    HW227147   1.397   2.702  13.238 -1.4081 -0.5022 -0.5872
 5230SOL     OW27148   0.143   4.707   3.529 -0.3337 -0.4513 -0.6388
 5230SOL    HW127149   0.221   4.697   3.584  0.0170 -0.8571 -1.2088
 5230SOL    HW227150   0.108   4.620   3.546 -0.8656 -0.5041 -2.0205
 5231SOL     OW27151   0.335   1.817   2.829 -0.1544 -0.1208 -0.4149
 5231SOL    HW127152   0.422   1.800   2.863  0.6617  3.0608 -0.8549
 5231SOL    HW227153   0.288   1.822   2.912  1.4303 -0.1020  0.4790
 5232SOL     OW27154   1.006   2.226  15.310 -0.3644  0.0985  0.3363
 5232SOL    HW127155   1.093   2.200  15.340  0.2429  1.6511 -0.0458
 5232SOL    HW227156   0.994   2.295  15.376 -0.2875  0.3543  0.0844
 5233SOL     OW27157   4.097   3.710   8.125  0.0717 -0.7606 -0.4910
 5233SOL    HW127158   4.162   3.659   8.078  0.6738  1.3938 -1.9537
 5233SOL    HW227159   4.108   3.690   8.218  1.8069 -1.6065 -0.8884
 5234SOL     OW27160   3.026   1.426  12.702 -0.3055 -0.4371 -0.1328
 5234SOL    HW127161   3.022   1.335  12.671  0.6401 -1.1864  1.9361
 5234SOL    HW227162   3.067   1.480  12.635  0.6382 -0.7393  0.2068
 5235SOL     OW27163   1.215   3.612   4.729 -0.2354 -0.4492 -0.4980
 5235SOL    HW127164   1.182   3.696   4.760 -2.5755 -0.7961 -1.9841
 5235SOL    HW227165   1.133   3.564   4.745 -1.5895  2.0514  0.1342
 5236SOL     OW27166   4.064   1.285   4.715  0.2411 -0.0415 -0.7120
 5236SOL    HW127167   4.081   1.361   4.771  0.1859  0.4692 -1.3857
 5236SOL    HW227168   4.144   1.233   4.718  0.2425  0.0304  0.2143
 5237SOL     OW27169   3.847   4.429  11.148  0.0112 -0.3900 -0.1130
 5237SOL    HW127170   3.868   4.352  11.096  0.6331 -0.3926  0.1494
 5237SOL    HW227171   3.844   4.490  11.074  2.2353  0.6116  0.6230
 5238SOL     OW27172   1.658   2.848   8.232 -0.8323  0.0247  0.5609
 5238SOL    HW127173   1.626   2.845   8.322  1.8753  1.5333  1.5317
 5238SOL    HW227174   1.735   2.794   8.247  0.1168  1.3262  0.3293
 5239SOL     OW27175   1.092   4.243   7.239 -0.2788  0.3821 -0.1902
 5239SOL    HW127176   1.172   4.275   7.279 -0.7020 -0.7545  1.5582
 5239SOL    HW227177   1.049   4.213   7.319  1.2035  0.7412  0.7384
 5240SOL     OW27178   3.703   3.454   6.164  0.3070 -0.7294 -0.2952
 5240SOL    HW127179   3.628   3.459   6.224  0.0355  0.0482 -0.7000
 5240SOL    HW227180   3.689   3.532   6.110  0.8691 -0.4113  0.0148
 5241SOL     OW27181   0.675   4.416   6.670 -0.2840  0.3056 -0.2112
 5241SOL    HW127182   0.615   4.469   6.617  2.0499  1.5912 -1.5630
 5241SOL    HW227183   0.613   4.375   6.730 -1.0782  0.0676 -1.1871
 5242SOL     OW27184   2.063   3.632   6.292  0.5209  0.1372 -0.4706
 5242SOL    HW127185   2.103   3.580   6.362  0.4553 -1.5679 -1.6915
 5242SOL    HW227186   2.144   3.680   6.275 -0.2623  1.9686  0.9682
 5243SOL     OW27187   0.745   1.671  15.994  0.1486 -0.5597  0.1564
 5243SOL    HW127188   0.667   1.638  16.039 -1.7049  3.0139 -0.4626
 5243SOL    HW227189   0.816   1.650  16.055  0.3379  2.7472  1.0992
 5244SOL     OW27190   3.641   0.057  14.202 -0.2845 -0.4732 -0.6051
 5244SOL    HW127191   3.696   0.060  14.280 -2.7063  2.8346  0.9512
 5244SOL    HW227192   3.594   4.701  14.224  0.3001 -0.7188 -0.2334
 5245SOL     OW27193   2.115   4.408  10.551 -0.0663 -0.4148  0.0769
 5245SOL    HW127194   2.102   4.397  10.645  2.6344  1.5331  0.6865
 5245SOL    HW227195   2.149   4.324  10.521  2.3002  0.3376  0.6595
 5246SOL     OW27196   1.228   0.411  16.606  0.6110  0.1370  0.2446
 5246SOL    HW127197   1.273   0.477  16.554 -1.9800  1.4304 -0.3219
 5246SOL    HW227198   1.239   0.449  16.694  1.1211  0.3739  0.0812
 5247SOL     OW27199   2.595   3.159   6.174 -0.1437 -0.0238  0.0006
 5247SOL    HW127200   2.540   3.130   6.247  0.5042  0.0320  0.5140
 5247SOL    HW227201   2.528   3.167   6.107 -2.4144 -0.9037  2.1506
 5248SOL     OW27202   3.074   0.109   4.532  0.5543 -0.4520  0.7368
 5248SOL    HW127203   3.050   0.104   4.439 -0.6486 -1.1913  1.0831
 5248SOL    HW227204   3.121   0.027   4.548 -0.2301 -0.9020  0.7451
 5249SOL     OW27205   0.814   3.808   2.158  0.2123  0.8580  0.8863
 5249SOL    HW127206   0.860   3.887   2.185 -0.6506  0.1850  4.3760
 5249SOL    HW227207   0.806   3.826   2.065  0.5936 -1.2836  0.4301
 5250SOL     OW27208   3.737   3.816   3.137  0.7660 -0.2787  0.3022
 5250SOL    HW127209   3.772   3.749   3.078  1.8591  1.1814 -0.7107
 5250SOL    HW227210   3.641   3.810   3.136  0.7830 -0.5799  1.1646
 5251SOL     OW27211   3.503   2.720   7.952  0.1861 -0.5357 -0.1042
 5251SOL    HW127212   3.448   2.781   7.903 -0.3533  0.2074  1.4323
 5251SOL    HW227213   3.436   2.672   7.999  0.6989  0.5646  1.7841
 5252SOL     OW27214   4.379   3.786   9.162 -0.4309 -0.2687  0.3110
 5252SOL    HW127215   4.318   3.795   9.235 -0.0962 -0.2498  0.5901
 5252SOL    HW227216   4.466   3.798   9.201 -1.2560 -2.1377  2.7315
 5253SOL     OW27217   1.492   1.765  16.374 -0.2562  0.0595  0.7718
 5253SOL    HW127218   1.498   1.738  16.282  0.7960  1.7090  0.3539
 5253SOL    HW227219   1.577   1.805  16.394 -1.0462  2.1832 -0.1357
 5254SOL     OW27220   0.772   0.644  12.963  0.3790  0.0660  0.1056
 5254SOL    HW127221   0.753   0.633  12.870  1.5599 -0.0900 -0.1161
 5254SOL    HW227222   0.855   0.598  12.976 -0.8172 -2.6701 -2.0107
 5255SOL     OW27223   2.322   4.439   2.971  0.6993 -0.1116 -0.3709
 5255SOL    HW127224   2.247   4.399   2.926  0.6863 -0.8743  0.3241
 5255SOL    HW227225   2.393   4.420   2.910 -0.8718  0.7885 -2.4684
 5256SOL     OW27226   1.913   1.131  17.347 -0.0343 -0.2852  0.4006
 5256SOL    HW127227   1.899   1.186  17.424  1.8960  1.7572 -0.6919
 5256SOL    HW227228   1.967   1.060  17.381 -0.5917 -0.9925 -0.1998
 5257SOL     OW27229   0.280   1.532   8.524  0.3332 -0.2667  0.2792
 5257SOL    HW127230   0.214   1.528   8.593  1.2887 -0.7870  1.1819
 5257SOL    HW227231   0.262   1.621   8.495  0.3811 -0.2974  0.1559
 5258SOL     OW27232   1.336   0.288   4.321  0.0021 -0.0358  0.4448
 5258SOL    HW127233   1.274   0.274   4.393 -0.6435 -2.2360 -0.5360
 5258SOL    HW227234   1.400   0.339   4.372 -0.0935  0.8017 -0.2729
 5259SOL     OW27235   0.360   1.145   6.466  0.1248  0.0931 -0.0205
 5259SOL    HW127236   0.385   1.207   6.534 -3.1079  1.6264 -0.2261
 5259SOL    HW227237   0.333   1.194   6.388 -0.0894  0.1003  0.0587
 5260SOL     OW27238   2.394   4.594  17.338 -0.3832 -0.4384 -0.6755
 5260SOL    HW127239   2.370   4.552  17.421 -1.8430 -0.4270 -1.0868
 5260SOL    HW227240   2.432   4.678  17.364 -0.6532  0.2432 -2.5332
 5261SOL     OW27241   0.887   1.539  14.456 -0.1019  0.0733 -0.3355
 5261SOL    HW127242   0.859   1.623  14.493  1.7809 -0.0224  1.2987
 5261SOL    HW227243   0.962   1.526  14.513 -0.5279 -0.5613  0.0764
 5262SOL     OW27244   1.649   0.306   6.085  0.1476  0.2896 -0.5271
 5262SOL    HW127245   1.586   0.236   6.102 -0.2899  0.7307 -0.3276
 5262SOL    HW227246   1.711   0.277   6.152 -1.6447  0.6041  1.2695
 5263SOL     OW27247   2.461   4.601   4.596  0.4943  1.1991  0.3854
 5263SOL    HW127248   2.473   4.639   4.683  0.6282  0.5599  0.6453
 5263SOL    HW227249   2.424   4.676   4.549 -1.5293  0.3443  0.5867
 5264SOL     OW27250   2.774   0.638   3.621 -0.3691  0.3703 -0.0085
 5264SOL    HW127251   2.805   0.583   3.693  0.4803  1.5637  0.5385
 5264SOL    HW227252   2.815   0.600   3.543 -0.7122  0.1086 -0.0583
 5265SOL     OW27253   2.136   1.234   1.083 -0.1345  0.0884 -0.3753
 5265SOL    HW127254   2.149   1.142   1.059 -1.6075 -0.3435  0.4429
 5265SOL    HW227255   2.162   1.235   1.175  1.6380 -0.2545 -0.8808
 5266SOL     OW27256   3.570   4.544  15.523  0.1162  0.7057 -0.5735
 5266SOL    HW127257   3.608   4.466  15.481 -0.8795  0.1992 -0.5173
 5266SOL    HW227258   3.525   4.590  15.452 -0.1901  1.1338 -0.1038
 5267SOL     OW27259   0.436   0.563  11.444 -0.4099  0.2280 -0.0221
 5267SOL    HW127260   0.376   0.606  11.506  0.8963  2.1985 -0.1231
 5267SOL    HW227261   0.485   0.503  11.500  1.8059  1.3401 -0.7779
 5268SOL     OW27262   3.919   1.932   4.269  0.0918  0.1628 -0.4375
 5268SOL    HW127263   3.890   1.992   4.200  0.1267 -0.9927 -1.4483
 5268SOL    HW227264   4.012   1.920   4.248  0.6628 -1.1865  2.8309
 5269SOL     OW27265   3.391   2.445   9.910 -0.2129 -0.0759  0.2084
 5269SOL    HW127266   3.478   2.410   9.889  1.2751  2.4855  1.9956
 5269SOL    HW227267   3.351   2.420   9.827 -2.3042  1.9334  0.6167
 5270SOL     OW27268   3.818   2.924  14.444  0.2761 -0.3079  0.1603
 5270SOL    HW127269   3.745   2.917  14.382  1.8947 -0.0138 -1.7904
 5270SOL    HW227270   3.892   2.887  14.396 -0.9349 -2.4279 -0.0883
 5271SOL     OW27271   0.494   4.160   3.236  0.0725 -0.3683 -1.1743
 5271SOL    HW127272   0.462   4.250   3.238  1.9642  0.3015 -1.1830
 5271SOL    HW227273   0.424   4.130   3.294  2.2574 -0.7632  1.2638
 5272SOL     OW27274   3.041   1.018   5.864 -0.2693 -0.1400  0.0640
 5272SOL    HW127275   3.105   1.078   5.902 -0.6716  1.4395 -1.7364
 5272SOL    HW227276   2.967   1.067   5.829 -0.1444  0.9024  1.2504
 5273SOL     OW27277   0.335   3.721   3.315 -0.3054 -0.6469 -0.2039
 5273SOL    HW127278   0.373   3.723   3.227  3.0000 -1.1762  1.2164
 5273SOL    HW227279   0.378   3.639   3.339 -0.0763 -0.8187 -1.1897
 5274SOL     OW27280   1.006   0.101   6.964 -0.2321 -0.0286 -0.8530
 5274SOL    HW127281   0.976   0.161   6.896 -0.8376  0.7522  0.0984
 5274SOL    HW227282   0.917   0.084   6.994  1.2935  0.3597  3.9194
 5275SOL     OW27283   3.172   3.928   2.195 -0.1410  0.5714 -0.2380
 5275SOL    HW127284   3.169   3.837   2.165 -1.0244  0.9246 -1.2221
 5275SOL    HW227285   3.245   3.962   2.144  0.7286 -1.3546 -0.2934
 5276SOL     OW27286   0.546   0.895  16.307 -0.5732 -0.0514  0.2331
 5276SOL    HW127287   0.552   0.836  16.382  0.9383 -1.9408 -1.3903
 5276SOL    HW227288   0.637   0.886  16.281 -0.0497 -1.0718  2.3566
 5277SOL     OW27289   2.015   2.344   4.736  0.2711 -0.5371 -0.2124
 5277SOL    HW127290   2.109   2.353   4.715  0.0212  2.1942 -0.2274
 5277SOL    HW227291   2.008   2.395   4.817 -1.3285  0.5143 -1.0291
 5278SOL     OW27292   1.870   0.809  13.372  0.1911  0.4280 -0.0594
 5278SOL    HW127293   1.962   0.833  13.361  0.7277 -0.8797  1.5090
 5278SOL    HW227294   1.882   0.742  13.439  3.0085  1.7184  0.7426
 5279SOL     OW27295   4.545   4.502   2.649 -0.2722  0.8138  0.6396
 5279SOL    HW127296   4.481   4.432   2.658  1.3410 -0.7043  0.2778
 5279SOL    HW227297   4.519   4.561   2.719 -1.8599  1.9852 -0.9462
 5280SOL     OW27298   0.769   2.925   3.539  0.5207 -0.4285 -0.5420
 5280SOL    HW127299   0.818   2.880   3.609  0.4197  1.2822  0.6441
 5280SOL    HW227300   0.690   2.947   3.588  1.9848 -0.3911  1.8380
 5281SOL     OW27301   1.498   1.686   7.280  0.3098  0.2693 -0.1597
 5281SOL    HW127302   1.505   1.627   7.354 -0.3056  2.2311  1.4595
 5281SOL    HW227303   1.592   1.707   7.274  0.1452  1.2150  0.6289
 5282SOL     OW27304   2.201   4.338   8.931 -0.6810 -0.5785 -0.5211
 5282SOL    HW127305   2.255   4.341   9.010  2.6173  1.0339 -2.8431
 5282SOL    HW227306   2.119   4.358   8.977 -0.1717 -0.7955  0.5020
 5283SOL     OW27307   3.612   0.658   8.958 -0.4965 -0.0200 -0.3831
 5283SOL    HW127308   3.646   0.569   8.962 -1.5550 -0.3942  0.4192
 5283SOL    HW227309   3.687   0.714   8.979 -2.0208  2.6413 -2.1073
 5284SOL     OW27310   2.709   3.881   7.406 -0.3622  0.3335 -0.1288
 5284SOL    HW127311   2.619   3.915   7.401 -0.7804 -0.8479 -0.6814
 5284SOL    HW227312   2.701   3.805   7.348  2.8592  0.1692 -0.3425
 5285SOL     OW27313   1.404   1.999  15.610 -0.9485  0.1081  0.2170
 5285SOL    HW127314   1.428   1.923  15.556 -1.5716  2.2008 -3.0393
 5285SOL    HW227315   1.314   2.014  15.581 -0.8510 -1.0483 -0.7062
 5286SOL     OW27316   4.607   2.659   1.044 -0.2952 -0.2168 -0.7498
 5286SOL    HW127317   4.693   2.637   1.008  0.1236  0.5689 -0.2422
 5286SOL    HW227318   4.645   2.707   1.117 -1.1207 -1.9405  0.8284
 5287SOL     OW27319   1.022   2.043   4.764  0.1470  0.6472  0.0819
 5287SOL    HW127320   1.104   2.007   4.799  0.3747  2.5962  1.5575
 5287SOL    HW227321   1.048   2.074   4.677  1.4507 -1.2618 -0.2197
 5288SOL     OW27322   4.223   3.769   4.264 -0.5215  0.2343  0.1050
 5288SOL    HW127323   4.153   3.732   4.318  0.1122 -1.2229 -0.0803
 5288SOL    HW227324   4.297   3.719   4.299  0.1750  1.2599  0.0918
 5289SOL     OW27325   2.314   2.084   4.189  0.0149  0.2140 -0.0133
 5289SOL    HW127326   2.365   2.164   4.197  1.7505 -0.9948  0.9709
 5289SOL    HW227327   2.320   2.041   4.275  1.2398 -0.5930 -0.4997
 5290SOL     OW27328   2.240   1.108  13.993  0.9589  0.2777 -0.3156
 5290SOL    HW127329   2.251   1.099  13.898  2.1687  3.6178 -0.4860
 5290SOL    HW227330   2.215   1.201  13.993 -2.4884 -0.6560 -2.5132
 5291SOL     OW27331   1.919   0.721   5.163  0.1758 -0.9418  0.3784
 5291SOL    HW127332   2.005   0.761   5.168 -0.3728  0.3432 -0.4898
 5291SOL    HW227333   1.867   0.801   5.158  0.8591 -0.6217 -1.5546
 5292SOL     OW27334   0.494   4.270  17.371 -0.7420 -0.6064 -0.1882
 5292SOL    HW127335   0.553   4.300  17.441 -0.0253 -0.1595 -0.9845
 5292SOL    HW227336   0.428   4.340  17.372  2.3305  2.2976  0.8460
 5293SOL     OW27337   0.535   2.100  12.176 -0.3111  0.6713  0.3841
 5293SOL    HW127338   0.607   2.089  12.239  0.7107  1.2548 -0.6852
 5293SOL    HW227339   0.460   2.102  12.235 -1.5065 -0.6951 -1.1115
 5294SOL     OW27340   1.554   2.444   7.038 -0.2619  0.1952 -0.1652
 5294SOL    HW127341   1.498   2.486   7.104 -1.3918 -1.3526 -0.1647
 5294SOL    HW227342   1.623   2.414   7.098 -0.2241  0.2432 -0.1845
 5295SOL     OW27343   4.442   2.295   4.218 -0.0133 -0.5866  0.2281
 5295SOL    HW127344   4.533   2.285   4.246  0.7443  2.6080 -1.0816
 5295SOL    HW227345   4.422   2.222   4.161  0.1332 -1.2789  1.0638
 5296SOL     OW27346   2.395   1.815   0.767  0.6397 -0.4007  0.4590
 5296SOL    HW127347   2.360   1.733   0.732 -0.2977  0.1456  0.1271
 5296SOL    HW227348   2.404   1.856   0.681  1.9232 -1.0879  0.2585
 5297SOL     OW27349   3.800   3.091   3.146  0.1624 -0.2794 -0.0125
 5297SOL    HW127350   3.751   3.028   3.092 -1.7496  0.7429  0.5469
 5297SOL    HW227351   3.860   3.133   3.085  0.0536  0.1479  0.1816
 5298SOL     OW27352   0.407   1.355  16.235  0.5252  0.1817 -0.2069
 5298SOL    HW127353   0.311   1.357  16.232  0.3968 -2.2755  1.9139
 5298SOL    HW227354   0.415   1.308  16.318 -0.3503  0.3466 -0.0292
 5299SOL     OW27355   3.700   1.197  14.411  0.5428 -0.2434  0.4176
 5299SOL    HW127356   3.776   1.138  14.409 -0.9837 -2.1242 -1.6577
 5299SOL    HW227357   3.666   1.182  14.499 -0.8719 -1.8551 -0.4198
 5300SOL     OW27358   0.246   3.633   0.747 -0.3386 -0.4274  0.2164
 5300SOL    HW127359   0.280   3.644   0.658 -1.5759 -1.1212 -0.3427
 5300SOL    HW227360   0.306   3.690   0.795 -1.8131  0.6951  0.7035
 5301SOL     OW27361   4.165   2.072   0.984  0.5628 -0.2087 -0.0127
 5301SOL    HW127362   4.129   1.984   0.970 -1.7601  0.6186  0.8733
 5301SOL    HW227363   4.230   2.073   0.914 -0.4525  0.6837 -0.9402
 5302SOL     OW27364   1.490   1.093  10.443  0.7373  0.0022  0.6775
 5302SOL    HW127365   1.519   1.167  10.390  1.1626 -0.8776 -0.3369
 5302SOL    HW227366   1.468   1.133  10.527 -0.9597 -1.0536  0.7215
 5303SOL     OW27367   1.263   3.031   5.192 -0.0198  0.1320 -0.5295
 5303SOL    HW127368   1.263   3.112   5.140 -2.5417  0.8637  0.5882
 5303SOL    HW227369   1.332   2.983   5.147 -0.5245  0.1736 -1.3569
 5304SOL     OW27370   4.255   1.104   3.181 -0.0158 -0.1156 -0.0210
 5304SOL    HW127371   4.249   1.181   3.237  1.3110 -0.9793  1.3367
 5304SOL    HW227372   4.296   1.141   3.103 -2.7929 -0.3861 -1.6105
 5305SOL     OW27373   3.046   4.073  13.825 -0.5117  0.0185  0.2240
 5305SOL    HW127374   2.956   4.101  13.810 -0.2355  0.0370 -1.4662
 5305SOL    HW227375   3.038   3.993  13.877  0.4961 -0.3665 -0.2050
 5306SOL     OW27376   0.629   1.602  12.214  0.0248  0.0700  0.1705
 5306SOL    HW127377   0.541   1.637  12.203  0.4493  0.7800 -0.9445
 5306SOL    HW227378   0.668   1.641  12.136 -0.0367 -0.0327  0.0883
 5307SOL     OW27379   0.975   4.561   2.957 -0.1431  0.1750  0.7616
 5307SOL    HW127380   0.922   4.531   2.884 -0.1774 -0.5059  1.0664
 5307SOL    HW227381   1.059   4.515   2.949  0.0684  0.6234  0.3696
 5308SOL     OW27382   0.860   4.224   0.096  0.0389  0.3123  0.2605
 5308SOL    HW127383   0.950   4.253   0.079 -0.9266  3.0746 -0.1891
 5308SOL    HW227384   0.862   4.206   0.190 -3.7722 -2.1094 -0.1145
 5309SOL     OW27385   2.179   1.058   8.434 -0.7018 -0.1614 -0.0384
 5309SOL    HW127386   2.243   1.100   8.376 -1.1281  1.1423  0.4332
 5309SOL    HW227387   2.238   0.999   8.481  0.0476 -0.2499 -1.0773
 5310SOL     OW27388   0.132   2.894  15.452  0.1414  0.1243  0.4945
 5310SOL    HW127389   0.140   2.807  15.491 -0.7461 -0.0042  0.3854
 5310SOL    HW227390   0.112   2.944  15.531  0.2981 -0.0642  0.6539
 5311SOL     OW27391   2.917   2.233   8.525  0.3262  0.3865 -0.2279
 5311SOL    HW127392   2.978   2.195   8.588  1.5998  0.3136 -1.5008
 5311SOL    HW227393   2.847   2.252   8.587 -1.1785 -0.1795 -1.7530
 5312SOL     OW27394   3.565   0.590  15.760 -0.3078  0.1603  0.5268
 5312SOL    HW127395   3.628   0.608  15.690  1.3509  0.8742  2.2008
 5312SOL    HW227396   3.499   0.544  15.709 -1.8045  0.8009  1.8876
 5313SOL     OW27397   4.634   0.673   9.492  0.5373 -0.9983  0.0562
 5313SOL    HW127398   4.647   0.643   9.581 -0.0149 -0.2842  0.3793
 5313SOL    HW227399   4.576   0.747   9.512 -1.2262 -2.3866  0.0330
 5314SOL     OW27400   4.135   2.684  15.830  0.1942  0.4348  0.1299
 5314SOL    HW127401   4.212   2.682  15.772  0.2273 -1.5187  0.2173
 5314SOL    HW227402   4.064   2.710  15.772 -2.2764 -1.7286  2.1800
 5315SOL     OW27403   4.022   2.954  12.558  0.2456 -0.0305 -0.2155
 5315SOL    HW127404   4.110   2.921  12.541 -0.2937 -3.0936  3.0088
 5315SOL    HW227405   3.967   2.876  12.557 -0.1129  0.2514 -2.2205
 5316SOL     OW27406   4.493   1.170  14.884  0.4833 -0.5204 -0.2828
 5316SOL    HW127407   4.561   1.225  14.921 -1.0211  0.4042  1.0901
 5316SOL    HW227408   4.425   1.232  14.860  2.5623  1.2823 -1.5000
 5317SOL     OW27409   1.117   1.270   6.303  0.1260 -0.2301  0.5926
 5317SOL    HW127410   1.060   1.204   6.264 -0.1413  0.3413  0.0160
 5317SOL    HW227411   1.147   1.224   6.381 -1.5073  2.0191  2.5573
 5318SOL     OW27412   2.021   4.229  16.280 -0.5889  0.0220 -0.5989
 5318SOL    HW127413   1.988   4.317  16.296 -0.2709  0.1577 -0.6933
 5318SOL    HW227414   2.021   4.227  16.184 -2.1625  4.4701 -0.7070
 5319SOL     OW27415   2.000   2.067  16.821 -0.3075  0.1618 -0.1928
 5319SOL    HW127416   2.087   2.095  16.848 -1.3459  1.4401  1.8415
 5319SOL    HW227417   1.947   2.147  16.823  2.3224  1.9303 -0.8556
 5320SOL     OW27418   1.111   2.055   3.971  0.1692  0.0755 -0.3247
 5320SOL    HW127419   1.186   2.106   4.002  0.3577 -1.4500  1.6845
 5320SOL    HW227420   1.110   1.990   4.041 -0.1136 -0.2133 -0.5960
 5321SOL     OW27421   1.407   1.485   3.521  0.0238 -0.3297 -0.1265
 5321SOL    HW127422   1.327   1.538   3.531  0.5436  0.2258  1.0199
 5321SOL    HW227423   1.403   1.437   3.438 -0.1667  1.4213 -1.1197
 5322SOL     OW27424   2.330   0.476   9.258 -0.4593  0.0369  0.6491
 5322SOL    HW127425   2.279   0.548   9.222  0.1053 -0.6348 -1.5108
 5322SOL    HW227426   2.338   0.431   9.174 -0.7680 -0.6290  0.9677
 5323SOL     OW27427   3.803   2.011   3.349  0.0166 -0.4841 -0.4253
 5323SOL    HW127428   3.884   1.969   3.379 -1.3797 -1.5080  1.9385
 5323SOL    HW227429   3.749   2.016   3.428  3.5270  2.3012  1.8180
 5324SOL     OW27430   0.740   0.640   3.081  0.5940 -0.4507  0.1580
 5324SOL    HW127431   0.667   0.670   3.027 -0.2281 -2.6922  0.0036
 5324SOL    HW227432   0.814   0.649   3.022  1.2883 -1.2151  0.9175
 5325SOL     OW27433   2.035   3.534   5.536 -0.6160 -0.2331 -0.3424
 5325SOL    HW127434   2.085   3.611   5.564 -0.3955 -1.0021  1.3587
 5325SOL    HW227435   2.105   3.469   5.529 -1.2176 -0.7224 -1.7365
 5326SOL     OW27436   1.648   3.743   5.280  0.4488  0.9038 -0.0216
 5326SOL    HW127437   1.660   3.792   5.361  2.7429 -0.8195  0.6905
 5326SOL    HW227438   1.640   3.817   5.220  1.0392 -1.0045 -2.4540
 5327SOL     OW27439   0.241   0.694   6.700  0.3053 -0.2003 -0.5581
 5327SOL    HW127440   0.253   0.751   6.775  4.7439 -0.4876 -1.0747
 5327SOL    HW227441   0.308   0.717   6.637  1.8316 -1.5893  0.5581
 5328SOL     OW27442   1.926   3.792  17.593 -0.2569 -0.6540 -0.1047
 5328SOL    HW127443   1.871   3.824  17.665 -2.6166  1.0529 -2.6897
 5328SOL    HW227444   1.966   3.877  17.574 -0.9705 -0.7211 -1.8473
 5329SOL     OW27445   0.452   0.259   3.172 -1.1531  0.0266 -0.1031
 5329SOL    HW127446   0.404   0.180   3.146  0.4816 -0.9369 -0.1850
 5329SOL    HW227447   0.530   0.218   3.208 -2.4217  0.0674  2.6744
 5330SOL     OW27448   1.547   3.223   6.643  0.0220 -0.3663 -0.1850
 5330SOL    HW127449   1.504   3.279   6.577  1.6124  1.0509 -0.0291
 5330SOL    HW227450   1.631   3.216   6.597  1.3416 -0.0739  2.1874
 5331SOL     OW27451   2.348   1.427   2.154  0.5956  0.2323 -0.4039
 5331SOL    HW127452   2.405   1.417   2.231 -0.3777  0.2365  0.3199
 5331SOL    HW227453   2.294   1.349   2.149  0.2926  0.3407  0.9469
 5332SOL     OW27454   1.135   0.045   2.306 -0.5249 -0.1435 -0.2758
 5332SOL    HW127455   1.096   0.133   2.301  2.3795  1.2878  2.0441
 5332SOL    HW227456   1.153   0.046   2.212  0.2836 -0.0042 -0.1190
 5333SOL     OW27457   0.241   0.390   1.793  0.1493 -0.0382 -0.0722
 5333SOL    HW127458   0.203   0.359   1.711 -1.5585  1.0148  0.3177
 5333SOL    HW227459   0.166   0.388   1.852 -0.4401  2.7389 -0.7043
 5334SOL     OW27460   2.583   1.908   0.937 -0.0552 -0.7534  0.3157
 5334SOL    HW127461   2.658   1.881   0.884 -0.2361 -1.7401  0.5704
 5334SOL    HW227462   2.508   1.878   0.886  0.0568 -0.2519 -0.1400
 5335SOL     OW27463   2.344   3.800   4.635  0.3644 -0.2280  0.3152
 5335SOL    HW127464   2.278   3.869   4.636  1.9608  1.2536  2.2635
 5335SOL    HW227465   2.417   3.844   4.592 -0.5863  0.9025 -0.1247
 5336SOL     OW27466   1.195   0.461   7.020  0.0063 -0.6159  0.2836
 5336SOL    HW127467   1.186   0.387   6.959 -0.2189 -0.2989 -0.0629
 5336SOL    HW227468   1.253   0.425   7.087  1.2021 -0.0049 -0.4177
 5337SOL     OW27469   3.122   3.974   7.736 -0.0046 -0.6929  0.3262
 5337SOL    HW127470   3.046   3.929   7.773 -0.1050 -0.6570  0.1642
 5337SOL    HW227471   3.165   3.993   7.819  0.5724 -1.4374  0.1944
 5338SOL     OW27472   2.244   0.329   5.132  0.4628 -0.5421 -0.5805
 5338SOL    HW127473   2.249   0.281   5.050 -0.0464  2.6627 -2.5090
 5338SOL    HW227474   2.245   0.422   5.108  1.6670 -0.2023  0.8016
 5339SOL     OW27475   2.217   0.430   4.344 -0.0390 -0.2170 -0.5219
 5339SOL    HW127476   2.277   0.459   4.275  0.3317  1.4175  0.4761
 5339SOL    HW227477   2.268   0.461   4.419  0.2204 -1.0302 -0.3637
 5340SOL     OW27478   1.662   4.306   4.649  0.4340 -0.1722  0.0126
 5340SOL    HW127479   1.734   4.256   4.688 -0.3064 -0.8790  0.4840
 5340SOL    HW227480   1.661   4.250   4.571 -1.4954  0.2412 -0.2600
 5341SOL     OW27481   1.019   0.957   7.581 -0.1742  0.3015  0.5527
 5341SOL    HW127482   0.995   0.887   7.642 -1.6324  2.4474  2.4841
 5341SOL    HW227483   1.106   0.931   7.550 -0.3965  0.7982 -0.4623
 5342SOL     OW27484   3.810   1.297   9.322 -0.7602 -0.0325  0.0490
 5342SOL    HW127485   3.714   1.301   9.323 -0.7635 -0.2141  1.1883
 5342SOL    HW227486   3.843   1.291   9.412 -0.3135  0.3405 -0.0936
 5343SOL     OW27487   0.405   0.746   6.300 -0.4569  0.6425  0.3452
 5343SOL    HW127488   0.380   0.792   6.380 -0.1801 -1.4835  1.6668
 5343SOL    HW227489   0.401   0.654   6.326  2.4520  0.0547 -1.2313
 5344SOL     OW27490   3.743   1.363   7.157 -0.8150  0.1222 -0.2923
 5344SOL    HW127491   3.746   1.320   7.243 -0.4933 -1.8738 -1.3145
 5344SOL    HW227492   3.649   1.374   7.143 -0.7134 -0.8610 -1.7200
 5345SOL     OW27493   3.858   2.648   4.178  0.0003 -0.0078 -0.6002
 5345SOL    HW127494   3.805   2.579   4.138  0.3426 -0.4218 -0.3319
 5345SOL    HW227495   3.922   2.662   4.108  0.1419 -0.8076 -0.6319
 5346SOL     OW27496   3.399   0.768   3.411 -0.4071 -0.5679  0.2419
 5346SOL    HW127497   3.411   0.849   3.361  1.4533 -1.4247 -0.6840
 5346SOL    HW227498   3.468   0.709   3.382 -0.6123 -0.4025 -0.5880
 5347SOL     OW27499   0.448   3.697   6.835  0.6062 -0.2568 -0.2236
 5347SOL    HW127500   0.514   3.649   6.885  1.8461  0.6671 -0.9749
 5347SOL    HW227501   0.496   3.695   6.752  2.7378 -0.3275  1.0116
 5348SOL     OW27502   4.633   3.639   4.569  0.1457  0.0453  0.0987
 5348SOL    HW127503   4.694   3.602   4.632 -1.0176 -1.2516  0.4699
 5348SOL    HW227504   4.584   3.691   4.633  2.4113  3.7336 -1.1440
 5349SOL     OW27505   0.375   4.698   6.015 -0.3850  0.1723 -0.0555
 5349SOL    HW127506   0.417   0.036   6.073  2.1548 -0.3917 -1.2890
 5349SOL    HW227507   0.305   0.024   5.973  0.7730  0.0463 -2.1598
 5350SOL     OW27508   2.779   4.331   5.959 -0.2389  0.1073  0.0066
 5350SOL    HW127509   2.793   4.424   5.939 -2.3516  0.2039 -1.0672
 5350SOL    HW227510   2.806   4.291   5.877  1.5806 -0.2559  0.7875
 5351SOL     OW27511   1.154   4.323   2.340  0.0215 -0.6497 -0.0093
 5351SOL    HW127512   1.126   4.398   2.289  0.7389  0.9730  1.9877
 5351SOL    HW227513   1.248   4.321   2.323  0.1021 -2.4113  0.6080
 5352SOL     OW27514   1.422   2.725   4.774  0.3211  0.1948 -0.0891
 5352SOL    HW127515   1.330   2.746   4.758 -0.1879  0.4076  3.1577
 5352SOL    HW227516   1.433   2.640   4.732 -0.4781 -0.2582  0.6141
 5353SOL     OW27517   3.514   4.427   8.374  0.2670  0.6441 -0.4682
 5353SOL    HW127518   3.537   4.440   8.282  2.2652  1.6032  0.1844
 5353SOL    HW227519   3.487   4.335   8.379  0.1882  0.6519 -0.7713
 5354SOL     OW27520   0.395   4.648   5.006 -0.1294 -0.0451  0.8566
 5354SOL    HW127521   0.464   4.713   4.994  1.1193 -1.2071  1.8473
 5354SOL    HW227522   0.339   4.667   4.930 -0.5818 -0.5053  1.0743
 5355SOL     OW27523   2.133   0.115   8.031  0.3711 -0.2826  0.0198
 5355SOL    HW127524   2.220   0.101   8.069 -0.4915  0.5692  2.2990
 5355SOL    HW227525   2.073   0.082   8.098 -0.7952  0.5060 -0.6375
 5356SOL     OW27526   2.595   1.567   2.982 -0.2282 -0.2046 -0.4428
 5356SOL    HW127527   2.530   1.568   2.912 -1.5666 -0.1858  0.7951
 5356SOL    HW227528   2.557   1.637   3.035  1.6693 -0.1432  0.8434
 5357SOL     OW27529   0.081   1.860   2.470  0.0071 -0.4988  0.2644
 5357SOL    HW127530   0.168   1.868   2.509 -0.6485 -0.2300  1.6776
 5357SOL    HW227531   0.094   1.902   2.385  0.4423  0.9732  1.0721
 5358SOL     OW27532   2.937   1.130   8.536 -0.3453 -0.5927 -0.5597
 5358SOL    HW127533   2.983   1.115   8.619  0.5206 -2.4831 -1.4131
 5358SOL    HW227534   2.966   1.222   8.531  0.6203 -0.7267  2.6866
 5359SOL     OW27535   2.477   2.597   0.734 -0.2875 -0.1110  0.2586
 5359SOL    HW127536   2.510   2.611   0.645  1.9826  0.6351  1.2107
 5359SOL    HW227537   2.563   2.617   0.772  0.1991  2.2452 -2.0726
 5360SOL     OW27538   3.018   2.145   6.119  0.4109  0.3166 -0.7879
 5360SOL    HW127539   2.925   2.132   6.139  0.6968 -1.2586 -0.4844
 5360SOL    HW227540   3.009   2.216   6.055 -1.9261  1.7893  1.2115
 5361SOL     OW27541   2.166   0.211   2.713 -0.6412 -0.3409  0.2521
 5361SOL    HW127542   2.186   0.228   2.805  0.3997  3.6941 -0.7088
 5361SOL    HW227543   2.253   0.228   2.678 -1.2024  1.2039 -0.3972
 5362SOL     OW27544   2.242   0.065   9.082  0.3265 -0.5591  0.2363
 5362SOL    HW127545   2.188   0.109   9.147 -0.8381 -0.3933 -0.8522
 5362SOL    HW227546   2.189   0.076   9.004 -0.2407 -3.6303  0.1742
 5363SOL     OW27547   1.084   4.007   0.687 -0.0018 -0.1180  0.2768
 5363SOL    HW127548   1.107   4.055   0.607  2.0797 -0.3217  0.7673
 5363SOL    HW227549   1.076   3.921   0.645  0.4874  1.3460 -2.8902
 5364SOL     OW27550   1.730   0.826   9.157 -0.9965 -0.0351 -0.0307
 5364SOL    HW127551   1.684   0.808   9.238 -0.9244  3.1139  0.7261
 5364SOL    HW227552   1.665   0.830   9.086  0.8419 -0.5921 -1.7244
 5365SOL     OW27553   1.476   1.708   2.059  0.2369 -0.2510  0.4564
 5365SOL    HW127554   1.550   1.699   2.119  2.4448 -0.4871 -2.3168
 5365SOL    HW227555   1.453   1.617   2.044 -1.4397  0.2128  0.1546
 5366SOL     OW27556   1.578   1.404   1.692  0.0048  0.0552 -0.0020
 5366SOL    HW127557   1.646   1.345   1.660  0.3114 -1.0938  2.7804
 5366SOL    HW227558   1.500   1.374   1.644 -0.4532 -2.5072  2.3678
 5367SOL     OW27559   0.499   0.551   4.736  0.6554 -0.0490  0.4638
 5367SOL    HW127560   0.409   0.575   4.712  0.8353  1.6276  1.4958
 5367SOL    HW227561   0.496   0.456   4.728  3.3257  0.1452 -2.9512
 5368SOL     OW27562   2.282   2.443   8.525  0.3515 -0.0562 -0.1863
 5368SOL    HW127563   2.346   2.495   8.477  0.4484  1.5735  1.6870
 5368SOL    HW227564   2.234   2.400   8.454  0.3478  0.8878 -0.7446
 5369SOL     OW27565   0.459   1.550   1.197 -0.3178 -0.0062  0.1233
 5369SOL    HW127566   0.436   1.485   1.264 -3.1842 -0.0173 -0.8502
 5369SOL    HW227567   0.543   1.581   1.229  0.5185 -1.0977 -1.0178
 5370SOL     OW27568   3.955   2.707   1.322 -0.4357  0.0399  0.3639
 5370SOL    HW127569   4.046   2.736   1.330 -0.1634 -0.9467  0.8913
 5370SOL    HW227570   3.942   2.742   1.234 -1.3297  1.8327  1.2078
 5371SOL     OW27571   4.418   0.146   2.349 -0.9094  0.4626  0.2186
 5371SOL    HW127572   4.466   0.204   2.290  1.0740 -2.1997 -0.7722
 5371SOL    HW227573   4.484   0.095   2.395 -1.8908  1.9753  3.2754
 5372SOL     OW27574   4.375   3.072   2.135  0.0072 -0.3921  0.0245
 5372SOL    HW127575   4.355   3.037   2.222 -0.6425  1.7136  0.7270
 5372SOL    HW227576   4.444   3.014   2.106  0.8225  1.0938 -1.0340
 5373SOL     OW27577   1.753   4.386  12.502  0.2634 -0.0449 -0.5762
 5373SOL    HW127578   1.725   4.298  12.528  1.0196  0.1193  0.8036
 5373SOL    HW227579   1.848   4.377  12.495  0.2458 -1.5293  1.0477
 5374SOL     OW27580   2.790   4.428  16.498  0.7630  0.5369  0.1192
 5374SOL    HW127581   2.704   4.465  16.520 -0.5988 -0.6815 -3.2117
 5374SOL    HW227582   2.806   4.396  16.587  2.3183 -1.2292 -0.8190
 5375SOL     OW27583   3.062   4.696  11.564  0.3394 -0.5963  0.2060
 5375SOL    HW127584   3.157   4.704  11.573  0.4702 -0.9682 -0.8071
 5375SOL    HW227585   3.056   4.642  11.643  0.8424  0.9195  1.2707
 5376SOL     OW27586   2.323   1.442  13.767  0.4082  0.4837 -0.5213
 5376SOL    HW127587   2.384   1.372  13.790  0.2283  0.9529  1.4262
 5376SOL    HW227588   2.250   1.433  13.828  0.2441 -0.3457 -0.8479
 5377SOL     OW27589   2.616   3.898   8.468  0.2235 -0.2656 -0.3812
 5377SOL    HW127590   2.652   3.932   8.550  0.1027  0.0052 -0.4418
 5377SOL    HW227591   2.579   3.816   8.502  2.4018 -1.4172 -0.7080
 5378SOL     OW27592   1.918   0.173   5.450 -0.0196 -0.3016  0.1898
 5378SOL    HW127593   1.945   0.110   5.516 -0.6811 -1.7609 -0.9397
 5378SOL    HW227594   2.009   0.184   5.423 -0.2810 -1.5409 -1.2440
 5379SOL     OW27595   4.175   3.284   2.170 -0.5230  0.1753  0.0584
 5379SOL    HW127596   4.226   3.213   2.131  0.4393  1.5741 -1.2829
 5379SOL    HW227597   4.149   3.241   2.251  0.8341  0.1598  0.4848
 5380SOL     OW27598   3.745   2.733  14.092  0.0254 -0.6836 -0.1786
 5380SOL    HW127599   3.746   2.804  14.028 -0.8448  0.0032  0.5701
 5380SOL    HW227600   3.814   2.672  14.065  0.4948 -0.5136  0.6107
 5381SOL     OW27601   4.090   2.494  16.451 -0.0711  0.2196 -0.5910
 5381SOL    HW127602   4.151   2.434  16.492 -3.3962 -1.5072  1.8461
 5381SOL    HW227603   4.127   2.503  16.363  0.3654 -2.0786 -0.6355
 5382SOL     OW27604   2.628   3.238   7.722  0.3591 -0.2898  0.1048
 5382SOL    HW127605   2.722   3.244   7.734  0.6873 -3.9237 -0.7824
 5382SOL    HW227606   2.624   3.256   7.628  3.7535  1.4552  0.3356
 5383SOL     OW27607   3.877   0.659   9.425 -0.5939  0.4652 -0.4169
 5383SOL    HW127608   3.882   0.576   9.473  0.7692 -0.1096 -1.5430
 5383SOL    HW227609   3.868   0.627   9.336 -0.6524 -0.3664 -0.1146
 5384SOL     OW27610   0.510   4.094   7.119 -0.2633 -0.4026  1.0324
 5384SOL    HW127611   0.556   4.055   7.045  1.3075  0.0447  1.7581
 5384SOL    HW227612   0.427   4.120   7.079  0.4082 -0.5318 -0.4360
 5385SOL     OW27613   4.669   3.652   0.627  0.2269  0.1223  0.9144
 5385SOL    HW127614   4.724   3.717   0.583 -0.0616 -0.2392  0.0108
 5385SOL    HW227615   4.581   3.686   0.610  1.0812  1.2937 -1.1493
 5386SOL     OW27616   0.615   1.420  11.109 -0.2280 -0.1511  0.3194
 5386SOL    HW127617   0.659   1.383  11.185  1.2162  0.5388 -0.1875
 5386SOL    HW227618   0.527   1.407  11.145  0.3795  0.8743  2.1475
 5387SOL     OW27619   0.309   2.479  12.776  0.1738  0.0945  0.5974
 5387SOL    HW127620   0.386   2.429  12.749  0.2590  0.9360 -0.7287
 5387SOL    HW227621   0.274   2.424  12.846  1.9621  0.5752  1.8715
 5388SOL     OW27622   4.515   2.866   7.097 -0.2232  0.0124 -0.2147
 5388SOL    HW127623   4.440   2.822   7.056  0.5698 -0.3669 -1.2689
 5388SOL    HW227624   4.470   2.908   7.170  0.7976 -0.1443  0.5014
 5389SOL     OW27625   1.263   3.304   9.446 -0.0711 -0.2426 -0.0783
 5389SOL    HW127626   1.178   3.287   9.486 -1.2395  0.3189 -2.3134
 5389SOL    HW227627   1.271   3.399   9.453 -2.6356  0.0147 -0.6341
 5390SOL     OW27628   2.755   1.925   7.809 -0.2526  0.5670 -0.3443
 5390SOL    HW127629   2.734   1.949   7.899 -1.3434  0.7813 -0.6498
 5390SOL    HW227630   2.701   1.990   7.764 -2.1262 -0.2111  0.7892
 5391SOL     OW27631   3.417   1.821   5.672  0.2752 -0.6675  0.9727
 5391SOL    HW127632   3.439   1.871   5.751 -1.4532  1.4996  0.1109
 5391SOL    HW227633   3.322   1.831   5.663  0.5343  1.1358  0.1787
 5392SOL     OW27634   1.656   3.184   1.225 -0.0225  0.0025  0.1393
 5392SOL    HW127635   1.713   3.114   1.191 -1.4259 -1.0725 -0.0083
 5392SOL    HW227636   1.670   3.177   1.319  1.9817 -1.0086 -0.2161
 5393SOL     OW27637   4.297   0.110   5.727  0.6704  0.1543  0.7325
 5393SOL    HW127638   4.237   0.061   5.784  0.3215 -2.0577 -1.5440
 5393SOL    HW227639   4.242   0.188   5.739  0.6832  0.1213  1.0194
 5394SOL     OW27640   0.671   0.351   7.873 -0.1557  0.7899  0.0099
 5394SOL    HW127641   0.647   0.444   7.874 -0.8937  0.5874  0.5709
 5394SOL    HW227642   0.754   0.367   7.827  0.6684  4.4054  2.7317
 5395SOL     OW27643   0.702   2.463   1.204 -0.1380 -0.3179 -0.4131
 5395SOL    HW127644   0.754   2.430   1.131  1.1362  1.9635 -0.5489
 5395SOL    HW227645   0.757   2.521   1.257  0.0307 -0.5861 -0.2943
 5396SOL     OW27646   2.849   0.713   4.497 -0.5491 -0.4614 -0.7694
 5396SOL    HW127647   2.910   0.781   4.526 -1.5682  0.8284 -1.6390
 5396SOL    HW227648   2.771   0.752   4.458 -0.0217  0.3364 -1.0118
 5397SOL     OW27649   1.193   3.443  11.587 -0.2240 -0.1625 -0.4777
 5397SOL    HW127650   1.128   3.373  11.588 -0.7164  0.2973 -0.6928
 5397SOL    HW227651   1.139   3.521  11.601 -0.2252 -0.0161 -1.3071
 5398SOL     OW27652   0.266   3.625  16.383 -0.9034 -0.6788  0.7462
 5398SOL    HW127653   0.350   3.653  16.418 -0.2295 -0.4803 -1.0149
 5398SOL    HW227654   0.291   3.607  16.292 -0.4706 -0.6908  0.8704
 5399SOL     OW27655   4.622   2.661   6.170  0.0602 -0.3939 -0.5871
 5399SOL    HW127656   4.532   2.683   6.192 -0.3243 -0.3628 -2.1768
 5399SOL    HW227657   4.616   2.597   6.099  0.9393  1.2708 -2.1677
 5400SOL     OW27658   1.010   3.473  13.163  0.2944  0.3558  0.7522
 5400SOL    HW127659   1.088   3.421  13.141  2.2990  2.4578  2.8510
 5400SOL    HW227660   1.050   3.557  13.186  0.9569  0.2067  0.1490
 5401SOL     OW27661   2.259   4.049  14.794 -0.2224  0.1380  0.1355
 5401SOL    HW127662   2.200   4.120  14.821 -1.3426 -0.4549 -0.7495
 5401SOL    HW227663   2.343   4.095  14.786  1.0536 -1.9934  1.4378
 5402SOL     OW27664   2.751   1.514   8.670 -0.1257 -0.1110 -0.1526
 5402SOL    HW127665   2.810   1.496   8.597  2.7830  3.0944  1.3935
 5402SOL    HW227666   2.790   1.595   8.703  0.3483 -0.3693 -0.0653
 5403SOL     OW27667   1.871   4.652   1.495 -0.3944  0.1525 -0.4608
 5403SOL    HW127668   1.890   0.021   1.489 -2.4079  0.5818 -0.1978
 5403SOL    HW227669   1.827   4.654   1.580  0.9565  0.4689  0.2275
 5404SOL     OW27670   3.088   1.298  15.938 -0.2465  0.8362 -0.0765
 5404SOL    HW127671   3.089   1.378  15.885  0.4730  1.1236  0.3676
 5404SOL    HW227672   3.101   1.331  16.027 -0.6310  0.5161  0.0981
 5405SOL     OW27673   1.162   4.281   8.130 -0.3910  0.7265 -0.1955
 5405SOL    HW127674   1.107   4.206   8.152 -0.5198  0.5365 -1.2084
 5405SOL    HW227675   1.186   4.275   8.038  2.3659  0.4487  0.5433
 5406SOL     OW27676   1.588   4.495   8.263  0.4138  0.0314  0.3669
 5406SOL    HW127677   1.512   4.438   8.261  1.5620 -1.4761 -0.4071
 5406SOL    HW227678   1.580   4.535   8.349  0.8697  1.3370 -0.1916
 5407SOL     OW27679   0.413   2.704  15.295 -0.2207  0.3646  0.2009
 5407SOL    HW127680   0.351   2.749  15.352  0.2915  1.1124  0.1733
 5407SOL    HW227681   0.452   2.632  15.345 -4.3117 -1.0157  1.4014
 5408SOL     OW27682   0.867   1.987   8.399  0.0668  0.2395  0.1681
 5408SOL    HW127683   0.923   1.970   8.475  1.1931  0.9507 -0.5101
 5408SOL    HW227684   0.928   1.962   8.330  0.4987 -1.0389  1.0101
 5409SOL     OW27685   2.960   3.680   2.362  0.2002  0.0370 -0.1396
 5409SOL    HW127686   3.017   3.680   2.285 -1.5003 -2.8872 -1.3906
 5409SOL    HW227687   2.909   3.605   2.331  0.9531 -0.1289 -0.9754
 5410SOL     OW27688   0.820   3.641  11.228 -0.1319 -0.3570 -0.9229
 5410SOL    HW127689   0.851   3.565  11.278 -1.4099  0.0789  0.5272
 5410SOL    HW227690   0.856   3.717  11.272 -0.6004 -0.8460  0.2935
 5411SOL     OW27691   4.249   0.407   1.861 -0.2157  0.7454  0.2430
 5411SOL    HW127692   4.167   0.437   1.901  0.0008  0.1247  1.1583
 5411SOL    HW227693   4.270   0.329   1.913 -3.3755 -0.4577 -0.2858
 5412SOL     OW27694   2.471   4.350   4.425 -0.6891  0.0840  0.2349
 5412SOL    HW127695   2.389   4.315   4.460 -1.7131  1.1164 -1.0924
 5412SOL    HW227696   2.469   4.428   4.481  0.2872  0.6678 -0.5286
 5413SOL     OW27697   2.274   3.853   8.506 -0.3145  0.0076 -0.0342
 5413SOL    HW127698   2.349   3.825   8.557 -0.0514  0.4021 -0.1989
 5413SOL    HW227699   2.204   3.858   8.571 -0.1120  0.6486  0.1373
 5414SOL     OW27700   3.172   1.825  13.962  0.4450 -0.2678  0.2679
 5414SOL    HW127701   3.196   1.871  14.042 -3.0310  2.1035 -0.0612
 5414SOL    HW227702   3.112   1.757  13.993 -2.8072  0.9555 -3.3280
 5415SOL     OW27703   2.346   4.346   3.314 -0.2226  0.0895 -0.3404
 5415SOL    HW127704   2.384   4.414   3.259 -0.6950  0.1371 -0.6059
 5415SOL    HW227705   2.281   4.399   3.359  0.3089 -0.9012  1.6006
 5416SOL     OW27706   4.614   2.464  10.307  0.0362 -0.2116  0.0044
 5416SOL    HW127707   4.619   2.530  10.376 -1.9321  0.5564 -0.5860
 5416SOL    HW227708   4.522   2.437  10.305 -0.2259  0.5600  1.2263
 5417SOL     OW27709   0.837   4.273   1.498  0.2311  0.3804  0.0792
 5417SOL    HW127710   0.888   4.288   1.418  0.2114 -0.9092 -0.1799
 5417SOL    HW227711   0.902   4.215   1.538  0.5514 -0.0338 -1.0404
 5418SOL     OW27712   2.638   0.204   4.699 -0.0095 -0.5191 -0.2241
 5418SOL    HW127713   2.551   0.237   4.677  0.3069  0.4260 -0.0739
 5418SOL    HW227714   2.620   0.129   4.756 -0.4885 -0.0014  0.3110
 5419SOL     OW27715   2.814   3.751  15.907  0.7393 -0.1872 -0.1175
 5419SOL    HW127716   2.826   3.840  15.940  0.2360 -0.3996  0.6230
 5419SOL    HW227717   2.758   3.721  15.978  2.3773 -0.4000  1.0682
 5420SOL     OW27718   3.707   2.289   7.746  0.1093  0.1419 -0.2306
 5420SOL    HW127719   3.618   2.323   7.750  0.6274  1.6844 -1.7059
 5420SOL    HW227720   3.681   2.205   7.708 -0.1271  0.0687  0.0972
 5421SOL     OW27721   2.038   1.134  15.859 -0.6040  0.3748  0.3424
 5421SOL    HW127722   2.133   1.133  15.846 -0.4730 -1.7547  1.3745
 5421SOL    HW227723   2.016   1.042  15.842 -2.0431  0.5015  1.4968
 5422SOL     OW27724   1.730   0.193   7.484  0.1372 -0.1135  0.4982
 5422SOL    HW127725   1.817   0.158   7.501 -0.2085 -0.5083  1.5113
 5422SOL    HW227726   1.694   0.144   7.410 -2.7496  1.4413  0.8848
 5423SOL     OW27727   0.460   0.714   5.387  0.6802 -0.6118 -0.7109
 5423SOL    HW127728   0.489   0.725   5.477 -0.0547  1.0815 -0.6870
 5423SOL    HW227729   0.528   0.768   5.347  1.2123  1.3960  2.9322
 5424SOL     OW27730   4.511   1.418   5.612 -0.3467 -0.6710 -0.6245
 5424SOL    HW127731   4.479   1.329   5.601  0.5699 -1.0876  0.1141
 5424SOL    HW227732   4.606   1.415   5.597 -0.1500  1.8308 -0.0198
 5425SOL     OW27733   0.632   1.784  12.763  0.6193 -0.1951 -0.0659
 5425SOL    HW127734   0.623   1.872  12.728  0.3424 -0.5138 -0.7980
 5425SOL    HW227735   0.561   1.740  12.715  1.4477 -3.7980  1.9882
 5426SOL     OW27736   4.428   1.271   7.926 -0.1576  0.0393  0.1017
 5426SOL    HW127737   4.353   1.246   7.872  1.0122 -3.1992 -0.0585
 5426SOL    HW227738   4.448   1.189   7.972 -0.4968  0.2826  0.6784
 5427SOL     OW27739   2.653   0.446   4.107  0.3726 -0.3950 -0.2617
 5427SOL    HW127740   2.686   0.400   4.030 -2.2686 -2.8860  0.0853
 5427SOL    HW227741   2.721   0.412   4.165  0.6477 -0.1935 -0.4685
 5428SOL     OW27742   1.580   4.310   3.971  0.7254 -0.0701 -0.2136
 5428SOL    HW127743   1.623   4.245   3.915  0.4164 -0.9665  0.5835
 5428SOL    HW227744   1.580   4.277   4.061 -0.0281  0.7495  0.0847
 5429SOL     OW27745   1.229   2.870   0.076 -0.5623  0.1678  0.1190
 5429SOL    HW127746   1.161   2.880   0.010  1.0350  0.2397 -1.5019
 5429SOL    HW227747   1.245   2.955   0.116 -1.3527  0.3597  0.0274
 5430SOL     OW27748   2.704   2.388   2.149 -0.1110  0.4772  0.9910
 5430SOL    HW127749   2.686   2.448   2.221  0.7163 -1.2404  2.6564
 5430SOL    HW227750   2.756   2.317   2.188 -3.1159 -3.0544 -1.4160
 5431SOL     OW27751   4.029   2.509   2.233 -0.0516 -0.0592 -0.0941
 5431SOL    HW127752   3.943   2.481   2.263 -0.5764  1.3819 -0.2465
 5431SOL    HW227753   4.030   2.479   2.143  0.2995 -0.9793  0.2122
 5432SOL     OW27754   1.078   2.061   3.705  0.1902  0.0070 -0.1047
 5432SOL    HW127755   1.065   2.152   3.682  1.5609  0.2239 -0.0238
 5432SOL    HW227756   1.069   2.075   3.800  2.3580  0.6633 -0.0090
 5433SOL     OW27757   3.194   3.400   5.733  0.4273  0.1072 -0.9773
 5433SOL    HW127758   3.263   3.335   5.751 -2.4373 -2.9127 -0.9359
 5433SOL    HW227759   3.148   3.397   5.817  0.6843 -0.5648 -0.8585
 5434SOL     OW27760   4.417   0.696   8.887  0.6112 -0.0371  0.8153
 5434SOL    HW127761   4.333   0.674   8.929 -0.2269 -2.6905 -2.2909
 5434SOL    HW227762   4.401   0.746   8.807  3.0390  0.3160  0.5397
 5435SOL     OW27763   0.531   0.294   6.376 -0.1995 -0.6463 -0.3592
 5435SOL    HW127764   0.485   0.227   6.326 -0.1684 -1.8082  1.1716
 5435SOL    HW227765   0.551   0.245   6.456  1.0192 -0.2275 -0.4102
 5436SOL     OW27766   4.444   3.288  14.112 -0.1120 -0.0381 -0.1569
 5436SOL    HW127767   4.498   3.254  14.183 -1.4068 -0.7745  0.4917
 5436SOL    HW227768   4.453   3.214  14.052 -0.7641 -0.6994  0.5541
 5437SOL     OW27769   1.879   4.259   9.327  0.5108 -0.2725  0.1928
 5437SOL    HW127770   1.929   4.296   9.399 -0.9085 -0.4927  1.2791
 5437SOL    HW227771   1.813   4.211   9.377  0.4034 -1.9256 -1.5220
 5438SOL     OW27772   4.027   3.123   8.291 -0.2566  0.1429 -0.4577
 5438SOL    HW127773   4.096   3.082   8.344 -2.0953 -0.8348  1.1721
 5438SOL    HW227774   4.046   3.215   8.307  1.1089 -0.6623  2.5050
 5439SOL     OW27775   2.646   1.946   8.954 -0.3759  0.3809 -0.0297
 5439SOL    HW127776   2.599   1.862   8.960  0.1360 -0.0529 -2.0990
 5439SOL    HW227777   2.689   1.950   8.869 -1.7710  2.0951 -0.6400
 5440SOL     OW27778   2.442   3.425   3.216 -0.2465 -0.4890  0.4368
 5440SOL    HW127779   2.421   3.502   3.164 -0.7053  0.0064  1.3695
 5440SOL    HW227780   2.520   3.400   3.165 -0.6496  0.5466 -0.6730
 5441SOL     OW27781   3.731   1.785   7.703  0.5300 -0.1540 -0.3150
 5441SOL    HW127782   3.822   1.801   7.727  1.0906 -2.2944 -1.0181
 5441SOL    HW227783   3.709   1.712   7.761  0.1456  2.1760  2.4768
 5442SOL     OW27784   2.709   4.472   8.341 -0.2240  0.9392 -0.0085
 5442SOL    HW127785   2.781   4.498   8.284  0.2653 -2.3696 -0.8859
 5442SOL    HW227786   2.730   4.516   8.424 -0.5694  0.5005  0.3105
 5443SOL     OW27787   0.023   0.068   9.557  0.0731 -0.2140 -1.0354
 5443SOL    HW127788   0.098   0.028   9.514  0.2107  0.4250 -1.3887
 5443SOL    HW227789   0.016   0.137   9.491 -2.7337 -0.3177 -0.8323
 5444SOL     OW27790   0.866   0.231   3.430  0.6047 -0.5537 -0.6534
 5444SOL    HW127791   0.953   0.191   3.433  0.3773 -1.0728 -1.0752
 5444SOL    HW227792   0.820   0.187   3.501 -0.9588 -0.1185 -1.3926
 5445SOL     OW27793   1.821   2.164   6.656  0.5238  0.1579 -0.1356
 5445SOL    HW127794   1.856   2.123   6.577 -2.5371  0.1807 -1.5132
 5445SOL    HW227795   1.901   2.167   6.708 -0.2574 -0.6111  1.1123
 5446SOL     OW27796   2.140   2.851   3.844 -0.6259  0.8622 -0.2579
 5446SOL    HW127797   2.162   2.853   3.751 -0.6804 -2.6986 -0.3735
 5446SOL    HW227798   2.197   2.922   3.871  0.5434 -0.1341 -0.1068
 5447SOL     OW27799   1.083   3.214   2.048 -0.4058  0.1218 -0.3799
 5447SOL    HW127800   1.072   3.120   2.033  0.9817 -0.0725 -0.1460
 5447SOL    HW227801   1.056   3.212   2.139 -1.1173  1.2431 -0.5623
 5448SOL     OW27802   3.847   4.273   5.792  0.5965  0.5776  0.1273
 5448SOL    HW127803   3.849   4.178   5.795  0.0954  0.5055 -1.7167
 5448SOL    HW227804   3.755   4.300   5.793  0.9408  1.6827  1.9179
 5449SOL     OW27805   4.545   0.107  12.442  0.1298 -0.2119 -0.3372
 5449SOL    HW127806   4.559   0.129  12.350 -1.6093 -0.8372 -0.7521
 5449SOL    HW227807   4.632   0.076  12.468 -1.3381 -5.0117 -1.0015
 5450SOL     OW27808   3.155   0.071   7.664 -0.1607 -0.1865 -0.2431
 5450SOL    HW127809   3.192   4.719   7.707  0.7145 -0.0122 -0.6742
 5450SOL    HW227810   3.060   0.060   7.667 -0.0158 -1.0845  0.8875
 5451SOL     OW27811   2.272   0.039  12.092 -0.1082 -0.9673 -0.3976
 5451SOL    HW127812   2.203   0.028  12.158 -0.1024 -2.7731 -0.7020
 5451SOL    HW227813   2.244   0.124  12.057 -0.8912 -0.6454  1.0388
 5452SOL     OW27814   1.597   3.171   9.836  0.0616 -0.0202  0.1788
 5452SOL    HW127815   1.558   3.134   9.757 -2.5743  1.3015  0.8355
 5452SOL    HW227816   1.676   3.121   9.857 -1.2688 -2.7108 -1.2341
 5453SOL     OW27817   2.763   0.920  11.631  0.6120 -0.1357  0.0241
 5453SOL    HW127818   2.812   0.955  11.556 -1.7239  2.7196 -0.1649
 5453SOL    HW227819   2.832   0.909  11.696 -0.7556  0.5280  1.5833
 5454SOL     OW27820   3.402   0.468  11.973  0.6026 -0.5836  0.2410
 5454SOL    HW127821   3.360   0.382  11.963 -0.1849 -0.1132 -0.5301
 5454SOL    HW227822   3.446   0.466  12.058 -2.2982  1.9624  1.7962
 5455SOL     OW27823   2.518   0.534  16.403 -0.2836  0.1226  0.4353
 5455SOL    HW127824   2.532   0.609  16.345  1.9537 -0.5396  0.1169
 5455SOL    HW227825   2.423   0.542  16.412 -0.2484 -0.4106  1.2702
 5456SOL     OW27826   2.342   4.382   9.181 -0.2317  0.1917 -0.1192
 5456SOL    HW127827   2.386   4.317   9.236 -3.0975  1.1496  3.2485
 5456SOL    HW227828   2.300   4.437   9.246  1.1687  1.4028 -0.2374
 5457SOL     OW27829   2.018   1.497   4.090 -0.1295  0.1138 -0.2130
 5457SOL    HW127830   2.040   1.423   4.146 -1.3124 -0.1343 -0.0726
 5457SOL    HW227831   2.062   1.507   4.005 -0.3329  1.5886 -0.1533
 5458SOL     OW27832   2.325   2.142  10.043  0.1996  0.2212  0.0134
 5458SOL    HW127833   2.265   2.096   9.984  1.6419 -0.9639 -0.5420
 5458SOL    HW227834   2.302   2.093  10.123  0.6968 -0.6562 -0.3715
 5459SOL     OW27835   3.557   3.675   7.998  0.5665 -0.1814 -0.4450
 5459SOL    HW127836   3.589   3.764   7.985 -2.1279  0.7224 -0.7436
 5459SOL    HW227837   3.487   3.673   7.932 -0.0531  0.9289  0.1828
 5460SOL     OW27838   4.496   2.260  13.726 -0.0445  0.0213 -0.3246
 5460SOL    HW127839   4.507   2.170  13.696 -0.7345 -0.7237  1.6506
 5460SOL    HW227840   4.402   2.266  13.709 -0.0595 -2.2261 -1.0496
 5461SOL     OW27841   1.583   0.075  15.420 -0.2526 -0.1968 -0.2581
 5461SOL    HW127842   1.605   4.711  15.450  0.7195  1.2763  3.2752
 5461SOL    HW227843   1.564   0.069  15.326 -1.6282 -2.0036  0.1222
 5462SOL     OW27844   2.298   4.679  17.689  0.3250 -0.7637 -0.6331
 5462SOL    HW127845   2.374   4.687   0.047 -1.4114 -0.5703  1.6214
 5462SOL    HW227846   2.322   4.597  17.646  0.9338 -0.5025 -0.7863
 5463SOL     OW27847   2.150   2.155   8.758 -0.1616 -0.0773  0.1292
 5463SOL    HW127848   2.176   2.110   8.677 -0.1377  0.6819 -0.2913
 5463SOL    HW227849   2.084   2.098   8.796  1.1363 -2.9279 -1.8995
 5464SOL     OW27850   4.722   1.905   6.348 -0.0779  0.4905 -0.4107
 5464SOL    HW127851   4.680   1.819   6.352  2.5474 -0.7892 -0.2633
 5464SOL    HW227852   0.024   1.921   6.439 -0.8052 -1.1801  0.0864
 5465SOL     OW27853   4.245   3.482  16.753  0.1068 -0.0181  0.2510
 5465SOL    HW127854   4.154   3.480  16.723  0.4370  0.9487 -0.7859
 5465SOL    HW227855   4.283   3.474  16.666  0.3038  0.6629  0.2750
 5466SOL     OW27856   2.738   3.302   3.828 -0.6745  0.1598 -0.3799
 5466SOL    HW127857   2.656   3.253   3.837 -0.9589  0.5426 -0.9067
 5466SOL    HW227858   2.806   3.241   3.857 -0.0759  1.3839  0.8073
 5467SOL     OW27859   3.830   0.358  17.628  0.2248  0.0300  0.2593
 5467SOL    HW127860   3.814   0.320  17.542  2.2954  0.0840 -0.1482
 5467SOL    HW227861   3.739   0.370  17.658  0.2643 -0.7969  0.7229
 5468SOL     OW27862   3.975   0.719   8.112  0.2681  0.2877  0.0780
 5468SOL    HW127863   3.987   0.698   8.020  0.6073 -0.3005  0.2556
 5468SOL    HW227864   4.045   0.783   8.126  0.1838 -0.0094  1.9607
 5469SOL     OW27865   3.711   2.997   6.073 -0.2200  0.3199 -0.0405
 5469SOL    HW127866   3.766   2.930   6.031 -1.7525 -0.8732 -0.1305
 5469SOL    HW227867   3.624   2.994   6.033 -1.9811 -0.9278  3.8479
 5470SOL     OW27868   3.192   4.540   6.293  0.1449 -0.1949 -0.0649
 5470SOL    HW127869   3.150   4.560   6.376 -0.2462 -1.0607 -0.0582
 5470SOL    HW227870   3.239   4.619   6.266  0.1593 -0.5192 -1.0211
 5471SOL     OW27871   0.344   3.509   4.195 -0.6441 -0.0373 -0.2066
 5471SOL    HW127872   0.344   3.563   4.275  0.2336 -0.4063  0.0511
 5471SOL    HW227873   0.250   3.494   4.197 -0.7124  0.0381 -2.7911
 5472SOL     OW27874   0.602   2.981   9.796 -0.5428 -0.2353 -0.1887
 5472SOL    HW127875   0.655   3.003   9.873 -2.0036  0.0141  0.7472
 5472SOL    HW227876   0.535   2.924   9.834 -0.5482  0.4530  0.8348
 5473SOL     OW27877   0.905   4.525  11.556 -0.0027  0.3878 -0.3387
 5473SOL    HW127878   0.961   4.499  11.482  0.2307 -1.2592  0.4326
 5473SOL    HW227879   0.965   4.501  11.627  1.6648 -1.3599 -2.3087
 5474SOL     OW27880   3.268   1.133   3.416  0.2516  0.5972  0.0197
 5474SOL    HW127881   3.264   1.172   3.503 -1.9826  0.1795  0.1113
 5474SOL    HW227882   3.178   1.110   3.391  0.5868  1.0439 -1.6066
 5475SOL     OW27883   4.295   1.549   0.202  0.3159  0.0479  0.0552
 5475SOL    HW127884   4.261   1.634   0.232  1.9152  1.3420 -1.7222
 5475SOL    HW227885   4.323   1.509   0.284  1.6024  0.6983 -0.0548
 5476SOL     OW27886   2.341   1.558   4.209  0.1243  0.1822  0.1035
 5476SOL    HW127887   2.336   1.626   4.276  0.4308 -1.6400  1.9773
 5476SOL    HW227888   2.369   1.478   4.253 -3.2030 -0.8538  0.3274
 5477SOL     OW27889   1.367   4.637   2.846 -0.2302 -0.4980  0.1284
 5477SOL    HW127890   1.318   4.558   2.869  0.7338 -0.6185  1.7998
 5477SOL    HW227891   1.296   4.699   2.865 -0.4205 -0.7707  0.3107
 5478SOL     OW27892   0.993   3.007   8.337  0.1423  0.1621 -0.0715
 5478SOL    HW127893   1.034   3.071   8.279 -0.7563  0.6360 -0.1888
 5478SOL    HW227894   0.939   3.061   8.396 -0.4566  1.1917 -1.5647
 5479SOL     OW27895   1.203   3.525  16.281 -0.3563 -0.1537  0.0725
 5479SOL    HW127896   1.237   3.583  16.349 -0.7464  2.1069 -1.6418
 5479SOL    HW227897   1.142   3.580  16.231  1.7758  1.4176 -0.7815
 5480SOL     OW27898   0.475   4.262   6.794  0.2787 -0.6369  0.2561
 5480SOL    HW127899   0.486   4.174   6.828  0.7064 -0.9915 -0.7911
 5480SOL    HW227900   0.385   4.290   6.814 -0.1673 -1.4103 -0.6388
 5481SOL     OW27901   0.386   1.978   9.646  0.0800 -0.0688 -0.4093
 5481SOL    HW127902   0.392   2.061   9.693 -0.5995 -0.4804  0.4050
 5481SOL    HW227903   0.476   1.957   9.671  0.2242  1.1110  0.0809
 5482SOL     OW27904   3.554   0.258  11.705  0.3620 -0.1562  0.2771
 5482SOL    HW127905   3.638   0.217  11.683  0.1911 -1.3561  1.8195
 5482SOL    HW227906   3.494   0.186  11.726  1.3758 -0.8401  0.8671
 5483SOL     OW27907   1.428   1.086   4.416  0.3011 -0.1660  1.1915
 5483SOL    HW127908   1.433   1.181   4.405  0.2369 -0.2080  0.7878
 5483SOL    HW227909   1.408   1.067   4.324  0.2481  3.4324  0.4631
 5484SOL     OW27910   2.488   4.425   3.974  0.4379 -0.1404 -0.2381
 5484SOL    HW127911   2.467   4.516   3.995 -0.4622 -0.1511 -1.1017
 5484SOL    HW227912   2.549   4.403   4.045 -0.3913 -1.0153  0.2024
 5485SOL     OW27913   0.126   3.452   1.033 -0.1764  0.7527  0.0508
 5485SOL    HW127914   0.198   3.479   1.090  0.3529 -0.5581  0.0010
 5485SOL    HW227915   0.070   3.403   1.094  1.8274 -1.3166  0.2462
 5486SOL     OW27916   4.572   2.015   0.683 -0.0146  0.3330  0.0276
 5486SOL    HW127917   4.568   2.042   0.591  1.7531 -1.3078 -0.5366
 5486SOL    HW227918   4.626   2.087   0.714 -0.1793  0.2500  0.5128
 5487SOL     OW27919   0.740   4.096   9.226 -0.3578  0.0646 -0.2195
 5487SOL    HW127920   0.662   4.083   9.172  0.7666 -1.0187 -1.5810
 5487SOL    HW227921   0.721   4.181   9.267  1.2294  0.4956 -0.3956
 5488SOL     OW27922   3.714   0.258  11.374  0.0495 -0.3374 -0.5167
 5488SOL    HW127923   3.727   0.351  11.356 -0.2037 -0.0384  0.7815
 5488SOL    HW227924   3.755   0.239  11.459  0.4293  2.2416 -0.1143
 5489SOL     OW27925   3.589   4.644   6.111  0.4600  0.3498 -0.2748
 5489SOL    HW127926   3.595   4.660   6.205 -0.4300 -0.1370 -0.1331
 5489SOL    HW227927   3.494   4.641   6.099  0.3003 -1.8927  1.5509
 5490SOL     OW27928   0.757   0.032   0.142 -0.2261  0.0661  0.0207
 5490SOL    HW127929   0.829   0.071   0.192 -0.8258  0.4377  0.5962
 5490SOL    HW227930   0.718   4.704   0.212  0.9609  0.7356  1.1800
 5491SOL     OW27931   2.815   0.785   4.083 -0.0576  0.7046 -0.1259
 5491SOL    HW127932   2.843   0.876   4.072 -1.3159  1.0402 -0.6107
 5491SOL    HW227933   2.764   0.784   4.165 -0.4242  2.5270 -0.3212
 5492SOL     OW27934   4.101   2.349  17.403  0.3495  0.3037  0.3531
 5492SOL    HW127935   4.084   2.276  17.461  0.6894  0.7469  1.0079
 5492SOL    HW227936   4.190   2.374  17.425  0.3956  0.6453 -0.2112
 5493SOL     OW27937   2.595   2.694   1.621 -0.4156 -0.0688 -0.2227
 5493SOL    HW127938   2.622   2.604   1.639 -0.2689  0.0392  0.0850
 5493SOL    HW227939   2.618   2.705   1.529 -0.1319  1.4391  0.0224
 5494SOL     OW27940   0.671   3.084   1.416  0.1450  0.1596 -0.6408
 5494SOL    HW127941   0.694   3.013   1.477  2.3596 -1.5785 -3.4944
 5494SOL    HW227942   0.734   3.067   1.347  0.5083  0.5289 -0.3955
 5495SOL     OW27943   2.743   1.140   7.111 -0.9546  0.2685  0.4153
 5495SOL    HW127944   2.756   1.209   7.175 -0.5127 -0.9722  1.6748
 5495SOL    HW227945   2.780   1.066   7.160  1.3770  1.4911  0.5003
 5496SOL     OW27946   2.236   0.280   1.655 -0.0454 -0.4021  0.9770
 5496SOL    HW127947   2.223   0.190   1.626  2.0147 -0.6070  0.7047
 5496SOL    HW227948   2.192   0.280   1.740 -0.7171 -0.6797  0.6291
 5497SOL     OW27949   4.313   3.211   9.279  0.4370 -0.1302 -0.4375
 5497SOL    HW127950   4.401   3.181   9.301 -0.2678 -0.9144  1.3620
 5497SOL    HW227951   4.305   3.287   9.338  0.2281  1.3906 -2.4386
 5498SOL     OW27952   4.436   0.632   5.779  0.3051 -0.4816 -0.7524
 5498SOL    HW127953   4.477   0.707   5.821  2.3377 -3.1387  2.0473
 5498SOL    HW227954   4.486   0.617   5.699  1.1673 -1.7158  0.0225
 5499SOL     OW27955   3.583   1.601   8.961 -0.2013  0.0715  0.1532
 5499SOL    HW127956   3.554   1.511   8.944 -0.0423 -0.0417  0.4814
 5499SOL    HW227957   3.644   1.589   9.034  1.7023 -3.8579 -2.1114
 5500SOL     OW27958   2.689   4.305   2.421 -0.3777 -0.1671  0.3023
 5500SOL    HW127959   2.732   4.242   2.363  1.7897  2.6547 -1.1505
 5500SOL    HW227960   2.744   4.314   2.499 -0.1394  2.3778 -0.1477
 5501SOL     OW27961   2.559   2.966   5.447  0.2420 -0.2369  0.2454
 5501SOL    HW127962   2.474   2.938   5.481  0.6139 -0.6282  0.8563
 5501SOL    HW227963   2.606   2.989   5.527  0.1607 -0.4767  0.3610
 5502SOL     OW27964   1.207   2.302   8.002 -0.2390 -0.3592  0.2293
 5502SOL    HW127965   1.198   2.247   8.080 -1.4822 -2.0620 -1.1194
 5502SOL    HW227966   1.252   2.242   7.942  0.3134 -2.2235  2.5186
 5503SOL     OW27967   0.521   3.399   0.948  0.1969  0.7199 -0.6108
 5503SOL    HW127968   0.490   3.312   0.972  1.7327 -0.2927 -2.3436
 5503SOL    HW227969   0.590   3.371   0.889 -0.3847 -0.2212 -0.8348
 5504SOL     OW27970   4.080   3.230   3.774  1.0931 -0.3776 -0.0317
 5504SOL    HW127971   4.046   3.290   3.708  3.3035  2.0902  1.0328
 5504SOL    HW227972   4.080   3.291   3.848  1.0898 -1.8345  1.1783
 5505SOL     OW27973   2.263   0.978   4.817 -0.2242  0.2472  0.0718
 5505SOL    HW127974   2.314   0.916   4.765 -0.3189 -0.0907  0.3762
 5505SOL    HW227975   2.310   1.060   4.803 -1.7141  0.8278 -1.6364
 5506SOL     OW27976   3.726   2.220  13.547 -0.0662  0.4910 -0.1693
 5506SOL    HW127977   3.694   2.298  13.502  1.0710 -0.3802 -2.4732
 5506SOL    HW227978   3.800   2.188  13.495 -1.0461 -0.7533 -0.8016
 5507SOL     OW27979   1.773   3.671   9.030 -0.1645 -0.6840 -0.5168
 5507SOL    HW127980   1.773   3.576   9.036 -0.7076 -0.7607 -1.5827
 5507SOL    HW227981   1.768   3.694   9.122  1.1369  0.8017 -0.8193
 5508SOL     OW27982   1.027   4.243   2.060 -0.6244 -0.1095 -0.5861
 5508SOL    HW127983   1.018   4.157   2.103 -0.3065 -0.1341 -0.5710
 5508SOL    HW227984   1.121   4.253   2.052 -0.3342 -3.3063 -1.3969
 5509SOL     OW27985   2.476   0.116  17.415  0.0046 -0.0868 -0.0098
 5509SOL    HW127986   2.398   0.137  17.467 -1.2019 -2.3405 -0.8887
 5509SOL    HW227987   2.524   0.192  17.448 -0.1172  0.2668 -0.6515
 5510SOL     OW27988   0.633   3.254   9.452  0.2944  0.0029  0.0731
 5510SOL    HW127989   0.573   3.291   9.387 -0.6121 -2.7663 -0.7174
 5510SOL    HW227990   0.681   3.335   9.467 -0.7332  1.0692 -2.3167
 5511SOL     OW27991   3.907   4.566   3.558 -0.1466  0.4250 -0.2225
 5511SOL    HW127992   3.909   4.655   3.524  0.1513  0.4865 -0.0428
 5511SOL    HW227993   3.847   4.586   3.631 -2.3939 -1.2688 -1.5927
 5512SOL     OW27994   2.048   1.756   9.745 -0.7946  0.1021 -0.2814
 5512SOL    HW127995   1.985   1.686   9.760 -2.3167  1.8172  1.3609
 5512SOL    HW227996   2.022   1.771   9.653  1.8537  1.1455 -0.8389
 5513SOL     OW27997   3.551   3.951  14.267 -0.4534  0.1347  0.2469
 5513SOL    HW127998   3.485   3.954  14.197 -0.8100 -0.7232  0.5501
 5513SOL    HW227999   3.542   4.038  14.306  1.1480  0.4724 -0.1433
 5514SOL     OW28000   3.326   3.029   5.557  0.3425 -0.3535  0.5135
 5514SOL    HW128001   3.418   3.050   5.541  0.5183 -1.5653 -0.0865
 5514SOL    HW228002   3.301   3.008   5.466  0.4513 -2.1918  0.9090
 5515SOL     OW28003   1.036   4.371   6.062 -0.3199 -0.1179  0.5410
 5515SOL    HW128004   1.079   4.309   6.004  0.5203 -0.0681  1.1214
 5515SOL    HW228005   1.057   4.329   6.145  1.1003  0.6498  0.5686
 5516SOL     OW28006   1.610   4.046   7.308  0.0988  0.2021 -0.0495
 5516SOL    HW128007   1.701   4.060   7.284 -0.5824  3.7070 -0.6625
 5516SOL    HW228008   1.569   4.053   7.222 -0.0706 -5.5571 -0.4492
 5517SOL     OW28009   0.853   0.222   0.624 -0.1979 -0.4577  0.7098
 5517SOL    HW128010   0.806   0.301   0.597 -0.8502 -0.7973  0.8650
 5517SOL    HW228011   0.929   0.251   0.675  1.4529 -1.3009 -1.2891
 5518SOL     OW28012   3.262   0.182   9.141 -0.2430 -0.2242 -0.9563
 5518SOL    HW128013   3.306   0.185   9.226  0.8211 -0.2872 -1.5029
 5518SOL    HW228014   3.281   0.270   9.109 -0.5129 -0.9251 -3.0936
 5519SOL     OW28015   0.843   0.744  14.000 -0.3543  0.3578  0.3419
 5519SOL    HW128016   0.860   0.711  14.088  1.6752  0.4631 -0.0046
 5519SOL    HW228017   0.792   0.673  13.961  0.7395 -0.4399  0.3368
 5520SOL     OW28018   4.346   1.941   5.119  0.0622  0.3690 -0.2933
 5520SOL    HW128019   4.407   2.014   5.112  2.4890 -1.8531 -2.4786
 5520SOL    HW228020   4.306   1.954   5.205  1.1474  2.1996 -0.0777
 5521SOL     OW28021   4.170   3.201   7.703  0.4602  0.0214 -0.6376
 5521SOL    HW128022   4.085   3.175   7.669  0.0470 -1.3855  1.5102
 5521SOL    HW228023   4.238   3.139   7.676  1.2689  0.9268 -0.7071
 5522SOL     OW28024   3.313   3.963  14.126  0.0807  0.0520 -0.0018
 5522SOL    HW128025   3.302   3.894  14.060 -1.4974 -0.0395  0.3488
 5522SOL    HW228026   3.225   3.987  14.154 -0.4199  0.4703 -1.9618
 5523SOL     OW28027   1.616   1.132  12.221 -0.1008  0.0145  0.1584
 5523SOL    HW128028   1.598   1.101  12.310  0.0438 -0.5560 -0.0128
 5523SOL    HW228029   1.536   1.115  12.172  0.1505  0.6908 -0.5024
 5524SOL     OW28030   2.854   1.629   8.413 -0.0396 -0.4066 -0.0972
 5524SOL    HW128031   2.888   1.675   8.336  0.9474 -0.0151  0.5781
 5524SOL    HW228032   2.764   1.656   8.396  0.2864  0.9065  0.2254
 5525SOL     OW28033   3.269   0.511   8.785  0.0515  0.1940 -0.3792
 5525SOL    HW128034   3.296   0.591   8.831  0.3046  2.0695 -3.8400
 5525SOL    HW228035   3.346   0.462   8.758 -1.8330 -1.6364 -2.4003
 5526SOL     OW28036   1.585   0.863   8.847  0.5540 -0.0457  0.3362
 5526SOL    HW128037   1.612   0.816   8.768 -3.0579 -1.1928 -0.2012
 5526SOL    HW228038   1.645   0.938   8.853 -0.2404  0.6755 -0.6703
 5527SOL     OW28039   2.513   2.403   7.300  0.1264  0.0634  0.1744
 5527SOL    HW128040   2.481   2.399   7.390  0.2930  4.9044  0.4670
 5527SOL    HW228041   2.604   2.425   7.322 -0.4292  3.0950 -0.4624
 5528SOL     OW28042   3.430   1.342   1.843 -0.6849  0.1530 -0.1980
 5528SOL    HW128043   3.385   1.380   1.768 -1.7193 -0.5280  0.0843
 5528SOL    HW228044   3.517   1.382   1.839  0.4030 -2.2245 -0.5286
 5529SOL     OW28045   2.079   1.666   9.042 -0.1521  0.2285 -0.4222
 5529SOL    HW128046   1.987   1.642   9.056  0.0152 -1.1952 -1.8168
 5529SOL    HW228047   2.116   1.648   9.129 -3.2808 -0.1694  0.8203
 5530SOL     OW28048   2.519   2.288   2.617 -0.2541 -0.0503 -0.4109
 5530SOL    HW128049   2.514   2.350   2.690 -0.6838  0.4693 -0.8852
 5530SOL    HW228050   2.508   2.348   2.543 -1.0718 -1.1152 -1.1478
 5531SOL     OW28051   0.415   1.886  14.106 -0.1641  0.0920  0.4438
 5531SOL    HW128052   0.402   1.791  14.111 -1.8996  0.3078 -0.1548
 5531SOL    HW228053   0.509   1.884  14.126  0.0137 -1.8676 -0.5695
 5532SOL     OW28054   4.680   1.813  15.902  0.2672 -0.0449  0.2305
 5532SOL    HW128055   4.590   1.781  15.900  1.0370 -2.2505  1.1982
 5532SOL    HW228056   4.684   1.880  15.834  0.9787 -1.4820 -1.1392
 5533SOL     OW28057   0.101   4.154   8.485 -0.3292 -0.3841  0.1861
 5533SOL    HW128058   0.141   4.232   8.523 -1.7647 -0.1205  1.1561
 5533SOL    HW228059   0.178   4.098   8.477  0.0318 -0.0485  1.3260
 5534SOL     OW28060   4.349   1.749  11.429  0.8051  0.3036  0.9137
 5534SOL    HW128061   4.279   1.810  11.407  1.6150  0.2094 -1.9799
 5534SOL    HW228062   4.337   1.675  11.369 -1.3680 -0.2442  2.0452
 5535SOL     OW28063   2.889   0.229  15.120  0.6012 -0.3645 -0.0044
 5535SOL    HW128064   2.899   0.166  15.048  0.1288  1.0089 -1.2739
 5535SOL    HW228065   2.903   0.183  15.202 -0.4616 -0.2961  0.2146
 5536SOL     OW28066   3.624   3.305   5.016  0.0078  0.4002  0.3406
 5536SOL    HW128067   3.546   3.252   5.003  0.0919 -0.0556  1.6882
 5536SOL    HW228068   3.596   3.393   4.989 -1.5429 -0.3873 -0.6237
 5537SOL     OW28069   3.640   3.322   9.409  0.1457 -0.3237  0.5539
 5537SOL    HW128070   3.582   3.272   9.351 -1.0651 -0.3255  1.7675
 5537SOL    HW228071   3.587   3.324   9.488 -0.0759  0.8870  0.3684
 5538SOL     OW28072   4.649   3.978   2.414 -0.7504 -0.3172 -0.2326
 5538SOL    HW128073   4.660   4.064   2.455 -0.8374 -1.3682  2.0518
 5538SOL    HW228074   0.003   3.944   2.457  0.5722  0.7546 -1.8373
 5539SOL     OW28075   1.358   4.180  13.700  0.6895  0.1536  0.6849
 5539SOL    HW128076   1.308   4.222  13.769 -0.5497 -2.5819  1.4742
 5539SOL    HW228077   1.325   4.233  13.628 -0.9131 -0.5607  0.8852
 5540SOL     OW28078   0.240   3.261   9.268 -0.2673  0.3749  0.3729
 5540SOL    HW128079   0.294   3.340   9.271 -1.3436  1.1034  0.5032
 5540SOL    HW228080   0.234   3.241   9.361  0.0491 -2.3751 -0.1884
 5541SOL     OW28081   3.610   4.593   3.646 -0.3278 -0.3975  0.6218
 5541SOL    HW128082   3.589   4.619   3.556  0.1403  0.1528  0.6712
 5541SOL    HW228083   3.622   4.672   3.699  0.1531 -0.8375  1.1657
 5542SOL     OW28084   1.754   1.739   0.811  0.0451 -0.2425 -0.7642
 5542SOL    HW128085   1.662   1.714   0.824  0.1794 -0.5232 -0.3623
 5542SOL    HW228086   1.777   1.695   0.730  2.8388 -0.5783  0.2113
 5543SOL     OW28087   0.524   3.444   7.281  0.7332  0.1977 -0.3592
 5543SOL    HW128088   0.559   3.357   7.258  0.0388 -0.0027 -0.6498
 5543SOL    HW228089   0.607   3.491   7.277  2.0386 -2.0707 -0.0091
 5544SOL     OW28090   1.950   0.494   3.339 -0.2430 -1.0585  0.3790
 5544SOL    HW128091   1.860   0.476   3.366 -1.2448 -0.3910 -2.5897
 5544SOL    HW228092   1.963   0.583   3.373 -1.1128 -1.1667  0.9898
 5545SOL     OW28093   0.208   1.985  16.599  0.3033 -0.8205 -0.1149
 5545SOL    HW128094   0.155   2.059  16.629 -0.6956 -1.3160 -0.6698
 5545SOL    HW228095   0.246   1.945  16.677  0.5089 -0.3029  0.0567
 5546SOL     OW28096   0.763   3.601   7.539 -1.0036 -0.2639 -0.5830
 5546SOL    HW128097   0.760   3.542   7.614 -1.3471  0.3355 -0.1198
 5546SOL    HW228098   0.675   3.638   7.542 -1.0847 -0.5893  1.1347
 5547SOL     OW28099   2.479   2.241   8.017  0.1632  0.1860  0.1231
 5547SOL    HW128100   2.556   2.272   7.969 -0.0649 -1.5444 -1.3781
 5547SOL    HW228101   2.423   2.208   7.946  0.6816 -3.1678  1.2354
 5548SOL     OW28102   4.026   1.253  14.058 -0.4530  0.0867  0.1999
 5548SOL    HW128103   3.967   1.183  14.029  0.2042 -0.7723  0.9158
 5548SOL    HW228104   4.063   1.213  14.137  2.3113  1.6059 -0.3195
 5549SOL     OW28105   1.432   1.268  11.995  0.6455 -0.5119 -0.2291
 5549SOL    HW128106   1.391   1.197  12.046 -2.4573 -0.2189 -2.2872
 5549SOL    HW228107   1.371   1.267  11.921  1.2124 -0.0670 -0.7057
 5550SOL     OW28108   0.922   0.034   7.455  0.1345 -0.4066 -0.1176
 5550SOL    HW128109   0.902   0.112   7.402  0.8076 -0.6432 -0.7254
 5550SOL    HW228110   0.916   4.690   7.388  1.0521  0.3435 -0.9725
 5551SOL     OW28111   2.761   1.919   2.740 -0.2005  0.2305  0.1779
 5551SOL    HW128112   2.736   1.846   2.683 -0.0841  1.4889 -1.4944
 5551SOL    HW228113   2.756   1.990   2.676  0.2873 -1.1280 -1.3875
 5552SOL     OW28114   4.080   0.304   5.762 -0.9121  0.1541 -0.1258
 5552SOL    HW128115   4.088   0.396   5.736 -1.2122 -0.1088 -1.1562
 5552SOL    HW228116   4.049   0.314   5.852  0.5852  0.7851  0.3148
 5553SOL     OW28117   3.064   3.718  11.361 -0.3676  0.0489 -0.0922
 5553SOL    HW128118   3.011   3.671  11.297  0.0999 -0.8562  0.1800
 5553SOL    HW228119   3.064   3.639  11.415 -2.3895  0.9011  1.1736
 5554SOL     OW28120   0.143   1.304   7.049  0.0304 -0.6634 -0.1953
 5554SOL    HW128121   0.077   1.244   7.014 -2.8242  2.4419 -0.0935
 5554SOL    HW228122   0.081   1.351   7.105  0.0505  0.7743 -1.3839
 5555SOL     OW28123   4.704   3.007  16.470  0.4522 -0.5931 -0.1903
 5555SOL    HW128124   0.049   2.978  16.410 -0.3328 -0.8157 -0.9906
 5555SOL    HW228125   0.013   3.007  16.559 -2.8487  2.3369  1.0843
 5556SOL     OW28126   2.071   3.759   1.577 -0.0854  0.1677 -0.0038
 5556SOL    HW128127   1.975   3.753   1.582 -0.1025  0.3575 -0.1122
 5556SOL    HW228128   2.073   3.808   1.495  0.9995  0.5187  0.2341
 5557SOL     OW28129   3.558   4.491  17.180 -0.5013  0.4159 -0.4348
 5557SOL    HW128130   3.511   4.426  17.233  0.3193  1.1406  1.1949
 5557SOL    HW228131   3.649   4.467  17.199  0.3133  0.5366 -4.1999
 5558SOL     OW28132   0.091   4.280   4.907 -0.2078 -0.2164 -0.2236
 5558SOL    HW128133   0.163   4.287   4.970 -2.4402  0.9729  2.2217
 5558SOL    HW228134   0.125   4.330   4.834 -0.6238 -0.5220 -0.6289
 5559SOL     OW28135   2.580   2.154  13.465 -0.2361 -0.0076  0.0106
 5559SOL    HW128136   2.654   2.112  13.509 -0.8313 -0.8533  0.1808
 5559SOL    HW228137   2.610   2.245  13.454 -0.7362  0.3417  1.5747
 5560SOL     OW28138   2.760   3.944  10.349  0.0250 -0.6636 -0.1342
 5560SOL    HW128139   2.818   3.926  10.275 -0.9319  0.6365 -1.1951
 5560SOL    HW228140   2.822   3.967  10.419  1.3021 -1.8488 -0.8759
 5561SOL     OW28141   0.812   3.216  11.752  0.5511  0.3706  0.0756
 5561SOL    HW128142   0.719   3.239  11.751  0.5797  0.2871 -3.2599
 5561SOL    HW228143   0.826   3.181  11.840  1.6841 -0.7325 -0.5482
 5562SOL     OW28144   0.616   3.794   9.296  0.3134  0.2298  0.0270
 5562SOL    HW128145   0.528   3.759   9.308  1.4788 -2.5388  0.4601
 5562SOL    HW228146   0.609   3.872   9.241  2.1285  2.0930  2.3992
 5563SOL     OW28147   2.489   2.168   6.566 -0.2134 -0.0793  0.1039
 5563SOL    HW128148   2.466   2.106   6.635 -0.8808 -1.0428 -0.9826
 5563SOL    HW228149   2.442   2.247   6.595  0.7379  0.9165 -1.0835
 5564SOL     OW28150   4.525   0.002  10.968  0.5629  0.1558  0.0028
 5564SOL    HW128151   4.445   4.698  11.012 -0.7694  2.1663 -1.0432
 5564SOL    HW228152   4.527   4.662  10.897  2.2297 -1.2283  1.3170
 5565SOL     OW28153   1.350   2.405   2.926  0.4522  0.6736 -0.2203
 5565SOL    HW128154   1.256   2.393   2.935  0.4197  1.7857  0.9865
 5565SOL    HW228155   1.379   2.332   2.871  0.3302 -0.5125  1.2831
 5566SOL     OW28156   3.187   1.914   3.905  0.1913 -0.3502 -0.0410
 5566SOL    HW128157   3.202   1.827   3.943  0.4174 -0.9118 -1.4402
 5566SOL    HW228158   3.244   1.915   3.828  1.1732 -2.3595  0.6530
 5567SOL     OW28159   0.040   3.613   7.164  0.3069  0.3767  0.1383
 5567SOL    HW128160   0.132   3.630   7.148  0.4482 -0.5016  0.0164
 5567SOL    HW228161   0.039   3.525   7.204  1.1610  1.3086  2.1945
 5568SOL     OW28162   3.757   2.996   4.868  0.0422  0.1328  0.2481
 5568SOL    HW128163   3.760   3.006   4.963 -0.1247 -0.6157  0.3334
 5568SOL    HW228164   3.725   2.906   4.858 -0.6019  0.4593 -0.6158
 5569SOL     OW28165   0.281   0.417   6.178  0.1212  0.1876 -0.7140
 5569SOL    HW128166   0.321   0.446   6.261 -0.9578 -3.0117  0.9265
 5569SOL    HW228167   0.255   0.500   6.140  3.3693  2.0819  1.1411
 5570SOL     OW28168   3.482   1.742   7.003  0.4414  0.1798 -0.0401
 5570SOL    HW128169   3.504   1.708   7.089 -0.9398 -1.0799 -0.1856
 5570SOL    HW228170   3.523   1.669   6.955 -3.2221 -0.1512 -2.6952
 5571SOL     OW28171   2.340   3.237   7.757 -0.1976  0.3450 -0.1083
 5571SOL    HW128172   2.416   3.212   7.704  0.3238  0.8742  0.3756
 5571SOL    HW228173   2.280   3.165   7.740  2.4217 -1.6576 -0.8691
 5572SOL     OW28174   4.558   3.925   2.049  0.1886  0.2233 -0.0065
 5572SOL    HW128175   4.612   3.988   2.002  0.2161  0.1411 -0.0866
 5572SOL    HW228176   4.539   3.873   1.970 -1.2876 -0.1794  0.6169
 5573SOL     OW28177   1.928   2.426  16.025 -0.8804 -0.7003 -0.6515
 5573SOL    HW128178   1.939   2.474  15.943 -1.1186  0.1760 -0.1660
 5573SOL    HW228179   1.841   2.387  16.019  0.1716 -3.0994 -0.6289
 5574SOL     OW28180   1.212   2.658  16.956 -0.2625  0.0893 -0.0517
 5574SOL    HW128181   1.178   2.700  17.036  1.1692 -2.6852  2.0370
 5574SOL    HW228182   1.240   2.732  16.903 -1.5069  0.3353 -0.3393
 5575SOL     OW28183   1.731   0.928   4.685  0.4499  0.5214  0.5866
 5575SOL    HW128184   1.704   0.942   4.776 -1.3077 -0.1361  0.1661
 5575SOL    HW228185   1.817   0.971   4.681  0.6609 -0.0007 -0.5599
 5576SOL     OW28186   2.737   0.338   6.434 -0.2902 -0.1982 -0.2407
 5576SOL    HW128187   2.653   0.312   6.397 -1.8045  0.9096  2.4006
 5576SOL    HW228188   2.715   0.295   6.517 -1.8448  0.3936 -0.3441
 5577SOL     OW28189   2.993   1.961   0.995 -0.4944  0.0659  0.2177
 5577SOL    HW128190   2.990   1.972   0.900 -1.0655 -0.0335  0.2241
 5577SOL    HW228191   3.038   1.878   1.008 -1.0349 -0.3185 -0.3567
 5578SOL     OW28192   3.072   1.198   4.569  0.0536  0.1798  0.1216
 5578SOL    HW128193   3.156   1.201   4.523 -0.2709  0.2759 -0.4607
 5578SOL    HW228194   3.008   1.209   4.499  1.2716  3.8201 -0.4281
 5579SOL     OW28195   2.704   3.592  15.469 -0.7618  0.4243  0.0770
 5579SOL    HW128196   2.770   3.630  15.411 -2.1307  1.7871 -0.6049
 5579SOL    HW228197   2.650   3.671  15.471  0.2210  1.1009 -0.3582
 5580SOL     OW28198   3.779   2.287   2.984 -0.2404 -0.3104  1.0388
 5580SOL    HW128199   3.705   2.280   2.923  0.5310 -2.1085  0.3301
 5580SOL    HW228200   3.769   2.206   3.032  0.2852  0.2136  2.0286
 5581SOL     OW28201   0.934   1.719   9.537 -0.1993  0.7477 -0.9385
 5581SOL    HW128202   0.904   1.710   9.447 -1.8099  0.0273 -0.3181
 5581SOL    HW228203   0.865   1.769   9.581 -1.2654 -0.4304 -1.2728
 5582SOL     OW28204   0.829   0.094   5.815 -0.2142  0.0961  0.1567
 5582SOL    HW128205   0.755   0.037   5.794  0.8885 -1.7130  1.1926
 5582SOL    HW228206   0.804   0.160   5.881 -0.0608  1.2678 -0.9480
 5583SOL     OW28207   1.889   2.903  14.536 -0.1958  0.2768  0.2492
 5583SOL    HW128208   1.803   2.916  14.497  0.0423  2.7321  0.5199
 5583SOL    HW228209   1.944   2.943  14.467 -2.1192  1.7742 -0.4269
 5584SOL     OW28210   3.338   3.446   2.671 -0.6408  0.6349 -0.4446
 5584SOL    HW128211   3.363   3.465   2.761 -0.7054 -1.6653  0.0495
 5584SOL    HW228212   3.371   3.358   2.655 -1.7335  0.2506 -0.5810
 5585SOL     OW28213   2.236   2.728   4.889  0.1400 -0.1334 -0.2479
 5585SOL    HW128214   2.312   2.778   4.916  0.2401 -0.1873 -0.4336
 5585SOL    HW228215   2.258   2.710   4.798 -0.3694  2.0229 -0.8142
 5586SOL     OW28216   1.071   0.714   9.787 -0.6390 -0.1722 -0.0707
 5586SOL    HW128217   1.015   0.644   9.822  0.1137 -1.3465 -1.2027
 5586SOL    HW228218   1.092   0.677   9.701  2.2062  2.0518 -0.3088
 5587SOL     OW28219   0.984   4.412  13.143  0.6066  0.4054 -0.1721
 5587SOL    HW128220   0.907   4.447  13.099  2.6752  1.9339 -2.6019
 5587SOL    HW228221   1.063   4.460  13.116  1.8948 -0.7606  1.5713
 5588SOL     OW28222   2.763   0.059  15.494 -0.0270 -0.6798 -0.0885
 5588SOL    HW128223   2.685   0.109  15.515  0.1065 -1.5062  2.3499
 5588SOL    HW228224   2.818   0.136  15.478 -0.8199 -0.3803 -1.3233
 5589SOL     OW28225   0.451   2.668   2.322 -0.3713 -0.2502 -0.6397
 5589SOL    HW128226   0.391   2.616   2.376  2.1316  0.1603  2.6008
 5589SOL    HW228227   0.397   2.746   2.311 -1.6894 -0.7704  2.1158
 5590SOL     OW28228   4.644   2.000   2.673  0.2173  0.4551  0.4272
 5590SOL    HW128229   4.690   1.950   2.606  0.7075  0.6869  0.5890
 5590SOL    HW228230   4.696   2.080   2.689  3.0147 -1.5794  1.6438
 5591SOL     OW28231   0.170   0.717  16.474 -0.4221  1.0113  0.0410
 5591SOL    HW128232   0.165   0.709  16.379  0.1794  1.5405 -0.0385
 5591SOL    HW228233   0.141   0.637  16.518  0.1359  1.3600  1.0370
 5592SOL     OW28234   2.670   0.975   2.664  0.0432  0.0149 -0.1157
 5592SOL    HW128235   2.749   1.009   2.706 -0.2918  1.0897 -0.3581
 5592SOL    HW228236   2.667   1.027   2.584  1.0952  2.4565  1.4521
 5593SOL     OW28237   2.616   2.934   2.870  0.3479  0.1741 -0.4930
 5593SOL    HW128238   2.578   3.014   2.905  0.2663 -0.6526  1.2681
 5593SOL    HW228239   2.546   2.871   2.886  0.3824 -0.1979 -1.7823
 5594SOL     OW28240   0.012   2.661   7.100  0.2856 -0.0530  0.7093
 5594SOL    HW128241   0.008   2.652   7.004 -0.3485  3.6009  0.3679
 5594SOL    HW228242   4.669   2.725   7.123 -1.4149 -1.0509 -1.4053
 5595SOL     OW28243   3.922   3.869  11.639 -0.0069  0.2196  0.5219
 5595SOL    HW128244   3.914   3.938  11.705 -2.0955 -0.4935  1.0332
 5595SOL    HW228245   3.904   3.913  11.556 -1.0592  0.0256  0.6434
 5596SOL     OW28246   3.861   1.764   6.817 -0.7716  0.5354 -0.0363
 5596SOL    HW128247   3.846   1.786   6.909  1.4396  0.4121  0.3529
 5596SOL    HW228248   3.780   1.801   6.782 -0.3208  0.4252 -1.1721
 5597SOL     OW28249   2.215   0.932   6.711 -0.4022  0.2498 -0.1004
 5597SOL    HW128250   2.271   0.997   6.669  0.2014  0.8619  1.6456
 5597SOL    HW228251   2.281   0.871   6.743 -1.2799  0.1538  1.5711
 5598SOL     OW28252   1.080   3.160  11.617 -0.4870  0.1305 -0.2148
 5598SOL    HW128253   0.988   3.152  11.642 -0.5722 -1.1780 -0.9784
 5598SOL    HW228254   1.109   3.069  11.612 -1.6029 -0.2064 -0.5575
 5599SOL     OW28255   1.866   3.332   5.258  0.3652  0.2157 -0.4081
 5599SOL    HW128256   1.855   3.328   5.353 -1.3507 -0.3674 -0.6247
 5599SOL    HW228257   1.954   3.358   5.234  0.7721  0.8069  1.7240
 5600SOL     OW28258   1.811   2.471   5.249  0.2284  0.6919 -0.0022
 5600SOL    HW128259   1.721   2.504   5.248  0.6436  1.8216 -0.5488
 5600SOL    HW228260   1.826   2.451   5.341  0.7015 -1.8278 -0.6436
 5601SOL     OW28261   4.281   3.715   3.246  0.0594 -0.2586 -0.3353
 5601SOL    HW128262   4.241   3.719   3.159  0.4352  0.7543 -0.4651
 5601SOL    HW228263   4.305   3.808   3.248  0.7903 -0.4382 -0.7132
 5602SOL     OW28264   2.417   2.053  11.744  0.1470 -0.5945 -0.3128
 5602SOL    HW128265   2.467   2.134  11.752  0.5547 -0.8304 -0.5160
 5602SOL    HW228266   2.488   1.991  11.755  1.3977  0.8912  0.0280
 5603SOL     OW28267   1.184   4.365  12.843  0.2141 -0.0875 -0.4745
 5603SOL    HW128268   1.176   4.422  12.919  1.3954  0.0123 -0.4229
 5603SOL    HW228269   1.259   4.409  12.802 -0.0958 -1.5192 -2.5743
 5604SOL     OW28270   3.023   4.087   4.106  0.3955 -0.2061  0.4007
 5604SOL    HW128271   2.930   4.109   4.113  0.6757  1.0876  0.0875
 5604SOL    HW228272   3.033   4.007   4.157 -0.5112  0.0155  0.9314
 5605SOL     OW28273   2.198   1.678   2.667 -0.0909  0.4059 -0.9088
 5605SOL    HW128274   2.202   1.659   2.573 -0.4466  0.5481 -0.9516
 5605SOL    HW228275   2.115   1.640   2.695  0.9952 -1.5961 -0.3580
 5606SOL     OW28276   2.415   3.281   4.298  0.3507  0.4935 -0.4220
 5606SOL    HW128277   2.349   3.333   4.343 -0.2632  0.1824 -0.9487
 5606SOL    HW228278   2.387   3.308   4.210  1.6387  1.2557 -0.5933
 5607SOL     OW28279   1.882   3.780   4.130  0.2442  0.7646 -0.1471
 5607SOL    HW128280   1.915   3.857   4.083 -1.2198  1.8801  0.6541
 5607SOL    HW228281   1.857   3.821   4.213 -0.6607  1.3841 -0.7230
 5608SOL     OW28282   1.723   2.011   1.220 -0.0424 -0.0295 -0.1040
 5608SOL    HW128283   1.783   2.085   1.223  1.3913 -1.1475 -1.3053
 5608SOL    HW228284   1.783   1.941   1.243  0.6200  1.5056  2.8023
 5609SOL     OW28285   0.425   2.938  13.807 -0.1377 -0.2151 -0.7097
 5609SOL    HW128286   0.345   2.992  13.804 -1.2148 -1.9475 -3.1831
 5609SOL    HW228287   0.471   2.977  13.880 -2.4738  2.3224 -0.5801
 5610SOL     OW28288   1.370   0.163   5.207  0.1594 -0.2682 -0.4765
 5610SOL    HW128289   1.365   0.142   5.301  0.6091  0.9937 -0.1677
 5610SOL    HW228290   1.437   0.231   5.207  0.0162 -0.1221  0.0847
 5611SOL     OW28291   2.521   4.525   6.168  0.1332 -1.0006  0.3747
 5611SOL    HW128292   2.437   4.484   6.153  0.2680 -0.9216 -0.6134
 5611SOL    HW228293   2.538   4.540   6.075 -2.1782 -2.8759 -0.3379
 5612SOL     OW28294   0.581   3.256   1.893 -0.1193 -0.0212  0.1906
 5612SOL    HW128295   0.510   3.277   1.954  1.0530  0.4211  1.4069
 5612SOL    HW228296   0.651   3.304   1.939 -0.3555  1.6474 -1.1653
 5613SOL     OW28297   3.487   0.016   3.038 -0.0626  0.2682  0.1037
 5613SOL    HW128298   3.499   4.648   3.016 -0.6622  0.5314 -1.3128
 5613SOL    HW228299   3.580   0.034   3.047  0.1084  0.6049 -2.4802
 5614SOL     OW28300   4.026   1.443   0.271  0.2384  0.3046  0.3998
 5614SOL    HW128301   4.014   1.431   0.365  0.0037 -1.8729  0.0943
 5614SOL    HW228302   4.117   1.470   0.259 -0.2073  1.9297  0.6781
 5615SOL     OW28303   3.241   0.589  14.907 -0.2606 -0.3176  0.9680
 5615SOL    HW128304   3.288   0.552  14.981  2.5627  2.4214  0.5204
 5615SOL    HW228305   3.153   0.571  14.942 -1.7491  3.0392 -0.9377
 5616SOL     OW28306   4.460   2.896   2.757  0.0755 -0.3971  0.2996
 5616SOL    HW128307   4.430   2.883   2.848  0.1511  0.4855  0.4437
 5616SOL    HW228308   4.505   2.814   2.736  0.7282  0.3516 -1.1639
 5617SOL     OW28309   1.324   3.682   7.507  0.0866 -0.0087 -0.1187
 5617SOL    HW128310   1.231   3.660   7.513  0.5280 -1.6484  0.7559
 5617SOL    HW228311   1.332   3.763   7.557 -1.2419 -0.0547  0.1720
 5618SOL     OW28312   2.130   2.335   7.671 -0.1685 -0.0074  0.3204
 5618SOL    HW128313   2.077   2.292   7.604  1.2885  0.8223 -1.3796
 5618SOL    HW228314   2.067   2.393   7.713 -1.1350 -0.8361  0.0286
 5619SOL     OW28315   3.462   0.524   8.019  0.1439 -0.0313  0.4369
 5619SOL    HW128316   3.557   0.510   8.014  0.5275  2.2933  1.4807
 5619SOL    HW228317   3.448   0.432   7.998 -1.5984 -0.1957  2.3842
 5620SOL     OW28318   4.246   1.757   3.068  0.3643 -0.0818  0.0224
 5620SOL    HW128319   4.240   1.850   3.092  2.9860 -0.2693  1.4392
 5620SOL    HW228320   4.201   1.752   2.984  1.2998  0.6072 -0.5227
 5621SOL     OW28321   1.494   2.814   0.175 -0.1813  0.2519 -0.1234
 5621SOL    HW128322   1.486   2.789   0.267 -0.8758 -0.6886 -0.4457
 5621SOL    HW228323   1.403   2.836   0.157 -0.2346  1.2527  1.4350
 5622SOL     OW28324   2.014   3.801   5.970 -0.6179 -0.4386 -0.1062
 5622SOL    HW128325   2.006   3.706   5.967 -1.1160 -0.4130  0.5723
 5622SOL    HW228326   2.108   3.812   5.951 -0.3967  0.3855  1.4666
 5623SOL     OW28327   1.403   3.915   9.323 -0.1046 -0.4290  0.2101
 5623SOL    HW128328   1.429   4.006   9.310  2.3229 -1.1699  0.0042
 5623SOL    HW228329   1.334   3.899   9.259  0.9186 -0.1178 -0.9452
 5624SOL     OW28330   1.137   0.065   2.030 -0.0545  0.1123 -0.0898
 5624SOL    HW128331   1.229   0.038   2.031  0.5545  2.1934  0.0332
 5624SOL    HW228332   1.116   0.052   1.937 -0.3774 -1.0031  0.1473
 5625SOL     OW28333   0.061   1.830   5.317  0.0017 -0.0129  0.5094
 5625SOL    HW128334   4.712   1.790   5.270  0.8731 -0.5828 -0.3773
 5625SOL    HW228335   0.101   1.886   5.250  1.8327 -2.4522 -0.4297
 5626SOL     OW28336   4.024   2.233   1.170 -0.0844 -0.1054 -0.5340
 5626SOL    HW128337   4.081   2.192   1.236 -0.9776 -0.5063 -0.0043
 5626SOL    HW228338   4.041   2.189   1.087  3.6414 -0.3989  0.3636
 5627SOL     OW28339   0.669   2.635   3.211 -0.7959 -0.4479  0.3374
 5627SOL    HW128340   0.630   2.659   3.127  0.5629  1.8263  0.3376
 5627SOL    HW228341   0.657   2.540   3.205 -2.0782 -0.2206 -0.6412
 5628SOL     OW28342   4.119   1.243   0.618  0.4517 -0.2656  0.5127
 5628SOL    HW128343   4.028   1.261   0.592  0.2305 -1.4124  0.4838
 5628SOL    HW228344   4.105   1.266   0.710 -0.7686 -0.1169  0.2892
 5629SOL     OW28345   4.252   2.276   9.125  0.1707  0.4450  0.4629
 5629SOL    HW128346   4.178   2.220   9.145 -0.7140  1.1941 -0.7271
 5629SOL    HW228347   4.324   2.260   9.187  0.6677  3.2167  0.6149
 5630SOL     OW28348   0.062   1.329  14.662  0.2413 -0.1947  0.6319
 5630SOL    HW128349   0.021   1.395  14.607 -3.2701 -2.2511  0.7709
 5630SOL    HW228350   0.014   1.259  14.618  1.3256 -1.5284  1.5672
 5631SOL     OW28351   2.339   4.665   5.102 -0.2697 -0.2619  0.1388
 5631SOL    HW128352   2.247   4.640   5.104  0.5308 -2.9370  2.5147
 5631SOL    HW228353   2.341   0.032   5.133 -2.0191 -0.5632  1.1361
 5632SOL     OW28354   4.561   3.353   5.467 -0.2668 -0.1130 -0.1076
 5632SOL    HW128355   4.574   3.417   5.398 -0.5700  0.7118  0.6010
 5632SOL    HW228356   4.586   3.276   5.416  0.4896  0.3668 -0.4603
 5633SOL     OW28357   4.465   1.342  17.484  0.5739 -0.4069  0.7445
 5633SOL    HW128358   4.490   1.358  17.575 -0.9143  0.4949  1.0067
 5633SOL    HW228359   4.380   1.299  17.497 -0.4553  0.7923 -1.9595
 5634SOL     OW28360   2.560   0.590   5.720  0.0673 -0.3763 -0.1040
 5634SOL    HW128361   2.520   0.542   5.648  0.6416 -0.3272 -0.4571
 5634SOL    HW228362   2.600   0.513   5.761  0.2292  0.7929  1.9287
 5635SOL     OW28363   1.150   1.219   5.665 -0.2530 -0.1076  0.1273
 5635SOL    HW128364   1.123   1.129   5.645  0.9118 -0.4823  0.2369
 5635SOL    HW228365   1.101   1.236   5.745  1.4807  1.8598  0.7319
 5636SOL     OW28366   3.185   4.556  15.280 -0.1761 -0.1033  0.7243
 5636SOL    HW128367   3.214   4.616  15.212 -2.7599  0.3723  0.0345
 5636SOL    HW228368   3.103   4.601  15.303  0.6480  2.8550 -2.1138
 5637SOL     OW28369   2.169   1.604   0.208  0.2755  0.6741 -0.1362
 5637SOL    HW128370   2.237   1.611   0.141 -1.8676  0.7121 -2.2898
 5637SOL    HW228371   2.163   1.686   0.257 -0.7343 -0.5308  1.7720
 5638SOL     OW28372   3.031   2.315   8.103 -0.1412  0.1331  0.2293
 5638SOL    HW128373   3.083   2.279   8.175  1.0547 -0.6955 -1.0395
 5638SOL    HW228374   2.965   2.360   8.156  1.0873  3.2767 -0.9403
 5639SOL     OW28375   4.616   0.780   4.867  0.3171  0.1033 -0.1239
 5639SOL    HW128376   4.697   0.738   4.895  0.4583  0.9077  0.6809
 5639SOL    HW228377   4.576   0.718   4.806  1.2929  0.3975 -1.0534
 5640SOL     OW28378   1.353   3.158   6.935  0.2966  0.1524 -0.5252
 5640SOL    HW128379   1.389   3.243   6.961 -0.6575  0.5245 -0.4132
 5640SOL    HW228380   1.427   3.119   6.888  0.3407  0.2959 -0.5769
 5641SOL     OW28381   2.215   3.039  12.655 -0.4390 -0.3986 -0.2673
 5641SOL    HW128382   2.304   3.043  12.620 -1.0513  2.4571 -1.5272
 5641SOL    HW228383   2.210   2.954  12.698 -1.3437 -1.3546 -2.2503
 5642SOL     OW28384   3.508   1.323  11.912 -0.3320 -0.0026 -0.2169
 5642SOL    HW128385   3.459   1.311  11.831  0.3264  0.7389 -0.7337
 5642SOL    HW228386   3.532   1.416  11.918  1.8228 -0.6797  2.0875
 5643SOL     OW28387   2.011   1.074   9.871 -0.1273  0.0423 -0.9305
 5643SOL    HW128388   1.950   1.005   9.845 -0.1483 -0.6457  0.9586
 5643SOL    HW228389   2.039   1.104   9.784  3.2523  0.0898  0.1927
 5644SOL     OW28390   2.907   1.682  11.238 -0.4365  0.0010  0.1829
 5644SOL    HW128391   2.884   1.670  11.146  0.9107 -1.7567  0.0680
 5644SOL    HW228392   2.875   1.600  11.275  0.2404 -0.4783 -0.2849
 5645SOL     OW28393   1.780   3.513  17.189  0.1615 -0.1191 -0.0919
 5645SOL    HW128394   1.699   3.562  17.204  0.8201  0.5279  1.3476
 5645SOL    HW228395   1.836   3.533  17.264  1.0583  1.6324 -1.2403
 5646SOL     OW28396   0.002   2.930   7.412 -0.5467  0.1869 -0.4675
 5646SOL    HW128397   0.009   2.926   7.508 -1.1147 -1.3317 -0.4954
 5646SOL    HW228398   4.674   2.853   7.393  2.3148 -1.2576 -2.5154
 5647SOL     OW28399   2.990   2.046   6.954 -0.4804  0.5172 -0.2912
 5647SOL    HW128400   2.999   2.057   7.049 -0.9459  1.0438 -0.3094
 5647SOL    HW228401   2.974   2.138   6.932  0.5762  0.4715 -1.2345
 5648SOL     OW28402   2.450   0.033   1.342  0.2506  0.2972  0.0274
 5648SOL    HW128403   2.529   0.081   1.315  1.5276 -0.4347  2.4286
 5648SOL    HW228404   2.443   4.708   1.260 -2.3854  0.3678  0.2395
 5649SOL     OW28405   4.338   3.139   5.501  0.3283 -0.0205  1.0615
 5649SOL    HW128406   4.410   3.150   5.439 -0.1647  0.3916  0.5664
 5649SOL    HW228407   4.309   3.230   5.502  0.9875  0.2017 -0.6667
 5650SOL     OW28408   4.659   4.672  11.309 -0.1943  0.0859  0.0799
 5650SOL    HW128409   4.607   0.025  11.286 -0.7628 -0.0619  0.8997
 5650SOL    HW228410   4.612   4.609  11.255  0.4414  1.3599 -1.9719
 5651SOL     OW28411   3.900   2.425   1.300 -0.0233 -0.0408 -0.3183
 5651SOL    HW128412   3.945   2.510   1.301  1.1379 -0.6697  0.7902
 5651SOL    HW228413   3.936   2.380   1.224  0.3263  0.4299 -0.4280
 5652SOL     OW28414   2.431   1.903   9.242 -0.0276 -0.1564  0.3531
 5652SOL    HW128415   2.494   1.832   9.259  1.3410  1.1074  0.4933
 5652SOL    HW228416   2.372   1.919   9.316  0.1927  0.4865  0.3859
 5653SOL     OW28417   1.761   3.231  12.330 -0.1742  0.3158 -0.2163
 5653SOL    HW128418   1.754   3.309  12.275 -0.5938 -0.2898 -1.0184
 5653SOL    HW228419   1.856   3.228  12.341 -0.0769  0.6268 -0.9723
 5654SOL     OW28420   2.583   3.077   5.006  0.1707 -0.2605 -0.0115
 5654SOL    HW128421   2.515   3.066   4.940  0.3040 -2.2079  0.1717
 5654SOL    HW228422   2.571   2.997   5.057 -1.7384  0.1819  0.2192
 5655SOL     OW28423   4.444   0.209  13.984 -0.5728 -1.0723 -0.3538
 5655SOL    HW128424   4.413   0.297  14.005  0.2384 -0.9978  0.5210
 5655SOL    HW228425   4.491   0.230  13.902  0.0085 -2.5722 -0.4113
 5656SOL     OW28426   3.208   0.963   7.199 -0.3412  0.0891 -0.1019
 5656SOL    HW128427   3.167   1.049   7.194 -1.4437 -0.5351 -1.7095
 5656SOL    HW228428   3.158   0.930   7.274 -1.2191 -0.0275 -0.7457
 5657SOL     OW28429   2.093   4.573   7.356 -0.3295  0.3131 -0.3630
 5657SOL    HW128430   2.121   4.612   7.439  0.2878 -0.5738 -0.1461
 5657SOL    HW228431   2.152   4.610   7.290  1.8656 -3.1054 -0.3442
 5658SOL     OW28432   3.230   1.283   5.712  0.2082  0.3588 -0.3427
 5658SOL    HW128433   3.275   1.199   5.698 -1.2928 -0.4923 -0.1257
 5658SOL    HW228434   3.272   1.329   5.640  1.1552 -0.4379 -0.2951
 5659SOL     OW28435   4.433   3.782   0.650  0.1554  0.1074 -0.5379
 5659SOL    HW128436   4.416   3.864   0.605 -1.5255 -0.5021 -1.0265
 5659SOL    HW228437   4.445   3.815   0.739  0.6274  0.0115 -0.5659
 5660SOL     OW28438   1.118   3.352   9.881 -0.3022  0.3252  0.2272
 5660SOL    HW128439   1.034   3.342   9.926  0.6492  0.0788  1.9556
 5660SOL    HW228440   1.180   3.309   9.941  1.7590 -0.8171 -2.7387
 5661SOL     OW28441   4.151   0.591   8.603  0.2661  0.0363 -0.5969
 5661SOL    HW128442   4.109   0.627   8.525  1.2567 -0.0673 -1.1795
 5661SOL    HW228443   4.165   0.498   8.584 -2.5109 -0.5130 -0.0401
 5662SOL     OW28444   3.785   3.114  10.934  0.1890  0.4345 -0.2115
 5662SOL    HW128445   3.736   3.070  11.003 -0.4931  2.1654  0.4029
 5662SOL    HW228446   3.745   3.201  10.929 -0.1239  0.3695  1.1769
 5663SOL     OW28447   4.503   3.450  14.906  0.1789  0.3406 -0.5892
 5663SOL    HW128448   4.571   3.512  14.931 -1.3941  1.3059  1.2464
 5663SOL    HW228449   4.432   3.514  14.906  0.0277  0.1652  0.8129
 5664SOL     OW28450   0.530   1.036   3.526 -0.3331  0.1049 -0.0673
 5664SOL    HW128451   0.607   0.981   3.540 -0.3453 -0.6631 -2.9879
 5664SOL    HW228452   0.567   1.107   3.474  0.2008  0.5714  0.9485
 5665SOL     OW28453   0.118   3.354   3.548  0.6231 -0.1560 -0.2693
 5665SOL    HW128454   0.116   3.414   3.473 -1.0184  0.6782  0.4455
 5665SOL    HW228455   0.157   3.417   3.609  1.2712 -1.8549  1.0580
 5666SOL     OW28456   3.269   0.671  15.317 -0.2659  0.3709  0.2156
 5666SOL    HW128457   3.202   0.711  15.372 -1.1056 -1.5745  0.6083
 5666SOL    HW228458   3.322   0.749  15.298  0.3608 -0.0619  0.1772
 5667SOL     OW28459   0.098   4.470  10.951  0.2185  0.7137  0.0980
 5667SOL    HW128460   0.095   4.500  10.860 -1.3150 -0.1240 -0.1286
 5667SOL    HW228461   0.141   4.536  11.005  1.8611  0.9711 -1.5305
 5668SOL     OW28462   4.604   1.109   5.787  0.4297  0.1919 -0.4248
 5668SOL    HW128463   4.646   1.038   5.740 -1.9607 -1.0704 -0.6250
 5668SOL    HW228464   4.510   1.093   5.793  0.9643 -3.0819 -1.1516
 5669SOL     OW28465   0.431   0.331   2.156  0.2659 -0.2725  0.1322
 5669SOL    HW128466   0.443   0.237   2.163  0.4835 -0.2141  0.5051
 5669SOL    HW228467   0.487   0.364   2.225  0.9619  0.2455 -0.6790
 5670SOL     OW28468   1.233   0.492   8.553 -0.1032  0.1784 -0.5287
 5670SOL    HW128469   1.241   0.580   8.589 -0.3637  0.3207 -0.8103
 5670SOL    HW228470   1.312   0.480   8.501  0.6584 -0.5623  0.8074
 5671SOL     OW28471   3.947   2.067   6.150 -0.4639  0.1285 -0.3587
 5671SOL    HW128472   4.036   2.087   6.179  0.2824 -1.8889 -1.2398
 5671SOL    HW228473   3.915   2.009   6.219  1.4793 -0.3517  0.1643
 5672SOL     OW28474   3.003   1.233   3.666 -0.0425 -0.3124 -0.3102
 5672SOL    HW128475   3.018   1.141   3.689  0.9015 -0.3802 -1.2130
 5672SOL    HW228476   3.093   1.257   3.642  0.5092 -1.9138  0.1573
 5673SOL     OW28477   1.771   4.504   7.736  0.0095  0.2693  0.1753
 5673SOL    HW128478   1.756   4.548   7.652 -0.1212  1.2833  0.7349
 5673SOL    HW228479   1.684   4.527   7.769 -0.7275 -0.7392 -1.0339
 5674SOL     OW28480   4.485   2.375   5.143 -0.4358 -0.8658  0.0330
 5674SOL    HW128481   4.533   2.317   5.084  0.1928 -0.6131  0.2902
 5674SOL    HW228482   4.398   2.356   5.108  0.3157 -1.5093 -1.4800
 5675SOL     OW28483   0.130   2.247  16.979 -0.5507  0.5545  0.4399
 5675SOL    HW128484   0.094   2.240  16.891  0.7404 -0.1765 -0.0235
 5675SOL    HW228485   0.216   2.287  16.966 -0.3613  0.2711  0.8129
 5676SOL     OW28486   1.373   1.869   4.598  0.0749  0.2594  0.0704
 5676SOL    HW128487   1.340   1.901   4.682 -1.9987 -1.7692  0.0058
 5676SOL    HW228488   1.448   1.827   4.640 -0.6142 -0.5035  0.5287
 5677SOL     OW28489   2.848   4.000  12.316  0.0313  0.0258 -0.2530
 5677SOL    HW128490   2.762   4.033  12.291  0.1184  1.1080  0.8835
 5677SOL    HW228491   2.824   3.946  12.392 -0.0690  1.4915  0.7549
 5678SOL     OW28492   2.711   2.436   1.631 -0.2967  0.7835  0.1208
 5678SOL    HW128493   2.759   2.448   1.713 -0.2116  1.4693 -0.0297
 5678SOL    HW228494   2.663   2.354   1.643  0.0384  0.7664  1.2704
 5679SOL     OW28495   4.231   4.666   7.343 -0.9899  0.1749  0.6081
 5679SOL    HW128496   4.176   4.651   7.267 -1.0908  1.7379  0.3649
 5679SOL    HW228497   4.296   4.719   7.297  1.5336 -3.5892 -0.1664
 5680SOL     OW28498   4.722   1.316   4.416  0.3799  0.3839 -0.1438
 5680SOL    HW128499   0.055   1.344   4.344  1.2471 -2.5258 -0.5636
 5680SOL    HW228500   0.019   1.223   4.411 -1.7510 -0.0004 -2.2257
 5681SOL     OW28501   4.514   2.733   5.377 -0.0276  0.8908 -1.2548
 5681SOL    HW128502   4.606   2.744   5.353  0.1937 -0.5056 -1.0392
 5681SOL    HW228503   4.514   2.762   5.468 -0.1120 -0.7085 -0.7379
 5682SOL     OW28504   0.399   3.245  10.187  0.3903 -0.2533 -0.6260
 5682SOL    HW128505   0.373   3.335  10.167  1.2553  0.7985  3.0832
 5682SOL    HW228506   0.482   3.258  10.234  2.1336 -2.2910 -3.1137
 5683SOL     OW28507   4.439   3.172   8.683 -0.0783 -0.3431  0.0065
 5683SOL    HW128508   4.369   3.177   8.748  0.8243 -0.9617  1.0275
 5683SOL    HW228509   4.506   3.136   8.741 -0.7358 -2.0318 -0.3036
 5684SOL     OW28510   3.421   0.983  14.540  0.3227  0.4732 -0.3826
 5684SOL    HW128511   3.380   1.024  14.465  2.3496 -1.0497 -2.3166
 5684SOL    HW228512   3.473   1.055  14.576 -2.0522  0.8896  2.2587
 5685SOL     OW28513   3.806   2.334  17.247  0.1652 -0.0324 -0.1996
 5685SOL    HW128514   3.719   2.375  17.250  0.3803  0.2860  1.5627
 5685SOL    HW228515   3.785   2.243  17.223 -0.1850  0.1516 -0.6109
 5686SOL     OW28516   2.503   2.282   4.689 -0.0003  0.1989  0.6933
 5686SOL    HW128517   2.412   2.299   4.666  0.5465  1.5885 -0.4617
 5686SOL    HW228518   2.546   2.258   4.606 -0.5724  0.9335  0.1859
 5687SOL     OW28519   3.964   3.432   4.650 -0.2789 -0.2943  0.0737
 5687SOL    HW128520   3.900   3.363   4.670 -0.1900 -1.1691 -2.5805
 5687SOL    HW228521   3.995   3.388   4.571 -3.1025 -2.9344  0.4257
 5688SOL     OW28522   4.426   3.377   2.098 -0.2395  0.5279 -0.0944
 5688SOL    HW128523   4.342   3.334   2.114 -0.2985  1.6775  2.7166
 5688SOL    HW228524   4.483   3.301   2.090  0.4486  0.9269  0.8884
 5689SOL     OW28525   1.500   4.179   9.330 -0.0730 -0.2492  0.3615
 5689SOL    HW128526   1.575   4.159   9.387  1.5622 -1.3483 -2.1991
 5689SOL    HW228527   1.461   4.257   9.370  0.4776  1.3021 -2.1410
 5690SOL     OW28528   1.299   3.183   2.598  0.4628 -0.5290 -0.0490
 5690SOL    HW128529   1.253   3.148   2.522 -1.9556 -0.9243  1.5974
 5690SOL    HW228530   1.240   3.172   2.672  1.1338 -2.7775  0.1454
 5691SOL     OW28531   1.330   0.755   8.581  0.2449 -0.8580 -0.0275
 5691SOL    HW128532   1.388   0.824   8.549  0.1335 -1.3344 -1.2651
 5691SOL    HW228533   1.394   0.704   8.632  1.2455  1.4225  0.9936
 5692SOL     OW28534   1.099   1.433   7.908 -0.0034 -0.0606  0.5471
 5692SOL    HW128535   1.159   1.487   7.960  0.6884 -0.5644  0.2754
 5692SOL    HW228536   1.153   1.403   7.834  1.2631 -0.2932  1.5693
 5693SOL     OW28537   1.594   0.346  15.718  0.1649 -0.0830  0.3124
 5693SOL    HW128538   1.658   0.302  15.662 -0.8126  1.4496 -1.9882
 5693SOL    HW228539   1.656   0.369  15.787 -2.2820  0.7397  2.2269
 5694SOL     OW28540   0.464   1.547   4.005  0.3049  0.5417  0.1812
 5694SOL    HW128541   0.461   1.466   4.055 -1.9304  1.5032  1.5764
 5694SOL    HW228542   0.378   1.581   4.029  0.4823  0.2280  1.2767
 5695SOL     OW28543   0.106   1.454   4.850 -0.3656 -0.1709  0.4009
 5695SOL    HW128544   0.153   1.417   4.925  0.1866 -0.2498  0.0073
 5695SOL    HW228545   0.024   1.404   4.853 -0.4096 -0.0611  1.0158
 5696SOL     OW28546   1.673   0.415   3.428  0.0477  0.4830  0.4050
 5696SOL    HW128547   1.591   0.428   3.476 -0.2923  0.0943 -0.0665
 5696SOL    HW228548   1.641   0.352   3.363  1.2798 -0.8946  1.1567
 5697SOL     OW28549   2.657   4.528   9.094 -0.4006  0.2797 -0.8498
 5697SOL    HW128550   2.573   4.486   9.074 -1.2195  1.8716 -0.7241
 5697SOL    HW228551   2.632   4.569   9.177  1.0539 -1.3752  0.4212
 5698SOL     OW28552   3.178   1.451   4.263 -0.0494 -0.4850  0.4638
 5698SOL    HW128553   3.205   1.518   4.326 -2.5531  1.2814 -0.3460
 5698SOL    HW228554   3.266   1.429   4.233 -0.1763  0.1106 -0.3247
 5699SOL     OW28555   3.667   2.005  13.942  0.2795  0.4623  0.4461
 5699SOL    HW128556   3.614   1.949  13.884  0.6599 -2.9893  3.4776
 5699SOL    HW228557   3.655   1.979  14.033  2.3682 -1.2394  0.2142
 5700SOL     OW28558   1.836   0.176   3.524 -0.0214  0.2155 -0.7205
 5700SOL    HW128559   1.778   0.179   3.448  0.2193 -1.2038 -0.9732
 5700SOL    HW228560   1.782   0.219   3.590 -1.8395  1.2333 -2.8605
 5701SOL     OW28561   0.757   4.100   6.235 -0.4974 -0.3040  0.7264
 5701SOL    HW128562   0.763   4.005   6.235  1.3213 -0.1871 -2.4258
 5701SOL    HW228563   0.743   4.119   6.328 -1.9324 -0.9820  0.6592
 5702SOL     OW28564   2.036   2.208   4.313 -0.3443 -0.2879 -0.0094
 5702SOL    HW128565   2.098   2.156   4.365 -0.3847  1.0650  1.4187
 5702SOL    HW228566   2.087   2.212   4.232 -0.8359  1.2299 -0.2409
 5703SOL     OW28567   2.062   1.781   4.915  0.3676  0.3701  0.3770
 5703SOL    HW128568   2.095   1.869   4.930  0.0182  0.2615  1.7910
 5703SOL    HW228569   1.972   1.789   4.947  0.4074  2.1287  0.0387
 5704SOL     OW28570   3.493   4.546  14.316 -0.1427  0.0085  0.1336
 5704SOL    HW128571   3.460   4.493  14.388 -1.5360 -0.7121 -1.0190
 5704SOL    HW228572   3.552   4.601  14.368 -1.0586  0.6166  0.5334
 5705SOL     OW28573   3.820   4.471   7.160  0.1789  0.2753  0.1228
 5705SOL    HW128574   3.730   4.443   7.175  0.2287  0.3506  0.5594
 5705SOL    HW228575   3.876   4.418   7.217 -0.2453 -1.0093 -0.6582
 5706SOL     OW28576   3.640   2.948   1.325 -0.0700  0.4116 -0.4761
 5706SOL    HW128577   3.612   2.985   1.408  0.2322  1.8412 -1.0047
 5706SOL    HW228578   3.691   2.869   1.342 -0.4222  0.2740 -0.0465
 5707SOL     OW28579   4.513   0.703   3.645  0.2250 -0.7520  0.4785
 5707SOL    HW128580   4.537   0.694   3.552 -2.1583 -0.4428 -0.1610
 5707SOL    HW228581   4.541   0.793   3.659  1.7127 -1.1491  0.0690
 5708SOL     OW28582   2.545   0.733   9.405  0.2146  0.0447 -0.4286
 5708SOL    HW128583   2.509   0.818   9.429 -0.8242 -0.4888 -0.1212
 5708SOL    HW228584   2.622   0.758   9.353  0.0650  0.0761 -0.6354
 5709SOL     OW28585   4.233   0.119   2.671 -0.3323 -0.2052  0.2391
 5709SOL    HW128586   4.308   0.143   2.616  0.1375 -1.2898  0.4120
 5709SOL    HW228587   4.255   0.042   2.723  0.1111 -0.0033  0.3502
 5710SOL     OW28588   1.370   3.604  15.832 -0.0840  0.1960 -0.5048
 5710SOL    HW128589   1.430   3.627  15.902 -0.0532 -3.1357  0.5263
 5710SOL    HW228590   1.423   3.564  15.763  0.4789  0.5530 -0.2770
 5711SOL     OW28591   4.169   2.995   1.801 -0.5369  0.3522  0.6499
 5711SOL    HW128592   4.155   3.085   1.832 -1.9892  0.7133 -1.0839
 5711SOL    HW228593   4.087   2.949   1.820 -0.7266  0.7819  0.8843
 5712SOL     OW28594   4.030   2.006   0.415 -0.3669 -0.3998 -0.2760
 5712SOL    HW128595   3.937   2.028   0.424 -0.4549 -0.0718 -2.1161
 5712SOL    HW228596   4.055   2.074   0.353 -0.3524 -0.2809 -0.1405
 5713SOL     OW28597   1.667   1.160   0.940 -0.4374  0.4400 -0.0932
 5713SOL    HW128598   1.750   1.203   0.920 -0.3946 -0.5691 -2.0370
 5713SOL    HW228599   1.663   1.171   1.035 -1.3146  0.2979 -0.1210
 5714SOL     OW28600   1.738   1.520   1.087 -0.1724  0.0279  0.3070
 5714SOL    HW128601   1.794   1.477   1.022  0.8506  2.8692 -0.6614
 5714SOL    HW228602   1.793   1.487   1.158 -0.2993  0.8455  0.7784
 5715SOL     OW28603   2.680   0.433   6.073  0.2095  0.0292  0.0681
 5715SOL    HW128604   2.604   0.391   6.114  0.3525 -0.4568 -0.1634
 5715SOL    HW228605   2.646   0.503   6.018  0.4939 -0.1524 -0.3428
 5716SOL     OW28606   4.067   2.467  13.772 -0.0097 -0.0862  0.4587
 5716SOL    HW128607   4.103   2.391  13.727 -0.9720 -0.5621  0.5067
 5716SOL    HW228608   4.146   2.500  13.816  1.4603 -0.7283 -1.7180
 5717SOL     OW28609   2.239   2.902   5.848  0.8246 -0.4011 -0.2871
 5717SOL    HW128610   2.155   2.871   5.882  1.5048 -0.9599  0.8566
 5717SOL    HW228611   2.203   2.961   5.782 -1.4940 -0.6365  0.7593
 5718SOL     OW28612   2.397   0.004   0.407  0.3830  0.0587 -0.7064
 5718SOL    HW128613   2.455   0.044   0.472  0.2654 -0.5981 -0.2095
 5718SOL    HW228614   2.442   0.023   0.324 -0.2472  1.2582 -0.7752
 5719SOL     OW28615   3.894   2.440  13.401  0.1708  0.5515  0.3854
 5719SOL    HW128616   3.847   2.436  13.318 -2.7613 -0.6848  2.0745
 5719SOL    HW228617   3.906   2.345  13.409 -3.2430  0.1549  0.9920
 5720SOL     OW28618   2.925   2.953  11.789 -0.8649 -0.0650 -0.4690
 5720SOL    HW128619   2.925   2.858  11.802 -0.0381  0.0158  0.1089
 5720SOL    HW228620   2.939   2.982  11.879  0.5396  2.2527 -1.4229
 5721SOL     OW28621   1.736   1.514   2.471  0.4131  0.1705  0.6763
 5721SOL    HW128622   1.692   1.437   2.437  2.5049 -2.1432  3.2507
 5721SOL    HW228623   1.777   1.552   2.393  2.3056 -3.6443 -0.1787
 5722SOL     OW28624   3.383   4.069   6.050  0.3151 -0.3512  0.2745
 5722SOL    HW128625   3.327   4.110   5.985  0.9158  0.7871  0.4805
 5722SOL    HW228626   3.321   4.011   6.095 -0.1676  0.1342  0.2205
 5723SOL     OW28627   0.960   0.717   2.944  0.5221  0.1478  0.2278
 5723SOL    HW128628   1.020   0.744   2.875 -0.4719  0.6343 -0.4448
 5723SOL    HW228629   0.905   0.795   2.951 -3.3754 -2.6821  1.3048
 5724SOL     OW28630   3.934   1.427   0.565  0.1033 -0.4266  0.9067
 5724SOL    HW128631   3.852   1.476   0.567  0.3675  0.0047  1.3346
 5724SOL    HW228632   3.995   1.472   0.624  0.4419  0.0665  0.1829
 5725SOL     OW28633   2.359   1.910   0.531  0.2449 -0.6793 -0.2135
 5725SOL    HW128634   2.411   1.948   0.460 -0.7254 -0.6344 -0.8994
 5725SOL    HW228635   2.357   1.816   0.513  0.4342 -0.4342 -1.5178
 5726SOL     OW28636   3.648   2.330  13.914  0.7504 -0.6846 -0.0479
 5726SOL    HW128637   3.606   2.333  14.000  0.8234  1.0989 -0.0828
 5726SOL    HW228638   3.655   2.237  13.892  1.3248 -0.7492  0.4164
 5727SOL     OW28639   1.207   1.287   5.973  0.0710 -0.4714 -0.9095
 5727SOL    HW128640   1.265   1.214   5.994 -0.6369 -0.5260  0.8364
 5727SOL    HW228641   1.162   1.285   6.058  0.5745  0.0741 -0.6265
 5728SOL     OW28642   2.909   1.616   9.089  0.2768  0.2273  0.3261
 5728SOL    HW128643   2.829   1.580   9.052  0.2248  1.6550 -0.9320
 5728SOL    HW228644   2.969   1.579   9.024  0.2809 -0.1896  0.5697
 5729SOL     OW28645   1.660   3.139   1.985  0.4955  0.2543 -0.0343
 5729SOL    HW128646   1.725   3.187   2.036  0.3525 -1.9523  2.2250
 5729SOL    HW228647   1.604   3.209   1.951  1.1530  0.9530  0.3224
 5730SOL     OW28648   4.403   0.297  15.923  0.1126  0.0545  0.1479
 5730SOL    HW128649   4.335   0.355  15.889 -0.2660 -1.5756 -1.9280
 5730SOL    HW228650   4.475   0.360  15.926 -0.4729  0.7407 -0.2132
 5731SOL     OW28651   1.881   3.511   5.006 -0.5970  0.1013  0.3367
 5731SOL    HW128652   1.924   3.428   4.983  0.9293  0.0394  3.2935
 5731SOL    HW228653   1.829   3.476   5.079 -0.0098  0.5373  0.9683
 5732SOL     OW28654   1.733   4.527   4.336 -0.4667  0.3828  0.3438
 5732SOL    HW128655   1.748   4.584   4.261 -2.4958  1.8617  1.0366
 5732SOL    HW228656   1.686   4.582   4.398  0.6351  2.1732 -0.4373
 5733SOL     OW28657   3.073   1.566   1.148  0.2384  0.0084 -0.2829
 5733SOL    HW128658   3.045   1.623   1.219  1.1478  0.2367 -0.1070
 5733SOL    HW228659   3.119   1.498   1.196 -0.9408 -0.6249 -0.0519
 5734SOL     OW28660   1.250   1.576   4.456 -0.2733  0.0806 -0.2273
 5734SOL    HW128661   1.329   1.565   4.509 -0.9648  1.5085  1.1091
 5734SOL    HW228662   1.244   1.491   4.413 -0.9103 -0.0951  0.2093
 5735SOL     OW28663   3.673   2.356  15.681  0.4372 -0.0090  0.3293
 5735SOL    HW128664   3.684   2.281  15.622 -3.5156 -0.7947  0.5612
 5735SOL    HW228665   3.709   2.432  15.635  1.5871 -0.6198  0.2279
 5736SOL     OW28666   2.365   2.680   5.310  0.0383 -0.1708  0.3776
 5736SOL    HW128667   2.275   2.694   5.280 -0.4636  0.3224  2.1488
 5736SOL    HW228668   2.354   2.692   5.404  0.2926  2.4535  0.0599
 5737SOL     OW28669   2.722   3.378   2.013 -0.1551  0.4187 -0.1419
 5737SOL    HW128670   2.701   3.285   2.011 -2.2424  0.8278  2.4860
 5737SOL    HW228671   2.643   3.427   1.991 -0.6131 -0.6178 -0.7857
 5738SOL     OW28672   0.311   0.741   7.212 -0.2983  0.2957  1.0478
 5738SOL    HW128673   0.385   0.682   7.200  1.5390  2.7923  0.1409
 5738SOL    HW228674   0.266   0.714   7.292  2.5981 -0.2273  2.4689
 5739SOL     OW28675   3.414   2.655   2.344  0.1134 -0.7620 -0.0529
 5739SOL    HW128676   3.429   2.564   2.319 -1.9341 -0.2462 -3.2755
 5739SOL    HW228677   3.337   2.668   2.288  0.8221  0.2142 -0.8052
 5740SOL     OW28678   2.697   3.384   3.108 -0.3393 -0.7920 -0.6656
 5740SOL    HW128679   2.666   3.318   3.045 -1.4394 -0.7948 -0.1241
 5740SOL    HW228680   2.781   3.412   3.072 -0.0448 -0.3384  0.3737
 5741SOL     OW28681   1.577   3.749   1.388  0.3002 -0.2154 -0.8283
 5741SOL    HW128682   1.584   3.796   1.304  1.4261  1.4770  0.2263
 5741SOL    HW228683   1.492   3.780   1.419  0.1283 -0.2993 -1.2114
 5742SOL     OW28684   3.790   2.664   8.460  0.1859 -0.1681 -0.3820
 5742SOL    HW128685   3.781   2.731   8.528 -0.1923 -0.6672  0.0674
 5742SOL    HW228686   3.737   2.702   8.390  0.8098  0.8435 -0.2895
 5743SOL     OW28687   3.347   0.947   8.182 -0.4542  0.0288  0.3364
 5743SOL    HW128688   3.412   0.937   8.252  1.9247 -0.2530 -1.9068
 5743SOL    HW228689   3.387   0.887   8.119 -2.8873  1.8667 -2.8941
 5744SOL     OW28690   2.889   2.391   5.236  0.3830  0.4929  0.0977
 5744SOL    HW128691   2.878   2.485   5.229  0.9937  0.5864  0.3246
 5744SOL    HW228692   2.983   2.368   5.239  0.4335  0.3290 -3.2113
 5745SOL     OW28693   2.521   2.007  15.867 -0.6608 -0.2626  0.1469
 5745SOL    HW128694   2.427   2.027  15.866 -0.0349  2.6285 -0.5301
 5745SOL    HW228695   2.543   1.964  15.784 -1.6654  0.8953 -0.7212
 5746SOL     OW28696   0.066   1.472   7.462  0.2516  0.4363  0.0185
 5746SOL    HW128697   0.138   1.409   7.462  0.4627  0.6808 -0.4337
 5746SOL    HW228698   0.107   1.543   7.511  2.4798 -0.3435 -0.7148
 5747SOL     OW28699   2.107   0.263  13.198 -0.5337  0.0350  0.3246
 5747SOL    HW128700   2.086   0.257  13.105 -1.2226 -0.4275  0.5172
 5747SOL    HW228701   2.193   0.224  13.216 -1.2354 -1.0210  1.3888
 5748SOL     OW28702   2.582   2.020   3.411 -0.1222  0.9297  0.1627
 5748SOL    HW128703   2.619   2.085   3.471  1.5089 -0.4028  0.6130
 5748SOL    HW228704   2.532   2.079   3.355  0.7887 -0.7056 -2.3180
 5749SOL     OW28705   2.364   0.608   7.803  0.1138  0.4006  0.2689
 5749SOL    HW128706   2.321   0.529   7.834 -0.4069  0.8919  0.7973
 5749SOL    HW228707   2.289   0.666   7.817  1.0657  2.0841 -1.5641
 5750SOL     OW28708   0.621   0.286   6.642  0.9403  0.3557  0.0337
 5750SOL    HW128709   0.569   0.257   6.717 -0.6253  2.2316 -0.3207
 5750SOL    HW228710   0.711   0.277   6.673  0.8564 -1.0530 -0.1201
 5751SOL     OW28711   1.284   1.349   3.056  0.3200 -0.5413 -0.4774
 5751SOL    HW128712   1.273   1.300   3.138 -0.6554  0.9475  0.2912
 5751SOL    HW228713   1.289   1.275   2.996  1.4757  0.6532 -1.8536
 5752SOL     OW28714   0.321   3.135  11.243  0.4485 -0.4082 -0.0230
 5752SOL    HW128715   0.358   3.223  11.248  0.8550 -0.6830  2.1453
 5752SOL    HW228716   0.263   3.130  11.319  0.1758 -2.1563 -0.3520
 5753SOL     OW28717   0.374   1.715   7.177  0.2732  0.1539 -0.3402
 5753SOL    HW128718   0.308   1.728   7.245  0.1571  2.1805 -0.8331
 5753SOL    HW228719   0.435   1.784   7.200 -1.6438  2.7709 -3.1000
 5754SOL     OW28720   4.312   3.354   4.382  0.4815 -0.1869 -0.0894
 5754SOL    HW128721   4.354   3.320   4.461 -0.6303 -2.0630 -0.2915
 5754SOL    HW228722   4.359   3.433   4.357  0.5800  0.2608  1.5202
 5755SOL     OW28723   0.592   2.164   7.671  0.3005  0.0311 -0.2732
 5755SOL    HW128724   0.581   2.168   7.766  1.5917  1.8115 -0.1926
 5755SOL    HW228725   0.604   2.255   7.643 -2.2406  0.6710  0.7300
 5756SOL     OW28726   1.568   3.160   5.238  0.4842 -0.2988  0.7869
 5756SOL    HW128727   1.592   3.214   5.163  1.9525 -0.4402  1.1646
 5756SOL    HW228728   1.538   3.084   5.189  0.7099  0.5989 -0.7325
 5757SOL     OW28729   4.498   4.232   5.572 -0.3889 -0.1981 -0.1704
 5757SOL    HW128730   4.454   4.315   5.588  3.8583  1.8646  0.9320
 5757SOL    HW228731   4.563   4.226   5.643 -0.5591  0.0829  0.0070
 5758SOL     OW28732   4.442   2.499   1.782 -0.2557 -0.0033 -0.5388
 5758SOL    HW128733   4.498   2.491   1.705  0.5070 -2.4791  0.2707
 5758SOL    HW228734   4.432   2.407   1.805  4.2558 -0.7104 -1.3790
 5759SOL     OW28735   1.751   1.415   8.902 -0.0137 -0.3790  0.4881
 5759SOL    HW128736   1.827   1.414   8.842 -0.4107 -0.5502 -0.0093
 5759SOL    HW228737   1.781   1.470   8.974 -2.2608  2.0473 -0.4615
 5760SOL     OW28738   2.719   1.968   5.059  0.0200 -0.4125 -0.4908
 5760SOL    HW128739   2.805   1.948   5.022 -0.2835  0.3111 -1.5681
 5760SOL    HW228740   2.721   2.063   5.069 -4.1431 -0.2538 -1.0867
 5761SOL     OW28741   1.719   1.284   2.894 -0.3337  0.3059  0.1263
 5761SOL    HW128742   1.648   1.330   2.939  1.0466  2.0175  0.5638
 5761SOL    HW228743   1.774   1.361   2.879 -1.7297  1.4772  0.9376
 5762SOL     OW28744   1.221   3.957   1.697 -0.3954 -0.7256  0.3997
 5762SOL    HW128745   1.241   3.934   1.788 -0.0791 -1.5961  0.1031
 5762SOL    HW228746   1.127   3.974   1.695  0.1425  2.5842  2.5735
 5763SOL     OW28747   3.160   1.801  16.846 -0.7001  0.5511  0.0844
 5763SOL    HW128748   3.203   1.777  16.928 -0.0268 -1.6687 -0.9147
 5763SOL    HW228749   3.166   1.718  16.800  1.0339 -0.4261  2.0321
 5764SOL     OW28750   1.148   1.302   7.623  0.0577 -0.4426  0.0565
 5764SOL    HW128751   1.059   1.288   7.589  0.7233 -2.2876 -0.9535
 5764SOL    HW228752   1.151   1.221   7.675  2.5358 -1.8200 -2.2270
 5765SOL     OW28753   1.930   1.986  11.035  0.6722 -0.4289 -0.2988
 5765SOL    HW128754   1.853   1.943  11.071  1.0417 -1.0459 -0.2518
 5765SOL    HW228755   1.931   2.075  11.070  0.3206 -0.6641  0.3143
 5766SOL     OW28756   0.069   1.244   8.187 -0.0868 -0.3923  0.2312
 5766SOL    HW128757   0.038   1.167   8.236 -0.5025  0.0417  0.6476
 5766SOL    HW228758   0.131   1.206   8.125 -2.9004 -3.1565 -0.9115
 5767SOL     OW28759   2.405   3.890   3.684 -0.3169 -0.7067  0.4350
 5767SOL    HW128760   2.486   3.846   3.709 -0.1765  0.7281  2.5366
 5767SOL    HW228761   2.435   3.976   3.654 -2.5048 -0.2067 -0.3174
 5768SOL     OW28762   2.355   0.098  13.236  0.0233 -0.2499 -0.3935
 5768SOL    HW128763   2.382   0.068  13.149  0.6352  0.8049 -0.5677
 5768SOL    HW228764   2.317   0.020  13.276 -1.6983  0.4057 -0.7563
 5769SOL     OW28765   3.182   2.531  16.980 -0.1370  0.2327 -0.3255
 5769SOL    HW128766   3.241   2.539  16.905 -0.4253  1.7656 -0.3997
 5769SOL    HW228767   3.215   2.604  17.034 -0.4529 -0.8534  1.3293
 5770SOL     OW28768   0.633   3.687  17.257 -0.5814 -0.4197  0.6639
 5770SOL    HW128769   0.608   3.605  17.299 -0.2425 -0.6423  0.4261
 5770SOL    HW228770   0.607   3.747  17.327 -1.5009 -1.5819  1.3232
 5771SOL     OW28771   4.655   1.745   0.368 -0.0869 -0.2009  0.1482
 5771SOL    HW128772   0.006   1.725   0.312  0.5203  0.9285  0.5819
 5771SOL    HW228773   4.658   1.685   0.442 -2.8582  1.9715  2.0484
 5772SOL     OW28774   1.440   0.663   8.930 -0.3135 -0.2096  0.3713
 5772SOL    HW128775   1.498   0.737   8.916 -1.0630  0.0253 -1.4334
 5772SOL    HW228776   1.467   0.610   8.855 -1.1675 -0.2503  0.0954
 5773SOL     OW28777   0.076   4.238   4.184  0.0255 -0.9962  0.3443
 5773SOL    HW128778   0.165   4.251   4.217 -0.1883  2.4697 -0.3429
 5773SOL    HW228779   0.086   4.230   4.089 -0.6627  1.2733  0.0822
 5774SOL     OW28780   4.141   3.872  12.517  0.3845 -0.0443 -0.0001
 5774SOL    HW128781   4.150   3.907  12.606  1.4081  0.7503 -0.4105
 5774SOL    HW228782   4.230   3.845  12.492  0.0551 -0.7379 -0.4269
 5775SOL     OW28783   1.236   3.992   5.031 -0.1418 -0.1801  0.5523
 5775SOL    HW128784   1.187   4.016   5.109  1.6242  0.0769  1.5849
 5775SOL    HW228785   1.304   3.941   5.075  0.7199  0.0099 -0.5542
 5776SOL     OW28786   3.982   2.081   2.334  0.9407  0.4184  0.4053
 5776SOL    HW128787   4.002   2.172   2.358  0.0430  0.3947  1.2625
 5776SOL    HW228788   3.946   2.051   2.418  1.3856 -0.6689  0.1986
 5777SOL     OW28789   1.787   1.581   0.556  1.2238  0.0735 -0.5206
 5777SOL    HW128790   1.766   1.494   0.589 -0.3468 -0.3051 -2.5012
 5777SOL    HW228791   1.829   1.556   0.474  1.6294 -2.6823  0.5415
 5778SOL     OW28792   4.000   2.327   7.141 -0.5592 -0.1942  0.6619
 5778SOL    HW128793   3.977   2.237   7.120  0.2600  0.2970 -2.3574
 5778SOL    HW228794   4.068   2.312   7.206 -0.1233 -0.1245  0.2186
 5779SOL     OW28795   3.572   2.840  14.267  0.0180 -0.2486 -0.3098
 5779SOL    HW128796   3.511   2.769  14.246 -0.2783 -0.5627  1.6526
 5779SOL    HW228797   3.643   2.814  14.209 -0.4398  0.3996 -1.1635
 5780SOL     OW28798   4.587   3.741   3.798 -0.6648  0.5025  0.2061
 5780SOL    HW128799   4.587   3.654   3.759 -4.5818  1.0816 -1.1549
 5780SOL    HW228800   4.612   3.726   3.889 -0.1084  1.0354  0.1417
 5781SOL     OW28801   0.230   0.946   2.282 -0.2196  0.6116  0.3256
 5781SOL    HW128802   0.141   0.971   2.309 -0.3495  0.9945 -0.4230
 5781SOL    HW228803   0.211   0.857   2.253  0.7084  1.3227 -2.5020
 5782SOL     OW28804   2.977   1.745   1.689  0.4694  0.4372 -0.2303
 5782SOL    HW128805   3.012   1.819   1.641  0.5244 -1.4305 -3.0924
 5782SOL    HW228806   3.053   1.689   1.674  0.8273  0.7145  0.5449
 5783SOL     OW28807   2.818   4.220   1.518  0.0146 -0.7312  0.3259
 5783SOL    HW128808   2.819   4.149   1.454  0.7893 -0.5078  0.0902
 5783SOL    HW228809   2.883   4.181   1.578  0.5671 -1.2902 -0.6292
 5784SOL     OW28810   2.088   3.585  13.752 -0.2271  0.5751  0.1324
 5784SOL    HW128811   2.048   3.666  13.719  0.0730  1.4561  1.9505
 5784SOL    HW228812   2.129   3.630  13.826 -0.5265  0.4792  0.3568
 5785SOL     OW28813   3.319   1.295  13.809 -0.4959  0.0287  0.6092
 5785SOL    HW128814   3.396   1.299  13.752  0.1510 -0.2861  1.4556
 5785SOL    HW228815   3.250   1.256  13.756 -0.4311  0.1391  0.4417
 5786SOL     OW28816   3.710   0.904   7.907 -0.2606  0.0744  0.3400
 5786SOL    HW128817   3.742   0.994   7.908 -1.8537  0.6217  1.9741
 5786SOL    HW228818   3.718   0.890   7.813 -0.7716  0.5825  0.2239
 5787SOL     OW28819   1.039   1.901   8.640 -0.1201  1.2563 -0.5803
 5787SOL    HW128820   0.966   1.842   8.660  1.0145 -0.5060 -1.6604
 5787SOL    HW228821   1.018   1.955   8.716  1.0778 -1.9931  2.0645
 5788SOL     OW28822   4.639   4.591   9.703 -0.0963 -0.6384 -0.4174
 5788SOL    HW128823   4.685   4.655   9.649  0.2541 -0.3573  0.2118
 5788SOL    HW228824   4.676   4.508   9.673  1.2740 -0.4697  0.8054
 5789SOL     OW28825   4.075   3.005   7.459 -0.0240  0.7820 -0.0476
 5789SOL    HW128826   4.154   2.974   7.502  0.4026  3.2986  0.9521
 5789SOL    HW228827   4.044   2.924   7.419  0.9175  0.6957 -0.6031
 5790SOL     OW28828   0.201   4.611  11.339  0.1074  0.1068 -0.7705
 5790SOL    HW128829   0.122   4.662  11.324  0.5845  0.5615 -1.7993
 5790SOL    HW228830   0.239   4.633  11.253  0.6312  0.4065 -0.4641
 5791SOL     OW28831   3.200   2.781  14.531 -0.1615 -1.3308 -0.3867
 5791SOL    HW128832   3.255   2.704  14.544 -2.2444 -2.2907  2.5223
 5791SOL    HW228833   3.263   2.840  14.572 -2.0658  0.8805 -0.6459
 5792SOL     OW28834   2.062   1.287   6.678  0.3393 -0.3078  0.3371
 5792SOL    HW128835   2.086   1.356   6.616 -0.2091  0.6541  1.2012
 5792SOL    HW228836   2.151   1.263   6.701  0.5854  1.6561  1.4077
 5793SOL     OW28837   4.235   1.650  16.771 -0.2911  0.0669  0.2530
 5793SOL    HW128838   4.238   1.612  16.859 -2.5082  0.6622  0.5968
 5793SOL    HW228839   4.147   1.619  16.747 -0.9344  1.8774  0.3059
 5794SOL     OW28840   1.305   4.704  13.705  0.0609 -0.0255 -0.7958
 5794SOL    HW128841   1.236   4.640  13.723 -1.2217  2.4386  3.0903
 5794SOL    HW228842   1.318   0.011  13.794 -0.3086 -0.1965 -0.6798
 5795SOL     OW28843   1.659   1.702   3.964  0.2787  0.1292 -0.0172
 5795SOL    HW128844   1.749   1.702   3.931  0.8979  1.5221  1.6787
 5795SOL    HW228845   1.678   1.761   4.038 -0.1380 -2.2171  1.9523
 5796SOL     OW28846   3.480   0.684  10.841  0.0792  0.2672 -0.5790
 5796SOL    HW128847   3.459   0.642  10.758 -3.3674 -1.0593  0.9576
 5796SOL    HW228848   3.391   0.690  10.877  0.9284  0.5351  1.4569
 5797SOL     OW28849   4.202   0.639   0.667  0.6402  0.2271 -0.2102
 5797SOL    HW128850   4.166   0.558   0.702  1.6566 -0.4578 -0.7502
 5797SOL    HW228851   4.275   0.598   0.620  0.0445 -1.1123  0.0404
 5798SOL     OW28852   1.122   3.680   2.898  0.3200  0.5584 -0.1373
 5798SOL    HW128853   1.175   3.625   2.840 -0.7143 -0.4066 -0.1638
 5798SOL    HW228854   1.079   3.747   2.844  0.8616  1.0624  0.0563
 5799SOL     OW28855   0.389   2.147   2.240  0.3162 -0.0849  0.3784
 5799SOL    HW128856   0.353   2.076   2.187 -0.0615  0.7592 -0.4846
 5799SOL    HW228857   0.315   2.181   2.291  2.1541  1.4751  2.0255
 5800SOL     OW28858   0.855   4.582   8.944 -0.0932 -0.1080  0.0107
 5800SOL    HW128859   0.856   4.607   9.036  0.4967  0.4900 -0.1578
 5800SOL    HW228860   0.889   4.493   8.944  2.4182  0.8507  1.2660
 5801SOL     OW28861   2.260   3.050   8.607 -1.0163  0.8695 -0.3355
 5801SOL    HW128862   2.281   3.017   8.520  0.5926 -0.0392  0.3963
 5801SOL    HW228863   2.338   3.105   8.617 -0.2611 -0.4298  0.7678
 5802SOL     OW28864   0.791   2.066   6.760 -0.1189 -0.2601  0.2090
 5802SOL    HW128865   0.770   1.994   6.701 -1.0556 -1.7494  2.3798
 5802SOL    HW228866   0.714   2.052   6.814 -2.1372  2.9366 -1.8213
 5803SOL     OW28867   1.802   2.881   1.770 -0.2984  0.4237  0.7079
 5803SOL    HW128868   1.828   2.879   1.678  0.1673  3.3661  0.7879
 5803SOL    HW228869   1.843   2.964   1.793 -1.1949  1.6652 -2.2100
 5804SOL     OW28870   0.140   0.806   8.868  0.5484  0.0612  0.7501
 5804SOL    HW128871   0.197   0.883   8.857 -1.7211  1.8341  1.3478
 5804SOL    HW228872   0.184   0.755   8.935  1.0991 -1.1253 -0.5325
 5805SOL     OW28873   1.036   3.504   7.208  0.1745 -0.2150 -0.0158
 5805SOL    HW128874   1.125   3.522   7.236 -0.3971 -0.0440  1.6564
 5805SOL    HW228875   1.047   3.410   7.195  0.1431 -0.2393  0.1321
 5806SOL     OW28876   2.272   0.539   1.753  0.2881  0.3561  0.0498
 5806SOL    HW128877   2.346   0.491   1.791  0.5687 -0.2445 -1.2726
 5806SOL    HW228878   2.231   0.474   1.697 -0.1307 -1.1114  2.0698
 5807SOL     OW28879   0.031   3.774  16.414  0.0972  0.3336  0.3706
 5807SOL    HW128880   4.703   3.697  16.397  2.5736 -0.7236 -2.4900
 5807SOL    HW228881   0.115   3.741  16.383 -1.2878 -0.8604 -2.1637
 5808SOL     OW28882   0.778   1.621  16.740  0.2698  0.5403 -0.7770
 5808SOL    HW128883   0.803   1.625  16.647  1.8634  1.5787 -0.2969
 5808SOL    HW228884   0.791   1.712  16.764 -2.7122  1.1597 -1.5597
 5809SOL     OW28885   2.767   1.374   0.545  0.5039 -0.0852  0.2422
 5809SOL    HW128886   2.830   1.387   0.617  0.4548 -3.7927  0.9512
 5809SOL    HW228887   2.710   1.309   0.587 -0.8774 -0.7027 -2.5749
 5810SOL     OW28888   0.334   3.705   4.900 -0.2242 -0.3048 -0.1415
 5810SOL    HW128889   0.360   3.743   4.984 -0.1774  2.4435 -1.4004
 5810SOL    HW228890   0.325   3.781   4.843  2.2108 -0.3733 -0.6093
 5811SOL     OW28891   2.248   4.593   2.518 -0.6953  0.3896 -0.1932
 5811SOL    HW128892   2.323   4.533   2.530 -1.3551 -0.0426  1.7827
 5811SOL    HW228893   2.292   4.676   2.502  0.1941  0.1162  0.7866
 5812SOL     OW28894   1.782   3.031   7.057  0.0471  0.3352  0.2096
 5812SOL    HW128895   1.702   3.035   7.005  0.4367 -0.3738 -0.4445
 5812SOL    HW228896   1.767   2.958   7.118  0.4502 -0.9032 -1.1936
 5813SOL     OW28897   3.869   4.053   8.798  0.6128 -0.1379  0.6214
 5813SOL    HW128898   3.877   3.999   8.720  1.7112  3.2717 -1.6487
 5813SOL    HW228899   3.959   4.075   8.821  0.5314 -0.3969  1.1944
 5814SOL     OW28900   4.322   4.163  15.436 -0.3658  0.3110  0.0171
 5814SOL    HW128901   4.302   4.166  15.342  2.1325  0.7946 -0.4980
 5814SOL    HW228902   4.345   4.251  15.465  1.3292 -0.3627  0.7400
 5815SOL     OW28903   1.435   0.496   4.053  0.8016  0.0665  0.4755
 5815SOL    HW128904   1.513   0.524   4.101 -0.1754  0.4279  1.8368
 5815SOL    HW228905   1.458   0.403   4.053 -2.6853 -0.8203  2.3772
 5816SOL     OW28906   1.110   2.504   1.994  0.6133  0.4278  0.3488
 5816SOL    HW128907   1.163   2.582   2.015 -0.0535  1.7343 -2.7349
 5816SOL    HW228908   1.089   2.530   1.904 -1.2497  2.6119  1.4155
 5817SOL     OW28909   3.870   1.146   9.787 -0.1133  0.1934  0.0586
 5817SOL    HW128910   3.871   1.078   9.854 -0.0395 -1.6283 -1.7726
 5817SOL    HW228911   3.778   1.148   9.759 -0.0304 -2.2184 -0.4044
 5818SOL     OW28912   4.267   4.434  15.124 -0.1822  0.2796 -0.2215
 5818SOL    HW128913   4.344   4.459  15.176  0.0405 -0.0714 -0.3782
 5818SOL    HW228914   4.287   4.341  15.117 -2.6529 -0.3544  1.3282
 5819SOL     OW28915   3.384   4.479   2.186  0.0444 -0.2961  0.3876
 5819SOL    HW128916   3.297   4.516   2.200 -0.3000 -1.9923  2.8350
 5819SOL    HW228917   3.393   4.492   2.092 -0.4725 -1.0208  0.2449
 5820SOL     OW28918   1.275   3.045  12.727 -0.1596 -0.0233 -0.3791
 5820SOL    HW128919   1.357   3.034  12.678 -1.0256 -2.4580 -1.2415
 5820SOL    HW228920   1.239   3.134  12.723  0.3524  0.2460  1.1294
 5821SOL     OW28921   3.780   1.610   3.654 -0.4272  0.2951 -0.2898
 5821SOL    HW128922   3.867   1.648   3.646  1.2429 -3.1603  1.5623
 5821SOL    HW228923   3.801   1.546   3.722  0.5137 -1.0281 -1.8377
 5822SOL     OW28924   4.192   2.773   4.338 -0.0967 -0.4364 -0.1773
 5822SOL    HW128925   4.244   2.708   4.291  1.7420  1.2022 -0.4192
 5822SOL    HW228926   4.124   2.710   4.364  0.0202  0.4484  2.2363
 5823SOL     OW28927   4.224   0.554   2.762 -0.4500 -0.6275 -0.1103
 5823SOL    HW128928   4.217   0.469   2.805  2.1556 -0.0627  1.4195
 5823SOL    HW228929   4.311   0.587   2.784  0.0481 -0.8437 -1.8163
 5824SOL     OW28930   2.256   0.558  15.636  0.4528 -0.1274 -0.2285
 5824SOL    HW128931   2.261   0.652  15.619  2.5628 -0.0625  0.6229
 5824SOL    HW228932   2.247   0.567  15.731  2.4011 -0.7486  0.0167
 5825SOL     OW28933   3.954   4.293  14.715 -0.7044  0.1821 -0.4370
 5825SOL    HW128934   4.013   4.320  14.645  0.8895  0.5109  1.0080
 5825SOL    HW228935   3.877   4.270  14.665 -1.3404 -0.7642  0.9680
 5826SOL     OW28936   0.415   4.024  17.336 -0.0073 -0.0371 -0.0829
 5826SOL    HW128937   0.484   3.970  17.374  2.5444  1.9040 -2.0115
 5826SOL    HW228938   0.447   4.113  17.347 -0.3208  0.1732 -0.8935
 5827SOL     OW28939   1.052   2.518   6.501 -0.3507  0.0414  0.0383
 5827SOL    HW128940   0.961   2.495   6.487 -1.0089  2.4191  0.3271
 5827SOL    HW228941   1.069   2.475   6.585  2.0075  1.1516  0.1419
 5828SOL     OW28942   1.776   1.980  12.827 -0.4023  0.2750  0.7910
 5828SOL    HW128943   1.783   1.901  12.880 -1.5581  0.4766  1.2588
 5828SOL    HW228944   1.683   2.001  12.844 -0.3079 -0.2980  2.0137
 5829SOL     OW28945   1.946   2.209   0.484  0.3037 -0.4018  0.6696
 5829SOL    HW128946   1.961   2.303   0.497 -1.8099 -0.2406  2.0177
 5829SOL    HW228947   2.019   2.184   0.540 -0.0297 -2.1032  0.3301
 5830SOL     OW28948   4.002   3.200   5.827 -0.5447  0.2262 -0.2550
 5830SOL    HW128949   3.954   3.129   5.784 -0.9285  0.9719 -1.0489
 5830SOL    HW228950   3.943   3.215   5.901  2.0228 -0.3557  1.8952
 5831SOL     OW28951   2.348   2.145  13.090  0.2703 -0.1603  0.1504
 5831SOL    HW128952   2.398   2.089  13.030  0.0559 -0.1812 -0.0111
 5831SOL    HW228953   2.392   2.229  13.075 -0.1368 -0.4585 -2.8482
 5832SOL     OW28954   3.295   3.616  14.430  0.4696 -0.2874  0.4526
 5832SOL    HW128955   3.356   3.685  14.455  0.5253 -0.0145 -0.4459
 5832SOL    HW228956   3.347   3.538  14.450  0.5606 -0.4497 -0.3829
 5833SOL     OW28957   4.721   1.682   1.792 -0.3567  0.3532 -0.4522
 5833SOL    HW128958   4.689   1.683   1.702 -2.9337  1.6836  0.5013
 5833SOL    HW228959   0.078   1.631   1.795  0.5621  1.7800 -0.9230
 5834SOL     OW28960   2.297   0.586   4.928  0.7688 -0.3734 -0.1698
 5834SOL    HW128961   2.391   0.598   4.916  1.1030 -2.0512  0.8671
 5834SOL    HW228962   2.269   0.581   4.837 -1.0580 -1.7807  0.4905
 5835SOL     OW28963   2.599   1.827  17.258  0.3044  0.3077  0.0015
 5835SOL    HW128964   2.546   1.870  17.191  0.3014  1.3572  0.6793
 5835SOL    HW228965   2.611   1.747  17.207  0.2227  0.2535  0.0685
 5836SOL     OW28966   4.124   0.773  10.457  0.4550 -0.2003  0.0719
 5836SOL    HW128967   4.175   0.698  10.486 -0.6533  0.1448  2.8965
 5836SOL    HW228968   4.042   0.726  10.443  0.4561 -0.1073 -0.2378
 5837SOL     OW28969   0.922   1.208   5.807 -0.2761 -0.0487  0.0840
 5837SOL    HW128970   0.847   1.149   5.812  0.0039 -0.2333  2.1104
 5837SOL    HW228971   0.883   1.294   5.816 -3.1679 -1.0964 -2.5118
 5838SOL     OW28972   3.165   0.280   6.095  0.4787  0.1422 -0.2699
 5838SOL    HW128973   3.181   0.211   6.031 -1.0322  0.8772 -1.4563
 5838SOL    HW228974   3.070   0.297   6.100  0.1604 -1.4002 -1.2675
 5839SOL     OW28975   1.969   3.553  16.645 -0.4942  0.3334 -0.3740
 5839SOL    HW128976   2.042   3.502  16.681  0.9742  1.4807 -1.7139
 5839SOL    HW228977   2.018   3.610  16.585  1.5595  0.1054  1.0659
 5840SOL     OW28978   3.291   4.340  11.818  0.6575 -0.2925  0.1159
 5840SOL    HW128979   3.243   4.304  11.743 -2.0876  0.5590  1.4665
 5840SOL    HW228980   3.377   4.337  11.776 -1.0705 -2.0595 -3.3551
 5841SOL     OW28981   0.609   0.619  15.230  0.3346 -0.0241 -0.2832
 5841SOL    HW128982   0.571   0.531  15.226 -0.4308  0.2367  1.1568
 5841SOL    HW228983   0.617   0.637  15.324  0.3641 -0.8862 -0.1245
 5842SOL     OW28984   0.023   2.797   2.339  0.3136  0.1893  0.3001
 5842SOL    HW128985   4.675   2.790   2.401  0.0408 -0.8384 -0.1424
 5842SOL    HW228986   0.091   2.838   2.394  0.8823  1.0764 -1.0497
 5843SOL     OW28987   4.077   1.929  10.284  0.4160 -0.5050  0.0132
 5843SOL    HW128988   4.095   2.022  10.274 -0.2935 -0.3298  0.3724
 5843SOL    HW228989   4.081   1.897  10.194  0.1931  2.6625 -1.1206
 5844SOL     OW28990   4.503   2.829   9.238 -0.0685 -0.1044  0.0854
 5844SOL    HW128991   4.417   2.854   9.205  0.4227  2.4243  0.7409
 5844SOL    HW228992   4.513   2.878   9.319  1.5866  0.4640 -0.4517
 5845SOL     OW28993   1.797   2.166   1.759  0.2259 -0.2729  0.0811
 5845SOL    HW128994   1.871   2.160   1.819  1.2105  1.2664 -0.9573
 5845SOL    HW228995   1.810   2.087   1.706 -2.3049 -2.0460  2.1355
 5846SOL     OW28996   1.969   0.198   0.217  0.5790 -0.1508 -0.0183
 5846SOL    HW128997   2.024   0.187   0.295 -0.6236  1.0421  0.9984
 5846SOL    HW228998   1.965   0.293   0.210 -1.6549 -0.3273 -1.2517
 5847SOL     OW28999   2.319   0.441   3.194 -0.5556  0.5735 -0.4087
 5847SOL    HW129000   2.369   0.386   3.134 -1.9903 -1.3778  0.2042
 5847SOL    HW229001   2.365   0.523   3.175 -2.1009  1.1176 -1.8362
 5848SOL     OW29002   2.476   3.272   3.494  0.4048  0.3537  0.2018
 5848SOL    HW129003   2.459   3.317   3.412  2.1861  1.6185  0.5184
 5848SOL    HW229004   2.392   3.283   3.538 -0.4211  0.1377 -1.3217
 5849SOL     OW29005   2.972   3.970   7.472 -0.3412 -0.0974  0.4709
 5849SOL    HW129006   2.992   3.990   7.563 -2.0818 -1.6837  1.1945
 5849SOL    HW229007   2.878   3.956   7.478 -0.0470 -1.3595  2.1501
 5850SOL     OW29008   0.410   2.128   4.371  0.3372  0.1217  0.2293
 5850SOL    HW129009   0.394   2.100   4.281  0.8871 -1.3262  0.5745
 5850SOL    HW229010   0.400   2.223   4.368  1.1385  0.1588 -1.5489
 5851SOL     OW29011   2.957   2.853   1.924 -0.0814 -0.1955 -0.5219
 5851SOL    HW129012   2.898   2.928   1.930  1.9534  1.3691 -0.2783
 5851SOL    HW229013   2.887   2.787   1.933 -0.4499  0.0825 -1.3513
 5852SOL     OW29014   3.889   1.030   6.679  0.1566 -0.3742 -0.4821
 5852SOL    HW129015   3.930   1.015   6.764 -1.9494  1.0499  0.7988
 5852SOL    HW229016   3.822   0.964   6.665  0.2880 -1.1194  2.3374
 5853SOL     OW29017   3.297   3.055   8.094 -0.7080  0.0643  0.3545
 5853SOL    HW129018   3.254   2.989   8.039 -0.2480 -0.9019  1.1521
 5853SOL    HW229019   3.385   3.019   8.091 -0.7273 -0.0121  0.7423
 5854SOL     OW29020   3.617   0.186   7.722 -0.0140 -0.0831 -0.2632
 5854SOL    HW129021   3.582   0.222   7.804  3.0785  0.7817  0.6616
 5854SOL    HW229022   3.609   0.257   7.658 -0.7271  0.8574  0.8435
 5855SOL     OW29023   1.023   4.235   5.036 -0.1089 -0.2606 -0.2764
 5855SOL    HW129024   1.006   4.143   5.015  0.1714 -0.5131  0.5873
 5855SOL    HW229025   0.934   4.260   5.062  0.3292 -0.0079  0.9704
 5856SOL     OW29026   4.626   1.337   3.356  0.0386 -0.2374 -1.0167
 5856SOL    HW129027   4.669   1.295   3.431  3.4883  0.6103 -2.4828
 5856SOL    HW229028   4.569   1.404   3.393 -0.2099 -0.3458 -1.2074
 5857SOL     OW29029   3.797   4.619   5.712 -0.1521 -0.7070  0.0094
 5857SOL    HW129030   3.858   4.685   5.678  0.4269 -2.1837 -1.8367
 5857SOL    HW229031   3.789   4.638   5.805 -1.1917 -1.5881  0.0957
 5858SOL     OW29032   4.052   2.741  14.049 -0.1449 -0.0233 -0.0343
 5858SOL    HW129033   4.097   2.663  14.017 -0.1762  0.2601 -0.7823
 5858SOL    HW229034   4.016   2.779  13.969 -1.1459 -0.1827  0.3402
 5859SOL     OW29035   4.109   3.710   1.750 -0.0598 -0.3278  0.0231
 5859SOL    HW129036   4.110   3.786   1.808  0.2557  0.2986 -0.8076
 5859SOL    HW229037   4.169   3.649   1.792  2.9675  2.6838  0.0760
 5860SOL     OW29038   3.355   1.947   7.544  0.1809 -0.4849 -0.2676
 5860SOL    HW129039   3.446   1.974   7.529  0.2028 -0.2267  0.3151
 5860SOL    HW229040   3.358   1.912   7.633  1.7775  0.5470  0.0837
 5861SOL     OW29041   3.782   2.270   8.262  0.6870  0.2026 -0.1735
 5861SOL    HW129042   3.874   2.282   8.288  0.6759  1.6069 -0.7668
 5861SOL    HW229043   3.799   2.314   8.178 -0.1036 -0.1620 -0.5252
 5862SOL     OW29044   0.081   3.547   8.564  0.0087 -0.2200 -0.8589
 5862SOL    HW129045   0.029   3.468   8.579  0.9055 -0.7469 -0.5507
 5862SOL    HW229046   0.070   3.588   8.650  2.7349 -1.2404 -0.0371
 5863SOL     OW29047   2.489   0.678   4.172  0.5898 -0.3689 -0.0842
 5863SOL    HW129048   2.442   0.700   4.092 -0.3400  0.1175  0.5967
 5863SOL    HW229049   2.543   0.608   4.135 -0.7311 -1.4200 -0.0213
 5864SOL     OW29050   0.451   0.313   5.566 -0.2425  0.3997 -0.0085
 5864SOL    HW129051   0.444   0.233   5.617  1.5258 -0.2728 -0.8060
 5864SOL    HW229052   0.375   0.355   5.605 -0.1179  0.0089  0.6743
 5865SOL     OW29053   2.919   3.324  12.167  0.1635  0.1446  0.3463
 5865SOL    HW129054   3.007   3.329  12.203  0.0063 -0.6311  0.8344
 5865SOL    HW229055   2.876   3.410  12.168  1.2922  0.7061  0.0489
 5866SOL     OW29056   2.256   0.873   1.497  0.1163 -0.1802  0.3204
 5866SOL    HW129057   2.349   0.854   1.485  0.4922  1.3285  0.9093
 5866SOL    HW229058   2.244   0.938   1.427 -0.4054 -1.1691 -0.5118
 5867SOL     OW29059   1.705   1.010  10.595 -0.0690 -0.4497 -0.5360
 5867SOL    HW129060   1.621   1.002  10.548 -0.8497 -0.6749  0.8901
 5867SOL    HW229061   1.768   0.998  10.524  0.3088  0.0715 -0.2866
 5868SOL     OW29062   1.572   0.475   3.752 -0.8321  0.4554  0.0362
 5868SOL    HW129063   1.481   0.502   3.743 -0.8235 -0.3588 -2.6482
 5868SOL    HW229064   1.592   0.507   3.840 -0.2843 -1.3824  0.5807
 5869SOL     OW29065   1.273   4.281  11.127  0.5351  0.0463  0.4329
 5869SOL    HW129066   1.220   4.360  11.117  0.2399 -0.3333 -1.0220
 5869SOL    HW229067   1.229   4.241  11.202  0.8966 -1.0108  0.0782
 5870SOL     OW29068   1.013   3.364   5.588  0.0300 -0.0252 -0.0995
 5870SOL    HW129069   1.032   3.284   5.637 -0.3597 -0.6069 -0.8977
 5870SOL    HW229070   0.978   3.416   5.661  0.2886 -0.6657  0.4797
 5871SOL     OW29071   0.186   4.313   6.538 -0.6311 -0.1381  0.6290
 5871SOL    HW129072   0.133   4.297   6.616 -2.9569  0.7765 -0.7314
 5871SOL    HW229073   0.146   4.260   6.469  0.2756  1.4800 -1.1420
 5872SOL     OW29074   1.563   1.592  14.541  0.0873 -0.1185  0.3103
 5872SOL    HW129075   1.610   1.650  14.481  1.5735 -0.2760  1.3081
 5872SOL    HW229076   1.625   1.616  14.610  0.3442 -0.4522  0.1975
 5873SOL     OW29077   2.376   3.061  10.714 -0.2749 -0.4225  0.6023
 5873SOL    HW129078   2.339   2.984  10.672  1.4504 -1.8752  1.7564
 5873SOL    HW229079   2.423   3.021  10.787  1.7339  0.8261  0.0142
 5874SOL     OW29080   1.847   2.175   6.130  0.7346 -0.2517  0.1498
 5874SOL    HW129081   1.761   2.219   6.131  0.8253 -0.0460 -1.0256
 5874SOL    HW229082   1.902   2.238   6.176 -0.2221  0.3423  0.5002
 5875SOL     OW29083   1.263   3.460   0.529 -0.1617  0.1948  0.0310
 5875SOL    HW129084   1.322   3.534   0.514 -1.1329  1.0708  0.5086
 5875SOL    HW229085   1.176   3.494   0.508  0.8222  1.6157 -1.7318
 5876SOL     OW29086   4.159   2.725   0.353  0.4156 -0.0570  0.4202
 5876SOL    HW129087   4.087   2.750   0.296 -0.9404 -1.1862  1.6455
 5876SOL    HW229088   4.147   2.786   0.426  1.0111  0.1789  0.3223
 5877SOL     OW29089   3.183   3.789   4.704 -0.4262 -0.2121 -0.7535
 5877SOL    HW129090   3.215   3.724   4.766 -1.5590  0.7062  0.7749
 5877SOL    HW229091   3.088   3.778   4.708 -0.2142 -2.3750 -1.7100
 5878SOL     OW29092   0.473   4.429  13.128  0.2197 -0.2360 -0.1899
 5878SOL    HW129093   0.441   4.356  13.181  1.5960 -1.0279 -0.4320
 5878SOL    HW229094   0.424   4.498  13.173 -0.6749 -0.9101 -0.1180
 5879SOL     OW29095   0.533   3.175  13.298 -0.2422  0.3306 -0.1120
 5879SOL    HW129096   0.586   3.115  13.350 -2.2142 -0.8337  0.5221
 5879SOL    HW229097   0.479   3.216  13.366  2.4288  0.8594  1.6949
 5880SOL     OW29098   2.136   3.060   5.363  0.4583  0.0254 -0.6617
 5880SOL    HW129099   2.182   3.062   5.279 -1.0563 -2.8638 -1.5618
 5880SOL    HW229100   2.151   2.972   5.398 -0.7034 -0.2966 -0.9671
 5881SOL     OW29101   3.111   4.464   9.587 -0.1689  0.1083 -0.4565
 5881SOL    HW129102   3.108   4.416   9.504 -0.3350 -2.1944  0.8947
 5881SOL    HW229103   3.071   4.546   9.558 -2.4819 -1.2321 -1.0415
 5882SOL     OW29104   3.910   3.399  16.885  0.0026  0.1168  0.6605
 5882SOL    HW129105   3.856   3.341  16.939  2.5800 -0.8180  2.2214
 5882SOL    HW229106   3.920   3.474  16.943  0.7079  0.3513  0.2342
 5883SOL     OW29107   4.189   3.469   7.762  1.0583  0.5020  0.4008
 5883SOL    HW129108   4.169   3.377   7.775 -2.7728  1.2455  0.0059
 5883SOL    HW229109   4.225   3.491   7.848  1.7090 -1.1989  0.5501
 5884SOL     OW29110   2.637   2.848   1.036  0.7149  0.6345  0.6521
 5884SOL    HW129111   2.574   2.906   0.993  1.4595  0.0897 -1.1750
 5884SOL    HW229112   2.578   2.775   1.054  0.1006  1.0852  0.4889
 5885SOL     OW29113   2.946   0.459   9.688 -0.3892 -0.1211  0.3046
 5885SOL    HW129114   2.882   0.467   9.617  0.9401 -0.4005 -0.9316
 5885SOL    HW229115   2.901   0.512   9.753  0.3754 -1.8131  2.2146
 5886SOL     OW29116   0.195   2.952   7.232  0.7080 -0.5516 -0.0686
 5886SOL    HW129117   0.123   2.944   7.294  1.0424 -1.7939  0.1666
 5886SOL    HW229118   0.245   2.874   7.254  0.6671  0.1113  2.3821
 5887SOL     OW29119   1.756   1.085   8.816 -0.0772  0.4410  0.1239
 5887SOL    HW129120   1.781   1.149   8.882  0.1591  0.2572  0.2134
 5887SOL    HW229121   1.741   1.137   8.737  2.0773 -0.2039 -0.7221
 5888SOL     OW29122   0.470   2.670   7.565 -0.0488 -0.5194 -0.1968
 5888SOL    HW129123   0.522   2.721   7.627 -1.0796 -0.5625  0.7052
 5888SOL    HW229124   0.467   2.724   7.486  1.2218  1.2635  0.9623
 5889SOL     OW29125   1.009   0.248  15.938  0.0652 -0.2820 -0.5873
 5889SOL    HW129126   1.013   0.305  16.015 -1.0249 -0.4543 -0.4037
 5889SOL    HW229127   1.086   0.197  15.964  0.6548  0.2595 -1.2757
 5890SOL     OW29128   2.058   3.491   3.839 -0.2733  0.3820  0.2988
 5890SOL    HW129129   2.121   3.560   3.822 -0.9291  0.5955 -1.3411
 5890SOL    HW229130   2.025   3.493   3.749  3.6954 -1.2146 -1.1856
 5891SOL     OW29131   1.571   2.958   6.728 -0.3221 -0.3976 -0.4505
 5891SOL    HW129132   1.653   2.927   6.690  0.1240  2.4509 -1.8388
 5891SOL    HW229133   1.546   3.038   6.681 -0.6540  0.8149  1.7674
 5892SOL     OW29134   2.458   1.496   0.320 -0.5199  0.2123  0.3391
 5892SOL    HW129135   2.501   1.485   0.235  0.3380  1.7091  0.5763
 5892SOL    HW229136   2.494   1.424   0.373  1.2761  1.1284  0.3669
 5893SOL     OW29137   2.049   3.849   1.328 -0.1027 -0.9666  0.2101
 5893SOL    HW129138   2.013   3.764   1.301  2.2991 -1.2775 -2.0169
 5893SOL    HW229139   1.975   3.904   1.306  0.5825  0.7946  2.2888
 5894SOL     OW29140   1.325   1.030  11.005  1.1586 -0.1451  0.5577
 5894SOL    HW129141   1.241   1.061  11.036  1.6549  1.1457  0.5857
 5894SOL    HW229142   1.387   1.062  11.071  2.9687 -3.1983  0.3887
 5895SOL     OW29143   3.324   1.148   7.595 -0.0739 -0.5039  0.2801
 5895SOL    HW129144   3.248   1.188   7.637 -0.8353  0.0292 -1.5843
 5895SOL    HW229145   3.370   1.127   7.676 -1.1951 -1.2611  0.7074
 5896SOL     OW29146   0.963   3.381   1.141  0.1278  0.7379 -0.0490
 5896SOL    HW129147   0.994   3.334   1.064  1.0145  1.0947  0.0852
 5896SOL    HW229148   0.964   3.317   1.211 -4.0245 -0.0593 -0.7169
 5897SOL     OW29149   0.902   0.816   7.156 -0.5105  0.0151  0.3535
 5897SOL    HW129150   0.978   0.871   7.174 -0.3356  0.5250 -1.9230
 5897SOL    HW229151   0.915   0.741   7.213 -1.9139  0.4303  1.2068
 5898SOL     OW29152   1.727   2.695   7.881  0.3691  0.1661  0.3936
 5898SOL    HW129153   1.664   2.683   7.810  1.2053 -0.1630 -0.2991
 5898SOL    HW229154   1.675   2.722   7.956  0.3956 -1.2766  0.9238
 5899SOL     OW29155   2.134   3.602  17.559  0.1140 -0.1264 -0.7803
 5899SOL    HW129156   2.221   3.620  17.592 -0.5555 -1.9230  1.9980
 5899SOL    HW229157   2.086   3.680  17.587  0.4761 -0.2899  0.2971
 5900SOL     OW29158   0.882   4.498   2.699 -0.1922  0.4143  0.1723
 5900SOL    HW129159   0.919   4.418   2.661 -0.5459 -0.0429  0.7827
 5900SOL    HW229160   0.896   4.548   2.619  0.0083 -0.7439 -0.5329
 5901SOL     OW29161   2.366   3.296  11.659  0.0496 -0.2229 -0.1506
 5901SOL    HW129162   2.344   3.336  11.575  0.8435  0.5379  0.0007
 5901SOL    HW229163   2.416   3.218  11.633 -0.6981 -0.1614 -1.7411
 5902SOL     OW29164   2.552   2.698   7.324  0.2890  0.1037  0.2126
 5902SOL    HW129165   2.572   2.606   7.342 -2.3293 -1.1727 -3.3774
 5902SOL    HW229166   2.526   2.728   7.411 -2.6747 -0.9718 -0.2988
 5903SOL     OW29167   4.484   1.511   0.957  0.0464  0.5679 -0.1442
 5903SOL    HW129168   4.538   1.434   0.978 -0.5677  0.3499  0.6453
 5903SOL    HW229169   4.538   1.587   0.976 -0.5859  1.2485 -1.0638
 5904SOL     OW29170   0.940   0.137   2.571 -0.1284 -0.0858 -0.2615
 5904SOL    HW129171   0.951   0.186   2.490 -1.4450 -1.3686 -1.2086
 5904SOL    HW229172   0.846   0.150   2.582 -0.7839 -2.1811 -3.5237
 5905SOL     OW29173   3.827   0.845   7.406 -0.1641  0.1677  0.4287
 5905SOL    HW129174   3.832   0.939   7.387  3.8195 -0.0850  0.2245
 5905SOL    HW229175   3.821   0.803   7.320 -0.3885  1.9120 -0.4167
 5906SOL     OW29176   3.742   2.878   1.989  0.3654  0.0259  0.4368
 5906SOL    HW129177   3.686   2.956   1.989  1.5185  0.8531  0.7358
 5906SOL    HW229178   3.707   2.821   2.057  0.5021 -0.3512  0.1925
 5907SOL     OW29179   1.021   3.722  16.182 -0.0466 -0.6571 -0.3223
 5907SOL    HW129180   0.939   3.676  16.199 -1.6613  1.0367 -3.6030
 5907SOL    HW229181   0.995   3.792  16.122 -0.6024 -2.0023 -1.6697
 5908SOL     OW29182   0.931   1.958   8.033  0.1897  0.1977  0.1861
 5908SOL    HW129183   0.940   1.901   7.957  3.4760  0.8503  0.0791
 5908SOL    HW229184   1.012   1.956   8.085 -2.3936  0.2528  4.2540
 5909SOL     OW29185   1.723   2.909   4.279 -0.0718 -0.5490 -0.4094
 5909SOL    HW129186   1.699   2.965   4.205  1.1830 -0.0942 -0.4667
 5909SOL    HW229187   1.646   2.925   4.334 -0.0430 -0.6431 -0.3418
 5910SOL     OW29188   0.146   2.973   2.502 -0.0902  0.6585 -1.1185
 5910SOL    HW129189   0.170   3.047   2.447 -1.3347  3.5021  2.1686
 5910SOL    HW229190   0.101   3.024   2.569  0.6154  1.0591 -0.9590
 5911SOL     OW29191   4.152   4.584   2.630  0.2332  0.5852 -0.4693
 5911SOL    HW129192   4.237   4.556   2.595  0.6453  1.7146 -0.3706
 5911SOL    HW229193   4.118   4.638   2.559 -2.0067  1.5262  1.3317
 5912SOL     OW29194   2.554   0.790   1.516  0.7599 -0.1434 -0.0993
 5912SOL    HW129195   2.597   0.708   1.493  1.6887  0.3284 -0.0508
 5912SOL    HW229196   2.558   0.779   1.611  0.7029  0.0864 -0.0703
 5913SOL     OW29197   3.628   4.676  13.887  0.1826  0.0716  0.0279
 5913SOL    HW129198   3.686   4.648  13.816 -0.0089  0.5335 -0.3200
 5913SOL    HW229199   3.578   4.597  13.904 -0.3599  0.6790  1.2579
 5914SOL     OW29200   0.297   3.707   5.578  0.5843  0.4426  0.5210
 5914SOL    HW129201   0.386   3.728   5.548  0.0944 -0.7808 -1.8506
 5914SOL    HW229202   0.323   3.628   5.626 -1.4951 -0.9872 -0.7143
 5915SOL     OW29203   0.324   2.214   9.444  0.1257 -0.4621 -0.3272
 5915SOL    HW129204   0.270   2.204   9.523  0.6072 -1.6614 -0.1560
 5915SOL    HW229205   0.406   2.240   9.485  0.5834  1.0718 -2.2464
 5916SOL     OW29206   3.217   1.640  16.192 -0.4573  0.4265  0.1289
 5916SOL    HW129207   3.253   1.569  16.138  0.2048  1.5097 -0.8465
 5916SOL    HW229208   3.129   1.654  16.158 -0.5395  1.1200  0.6541
 5917SOL     OW29209   0.442   3.201   2.249  0.1807  0.7525 -0.1692
 5917SOL    HW129210   0.413   3.270   2.189  3.8818  0.7604 -1.9613
 5917SOL    HW229211   0.536   3.218   2.257 -0.0720  1.7254  0.8563
 5918SOL     OW29212   4.362   3.734   5.706  0.8044 -0.4943  0.3524
 5918SOL    HW129213   4.451   3.702   5.722  0.7000 -0.4828  0.9587
 5918SOL    HW229214   4.374   3.826   5.685 -2.4387 -0.3890 -0.9304
 5919SOL     OW29215   1.489   3.688   6.989 -0.2582 -0.2319  0.0690
 5919SOL    HW129216   1.394   3.691   6.997 -0.0192  2.4409  2.0305
 5919SOL    HW229217   1.504   3.783   6.985  0.5746 -0.3675 -0.0704
 5920SOL     OW29218   1.881   4.392   3.771 -0.1016 -0.1345 -0.1113
 5920SOL    HW129219   1.895   4.442   3.691  0.6266  0.0371  0.1185
 5920SOL    HW229220   1.865   4.304   3.735 -1.7353  0.4660 -0.8248
 5921SOL     OW29221   3.398   4.683   8.294  0.2961 -0.7145 -0.2196
 5921SOL    HW129222   3.382   4.592   8.319 -0.3544 -0.4348  0.3857
 5921SOL    HW229223   3.446   4.717   8.370  1.4675 -1.8791 -0.4263
 5922SOL     OW29224   1.619   0.699  11.059 -0.0190 -0.0376 -0.3766
 5922SOL    HW129225   1.651   0.743  10.981  0.5521  0.4926  0.1634
 5922SOL    HW229226   1.627   0.772  11.120  4.2504 -0.3913 -0.5385
 5923SOL     OW29227   3.854   2.466  14.012  0.2351 -0.4521 -0.0170
 5923SOL    HW129228   3.926   2.453  13.950  0.1845  0.2822 -0.2261
 5923SOL    HW229229   3.785   2.410  13.977  0.8709 -0.3406 -1.4403
 5924SOL     OW29230   1.244   2.884   4.406  0.2513  0.5892  0.1567
 5924SOL    HW129231   1.217   2.810   4.353  1.4327  0.5321 -0.3685
 5924SOL    HW229232   1.237   2.854   4.497 -0.7091 -0.9018 -0.4248
 5925SOL     OW29233   3.553   2.983   8.152  0.5515 -0.8822  0.2668
 5925SOL    HW129234   3.591   3.056   8.201 -0.5821 -0.3110  0.3032
 5925SOL    HW229235   3.572   3.011   8.063  0.5001  0.5179  0.6980
 5926SOL     OW29236   1.223   3.147   6.470 -0.1902 -0.2092  0.1374
 5926SOL    HW129237   1.164   3.072   6.478 -0.0722 -0.1981  1.1285
 5926SOL    HW229238   1.201   3.181   6.383 -1.4202  1.3707  1.0601
 5927SOL     OW29239   0.447   0.509   0.947  0.2108  0.0072 -0.2049
 5927SOL    HW129240   0.503   0.560   1.006  0.5380 -1.5592  0.8402
 5927SOL    HW229241   0.450   0.559   0.866  2.8117 -0.5563 -0.4615
 5928SOL     OW29242   1.469   2.929   7.232  0.6312 -0.5010 -0.0986
 5928SOL    HW129243   1.510   2.903   7.149  1.8591  2.8014 -0.5100
 5928SOL    HW229244   1.503   2.869   7.297  2.9429  0.0734 -0.7639
 5929SOL     OW29245   2.329   2.121   6.829 -0.6074 -0.3935 -0.2854
 5929SOL    HW129246   2.396   2.164   6.882 -0.7333  1.0997 -1.3610
 5929SOL    HW229247   2.286   2.065   6.894 -1.3610  1.2122  0.5901
 5930SOL     OW29248   0.604   2.234   5.050 -0.1682  0.3813 -0.3909
 5930SOL    HW129249   0.605   2.309   5.110  0.8056  0.3602 -0.3838
 5930SOL    HW229250   0.627   2.271   4.964 -0.0402  0.1293 -0.4658
 5931SOL     OW29251   4.009   4.285   3.542 -0.6394 -0.7068 -0.0804
 5931SOL    HW129252   4.058   4.207   3.518  0.8755  0.9731 -2.5784
 5931SOL    HW229253   3.967   4.257   3.623  1.2930 -0.3995  1.0306
 5932SOL     OW29254   4.472   0.264   0.325  0.1119  0.3919 -0.0014
 5932SOL    HW129255   4.501   0.291   0.238  0.8407  0.4296  0.2481
 5932SOL    HW229256   4.490   0.339   0.382 -1.9629  1.3929 -0.6799
 5933SOL     OW29257   1.669   2.277  11.118 -0.1424 -0.1926  0.3659
 5933SOL    HW129258   1.667   2.184  11.141  1.4850 -1.1278 -3.3416
 5933SOL    HW229259   1.709   2.280  11.031  1.1565  1.6299  1.0407
 5934SOL     OW29260   2.136   4.384  10.016 -0.1350 -0.3152  0.2069
 5934SOL    HW129261   2.103   4.352  10.100  1.6612  1.2776  1.5182
 5934SOL    HW229262   2.156   4.302   9.971  2.3698  0.3330  0.1526
 5935SOL     OW29263   0.825   4.362   6.911  0.3699  0.0812  0.0703
 5935SOL    HW129264   0.773   4.397   6.983 -2.2556 -2.0175 -0.7941
 5935SOL    HW229265   0.764   4.331   6.843 -1.7981  1.0213  1.5656
 5936SOL     OW29266   4.652   3.526   2.816  0.5850 -0.5785  0.0456
 5936SOL    HW129267   4.576   3.570   2.778 -0.4097  0.1297  2.8569
 5936SOL    HW229268   4.609   3.493   2.895  1.3701 -0.0565  0.6804
 5937SOL     OW29269   1.805   2.288  16.813 -0.0421 -0.2845  0.6805
 5937SOL    HW129270   1.723   2.241  16.797  1.6710 -2.9781 -0.1530
 5937SOL    HW229271   1.820   2.334  16.731 -0.6553  1.0378  1.3184
 5938SOL     OW29272   1.054   4.131   9.101 -0.3829  0.3819 -0.2150
 5938SOL    HW129273   1.086   4.054   9.055 -1.4214 -0.0995 -0.1340
 5938SOL    HW229274   1.020   4.095   9.183 -0.7217  2.1860  0.4304
 5939SOL     OW29275   4.598   3.441   9.373  0.1271 -0.3345 -0.4443
 5939SOL    HW129276   4.596   3.346   9.356 -3.1071 -0.5540  1.0710
 5939SOL    HW229277   4.508   3.469   9.355 -0.3778 -2.5376 -1.4180
 5940SOL     OW29278   1.051   3.601   0.997  1.0390  0.2678 -0.2281
 5940SOL    HW129279   0.986   3.531   0.996  0.7405  0.5416  0.3193
 5940SOL    HW229280   1.120   3.569   0.939 -0.4526 -1.4939 -1.0180
 5941SOL     OW29281   2.598   2.850  16.075  0.3360  0.0880  0.5761
 5941SOL    HW129282   2.644   2.932  16.091 -1.0054  0.3565  2.9976
 5941SOL    HW229283   2.514   2.866  16.117  0.1078  0.5152 -0.0493
 5942SOL     OW29284   3.256   1.965   9.113  0.3797 -0.0525 -0.1398
 5942SOL    HW129285   3.271   1.987   9.021 -0.6151  1.0589 -0.0496
 5942SOL    HW229286   3.167   1.930   9.102 -0.4847  1.6899  1.2804
 5943SOL     OW29287   0.749   4.715   8.552  0.4092 -0.3968 -0.2442
 5943SOL    HW129288   0.822   0.017   8.608  2.8188  0.2122 -3.7086
 5943SOL    HW229289   0.778   0.022   8.466  0.1435  0.4787 -0.0192
 5944SOL     OW29290   1.200   0.441   5.133 -0.3952 -0.2134  0.4250
 5944SOL    HW129291   1.277   0.472   5.180  0.4788 -1.1300 -0.4101
 5944SOL    HW229292   1.228   0.381   5.064 -0.6152  1.1151 -0.8259
 5945SOL     OW29293   0.181   2.772   7.878 -0.5760  0.0545 -0.3495
 5945SOL    HW129294   0.165   2.739   7.966  0.6516  0.0065 -0.1386
 5945SOL    HW229295   0.207   2.697   7.824 -2.7295  0.0477 -1.3606
 5946SOL     OW29296   1.269   4.103   3.363 -0.3702 -0.2209  0.3627
 5946SOL    HW129297   1.348   4.095   3.311 -0.8275  1.8016 -0.6272
 5946SOL    HW229298   1.303   4.126   3.449 -1.0487  0.7514  0.3739
 5947SOL     OW29299   3.614   4.249  14.269 -0.1469  0.4036  0.6596
 5947SOL    HW129300   3.589   4.342  14.275 -1.8107  0.1254 -2.1171
 5947SOL    HW229301   3.696   4.247  14.318  0.4523 -2.6934 -0.5400
 5948SOL     OW29302   0.853   1.204   3.438 -0.1073  0.0788 -0.5602
 5948SOL    HW129303   0.844   1.299   3.438  1.7257  0.2589 -1.7228
 5948SOL    HW229304   0.939   1.191   3.396 -0.2023  0.1373 -0.7727
 5949SOL     OW29305   1.610   2.941   7.967 -0.1484 -0.0502  0.2775
 5949SOL    HW129306   1.652   3.023   7.993  1.5467 -0.4627 -1.2098
 5949SOL    HW229307   1.625   2.900   8.052  0.7478 -0.7249 -0.2040
 5950SOL     OW29308   2.747   0.457   1.910 -0.0086  0.0850  0.0526
 5950SOL    HW129309   2.807   0.425   1.978  0.8428  3.1253  0.7790
 5950SOL    HW229310   2.809   0.507   1.856 -0.1306  0.1665 -0.0107
 5951SOL     OW29311   0.049   0.393   5.866 -0.1351  0.7069 -0.2974
 5951SOL    HW129312   0.014   0.437   5.944 -1.8594 -0.8286 -0.2229
 5951SOL    HW229313   4.698   0.392   5.807 -0.6284 -2.8447  0.4381
 5952SOL     OW29314   1.393   1.051   7.447  0.0735 -0.0636 -0.3757
 5952SOL    HW129315   1.488   1.061   7.436  0.0205 -2.0765 -2.7523
 5952SOL    HW229316   1.364   1.112   7.380  3.3428 -0.5932 -2.2958
 5953SOL     OW29317   4.014   4.582   8.545 -0.0114  0.2449  0.0604
 5953SOL    HW129318   3.924   4.550   8.544  0.6953 -1.7706  0.5299
 5953SOL    HW229319   4.009   4.676   8.528 -1.1983  0.0037 -0.8907
 5954SOL     OW29320   2.156   0.791  11.276  0.7519  0.7534 -0.2260
 5954SOL    HW129321   2.246   0.760  11.270 -0.2640 -2.3643  0.9549
 5954SOL    HW229322   2.129   0.733  11.347  0.0045  0.9185 -0.3681
 5955SOL     OW29323   4.713   3.412   1.660  0.2694  0.1150 -0.0427
 5955SOL    HW129324   4.692   3.409   1.753  0.0890 -0.2248 -0.0949
 5955SOL    HW229325   4.624   3.425   1.626  0.0236 -1.9468 -0.1441
 5956SOL     OW29326   4.249   1.551  11.298 -0.5135 -0.1658 -0.1851
 5956SOL    HW129327   4.282   1.462  11.292 -0.5007 -0.0515 -1.8741
 5956SOL    HW229328   4.158   1.531  11.317 -0.2380 -0.8146  0.4591
 5957SOL     OW29329   1.644   1.642   1.820 -0.1843 -0.3413 -0.0238
 5957SOL    HW129330   1.612   1.555   1.795 -0.1104 -0.2769 -0.3464
 5957SOL    HW229331   1.560   1.678   1.849 -1.4881 -2.4029 -1.2146
 5958SOL     OW29332   2.585   1.556   0.837 -0.3615  0.2393 -0.2631
 5958SOL    HW129333   2.655   1.621   0.831 -2.7602  2.7156 -1.3352
 5958SOL    HW229334   2.587   1.497   0.761 -0.5506  1.9170 -1.5648
 5959SOL     OW29335   2.879   0.567  12.080 -0.7706  0.4171  1.0956
 5959SOL    HW129336   2.964   0.559  12.035 -2.7144  1.4675 -2.7339
 5959SOL    HW229337   2.859   0.476  12.102 -0.4213  0.0637 -0.0472
 5960SOL     OW29338   0.318   2.630   1.092  0.1426  0.5002 -0.0218
 5960SOL    HW129339   0.261   2.651   1.166 -2.4859 -1.0400 -1.6391
 5960SOL    HW229340   0.253   2.639   1.023 -0.2954 -1.8955  0.0879
 5961SOL     OW29341   3.218   0.968  13.922 -0.4738 -0.5099  0.3447
 5961SOL    HW129342   3.230   0.973  14.017  0.1506 -0.0535  0.2419
 5961SOL    HW229343   3.309   0.958  13.893 -1.1188  1.6395 -2.4369
 5962SOL     OW29344   4.306   2.907   7.319 -0.1940 -0.6854 -0.5777
 5962SOL    HW129345   4.321   2.818   7.288  0.2512 -0.1567 -1.8929
 5962SOL    HW229346   4.365   2.905   7.395 -1.3547  0.4926  0.3562
 5963SOL     OW29347   2.999   2.941   4.555 -0.6826  0.5736  0.0001
 5963SOL    HW129348   3.000   3.024   4.603 -1.9819  0.9996 -0.7077
 5963SOL    HW229349   2.920   2.909   4.598  1.3569 -0.6979  2.7732
 5964SOL     OW29350   0.763   3.933   9.960  0.1329 -0.3291 -0.5618
 5964SOL    HW129351   0.832   3.866   9.954  0.2961 -0.2954  1.0937
 5964SOL    HW229352   0.759   3.958  10.052 -0.8562  0.9887 -0.9630
 5965SOL     OW29353   4.091   1.204   1.119 -0.2358 -0.6012 -0.6271
 5965SOL    HW129354   4.009   1.165   1.149  0.3219  0.2250  1.9769
 5965SOL    HW229355   4.136   1.210   1.204  1.9957  0.7483 -1.9117
 5966SOL     OW29356   0.116   1.324  16.174 -0.1838 -0.0257 -0.6839
 5966SOL    HW129357   0.080   1.247  16.219  0.8230  0.2032  0.5024
 5966SOL    HW229358   0.043   1.367  16.130  0.6693  0.6168 -1.4573
 5967SOL     OW29359   3.827   0.574   8.388 -0.1697 -0.2750  0.1534
 5967SOL    HW129360   3.813   0.521   8.309  1.2925  0.6034 -0.6776
 5967SOL    HW229361   3.770   0.535   8.455  2.2674 -0.8654  1.8985
 5968SOL     OW29362   3.886   4.292  12.652  0.3860 -0.6674  1.0731
 5968SOL    HW129363   3.944   4.244  12.592 -1.5033 -0.9719 -0.5334
 5968SOL    HW229364   3.879   4.376  12.606  1.9363  0.1538  2.3376
 5969SOL     OW29365   0.289   2.719   9.041 -0.0349 -0.0750 -0.2811
 5969SOL    HW129366   0.272   2.667   9.120  3.1483  0.8485  1.0009
 5969SOL    HW229367   0.198   2.733   9.016  0.5326 -0.1699 -2.3917
 5970SOL     OW29368   1.098   3.141   7.453 -0.2979 -0.6031 -0.0487
 5970SOL    HW129369   1.016   3.092   7.456 -0.6892 -0.0669 -1.6863
 5970SOL    HW229370   1.162   3.078   7.486  0.7419 -0.5336 -1.9424
 5971SOL     OW29371   1.410   2.459   1.798  0.3493  0.6213 -0.1366
 5971SOL    HW129372   1.465   2.533   1.771 -0.4181  1.5029  0.6750
 5971SOL    HW229373   1.474   2.407   1.847 -1.4149 -1.3597  0.0667
 5972SOL     OW29374   2.022   2.801   9.153 -0.7078  0.2765 -0.1551
 5972SOL    HW129375   2.049   2.740   9.222  0.6662  2.3596  1.1369
 5972SOL    HW229376   2.048   2.760   9.071  1.0734 -0.3964  0.7487
 5973SOL     OW29377   0.160   3.586   9.031 -1.1077 -0.1512 -0.4825
 5973SOL    HW129378   0.199   3.578   9.118  0.5242  1.8704 -1.0175
 5973SOL    HW229379   0.202   3.662   8.991 -2.9422  0.6171 -0.9532
 5974SOL     OW29380   1.447   1.283   6.395  0.6770 -0.9699 -0.3641
 5974SOL    HW129381   1.361   1.288   6.436 -0.5420  0.4238 -3.1083
 5974SOL    HW229382   1.451   1.367   6.349 -1.5169 -1.1259 -0.8565
 5975SOL     OW29383   1.221   1.688  14.724 -0.3427 -0.2723  0.3974
 5975SOL    HW129384   1.252   1.750  14.658 -0.0973  0.3757  1.1203
 5975SOL    HW229385   1.250   1.734  14.803 -0.3224  3.1261 -1.6013
 5976SOL     OW29386   2.617   2.824   3.310 -0.0187  0.5167  0.0124
 5976SOL    HW129387   2.674   2.900   3.298 -0.2810  0.3785 -2.1557
 5976SOL    HW229388   2.662   2.754   3.262  0.1641  0.9099 -0.3940
 5977SOL     OW29389   4.545   1.749   4.423  0.3134  0.5809  0.1703
 5977SOL    HW129390   4.500   1.832   4.436 -1.6811 -0.3561 -0.7071
 5977SOL    HW229391   4.522   1.711   4.508  1.6711 -1.1660 -0.2431
 5978SOL     OW29392   1.342   2.184   6.135 -0.1099 -0.1025  0.6375
 5978SOL    HW129393   1.327   2.130   6.057 -1.1220  0.1298  0.6716
 5978SOL    HW229394   1.346   2.115   6.202 -0.0349 -0.0182  0.7208
 5979SOL     OW29395   0.962   3.029   4.457  0.1483 -0.2382  0.1109
 5979SOL    HW129396   0.945   2.970   4.383 -0.0833  1.0680 -0.8881
 5979SOL    HW229397   0.886   3.086   4.462  0.9772  0.8339  0.4833
 5980SOL     OW29398   1.853   4.639   8.474 -0.1452  0.1466  0.5673
 5980SOL    HW129399   1.894   4.668   8.393 -0.6410 -2.1191 -0.4878
 5980SOL    HW229400   1.891   4.697   8.540 -1.2959 -1.5867  2.7407
 5981SOL     OW29401   2.161   4.614  13.223 -0.1538 -0.7707 -0.5019
 5981SOL    HW129402   2.083   4.638  13.173 -1.6138 -1.4470  1.4553
 5981SOL    HW229403   2.130   4.616  13.314  0.3888 -0.9966 -0.3103
 5982SOL     OW29404   4.144   0.311  16.222 -0.6028 -0.2897  0.3907
 5982SOL    HW129405   4.149   0.403  16.196  1.5262 -0.4294  0.3241
 5982SOL    HW229406   4.106   0.333  16.307 -1.4078 -1.6127  0.3639
 5983SOL     OW29407   0.660   0.420   4.068  0.5796  0.7300  0.4908
 5983SOL    HW129408   0.619   0.398   3.984  0.8678  0.6057  0.3850
 5983SOL    HW229409   0.746   0.442   4.032  1.2695  0.2149  1.8370
 5984SOL     OW29410   2.400   2.616   6.019  0.1306 -0.3959 -0.1099
 5984SOL    HW129411   2.491   2.584   6.017  0.6127  0.9408  0.6330
 5984SOL    HW229412   2.391   2.685   5.954  1.6532 -1.4891 -1.4893
 5985SOL     OW29413   0.574   4.134   2.957  0.2451 -0.5876 -0.5201
 5985SOL    HW129414   0.576   4.120   3.052 -1.7012  0.9707 -0.2427
 5985SOL    HW229415   0.491   4.179   2.940 -1.5048 -3.0362  1.4920
 5986SOL     OW29416   4.111   2.041   9.213 -0.2566  0.3006 -0.2366
 5986SOL    HW129417   4.037   1.980   9.210 -0.3092  0.2848  1.4355
 5986SOL    HW229418   4.164   2.009   9.139  2.9834  1.6684  1.4952
 5987SOL     OW29419   0.993   2.646   1.766  0.0003 -0.4042 -0.2205
 5987SOL    HW129420   0.907   2.674   1.795  1.1719  1.7463  1.2065
 5987SOL    HW229421   1.000   2.686   1.680 -0.9029  0.6535  0.2106
 5988SOL     OW29422   2.361   0.484  12.056  0.0978 -0.0583 -0.2943
 5988SOL    HW129423   2.374   0.537  12.135 -1.1942  1.0620 -0.8334
 5988SOL    HW229424   2.381   0.547  11.987 -0.0398 -0.4942 -0.7309
 5989SOL     OW29425   1.375   1.542   5.209  0.0720 -0.4817  0.2744
 5989SOL    HW129426   1.413   1.502   5.287 -1.7800 -0.7958  1.0361
 5989SOL    HW229427   1.288   1.562   5.245  0.1259 -1.4206  0.9278
 5990SOL     OW29428   3.105   4.444   5.842  0.2090  0.8375 -0.0774
 5990SOL    HW129429   3.022   4.484   5.817  0.2819 -0.2448 -1.9745
 5990SOL    HW229430   3.146   4.525   5.874 -1.7664  2.0500 -0.6554
 5991SOL     OW29431   4.323   3.571   7.317 -0.9047  0.2936  0.2412
 5991SOL    HW129432   4.388   3.627   7.359 -1.2542  0.3504  0.7073
 5991SOL    HW229433   4.360   3.579   7.230 -2.2772  1.4809 -0.2412
 5992SOL     OW29434   1.456   1.091  13.056 -0.0839 -0.0514 -0.6805
 5992SOL    HW129435   1.504   1.010  13.040  1.9734  1.5458 -2.6821
 5992SOL    HW229436   1.528   1.149  13.082 -0.0193  0.6074 -2.2721
 5993SOL     OW29437   1.821   4.426   5.340  0.4115  0.1666 -0.0717
 5993SOL    HW129438   1.856   4.414   5.428 -1.3439  2.6282  0.9774
 5993SOL    HW229439   1.814   4.521   5.329  1.3284  0.1959 -0.4218
 5994SOL     OW29440   1.860   4.509   0.164  0.1982  0.1669  0.0282
 5994SOL    HW129441   1.812   4.591   0.170  1.3539  0.7591  1.0082
 5994SOL    HW229442   1.950   4.540   0.167  0.1706  0.3922 -1.4596
 5995SOL     OW29443   2.936   0.278   3.355 -0.0443  0.5927 -0.0542
 5995SOL    HW129444   2.855   0.234   3.382  0.3307 -0.5994 -0.8586
 5995SOL    HW229445   3.006   0.216   3.377 -0.6013  0.7939  2.2686
 5996SOL     OW29446   2.460   2.946   8.361 -0.2121 -0.0579 -0.4254
 5996SOL    HW129447   2.456   2.914   8.271  0.2406  0.2543 -0.5574
 5996SOL    HW229448   2.435   3.038   8.358  1.8096  0.5315  0.6521
 5997SOL     OW29449   3.301   0.425   5.209 -0.5345 -0.2810 -0.0484
 5997SOL    HW129450   3.280   0.348   5.157 -1.6536  0.2904 -0.4571
 5997SOL    HW229451   3.284   0.393   5.297 -0.4208 -2.2623 -0.7440
 5998SOL     OW29452   4.565   0.228   7.985 -0.3247 -0.6852 -0.1349
 5998SOL    HW129453   4.606   0.155   7.939  0.2843 -0.9512  0.8478
 5998SOL    HW229454   4.505   0.273   7.926 -1.8467  1.2446  2.8686
 5999SOL     OW29455   1.000   3.601   8.672  0.6801 -0.4314 -0.1232
 5999SOL    HW129456   1.083   3.558   8.692  0.8830 -0.5323 -1.1469
 5999SOL    HW229457   1.032   3.691   8.676  1.1556 -0.6787  1.4100
 6000SOL     OW29458   0.112   1.039   6.557  0.3152  0.3662  0.2248
 6000SOL    HW129459   0.048   0.990   6.505  0.5779  1.2454 -0.9309
 6000SOL    HW229460   0.183   1.063   6.498 -0.3108 -1.1237 -1.1311
 6001SOL     OW29461   2.249   4.697   3.582 -0.5127 -0.1824 -0.3712
 6001SOL    HW129462   2.194   4.706   3.504 -1.0950 -0.1458  0.0426
 6001SOL    HW229463   2.291   4.613   3.562  0.7225  0.5123 -0.6534
 6002SOL     OW29464   0.179   4.658   6.407  0.3574 -0.3459 -0.5430
 6002SOL    HW129465   0.150   4.588   6.349 -0.1179 -0.9438  0.4127
 6002SOL    HW229466   0.134   0.007   6.365 -1.0503 -0.2739  1.0795
 6003SOL     OW29467   1.242   2.196   5.160  0.2555  0.3442  0.1360
 6003SOL    HW129468   1.301   2.233   5.225  0.7887 -0.1819 -0.0548
 6003SOL    HW229469   1.201   2.123   5.206  1.8013  0.5705  1.8557
 6004SOL     OW29470   2.154   3.916   6.640 -0.7095 -0.0530  0.5907
 6004SOL    HW129471   2.136   3.878   6.726  0.9205 -0.9797  0.5168
 6004SOL    HW229472   2.188   3.842   6.591 -1.1666  0.4519 -0.4859
 6005SOL     OW29473   2.367   4.459  17.570 -0.0964 -0.4183  0.3566
 6005SOL    HW129474   2.391   4.378  17.526 -1.9967 -1.2359  0.8573
 6005SOL    HW229475   2.343   4.425  17.656 -1.0003  0.0951  0.3084
 6006SOL     OW29476   1.466   3.805   6.684  0.4271 -0.1105  0.4470
 6006SOL    HW129477   1.487   3.712   6.686 -0.6487 -0.3710 -0.7434
 6006SOL    HW229478   1.371   3.796   6.689  0.5032 -0.5585  1.1347
 6007SOL     OW29479   3.028   4.084   2.766  0.5081 -0.5385 -0.2103
 6007SOL    HW129480   3.113   4.108   2.802  0.0901  0.0693  0.3766
 6007SOL    HW229481   3.054   3.996   2.740  0.9323 -0.3632 -0.3697
 6008SOL     OW29482   0.683   4.292  17.119 -0.8305  0.3004 -0.5088
 6008SOL    HW129483   0.685   4.302  17.214  0.3508 -1.0338 -0.3947
 6008SOL    HW229484   0.680   4.198  17.099 -2.0781  0.4842 -1.2294
 6009SOL     OW29485   2.731   1.133   8.867  0.0178 -0.0264 -0.1371
 6009SOL    HW129486   2.707   1.068   8.932 -2.5157  3.3854  2.3193
 6009SOL    HW229487   2.724   1.081   8.787 -2.3659  1.0256 -0.6134
 6010SOL     OW29488   2.831   3.890   6.979  0.4261 -0.4085 -0.0144
 6010SOL    HW129489   2.820   3.985   6.980  1.3747 -0.2530 -2.7570
 6010SOL    HW229490   2.738   3.880   6.995  0.3691 -2.0767 -1.4470
 6011SOL     OW29491   2.687   1.086   4.940  0.6310 -0.0557  0.1915
 6011SOL    HW129492   2.759   1.048   4.989  0.6024  0.0667  0.3262
 6011SOL    HW229493   2.730   1.130   4.866  0.8976  2.1009  1.6234
 6012SOL     OW29494   2.434   2.535  16.592  0.1101  0.1218  0.3484
 6012SOL    HW129495   2.387   2.615  16.615 -1.4080 -0.4357 -0.7949
 6012SOL    HW229496   2.515   2.577  16.565  0.3300 -0.8590 -0.5271
 6013SOL     OW29497   0.980   2.627   5.079  0.1707  0.3100 -0.3615
 6013SOL    HW129498   1.054   2.626   5.019 -1.2848  1.5830 -2.2044
 6013SOL    HW229499   0.973   2.533   5.097 -0.5433  0.5116  0.4532
 6014SOL     OW29500   1.167   0.915  11.957 -0.0034  0.1223 -0.0217
 6014SOL    HW129501   1.087   0.874  11.925 -1.2056  0.7272  2.2385
 6014SOL    HW229502   1.175   1.000  11.914 -1.0216 -1.3843 -3.1599
 6015SOL     OW29503   2.386   1.030  10.581 -0.5856  0.2443  0.1405
 6015SOL    HW129504   2.312   1.090  10.591 -0.5188  0.5806 -1.3486
 6015SOL    HW229505   2.387   1.000  10.490  1.7977  0.4658  0.0921
 6016SOL     OW29506   2.351   1.805   5.655  0.1662 -0.0847  0.0816
 6016SOL    HW129507   2.294   1.878   5.631  0.5420  0.6602  1.4467
 6016SOL    HW229508   2.307   1.738   5.602  2.2410 -1.2791 -0.1326
 6017SOL     OW29509   3.890   0.649  10.431 -0.1373 -0.2740  0.5361
 6017SOL    HW129510   3.927   0.566  10.402 -1.0507 -0.6679  0.5022
 6017SOL    HW229511   3.799   0.634  10.457 -0.3947 -0.3121 -0.3674
 6018SOL     OW29512   1.411   4.469   8.968  0.3245 -0.2084  0.1823
 6018SOL    HW129513   1.322   4.464   9.004  1.5090  0.0584  3.1364
 6018SOL    HW229514   1.464   4.419   9.031  1.1641 -0.1767 -0.5053
 6019SOL     OW29515   3.522   3.636   0.697  0.2477  0.0097 -0.2153
 6019SOL    HW129516   3.476   3.658   0.778  0.2707  0.4359 -0.3198
 6019SOL    HW229517   3.534   3.720   0.654 -1.3463  1.2168  1.7289
 6020SOL     OW29518   4.388   2.922   3.255 -0.7448  0.0181 -0.0628
 6020SOL    HW129519   4.471   2.881   3.232 -0.0480  0.9665  0.7992
 6020SOL    HW229520   4.420   2.968   3.332 -0.6257  1.3967 -0.9559
 6021SOL     OW29521   4.253   3.327   3.469 -0.1252  0.2317 -0.1911
 6021SOL    HW129522   4.242   3.420   3.484 -0.3655  0.1003  0.4576
 6021SOL    HW229523   4.295   3.312   3.554  0.3682  0.8114 -0.3333
 6022SOL     OW29524   0.773   2.423   6.068  0.2580 -0.3573 -0.3171
 6022SOL    HW129525   0.698   2.481   6.050  0.2271 -0.4521 -0.4988
 6022SOL    HW229526   0.817   2.467   6.140  0.6101 -1.8302  0.3607
 6023SOL     OW29527   2.137   4.295   2.790  0.1024  0.0022  0.5896
 6023SOL    HW129528   2.111   4.363   2.728 -1.7416 -0.5305  0.7724
 6023SOL    HW229529   2.200   4.253   2.732  0.3842 -0.2395  1.0696
 6024SOL     OW29530   2.027   4.163  10.260  0.1117  0.2207  0.1733
 6024SOL    HW129531   1.947   4.157  10.314 -0.2670 -0.0599 -0.4264
 6024SOL    HW229532   2.046   4.074  10.233 -0.1970  0.0431  0.5300
 6025SOL     OW29533   2.821   2.375  11.473  0.2963 -0.9109  0.3884
 6025SOL    HW129534   2.876   2.382  11.395 -1.2111 -0.2964 -0.6340
 6025SOL    HW229535   2.894   2.366  11.534 -0.7098 -3.2610  1.2259
 6026SOL     OW29536   3.701   1.276   0.213 -0.0961  0.1216 -0.4655
 6026SOL    HW129537   3.655   1.353   0.248  0.2681  0.4138 -0.6284
 6026SOL    HW229538   3.717   1.294   0.121  0.7504 -1.8325 -0.6985
 6027SOL     OW29539   3.332   4.548  12.201  0.5298 -0.4234 -0.3580
 6027SOL    HW129540   3.257   4.510  12.155 -0.9116 -0.2377  1.8554
 6027SOL    HW229541   3.393   4.575  12.132  0.2562  0.1184 -0.3903
 6028SOL     OW29542   2.118   0.772   8.855  0.2344  0.3502  0.2820
 6028SOL    HW129543   2.040   0.762   8.911 -0.1221  0.5533 -0.1775
 6028SOL    HW229544   2.134   0.861   8.886  0.0749 -0.2278  2.0456
 6029SOL     OW29545   3.993   0.749   0.479 -0.1000 -0.0332 -0.4755
 6029SOL    HW129546   3.993   0.657   0.453 -0.6134  0.6178 -2.7811
 6029SOL    HW229547   4.030   0.748   0.567  0.3268 -0.0199 -0.6544
 6030SOL     OW29548   1.555   4.575   6.932 -0.0609  0.0463 -0.2586
 6030SOL    HW129549   1.523   4.664   6.915  0.6908  0.6461  1.4520
 6030SOL    HW229550   1.559   4.551   6.839  0.8112 -0.4680 -0.0948
 6031SOL     OW29551   0.429   4.475   6.546 -0.2157  0.5319  0.4031
 6031SOL    HW129552   0.456   4.495   6.456 -0.2532 -1.4423 -0.0519
 6031SOL    HW229553   0.347   4.427   6.533  1.1580 -1.7376  0.0628
 6032SOL     OW29554   2.632   1.793  12.558 -0.6624 -0.0183  0.0070
 6032SOL    HW129555   2.668   1.869  12.513  0.3272  0.3470  1.4226
 6032SOL    HW229556   2.538   1.813  12.553 -0.2721  1.9829  0.6734
 6033SOL     OW29557   1.600   1.387  17.183 -0.1336  0.3577 -0.0914
 6033SOL    HW129558   1.566   1.336  17.257  0.5570  1.8601  1.2617
 6033SOL    HW229559   1.538   1.351  17.120 -0.1043  1.2430 -0.6270
 6034SOL     OW29560   0.477   2.361   2.109 -0.2063  0.6489  0.1604
 6034SOL    HW129561   0.445   2.281   2.151 -0.6705  0.8128  0.1216
 6034SOL    HW229562   0.518   2.321   2.032 -1.7013  0.3336 -0.4785
 6035SOL     OW29563   2.118   3.138   3.559 -0.0082  0.3317  0.4917
 6035SOL    HW129564   2.164   3.071   3.508  1.6395  1.5298  0.4064
 6035SOL    HW229565   2.027   3.109   3.555  0.4884 -1.3091  0.9406
 6036SOL     OW29566   1.113   3.205   8.202 -0.0389 -0.4359 -0.1806
 6036SOL    HW129567   1.157   3.283   8.235 -0.4264 -0.1961 -0.2446
 6036SOL    HW229568   1.128   3.212   8.108 -0.6531 -0.9454 -0.3160
 6037SOL     OW29569   0.315   0.695   9.048  0.1515 -0.5027 -0.0628
 6037SOL    HW129570   0.306   0.744   9.129  0.7507 -0.4486 -0.0295
 6037SOL    HW229571   0.297   0.604   9.072  2.0368 -0.9421 -0.3153
 6038SOL     OW29572   4.209   2.743   2.499 -0.1970  0.9424  0.5097
 6038SOL    HW129573   4.135   2.782   2.544  0.6592 -0.0885  2.7966
 6038SOL    HW229574   4.262   2.820   2.478  1.7952 -0.6865 -0.5204
 6039SOL     OW29575   2.367   0.685   5.313  0.5078  0.6381  0.4112
 6039SOL    HW129576   2.339   0.745   5.382  3.1562  0.1378  1.8958
 6039SOL    HW229577   2.310   0.713   5.241  0.1690 -0.1296  0.3796
 6040SOL     OW29578   0.072   0.006   7.677 -0.1450  0.2581 -0.2352
 6040SOL    HW129579   0.017   4.663   7.716  0.1799 -0.1352 -0.4655
 6040SOL    HW229580   0.146   4.675   7.651  0.9045  0.7012  1.8021
 6041SOL     OW29581   0.835   0.306   1.906 -0.5040 -0.2448 -0.1225
 6041SOL    HW129582   0.783   0.243   1.955 -2.1152 -0.0012 -1.5383
 6041SOL    HW229583   0.919   0.260   1.895 -0.3570  0.2570 -1.0968
 6042SOL     OW29584   1.787   3.772  16.256  0.2540 -0.0722  0.0866
 6042SOL    HW129585   1.738   3.722  16.321  0.3792 -0.9775 -0.5155
 6042SOL    HW229586   1.722   3.838  16.234  0.1594  1.0541  3.7796
 6043SOL     OW29587   4.181   1.929   4.163 -0.3140  0.2370  0.0999
 6043SOL    HW129588   4.173   1.854   4.104 -2.3654  0.6145 -0.0837
 6043SOL    HW229589   4.272   1.957   4.147 -0.0631 -0.6072  0.0299
 6044SOL     OW29590   0.497   3.369  16.220  0.8532 -0.1335  0.0899
 6044SOL    HW129591   0.453   3.441  16.174 -1.4310 -2.6041 -1.6296
 6044SOL    HW229592   0.553   3.429  16.269 -1.7456  0.8539  1.8850
 6045SOL     OW29593   4.423   0.205   5.240 -0.6434  0.1318  0.4634
 6045SOL    HW129594   4.377   0.178   5.160 -2.9628  0.3785  1.7438
 6045SOL    HW229595   4.493   0.269   5.223  0.4393 -1.2809 -0.4597
 6046SOL     OW29596   3.262   3.521  15.879 -0.0906  0.5725 -0.5548
 6046SOL    HW129597   3.186   3.567  15.842 -1.2162 -0.7071  0.1687
 6046SOL    HW229598   3.340   3.561  15.840  1.1322 -2.4314 -1.1649
 6047SOL     OW29599   3.007   1.154   0.597  0.2077  0.0120 -0.2795
 6047SOL    HW129600   2.946   1.081   0.605 -0.9409  0.6231 -3.5417
 6047SOL    HW229601   3.035   1.166   0.688  1.0973 -0.1631 -0.5238
 6048SOL     OW29602   4.285   1.139   4.411  0.1948  0.9445  0.5174
 6048SOL    HW129603   4.324   1.162   4.495 -1.1358  0.0388  1.3884
 6048SOL    HW229604   4.354   1.090   4.368 -1.6087 -3.7230  2.9167
 6049SOL     OW29605   4.470   3.176   8.228  0.2219  0.1868  0.2513
 6049SOL    HW129606   4.391   3.164   8.175  0.7950  1.7373 -0.9621
 6049SOL    HW229607   4.528   3.101   8.215  2.6553  1.8532  1.6279
 6050SOL     OW29608   0.211   2.393   8.743  0.3774  0.1756  0.1686
 6050SOL    HW129609   0.236   2.468   8.690  1.1370  0.2007  0.5634
 6050SOL    HW229610   0.153   2.341   8.687  0.4322  0.7568 -0.4147
 6051SOL     OW29611   3.374   1.624   8.719 -0.5520 -0.0130  0.1472
 6051SOL    HW129612   3.456   1.633   8.670 -0.7692 -1.5651 -0.5000
 6051SOL    HW229613   3.411   1.630   8.807 -0.3437 -1.3947  0.1497
 6052SOL     OW29614   0.680   2.074   2.241  0.3010 -0.3958 -0.1750
 6052SOL    HW129615   0.692   2.074   2.336  1.7885  1.6289 -0.3723
 6052SOL    HW229616   0.585   2.071   2.228  0.2141  0.1470  0.3637
 6053SOL     OW29617   4.021   3.278   7.384  0.3536 -0.2647 -0.2547
 6053SOL    HW129618   4.103   3.324   7.402  1.0652 -1.9399  0.7960
 6053SOL    HW229619   4.047   3.189   7.407 -0.1480 -0.0182  1.2936
 6054SOL     OW29620   2.254   0.155   0.809 -0.1928  0.0351  0.1734
 6054SOL    HW129621   2.232   0.122   0.897 -2.8324 -0.9382 -0.8420
 6054SOL    HW229622   2.329   0.100   0.789  0.6542  0.4551  2.2061
 6055SOL     OW29623   2.781   3.767  13.299 -0.0233  0.0711  0.5771
 6055SOL    HW129624   2.799   3.734  13.386 -1.8723 -0.6129  0.7074
 6055SOL    HW229625   2.740   3.694  13.253  1.6398  1.0354 -2.5043
 6056SOL     OW29626   0.261   1.582   2.616 -0.2542 -0.2710 -0.1799
 6056SOL    HW129627   0.293   1.641   2.684 -1.2784  2.4759 -2.0884
 6056SOL    HW229628   0.171   1.613   2.607  0.0139  0.3380 -0.7676
 6057SOL     OW29629   3.773   0.448   3.839  0.5982  0.0227  0.0896
 6057SOL    HW129630   3.722   0.433   3.919 -0.1151  1.8896 -0.0097
 6057SOL    HW229631   3.743   0.537   3.820 -1.9425 -0.7774  0.3101
 6058SOL     OW29632   2.926   1.209   3.174  0.6538 -0.1222  0.3130
 6058SOL    HW129633   2.905   1.302   3.181  5.0608  0.9436 -0.1673
 6058SOL    HW229634   2.913   1.165   3.258 -2.5055  2.7202  1.2703
 6059SOL     OW29635   1.354   4.629   8.001  0.3507  0.4585  0.0768
 6059SOL    HW129636   1.324   4.581   8.078  0.1729  1.1617  0.4389
 6059SOL    HW229637   1.267   4.637   7.962  0.4450 -0.5832 -0.3584
 6060SOL     OW29638   4.313   0.895   9.056  0.4751  0.0859 -0.4603
 6060SOL    HW129639   4.288   0.921   8.967  0.3026  0.7047 -0.2373
 6060SOL    HW229640   4.406   0.916   9.049  0.8969 -1.1189  1.4990
 6061SOL     OW29641   2.787   3.526  14.446 -0.3894  0.0018 -0.3024
 6061SOL    HW129642   2.866   3.560  14.487 -1.3798  0.2409  1.4075
 6061SOL    HW229643   2.814   3.461  14.381 -2.3268 -0.6327 -0.4609
 6062SOL     OW29644   2.742   1.901   1.162 -0.3836 -0.1924 -0.3554
 6062SOL    HW129645   2.798   1.948   1.099 -0.5080  1.0980  0.5011
 6062SOL    HW229646   2.674   1.885   1.097 -0.5013  0.0641 -0.2955
 6063SOL     OW29647   3.034   1.217   4.152  0.2874  0.1359 -0.3170
 6063SOL    HW129648   3.066   1.298   4.193  1.7815 -0.3576 -0.4883
 6063SOL    HW229649   3.083   1.216   4.070 -0.6904  2.0406 -0.9137
 6064SOL     OW29650   2.491   3.406   7.478  0.0148 -0.1174 -0.3002
 6064SOL    HW129651   2.581   3.384   7.453  0.2562 -0.7737  1.0958
 6064SOL    HW229652   2.439   3.347   7.423  0.2666 -0.3180 -0.3224
 6065SOL     OW29653   2.792   3.122  13.710  0.0856  0.0141 -0.6574
 6065SOL    HW129654   2.868   3.077  13.746 -0.4593  0.1770  0.6991
 6065SOL    HW229655   2.726   3.053  13.718 -1.1381  1.0735 -1.5513
 6066SOL     OW29656   0.723   0.683   6.818  0.6381  0.2818 -0.3174
 6066SOL    HW129657   0.698   0.654   6.730  0.5123  0.7975 -0.4498
 6066SOL    HW229658   0.818   0.673   6.810  0.8505  0.3726  2.2240
 6067SOL     OW29659   1.907   3.460   5.930  0.0164 -0.1257  0.3666
 6067SOL    HW129660   1.847   3.533   5.948  2.5976  2.2657 -0.8484
 6067SOL    HW229661   1.949   3.451   6.016 -0.9492 -2.5559  0.5732
 6068SOL     OW29662   2.170   3.907   9.341 -0.1898 -0.2133 -0.0633
 6068SOL    HW129663   2.125   3.859   9.411  4.0732 -1.4299  1.8932
 6068SOL    HW229664   2.149   3.997   9.365  0.5957  0.1007 -0.5542
 6069SOL     OW29665   2.426   0.443   5.542 -0.7484 -0.4241 -0.3509
 6069SOL    HW129666   2.416   0.487   5.457 -0.6238 -1.0569 -0.6940
 6069SOL    HW229667   2.420   0.358   5.498  0.7590 -0.7236  0.0226
 6070SOL     OW29668   3.390   0.083   1.931 -0.1500  0.3262 -0.0404
 6070SOL    HW129669   3.405   4.714   1.917  2.3851  0.9248 -1.3356
 6070SOL    HW229670   3.483   0.106   1.935 -0.0256 -0.3987  1.0656
 6071SOL     OW29671   0.581   2.208  14.395  0.1850  0.1314  0.2814
 6071SOL    HW129672   0.506   2.175  14.346 -0.0589 -0.4147  1.0143
 6071SOL    HW229673   0.560   2.301  14.387 -0.3626  0.1277  1.6092
 6072SOL     OW29674   1.238   4.008   6.914 -0.1801 -0.3925  0.1700
 6072SOL    HW129675   1.229   4.042   6.825  0.4547 -2.2542 -0.5994
 6072SOL    HW229676   1.156   4.034   6.957 -1.9682 -1.6104 -2.4854
 6073SOL     OW29677   4.222   0.010   3.237 -0.1626  0.2396  0.3281
 6073SOL    HW129678   4.264   4.650   3.222 -0.0748  0.1747  0.9138
 6073SOL    HW229679   4.297   0.062   3.264 -0.0431  0.2026  0.0624
 6074SOL     OW29680   1.301   1.646  11.229 -0.5493 -0.2107  0.3180
 6074SOL    HW129681   1.365   1.670  11.296  0.6486  0.9246 -1.2249
 6074SOL    HW229682   1.217   1.684  11.256 -1.7870 -1.6337 -1.4798
 6075SOL     OW29683   0.527   2.494   9.618  0.7795 -0.3303  0.1628
 6075SOL    HW129684   0.524   2.557   9.546  1.4619 -1.2520 -0.6725
 6075SOL    HW229685   0.553   2.553   9.689  1.3307  1.6007 -1.6403
 6076SOL     OW29686   3.854   4.477   5.052  0.4786 -0.5714  0.1510
 6076SOL    HW129687   3.934   4.523   5.077  0.3559 -0.0723 -0.3761
 6076SOL    HW229688   3.888   4.395   5.086 -0.9007 -1.3734 -0.3948
 6077SOL     OW29689   0.684   2.001   2.749  0.5175 -0.7021  0.1291
 6077SOL    HW129690   0.667   1.907   2.740 -1.9739 -0.2569 -0.0127
 6077SOL    HW229691   0.770   1.996   2.790 -0.0171 -0.0494  1.3534
 6078SOL     OW29692   4.716   1.876   7.278 -0.2502 -0.1142  0.7466
 6078SOL    HW129693   4.643   1.821   7.249  0.2411 -0.0640 -0.5969
 6078SOL    HW229694   0.059   1.811   7.297 -0.6760 -1.3229 -1.8989
 6079SOL     OW29695   3.782   2.989   2.275  0.5117 -0.3542 -0.3167
 6079SOL    HW129696   3.867   2.946   2.277 -0.0183 -1.4090 -0.2543
 6079SOL    HW229697   3.813   3.076   2.299  0.1395 -0.3960  0.3098
 6080SOL     OW29698   1.910   3.157  13.670 -0.0395 -0.1022  0.2960
 6080SOL    HW129699   1.954   3.235  13.637  0.7801 -1.3449 -1.5231
 6080SOL    HW229700   1.983   3.098  13.651 -1.2682 -1.2745 -0.7294
 6081SOL     OW29701   1.515   3.006  16.057 -0.3047 -0.4579 -0.1093
 6081SOL    HW129702   1.594   3.049  16.024  0.2414 -2.0904 -0.9475
 6081SOL    HW229703   1.513   2.921  16.013  2.0718 -0.2351 -0.6286
 6082SOL     OW29704   2.403   0.780   2.091  0.6434  0.5001 -0.0964
 6082SOL    HW129705   2.454   0.699   2.083 -0.2484 -0.1572  0.7901
 6082SOL    HW229706   2.373   0.785   2.182  2.2734  1.8436  0.3409
 6083SOL     OW29707   1.918   4.405   8.212 -0.0640 -0.4761 -0.5781
 6083SOL    HW129708   1.934   4.340   8.281 -0.6543 -0.2920 -0.2685
 6083SOL    HW229709   1.831   4.436   8.238  0.0271 -0.5754 -0.1476
 6084SOL     OW29710   2.134   0.151  12.933  0.6041  0.2301 -0.1470
 6084SOL    HW129711   2.195   0.079  12.919  0.5184  0.2922 -0.8316
 6084SOL    HW229712   2.174   0.218  12.877  2.0033 -1.4043 -1.0967
 6085SOL     OW29713   0.115   4.343   9.626  0.4439 -0.3413 -0.8294
 6085SOL    HW129714   0.201   4.384   9.631  0.7802 -1.4703  2.2147
 6085SOL    HW229715   0.146   4.253   9.633 -1.7042 -0.7903  2.6920
 6086SOL     OW29716   4.516   2.518   5.938  0.3381 -0.0950  0.2623
 6086SOL    HW129717   4.438   2.463   5.940 -0.5646  1.1927  0.0744
 6086SOL    HW229718   4.504   2.570   5.859 -0.3364  0.3720  0.6741
 6087SOL     OW29719   1.479   1.621  16.658  0.2307 -0.0118 -0.5751
 6087SOL    HW129720   1.454   1.683  16.589  0.9500  0.8960 -0.0116
 6087SOL    HW229721   1.549   1.662  16.709  1.7248 -0.3126 -2.3838
 6088SOL     OW29722   3.989   3.449   1.686  0.0732  0.0446  0.7676
 6088SOL    HW129723   4.035   3.532   1.675 -2.7407  1.4896 -0.2847
 6088SOL    HW229724   3.970   3.448   1.592 -2.0909  2.0886  1.1734
 6089SOL     OW29725   3.856   2.220  13.131  0.2808 -0.0314  0.0644
 6089SOL    HW129726   3.811   2.303  13.116  0.3959 -0.1172 -0.7834
 6089SOL    HW229727   3.884   2.233  13.221 -0.9806 -0.5028  0.5290
 6090SOL     OW29728   3.166   1.022   5.410  0.0088 -0.2278 -0.2214
 6090SOL    HW129729   3.224   1.011   5.485  0.5188  2.7335 -0.1799
 6090SOL    HW229730   3.146   1.116   5.415  3.1162  0.4926 -1.4492
 6091SOL     OW29731   1.684   3.425   4.298 -0.2200 -0.0255 -0.3623
 6091SOL    HW129732   1.672   3.494   4.363 -0.6969 -0.1566 -0.3100
 6091SOL    HW229733   1.606   3.370   4.312  0.9049 -1.4410  0.2929
 6092SOL     OW29734   3.666   3.144   4.016 -0.6347  0.0164  0.4272
 6092SOL    HW129735   3.725   3.192   3.958 -3.1582  0.6807 -1.5901
 6092SOL    HW229736   3.581   3.185   3.997 -0.4301  0.0383 -0.4097
 6093SOL     OW29737   1.495   0.700  11.498 -0.2424 -0.3805 -0.3487
 6093SOL    HW129738   1.458   0.781  11.533  0.4125 -1.1947  2.1946
 6093SOL    HW229739   1.581   0.691  11.540 -1.0533 -2.6167  0.8479
 6094SOL     OW29740   1.814   1.033   3.231 -0.2344 -0.3143  0.0106
 6094SOL    HW129741   1.762   0.984   3.168  1.7278 -4.2357  1.4504
 6094SOL    HW229742   1.899   1.039   3.187 -0.4474  0.5241 -0.3021
 6095SOL     OW29743   2.360   3.194   8.344 -0.1373 -0.3962 -0.2184
 6095SOL    HW129744   2.286   3.242   8.380  1.2486 -0.6529  2.9395
 6095SOL    HW229745   2.364   3.225   8.253  2.7333  0.3314  0.1607
 6096SOL     OW29746   4.431   4.660   3.802  0.0244 -0.0545  0.4501
 6096SOL    HW129747   4.376   0.003   3.842  1.9957  1.4162  0.6939
 6096SOL    HW229748   4.503   4.709   3.761 -0.6864  0.8562  0.2770
 6097SOL     OW29749   2.287   1.159  13.049  0.2621  0.5653  0.2272
 6097SOL    HW129750   2.352   1.150  12.980 -0.5436  0.9260 -0.5765
 6097SOL    HW229751   2.284   1.254  13.063 -0.2226  0.8140 -1.5645
 6098SOL     OW29752   1.975   3.060   8.044 -0.6333  0.1666  0.1278
 6098SOL    HW129753   1.959   2.989   7.981  3.0382  1.0222 -1.7191
 6098SOL    HW229754   1.954   3.136   7.990 -1.8800  0.5418  1.1490
 6099SOL     OW29755   2.862   1.572   3.487  0.0432  0.0776 -0.4347
 6099SOL    HW129756   2.819   1.658   3.488  1.7465  0.9268 -0.0018
 6099SOL    HW229757   2.872   1.553   3.580  1.5672 -3.0011 -1.2205
 6100SOL     OW29758   4.124   4.060   7.226 -0.3931  0.0049 -0.2897
 6100SOL    HW129759   4.050   3.999   7.226 -0.3617 -0.0591 -2.6465
 6100SOL    HW229760   4.202   4.007   7.208 -0.0491  0.5504 -0.3901
 6101SOL     OW29761   1.892   2.097  12.096  0.1648  0.0256  0.2938
 6101SOL    HW129762   1.922   2.016  12.136 -0.1346 -2.0722 -3.7326
 6101SOL    HW229763   1.959   2.161  12.122  0.9683 -0.4819 -0.5324
 6102SOL     OW29764   0.450   1.873  12.005  0.6443 -0.2052  0.9771
 6102SOL    HW129765   0.516   1.888  11.937  0.6591  0.8533  1.2294
 6102SOL    HW229766   0.452   1.949  12.063 -0.2910  0.7295 -0.2249
 6103SOL     OW29767   4.284   0.726   7.856 -0.3245 -0.3738  0.1475
 6103SOL    HW129768   4.305   0.710   7.948 -0.2306  1.0236  0.3667
 6103SOL    HW229769   4.300   0.635   7.830 -0.4464  0.2034 -1.9580
 6104SOL     OW29770   0.387   1.192  11.046  0.0485 -0.1745 -0.2352
 6104SOL    HW129771   0.385   1.218  11.138  3.0192 -1.5477  0.2288
 6104SOL    HW229772   0.366   1.099  11.047 -0.9644  0.0827  1.7657
 6105SOL     OW29773   0.778   3.437   7.810 -0.3839 -0.3990 -0.5575
 6105SOL    HW129774   0.692   3.414   7.775 -0.9150  0.1287  0.3889
 6105SOL    HW229775   0.813   3.355   7.845 -1.3851 -0.6775 -0.2031
 6106SOL     OW29776   1.584   2.723   9.415  0.3298 -0.4541  0.2816
 6106SOL    HW129777   1.517   2.791   9.418  1.0006  0.2033  0.3915
 6106SOL    HW229778   1.651   2.778   9.374  0.2127 -0.3060  0.2892
 6107SOL     OW29779   1.268   4.385  11.988 -0.0644  0.7072  0.0680
 6107SOL    HW129780   1.229   4.332  11.918 -0.0421  1.7370 -0.7086
 6107SOL    HW229781   1.185   4.402  12.033 -1.3501 -1.4952 -1.4229
 6108SOL     OW29782   3.836   4.470  14.895 -0.3489  0.4609 -0.0191
 6108SOL    HW129783   3.867   4.405  14.832 -0.1222  0.6360 -0.0883
 6108SOL    HW229784   3.916   4.516  14.921  1.2348 -2.3430  0.1419
 6109SOL     OW29785   4.714   1.879   8.209  0.3279  0.4893  0.2167
 6109SOL    HW129786   4.669   1.961   8.229 -2.2239 -1.0073  0.6671
 6109SOL    HW229787   4.661   1.836   8.142  2.0010  0.6747 -1.2287
 6110SOL     OW29788   3.901   0.872  10.211  0.6835  0.5096 -0.1999
 6110SOL    HW129789   3.906   0.777  10.209  1.3342  0.5136  1.7106
 6110SOL    HW229790   3.892   0.892  10.304 -3.9241 -1.8666 -0.1269
 6111SOL     OW29791   3.959   1.620   0.035  0.1040 -0.0234  0.3222
 6111SOL    HW129792   3.948   1.704   0.080 -0.3682  0.6966 -1.1695
 6111SOL    HW229793   3.974   1.562   0.110 -0.5322 -0.7701 -0.1291
 6112SOL     OW29794   4.650   0.967   3.714 -0.3631  0.3398  0.0325
 6112SOL    HW129795   4.669   0.981   3.806 -0.3874 -1.6669  0.3557
 6112SOL    HW229796   0.013   0.947   3.681  0.3857  1.1821  1.5590
 6113SOL     OW29797   4.600   4.634   8.172 -0.1757  0.1335  0.0203
 6113SOL    HW129798   4.512   4.653   8.141  0.2702 -1.2388 -2.0650
 6113SOL    HW229799   4.594   4.701   8.240  0.5830  0.8976 -0.6729
 6114SOL     OW29800   2.397   2.819   5.622  0.2353  0.5484 -0.0462
 6114SOL    HW129801   2.339   2.743   5.615 -0.1121  0.8276 -0.2296
 6114SOL    HW229802   2.342   2.874   5.677 -0.4279  0.7244 -0.8788
 6115SOL     OW29803   4.333   4.363  14.691  0.9074  0.1013  0.3616
 6115SOL    HW129804   4.339   4.452  14.725 -1.1967  0.5676 -0.5387
 6115SOL    HW229805   4.417   4.347  14.648  1.6075  1.5376  1.1951
 6116SOL     OW29806   3.182   3.074   5.775  0.7662 -0.2223  0.2940
 6116SOL    HW129807   3.237   3.143   5.812  0.6537  0.3621 -0.6311
 6116SOL    HW229808   3.227   3.060   5.692  0.3488  0.5190 -0.0581
 6117SOL     OW29809   4.062   2.125  11.001  0.1362  0.1169  0.2304
 6117SOL    HW129810   4.156   2.111  10.991  0.2443  0.5899  0.6427
 6117SOL    HW229811   4.029   2.053  10.946  0.6171  0.0626  0.0190
 6118SOL     OW29812   1.136   0.910  15.205 -0.2444 -0.1192 -0.3443
 6118SOL    HW129813   1.211   0.948  15.250  0.1533 -0.2643 -0.8893
 6118SOL    HW229814   1.146   0.828  15.255 -0.5264 -0.2842 -0.5554
 6119SOL     OW29815   2.217   2.185  16.937  0.4129 -0.1482 -0.1480
 6119SOL    HW129816   2.226   2.236  17.017  1.0712  0.9151 -0.8951
 6119SOL    HW229817   2.274   2.232  16.876 -2.0909  0.8132 -1.7309
 6120SOL     OW29818   1.600   4.136   3.568 -0.3088 -0.5167  0.1724
 6120SOL    HW129819   1.565   4.049   3.548  0.4817 -0.9153  0.5327
 6120SOL    HW229820   1.592   4.142   3.663  0.3514  0.9899  0.1282
 6121SOL     OW29821   1.428   2.678   2.951  0.5738  0.4787 -0.1703
 6121SOL    HW129822   1.444   2.724   2.868  1.6011  0.1856 -0.1289
 6121SOL    HW229823   1.391   2.592   2.931 -0.8074  1.1541 -0.5236
 6122SOL     OW29824   2.454   0.205   5.400 -0.3869 -0.2324  0.1462
 6122SOL    HW129825   2.541   0.177   5.429 -0.1750  1.7311  1.4070
 6122SOL    HW229826   2.470   0.198   5.306  2.1171 -1.2071  0.6468
 6123SOL     OW29827   3.449   0.925   2.583  0.1897  0.1067  0.4586
 6123SOL    HW129828   3.490   0.841   2.561  1.5153  0.4264  1.6865
 6123SOL    HW229829   3.359   0.906   2.558  1.0312  1.7034 -3.8968
 6124SOL     OW29830   0.047   4.367  11.351  0.1986 -0.4638  0.7890
 6124SOL    HW129831   0.101   4.445  11.341 -0.9570  0.0932 -1.2843
 6124SOL    HW229832   0.053   4.351  11.257  0.3492  1.9377  0.3946
 6125SOL     OW29833   4.668   0.403   2.229 -0.0956  0.0938  0.3181
 6125SOL    HW129834   4.647   0.337   2.163  0.5739 -0.0074  0.2038
 6125SOL    HW229835   4.581   0.442   2.237  0.5066  1.7713 -1.1348
 6126SOL     OW29836   1.689   4.102   8.807 -0.3766 -0.3265 -0.0710
 6126SOL    HW129837   1.726   4.133   8.890  1.7426 -0.8450 -0.8293
 6126SOL    HW229838   1.684   4.187   8.763 -0.0451  0.0362  0.5939
 6127SOL     OW29839   1.648   4.599   2.031 -0.1309  0.5322  0.0894
 6127SOL    HW129840   1.705   4.615   2.106 -0.7081 -0.3266  0.7119
 6127SOL    HW229841   1.650   4.503   2.028 -0.0221  0.5634 -0.7481
 6128SOL     OW29842   1.523   4.175   6.096  0.0485 -0.1179  0.1979
 6128SOL    HW129843   1.454   4.111   6.111 -0.2991 -0.1840 -1.6525
 6128SOL    HW229844   1.549   4.198   6.185  0.4580  2.6882 -0.6268
 6129SOL     OW29845   4.266   1.750   9.546 -0.2134  0.6671  0.4321
 6129SOL    HW129846   4.216   1.739   9.626 -2.7671  0.8325 -1.1413
 6129SOL    HW229847   4.239   1.831   9.501  1.1495  0.3231 -1.0128
 6130SOL     OW29848   3.751   2.581  15.501  0.0915 -0.7715 -0.1492
 6130SOL    HW129849   3.735   2.675  15.500  0.4026 -0.7239 -0.4064
 6130SOL    HW229850   3.780   2.567  15.411  0.6368  0.3101 -0.1383
 6131SOL     OW29851   1.225   3.518   6.336  0.1632 -0.1544 -0.1307
 6131SOL    HW129852   1.187   3.596   6.376  1.5992 -0.2109  1.3109
 6131SOL    HW229853   1.243   3.549   6.247 -2.6517  0.9131 -0.3473
 6132SOL     OW29854   3.354   4.476  16.724  0.4305 -0.1739 -0.0845
 6132SOL    HW129855   3.402   4.408  16.769 -0.5524 -0.6545  0.2311
 6132SOL    HW229856   3.274   4.492  16.774  1.7651  1.9056  1.3839
 6133SOL     OW29857   4.534   0.687  14.956  0.4098  0.2979  0.2993
 6133SOL    HW129858   4.461   0.730  14.911 -2.2520 -3.5477  0.9974
 6133SOL    HW229859   4.578   0.757  15.004  0.0573  0.9141 -0.2749
 6134SOL     OW29860   2.147   2.708   8.929  0.1338  0.8024 -0.4242
 6134SOL    HW129861   2.099   2.635   8.889  1.5773  0.4316 -1.4822
 6134SOL    HW229862   2.208   2.654   8.979  0.4781  1.5415 -0.0579
 6135SOL     OW29863   0.531   3.766   4.427  0.0196 -0.7655  0.3683
 6135SOL    HW129864   0.439   3.748   4.446 -0.9459 -0.0116 -3.6016
 6135SOL    HW229865   0.570   3.696   4.479 -0.3726 -0.3291  1.2443
 6136SOL     OW29866   3.846   0.753   2.697  0.0535  0.6197  0.1704
 6136SOL    HW129867   3.772   0.716   2.649  0.2330  1.6764 -0.8992
 6136SOL    HW229868   3.862   0.833   2.648 -2.6902  0.2244 -1.3535
 6137SOL     OW29869   2.314   2.819  16.564  0.1770 -0.0393 -0.1451
 6137SOL    HW129870   2.322   2.915  16.559 -0.3720 -0.0385 -1.0220
 6137SOL    HW229871   2.342   2.795  16.653 -0.5632  3.9566  1.1874
 6138SOL     OW29872   1.804   4.222   1.360 -0.0910 -0.5646  0.4292
 6138SOL    HW129873   1.859   4.157   1.404 -1.3260  0.1976  3.1122
 6138SOL    HW229874   1.778   4.170   1.284 -1.3111  1.4958 -0.5490
 6139SOL     OW29875   1.501   1.496   8.772 -0.2482  0.4734 -0.2280
 6139SOL    HW129876   1.539   1.485   8.685  2.0360 -1.6766  1.0397
 6139SOL    HW229877   1.580   1.485   8.825 -0.9679 -2.1959  0.2852
 6140SOL     OW29878   1.072   0.742  12.848  0.3172  0.4836 -0.0833
 6140SOL    HW129879   0.993   0.749  12.795  0.3457  0.5826 -0.1139
 6140SOL    HW229880   1.065   0.834  12.873  0.3792  0.1748  1.0823
 6141SOL     OW29881   3.182   3.975   8.721 -0.4545  0.0361 -0.1727
 6141SOL    HW129882   3.128   3.980   8.642 -1.4705 -0.6122  0.4839
 6141SOL    HW229883   3.224   3.893   8.697 -0.5170 -0.3554  1.0719
 6142SOL     OW29884   2.630   3.638   6.148 -0.4773  0.2438  0.0830
 6142SOL    HW129885   2.665   3.587   6.074 -0.7511 -0.9094  0.7443
 6142SOL    HW229886   2.690   3.619   6.220  1.9518  3.1898 -1.1847
 6143SOL     OW29887   4.266   4.640   4.179  0.0961 -0.5189 -0.1102
 6143SOL    HW129888   4.249   0.006   4.207 -1.7003 -1.8717  3.1653
 6143SOL    HW229889   4.191   4.631   4.121  0.5758  1.3248 -1.0233
 6144SOL     OW29890   4.624   1.664   6.463  0.0559  0.0297 -0.2095
 6144SOL    HW129891   4.693   1.610   6.501  0.7844 -1.4101 -3.5758
 6144SOL    HW229892   4.634   1.633   6.373 -1.6677 -0.3762 -0.2486
 6145SOL     OW29893   0.534   4.494   7.702 -0.5968 -0.5969 -0.1205
 6145SOL    HW129894   0.625   4.470   7.723 -0.2649 -0.5595 -1.4885
 6145SOL    HW229895   0.543   4.544   7.621  0.3376  0.4547  0.6338
 6146SOL     OW29896   0.555   4.294   5.588  0.3932  0.0723  0.0284
 6146SOL    HW129897   0.460   4.299   5.576  0.2990 -0.5980  0.5191
 6146SOL    HW229898   0.556   4.301   5.683 -0.9858 -0.3304  0.0765
 6147SOL     OW29899   1.064   0.327   2.735 -0.1779 -0.2037  0.1419
 6147SOL    HW129900   1.040   0.279   2.656  0.0049 -0.5952  0.3271
 6147SOL    HW229901   1.018   0.407   2.710 -0.0815 -1.0198 -2.6136
 6148SOL     OW29902   1.901   1.569   1.719 -0.7195 -0.0566  0.9468
 6148SOL    HW129903   1.862   1.587   1.634  0.0510  1.2170  0.8613
 6148SOL    HW229904   1.830   1.595   1.779 -0.7854 -2.6275  1.9646
 6149SOL     OW29905   0.651   0.161   8.267 -0.2794  0.2411 -0.3914
 6149SOL    HW129906   0.590   0.208   8.323 -0.7564 -3.9545  2.5991
 6149SOL    HW229907   0.583   0.122   8.212 -0.7331 -0.9039  0.9852
 6150SOL     OW29908   3.330   2.048   1.497 -0.0509  0.8662 -0.3336
 6150SOL    HW129909   3.235   2.044   1.501  0.0251  0.3608  1.0391
 6150SOL    HW229910   3.348   2.062   1.590  0.8155  0.2486 -0.4031
 6151SOL     OW29911   0.342   1.415  15.230  0.8228 -0.6482 -0.5395
 6151SOL    HW129912   0.351   1.469  15.151  1.0752  1.7565  1.1262
 6151SOL    HW229913   0.392   1.338  15.202 -0.1315 -1.1355 -0.9012
 6152SOL     OW29914   2.120   1.496  17.320 -0.1472 -0.2338 -0.3156
 6152SOL    HW129915   2.147   1.404  17.324  0.3603 -0.0946 -0.5881
 6152SOL    HW229916   2.041   1.488  17.267  0.3485 -1.0947 -0.9203
 6153SOL     OW29917   0.127   2.608   3.907  0.0625  0.2532  0.0628
 6153SOL    HW129918   0.157   2.559   3.830 -0.3728 -0.0499  0.0896
 6153SOL    HW229919   0.217   2.608   3.940 -0.4498  0.2849  1.4627
 6154SOL     OW29920   1.990   0.737   9.793 -0.4498  0.0825  0.7412
 6154SOL    HW129921   1.956   0.668   9.850  1.9402 -1.0338  0.8318
 6154SOL    HW229922   1.959   0.703   9.709  1.3185  1.4808 -0.4922
 6155SOL     OW29923   0.512   2.456   2.841 -0.2873  0.3243  0.3094
 6155SOL    HW129924   0.523   2.521   2.911 -2.4257 -0.1575  1.1044
 6155SOL    HW229925   0.601   2.462   2.806 -0.8282  1.1264 -0.9258
 6156SOL     OW29926   2.238   4.468  16.235  0.4167 -0.3476 -0.6478
 6156SOL    HW129927   2.180   4.416  16.179 -0.7425  1.7764 -1.4027
 6156SOL    HW229928   2.287   4.395  16.274  0.6921 -1.4110 -2.9982
 6157SOL     OW29929   2.059   3.966  11.425 -0.3811 -0.1049  0.0000
 6157SOL    HW129930   2.002   4.004  11.492 -0.2568 -0.9639  0.5874
 6157SOL    HW229931   2.018   3.881  11.409  2.9935 -1.7616  0.2616
 6158SOL     OW29932   0.261   3.920  17.131  0.0465  0.2748 -0.7164
 6158SOL    HW129933   0.246   3.991  17.069  2.0728  1.6275  0.3346
 6158SOL    HW229934   0.284   3.962  17.214  0.4874 -0.0442 -0.6729
 6159SOL     OW29935   3.323   1.526   5.266  0.3778 -0.2462  0.4992
 6159SOL    HW129936   3.347   1.612   5.233 -1.2643  0.3478  0.8801
 6159SOL    HW229937   3.244   1.503   5.218 -0.3580  1.7385  0.7751
 6160SOL     OW29938   1.669   3.248  12.603 -0.6993  0.1533  0.2023
 6160SOL    HW129939   1.599   3.310  12.626 -1.7131 -1.2901  1.0375
 6160SOL    HW229940   1.647   3.252  12.510  0.4658  1.4981  0.0014
 6161SOL     OW29941   3.595   1.197  14.665  0.7969  0.0404  0.2085
 6161SOL    HW129942   3.557   1.195  14.753  1.6786  3.5826  0.6841
 6161SOL    HW229943   3.620   1.289  14.662  0.8692 -0.0853 -3.3757
 6162SOL     OW29944   2.498   3.645   9.950  0.3221 -0.1418  0.8514
 6162SOL    HW129945   2.583   3.637   9.907 -0.4035  0.3498 -0.6772
 6162SOL    HW229946   2.507   3.566  10.003 -0.2001 -0.2138  0.8342
 6163SOL     OW29947   4.688   2.584   7.977 -0.3683 -0.3240  0.5228
 6163SOL    HW129948   4.648   2.505   8.013 -1.5399 -0.8506 -1.9870
 6163SOL    HW229949   4.639   2.655   8.020  0.3699  1.2455 -1.2168
 6164SOL     OW29950   2.049   3.296  14.594 -0.1884  0.2281  0.1482
 6164SOL    HW129951   1.962   3.311  14.632 -0.1023  0.5149  0.2251
 6164SOL    HW229952   2.022   3.242  14.519  0.4464 -1.6741  1.2943
 6165SOL     OW29953   4.173   0.615   7.567  0.4081  0.1837 -0.1881
 6165SOL    HW129954   4.203   0.556   7.497 -1.1751 -0.4830 -0.3111
 6165SOL    HW229955   4.251   0.622   7.621  0.3402 -0.7338  0.0320
 6166SOL     OW29956   2.543   3.639   4.010  0.0257  0.3805 -0.1185
 6166SOL    HW129957   2.575   3.550   3.994  2.4637  1.3063 -0.4443
 6166SOL    HW229958   2.451   3.623   4.030  0.2135 -1.5893 -0.8423
 6167SOL     OW29959   0.552   1.652   3.404 -0.2619  0.4201  0.4489
 6167SOL    HW129960   0.533   1.737   3.442  0.2373  0.6777  0.1231
 6167SOL    HW229961   0.637   1.657   3.361 -0.1313 -1.1830  0.5269
 6168SOL     OW29962   2.336   1.772   1.272 -0.3271 -0.3961 -0.4193
 6168SOL    HW129963   2.396   1.711   1.315 -1.4896 -1.4617 -0.2824
 6168SOL    HW229964   2.376   1.768   1.185 -0.9817  1.8842 -0.8142
 6169SOL     OW29965   3.389   4.451   4.124 -0.7592 -0.0563  0.3342
 6169SOL    HW129966   3.408   4.472   4.215  0.4820 -2.0509  0.5315
 6169SOL    HW229967   3.371   4.537   4.085  0.8787  1.0001  1.9323
 6170SOL     OW29968   1.630   0.785   3.332 -0.3955  0.3091  0.4689
 6170SOL    HW129969   1.673   0.869   3.350  2.7154 -1.4493  1.2770
 6170SOL    HW229970   1.544   0.782   3.375 -1.1592  0.8477 -1.0330
 6171SOL     OW29971   0.939   4.423   8.014 -0.5815 -0.5025 -0.5872
 6171SOL    HW129972   0.893   4.436   8.096 -0.8503 -0.1236 -0.8011
 6171SOL    HW229973   1.013   4.364   8.030  0.1296  0.7488  0.7811
 6172SOL     OW29974   2.906   1.715   4.512  0.6172  0.4357  0.2954
 6172SOL    HW129975   2.888   1.629   4.476 -1.1958  0.8656  0.1506
 6172SOL    HW229976   2.910   1.758   4.427  0.1568  1.1558  0.6344
 6173SOL     OW29977   1.098   0.547   6.175  0.2173  0.1430  0.4566
 6173SOL    HW129978   1.194   0.547   6.178  0.2772  2.2759 -1.1781
 6173SOL    HW229979   1.091   0.638   6.203 -0.3032 -0.1591  1.3043
 6174SOL     OW29980   2.554   1.054  11.197 -0.0497  0.8862 -0.3206
 6174SOL    HW129981   2.579   1.146  11.208  0.2866  0.7481  0.0753
 6174SOL    HW229982   2.547   1.019  11.286  0.0669  0.4629 -0.4806
 6175SOL     OW29983   4.031   0.906   3.486  0.6530 -0.0592  0.1363
 6175SOL    HW129984   4.053   0.813   3.484  1.9568  0.3028 -2.8641
 6175SOL    HW229985   4.110   0.943   3.524 -0.4774  0.6729  1.7735
 6176SOL     OW29986   0.995   4.219  16.862 -0.1958  0.0485  0.3938
 6176SOL    HW129987   0.906   4.205  16.892  0.0410  1.9002  1.9844
 6176SOL    HW229988   1.044   4.156  16.915  1.8484  0.3615 -1.0918
 6177SOL     OW29989   0.123   4.314  14.285 -0.1628 -0.2091  0.1907
 6177SOL    HW129990   0.206   4.336  14.329 -0.3623  0.7136  0.1101
 6177SOL    HW229991   0.167   4.270  14.213 -1.7147  0.8225 -1.3781
 6178SOL     OW29992   4.162   4.602   5.577  1.2748  0.5026 -0.6439
 6178SOL    HW129993   4.177   4.648   5.495  0.7121 -2.5565 -2.4841
 6178SOL    HW229994   4.113   4.670   5.622  1.3925 -1.7557  2.9217
 6179SOL     OW29995   4.240   1.657   3.348  0.5512 -0.0298 -0.0795
 6179SOL    HW129996   4.145   1.656   3.357  0.2571  1.4872 -2.9253
 6179SOL    HW229997   4.251   1.650   3.253  2.1762 -1.5998  0.2225
 6180SOL     OW29998   3.908   3.448   7.748 -0.4948  0.3381  0.3183
 6180SOL    HW129999   3.902   3.535   7.788  0.4023  0.9553 -0.8851
 6180SOL    HW230000   3.992   3.447   7.702  0.0348  0.8750  1.2503
 6181SOL     OW30001   1.927   1.540  15.618  0.2427 -0.3377 -0.2973
 6181SOL    HW130002   1.882   1.559  15.536  0.6486  1.5370 -0.0935
 6181SOL    HW230003   1.943   1.627  15.655 -0.4047  0.4343 -1.8173
 6182SOL     OW30004   4.112   1.501   2.035  0.9918  0.0642 -0.2280
 6182SOL    HW130005   4.025   1.476   2.065  1.5383  0.5415  1.7237
 6182SOL    HW230006   4.170   1.467   2.103  1.2637 -2.4075 -1.6944
 6183SOL     OW30007   0.526   3.066   7.712 -0.2787 -0.0706 -0.5080
 6183SOL    HW130008   0.592   3.120   7.668 -1.3329  0.4472 -1.4539
 6183SOL    HW230009   0.545   2.980   7.676 -1.9616 -0.4489 -0.5024
 6184SOL     OW30010   3.695   3.073   3.386  0.4727 -0.1734  0.0152
 6184SOL    HW130011   3.732   3.072   3.298 -0.4651 -1.7365 -0.3715
 6184SOL    HW230012   3.620   3.014   3.382  2.2109 -2.4074  0.5387
 6185SOL     OW30013   2.575   0.307   9.648 -0.1449  0.5725 -0.5764
 6185SOL    HW130014   2.577   0.366   9.573  0.4234  0.7886 -0.3934
 6185SOL    HW230015   2.512   0.249   9.605 -1.1721  1.7075 -0.6009
 6186SOL     OW30016   4.518   2.224   6.215 -0.3801  0.1950 -0.2159
 6186SOL    HW130017   4.612   2.240   6.215 -0.6815  2.0044  2.0227
 6186SOL    HW230018   4.504   2.133   6.192  2.5392  0.0591 -1.3715
 6187SOL     OW30019   2.383   3.510   7.695 -0.3954  0.0967  0.3680
 6187SOL    HW130020   2.419   3.461   7.621  0.9211  2.3201 -0.4653
 6187SOL    HW230021   2.390   3.442   7.762 -0.1635  0.3408  0.5980
 6188SOL     OW30022   2.362   0.059   5.873  0.4420 -0.2857  0.3773
 6188SOL    HW130023   2.270   0.066   5.896  0.3659 -0.9448  0.2759
 6188SOL    HW230024   2.354   0.024   5.784  0.5354  0.5145  0.0541
 6189SOL     OW30025   0.509   3.093  10.532  0.0424  0.3100  0.7811
 6189SOL    HW130026   0.444   3.097  10.603 -0.7511 -2.0447  0.1937
 6189SOL    HW230027   0.476   3.019  10.481 -1.9590  0.5131  1.7468
 6190SOL     OW30028   2.793   3.097   0.235 -0.1000  1.0426  0.1554
 6190SOL    HW130029   2.779   3.113   0.141 -0.8081  1.7713  0.3784
 6190SOL    HW230030   2.830   3.181   0.261  0.1529  0.3276  2.0828
 6191SOL     OW30031   1.325   0.149   0.776 -0.2054  0.3223  0.0490
 6191SOL    HW130032   1.284   0.170   0.860  0.2209 -0.4546  0.4447
 6191SOL    HW230033   1.410   0.119   0.808 -0.1498  0.6075  0.1620
 6192SOL     OW30034   3.613   0.411  13.733  0.4058 -0.1350 -0.4939
 6192SOL    HW130035   3.609   0.374  13.645  0.7344  0.8614 -0.9258
 6192SOL    HW230036   3.689   0.364  13.768  0.4538 -2.2267 -3.4129
 6193SOL     OW30037   0.914   4.587   2.204 -0.2192 -0.4742  0.2551
 6193SOL    HW130038   0.938   4.560   2.293  2.0509  0.8457  0.0427
 6193SOL    HW230039   0.963   4.669   2.194 -1.0888  0.3467  2.6126
 6194SOL     OW30040   4.534   3.399   8.524  0.1944 -0.0399  0.0295
 6194SOL    HW130041   4.491   3.462   8.581  0.6067 -1.1039  1.4958
 6194SOL    HW230042   4.493   3.319   8.558  0.3162  0.0627  0.4114
 6195SOL     OW30043   1.338   2.553   2.559 -0.0785 -0.0476 -0.3798
 6195SOL    HW130044   1.272   2.485   2.564  2.3760 -2.2552  1.6249
 6195SOL    HW230045   1.288   2.634   2.549  1.7212  1.3777  2.1587
 6196SOL     OW30046   4.132   3.544   2.155 -0.2016 -0.6311 -0.3655
 6196SOL    HW130047   4.148   3.449   2.157 -0.0946 -0.6596 -2.1975
 6196SOL    HW230048   4.041   3.532   2.181 -0.3464 -1.8823 -1.4532
 6197SOL     OW30049   0.361   3.758   2.453  0.7391 -0.5172  0.8474
 6197SOL    HW130050   0.444   3.769   2.406  0.7136  1.5938  1.2903
 6197SOL    HW230051   0.326   3.700   2.385  1.8426 -0.5481  0.2919
 6198SOL     OW30052   2.390   3.800   1.912  0.4187  0.0511 -0.5696
 6198SOL    HW130053   2.364   3.852   1.836  0.0779 -1.2114 -1.3136
 6198SOL    HW230054   2.302   3.771   1.937  1.3538 -2.4697 -0.2109
 6199SOL     OW30055   0.401   1.658   7.995  0.4103 -0.2055  0.0235
 6199SOL    HW130056   0.467   1.664   8.063  1.0038  0.3030 -0.5903
 6199SOL    HW230057   0.345   1.587   8.025  0.7829 -0.8673 -0.8447
 6200SOL     OW30058   4.576   3.676  11.513 -0.1069 -0.2925 -0.0917
 6200SOL    HW130059   4.588   3.757  11.561  2.9503  1.3811 -3.7099
 6200SOL    HW230060   4.635   3.688  11.439 -0.9569 -2.8992 -1.2224
 6201SOL     OW30061   1.932   0.433   3.785 -0.1511  0.0674 -0.3201
 6201SOL    HW130062   1.983   0.363   3.825 -0.5267 -0.5168 -0.8884
 6201SOL    HW230063   1.984   0.465   3.711  2.8604  1.4807  2.3987
 6202SOL     OW30064   1.678   0.567   4.248  0.2278 -0.4392 -0.1142
 6202SOL    HW130065   1.705   0.600   4.334 -1.5557 -1.4016  0.8328
 6202SOL    HW230066   1.697   0.645   4.197  0.0827  0.7305  1.6283
 6203SOL     OW30067   3.717   4.663  12.673 -0.6830  0.5382 -0.6337
 6203SOL    HW130068   3.686   4.698  12.590 -0.7319 -1.1138 -1.3204
 6203SOL    HW230069   3.792   4.621  12.629  0.3368 -0.1527  1.7673
 6204SOL     OW30070   3.345   0.431  15.697 -0.2241 -0.0117 -0.5794
 6204SOL    HW130071   3.253   0.459  15.694 -0.2500 -0.0637 -0.2107
 6204SOL    HW230072   3.343   0.377  15.617  0.3868  0.1996 -0.7358
 6205SOL     OW30073   3.009   0.458   7.040  0.2112  0.3915  0.0890
 6205SOL    HW130074   2.936   0.491   7.093 -0.1911  0.0537 -0.2530
 6205SOL    HW230075   3.001   0.369   7.075 -0.0925  0.3657 -0.0464
 6206SOL     OW30076   1.425   0.407  10.083  0.0462 -0.3101 -0.2164
 6206SOL    HW130077   1.379   0.417  10.000 -0.6590  1.6981  0.4114
 6206SOL    HW230078   1.513   0.388  10.051 -0.1456 -0.6488 -0.5443
 6207SOL     OW30079   3.930   3.962   8.518 -0.2050 -0.0636  0.4535
 6207SOL    HW130080   3.931   4.033   8.454  0.1806 -0.6633 -0.2044
 6207SOL    HW230081   3.842   3.928   8.507 -0.6572  0.7512  1.4792
 6208SOL     OW30082   2.355   1.860   3.930 -0.5619  0.2293  0.6023
 6208SOL    HW130083   2.325   1.771   3.947 -1.0242  0.3541  0.4513
 6208SOL    HW230084   2.426   1.856   3.995 -0.6865 -0.1748  0.7121
 6209SOL     OW30085   1.667   2.436   6.445 -0.0917  0.2872  0.1174
 6209SOL    HW130086   1.605   2.401   6.509 -1.8601  0.0400 -1.7651
 6209SOL    HW230087   1.652   2.370   6.378  1.5429  0.2041 -0.1809
 6210SOL     OW30088   3.566   0.795   6.751  0.2089  0.6181 -0.0579
 6210SOL    HW130089   3.497   0.807   6.685 -2.1932  0.5269  2.4574
 6210SOL    HW230090   3.550   0.878   6.797  0.1918  0.1787  0.7263
 6211SOL     OW30091   2.102   1.088  14.913  0.1187  0.0274 -0.1156
 6211SOL    HW130092   2.109   1.180  14.888  0.3588  0.1371  0.3714
 6211SOL    HW230093   2.176   1.073  14.972 -1.5139 -0.3162  1.8326
 6212SOL     OW30094   4.663   1.674   1.523 -0.1475  0.4862 -0.5959
 6212SOL    HW130095   4.583   1.645   1.480  0.5515 -2.2582 -0.0229
 6212SOL    HW230096   4.698   1.732   1.456  2.9350 -1.7441 -0.9296
 6213SOL     OW30097   1.671   0.659   9.779  0.3541  0.2436  0.1933
 6213SOL    HW130098   1.594   0.716   9.768  0.9970  1.4171  1.9118
 6213SOL    HW230099   1.702   0.680   9.867 -1.9432 -0.2310  1.1251
 6214SOL     OW30100   3.759   4.035   7.692 -0.2574 -0.6159  0.3632
 6214SOL    HW130101   3.807   4.021   7.610  2.1178  0.3244  1.5930
 6214SOL    HW230102   3.771   4.129   7.685 -0.1683 -0.7631 -1.4831
 6215SOL     OW30103   3.833   0.376   9.774 -0.3048  0.3727 -0.1917
 6215SOL    HW130104   3.901   0.399   9.837  0.7346 -1.7245 -0.5441
 6215SOL    HW230105   3.876   0.426   9.704 -0.0158  0.7996  0.2928
 6216SOL     OW30106   3.250   0.723   3.057  0.7875 -0.0910 -0.2493
 6216SOL    HW130107   3.251   0.667   3.135 -2.2581  1.6585  1.0313
 6216SOL    HW230108   3.223   0.666   2.985 -1.6883 -0.7327  1.2024
 6217SOL     OW30109   4.720   2.309   4.271  0.2474  0.7454  0.2378
 6217SOL    HW130110   0.081   2.334   4.235 -0.3917 -2.6511 -3.6602
 6217SOL    HW230111   0.020   2.227   4.313 -0.7562 -0.1096 -0.8651
 6218SOL     OW30112   4.427   1.890   0.422  0.1165 -0.2074  0.5077
 6218SOL    HW130113   4.497   1.836   0.385  0.9124  0.2857  1.2814
 6218SOL    HW230114   4.482   1.968   0.410  0.1889 -0.2762  0.3911
 6219SOL     OW30115   1.051   4.151  10.442  0.1858  0.3395  0.2583
 6219SOL    HW130116   1.094   4.081  10.491 -0.0440  0.9539  1.3295
 6219SOL    HW230117   0.964   4.113  10.429  1.7493 -3.1630 -0.1147
 6220SOL     OW30118   2.495   3.431   9.511  0.0133 -0.1347  0.1512
 6220SOL    HW130119   2.549   3.505   9.541  0.1670 -0.1178 -0.1565
 6220SOL    HW230120   2.415   3.451   9.559 -1.2241 -0.8888 -1.5867
 6221SOL     OW30121   2.217   1.544   2.433  0.0229 -0.1265 -0.3949
 6221SOL    HW130122   2.299   1.495   2.432 -0.1021 -0.3688  2.1691
 6221SOL    HW230123   2.150   1.499   2.382 -0.7105  0.9986 -0.4148
 6222SOL     OW30124   0.333   0.560   1.436  0.0569  0.1610  0.5588
 6222SOL    HW130125   0.342   0.604   1.351  0.5733  1.2798  1.1911
 6222SOL    HW230126   0.394   0.613   1.488  1.7313  0.6387 -1.8678
 6223SOL     OW30127   2.715   0.972   9.090  0.2900  0.2715  0.2879
 6223SOL    HW130128   2.753   0.976   9.178 -0.8227  2.1949  0.6829
 6223SOL    HW230129   2.758   0.893   9.058  1.4274  0.2491  1.8553
 6224SOL     OW30130   4.333   0.090  17.474 -0.1412  0.7835  0.1706
 6224SOL    HW130131   4.363   0.151  17.406  0.2234  0.6325  0.2021
 6224SOL    HW230132   4.257   0.135  17.511 -1.9849 -2.4906  0.3788
 6225SOL     OW30133   3.555   1.372   9.348  0.2160  0.2122 -0.0095
 6225SOL    HW130134   3.492   1.369   9.420  0.3183  0.0578  0.0730
 6225SOL    HW230135   3.512   1.390   9.265 -0.5958  0.2428  0.4095
 6226SOL     OW30136   1.547   4.508  16.924  0.2826 -0.1697 -0.1951
 6226SOL    HW130137   1.493   4.561  16.983 -0.2987 -1.0938  0.0912
 6226SOL    HW230138   1.564   4.578  16.860 -0.4417  0.2586  0.0809
 6227SOL     OW30139   2.778   4.113   3.115  0.2836 -0.3618 -0.0855
 6227SOL    HW130140   2.693   4.102   3.159  1.3993 -2.7906  1.4958
 6227SOL    HW230141   2.784   4.208   3.120 -0.4780 -0.3263  0.2353
 6228SOL     OW30142   3.155   0.124   0.441 -0.8197  0.8392  0.5017
 6228SOL    HW130143   3.143   0.031   0.461 -0.5128  0.7818  0.4226
 6228SOL    HW230144   3.243   0.118   0.480  0.3078 -0.6840 -2.2550
 6229SOL     OW30145   3.704   3.468   3.431  0.0886  0.0189 -0.8480
 6229SOL    HW130146   3.752   3.389   3.454 -0.7670 -0.5135 -0.9035
 6229SOL    HW230147   3.767   3.538   3.449 -1.2870  0.7558  1.0384
 6230SOL     OW30148   0.902   4.060  10.689 -0.3517 -0.0682  0.6316
 6230SOL    HW130149   0.855   4.083  10.609  1.4834 -0.9709 -0.6912
 6230SOL    HW230150   0.992   4.055  10.659 -0.0658  1.5993  1.2243
 6231SOL     OW30151   0.173   1.988   7.552  0.0210 -0.1306 -0.3309
 6231SOL    HW130152   0.210   2.013   7.637  1.0388 -0.3953 -0.6930
 6231SOL    HW230153   0.152   2.070   7.509  0.8688 -0.5986 -1.6336
 6232SOL     OW30154   1.688   4.577  16.286  0.4040  0.6520  0.1300
 6232SOL    HW130155   1.747   4.564  16.211  0.1747 -2.0009  0.3995
 6232SOL    HW230156   1.603   4.562  16.244 -0.0218 -2.2285  2.0410
 6233SOL     OW30157   4.275   2.742   4.968  0.0445  0.2287  0.1228
 6233SOL    HW130158   4.314   2.777   5.047  2.4826 -0.0717 -0.9491
 6233SOL    HW230159   4.187   2.777   4.983  0.3957  1.7602 -1.3919
 6234SOL     OW30160   4.004   1.765   7.778  0.0273 -0.0012  0.4701
 6234SOL    HW130161   4.052   1.686   7.754  0.2237  0.3195 -0.2000
 6234SOL    HW230162   4.001   1.764   7.874  0.9096  1.8535  0.5352
 6235SOL     OW30163   0.083   0.270   1.580  0.0642  0.1623  0.3749
 6235SOL    HW130164   0.114   0.292   1.492  0.0996 -1.9006 -0.1376
 6235SOL    HW230165   0.148   0.209   1.615  0.5404 -0.5979 -1.7847
 6236SOL     OW30166   1.793   0.829   6.113 -0.4085  0.5954 -0.2354
 6236SOL    HW130167   1.824   0.919   6.113 -1.3179  0.9065 -0.1838
 6236SOL    HW230168   1.719   0.835   6.052 -1.7139  0.0321  1.3006
 6237SOL     OW30169   3.953   0.670   7.832  0.0262 -0.5915  0.7602
 6237SOL    HW130170   3.918   0.738   7.774  0.0429  1.1761  2.8245
 6237SOL    HW230171   4.030   0.648   7.780  0.0005 -0.8396  0.8259
 6238SOL     OW30172   3.735   2.121  10.512 -0.1398 -0.5856 -0.3674
 6238SOL    HW130173   3.708   2.208  10.481  2.2252 -0.4771 -2.0829
 6238SOL    HW230174   3.830   2.131  10.519 -0.1106 -0.7087 -0.5822
 6239SOL     OW30175   1.663   2.061   0.178  0.2630  0.3368 -0.1302
 6239SOL    HW130176   1.622   1.990   0.228 -3.4510  3.5881  1.4249
 6239SOL    HW230177   1.736   2.019   0.133  0.3788 -1.7988  2.0436
 6240SOL     OW30178   1.491   3.026   2.195  0.0840 -0.2049  0.3379
 6240SOL    HW130179   1.575   3.042   2.151  0.2566 -0.2346  0.6549
 6240SOL    HW230180   1.439   2.989   2.123  2.1918 -2.5387 -0.0416
 6241SOL     OW30181   2.417   2.737  12.975  0.3743 -0.1175  0.2110
 6241SOL    HW130182   2.463   2.664  12.933  1.2945 -0.6284  2.1365
 6241SOL    HW230183   2.329   2.701  12.959  0.7354  0.2240 -2.5218
 6242SOL     OW30184   0.048   1.437  15.184 -0.2187  0.3735  0.6363
 6242SOL    HW130185   0.062   1.355  15.136 -0.5550  0.0449  1.1052
 6242SOL    HW230186   0.138   1.449  15.215 -0.6743  1.0610  1.6894
 6243SOL     OW30187   0.161   1.184   5.854  0.0651  0.2361 -0.0936
 6243SOL    HW130188   0.077   1.227   5.872 -1.3794 -2.0469 -1.3668
 6243SOL    HW230189   0.203   1.251   5.800  1.5571 -0.7117 -0.0912
 6244SOL     OW30190   1.077   1.899   4.191 -0.1849  0.3691  0.7165
 6244SOL    HW130191   1.060   1.805   4.183  0.7944  0.1372  1.5012
 6244SOL    HW230192   1.129   1.906   4.271 -0.6295 -1.6664  1.1765
 6245SOL     OW30193   1.649   0.108  12.953  0.3094 -0.1723  0.5074
 6245SOL    HW130194   1.558   0.099  12.926  0.0362 -2.3304  2.1491
 6245SOL    HW230195   1.677   0.019  12.933  1.1146  0.1741  0.0859
 6246SOL     OW30196   2.482   0.485   2.436 -0.0163  0.7853 -0.2857
 6246SOL    HW130197   2.572   0.507   2.411 -0.0098  0.8193 -0.2320
 6246SOL    HW230198   2.439   0.496   2.351 -1.1395 -0.9749  0.0524
 6247SOL     OW30199   3.438   0.055   8.958  0.3733  0.3488 -0.0558
 6247SOL    HW130200   3.374   0.097   9.014  0.6410 -0.4798  0.8780
 6247SOL    HW230201   3.442   4.690   8.993  0.5836  1.0131  1.6069
 6248SOL     OW30202   0.468   3.561   1.789 -0.1994  0.9009  0.2675
 6248SOL    HW130203   0.529   3.595   1.724 -2.1610  1.5010 -1.2674
 6248SOL    HW230204   0.441   3.641   1.835 -1.4879 -0.6381  2.1970
 6249SOL     OW30205   0.735   0.211   3.202 -0.1816  0.1166 -0.2689
 6249SOL    HW130206   0.796   0.196   3.130  2.2349  0.9333  1.6138
 6249SOL    HW230207   0.793   0.220   3.278 -0.8348 -1.0773  0.3780
 6250SOL     OW30208   1.172   4.546   8.517  0.3469 -0.4614 -0.0085
 6250SOL    HW130209   1.251   4.523   8.567  0.4830  0.7434  0.3220
 6250SOL    HW230210   1.147   4.620   8.572 -0.0650 -0.7954  0.2540
 6251SOL     OW30211   4.250   2.261   6.162  0.0078  0.1737  0.3556
 6251SOL    HW130212   4.246   2.316   6.083 -0.0236 -0.8174 -0.3316
 6251SOL    HW230213   4.343   2.238   6.159  0.0957  0.3139  2.2937
 6252SOL     OW30214   3.867   2.923   7.101  0.2331 -0.5977 -0.6050
 6252SOL    HW130215   3.939   2.984   7.117  1.1882 -1.6216 -1.0485
 6252SOL    HW230216   3.916   2.847   7.072  2.5210  0.7108 -0.1370
 6253SOL     OW30217   2.215   0.200   7.279  0.2470  0.0553  0.0782
 6253SOL    HW130218   2.139   0.253   7.255 -2.2630 -2.6446  1.9696
 6253SOL    HW230219   2.199   0.178   7.371 -0.0143  1.0845  0.2809
 6254SOL     OW30220   0.458   3.125  16.498 -0.0668  0.1449 -0.7246
 6254SOL    HW130221   0.450   3.102  16.406  2.8576 -0.9926 -0.6772
 6254SOL    HW230222   0.364   3.128  16.515 -0.4741  1.1843 -3.1695
 6255SOL     OW30223   1.307   1.950   3.389 -0.4246  0.4625 -0.1498
 6255SOL    HW130224   1.341   1.891   3.323 -0.3346 -1.4139  1.5713
 6255SOL    HW230225   1.212   1.937   3.386 -0.7584  2.0537  3.0459
 6256SOL     OW30226   0.251   1.914   4.315 -0.3958  0.3752  0.7603
 6256SOL    HW130227   0.266   1.820   4.324 -0.7332  0.2737  0.2693
 6256SOL    HW230228   0.325   1.957   4.357  0.7015 -1.9233  1.1931
 6257SOL     OW30229   3.911   2.756  13.808 -0.2614  0.3146  0.1103
 6257SOL    HW130230   3.896   2.674  13.760 -1.4733  1.7809 -2.0080
 6257SOL    HW230231   3.891   2.825  13.744  1.3332 -0.0377 -0.7701
 6258SOL     OW30232   3.880   0.258   3.643  0.7314 -0.0689  0.2197
 6258SOL    HW130233   3.848   0.337   3.686 -1.3595 -2.0680  2.3116
 6258SOL    HW230234   3.916   0.298   3.564  2.5467 -0.4237  0.8468
 6259SOL     OW30235   2.250   1.514  11.236  0.4526 -0.3581 -0.1768
 6259SOL    HW130236   2.168   1.562  11.247  0.5277  0.2605 -2.2678
 6259SOL    HW230237   2.273   1.558  11.154  1.8858 -0.0920  0.3607
 6260SOL     OW30238   3.327   0.181   1.231  0.6672  0.0966 -0.3289
 6260SOL    HW130239   3.274   0.162   1.153  0.0327 -2.3275  0.7168
 6260SOL    HW230240   3.385   0.248   1.194  2.4138 -1.4836 -0.4527
 6261SOL     OW30241   0.289   1.659  12.875 -0.3023  0.0372 -0.0789
 6261SOL    HW130242   0.232   1.583  12.880  1.9771 -1.5855  1.2356
 6261SOL    HW230243   0.334   1.651  12.791  1.5278  2.0545  0.7174
 6262SOL     OW30244   1.618   2.851   8.510  0.2260  0.1245  0.4203
 6262SOL    HW130245   1.682   2.783   8.529  0.1423  0.0776  0.5352
 6262SOL    HW230246   1.669   2.932   8.517 -1.5263  1.3015 -0.3680
 6263SOL     OW30247   0.982   4.065  10.957 -0.0435  0.6956 -0.1912
 6263SOL    HW130248   0.919   4.084  11.027  1.1631 -2.6765  1.8033
 6263SOL    HW230249   0.912   4.055  10.891 -0.5162  0.1913  0.3844
 6264SOL     OW30250   4.368   2.492  14.797 -0.1660  0.4209 -0.4140
 6264SOL    HW130251   4.413   2.442  14.728  0.7067  0.0337  0.4396
 6264SOL    HW230252   4.359   2.427  14.866 -0.3674 -0.0875 -0.9220
 6265SOL     OW30253   3.362   0.747   8.919  0.4221 -1.0525  0.7993
 6265SOL    HW130254   3.355   0.736   9.014 -2.0206 -0.0580  0.7513
 6265SOL    HW230255   3.456   0.731   8.910  0.4914 -0.4159  0.4425
 6266SOL     OW30256   3.929   0.436   4.915 -0.5084 -0.5678  0.0032
 6266SOL    HW130257   3.843   0.472   4.934  1.0833  1.5692  3.1060
 6266SOL    HW230258   3.917   0.378   4.840  1.8579  0.5638 -1.2539
 6267SOL     OW30259   0.815   1.308   7.598  0.7658 -0.2740  0.2649
 6267SOL    HW130260   0.816   1.259   7.680 -2.8896 -0.0408  0.4499
 6267SOL    HW230261   0.765   1.245   7.545  1.4689 -2.0765  1.7312
 6268SOL     OW30262   1.711   1.959  16.874 -0.7670 -0.0218  0.5288
 6268SOL    HW130263   1.680   2.009  16.949  0.1225  0.4829  0.5686
 6268SOL    HW230264   1.758   2.029  16.828 -0.0355 -0.0143  1.2952
 6269SOL     OW30265   1.301   0.156  16.799  0.0065 -0.3220 -0.3643
 6269SOL    HW130266   1.265   0.120  16.879  1.7956 -1.1188  0.0850
 6269SOL    HW230267   1.230   0.212  16.768 -0.4605 -0.8518 -0.2315
 6270SOL     OW30268   1.087   3.863   8.434 -0.3723  0.0559  0.1831
 6270SOL    HW130269   1.098   3.848   8.527 -0.3340  0.6477  0.2745
 6270SOL    HW230270   0.998   3.898   8.427 -0.3334  0.1544  0.1793
 6271SOL     OW30271   3.924   4.352  12.144 -0.1119 -0.5301  0.0797
 6271SOL    HW130272   4.019   4.346  12.130 -0.4277  0.1667 -2.4127
 6271SOL    HW230273   3.913   4.433  12.194 -1.8717 -0.0528 -1.1018
 6272SOL     OW30274   4.023   3.043  11.314 -0.0293 -0.2207 -0.4700
 6272SOL    HW130275   4.062   2.957  11.329 -0.6303 -0.6044 -1.1053
 6272SOL    HW230276   4.102   3.098  11.308  1.3373 -2.3053 -1.7281
 6273SOL     OW30277   4.158   2.589   3.416  0.6679 -0.1400 -0.2276
 6273SOL    HW130278   4.153   2.678   3.380 -1.0714  0.7696  2.1786
 6273SOL    HW230279   4.124   2.612   3.503 -0.4065 -3.1298  0.1456
 6274SOL     OW30280   2.585   3.915   4.251  0.0670 -0.5684 -0.3680
 6274SOL    HW130281   2.555   3.824   4.253  0.2757 -0.6051  1.1734
 6274SOL    HW230282   2.584   3.942   4.343  0.4735  1.0700 -0.8476
 6275SOL     OW30283   3.256   4.142   7.343 -0.0085  0.1562  0.3100
 6275SOL    HW130284   3.232   4.145   7.251 -2.0483 -1.2406  0.8093
 6275SOL    HW230285   3.219   4.064   7.384 -0.8723  1.0825  1.2999
 6276SOL     OW30286   1.395   3.302   2.235  0.5801  0.1619 -0.2897
 6276SOL    HW130287   1.398   3.208   2.220  1.9197  0.1476  0.0826
 6276SOL    HW230288   1.471   3.318   2.290 -0.6414  1.6184  0.9646
 6277SOL     OW30289   3.008   1.863  17.347 -0.0319 -0.2320  0.0805
 6277SOL    HW130290   2.959   1.782  17.339  2.0763 -1.4020 -1.1298
 6277SOL    HW230291   2.969   1.916  17.416 -1.5254 -0.4438 -0.6135
 6278SOL     OW30292   0.668   1.002   7.665  0.4306 -0.5837 -0.2303
 6278SOL    HW130293   0.670   0.987   7.571  2.1307  1.0454 -0.4524
 6278SOL    HW230294   0.717   0.921   7.685 -0.5770 -0.5538  2.3652
 6279SOL     OW30295   1.750   4.694   5.324  0.6244  0.4088 -0.2156
 6279SOL    HW130296   1.655   4.684   5.333  0.5657  0.9830 -0.2096
 6279SOL    HW230297   1.763   0.039   5.388 -1.0661  1.9801 -1.5643
 6280SOL     OW30298   0.460   3.423   2.071  0.1977  0.2534 -0.0772
 6280SOL    HW130299   0.396   3.445   2.004 -0.7418 -3.4604 -0.3801
 6280SOL    HW230300   0.496   3.512   2.066  0.6207  0.0530 -0.6108
 6281SOL     OW30301   0.412   3.141   1.038 -0.2166 -0.5098 -0.5228
 6281SOL    HW130302   0.434   3.059   0.994  0.5955 -0.3786 -0.3623
 6281SOL    HW230303   0.359   3.109   1.111 -1.5152  0.5213 -1.0009
 6282SOL     OW30304   2.370   3.149   9.327  0.2758  0.2315 -0.5252
 6282SOL    HW130305   2.325   3.068   9.348  0.8332  0.1049  0.1837
 6282SOL    HW230306   2.438   3.164   9.393 -0.5453 -2.1717  0.8289
 6283SOL     OW30307   2.850   0.211  12.684  0.1603  0.2107 -0.1481
 6283SOL    HW130308   2.868   0.191  12.592  1.9896 -1.2358  0.5294
 6283SOL    HW230309   2.914   0.281  12.692 -1.2906  1.3333  1.5021
 6284SOL     OW30310   2.818   2.610   4.746  0.9716 -0.3035 -0.7276
 6284SOL    HW130311   2.905   2.603   4.784  1.0470  1.5051 -0.5766
 6284SOL    HW230312   2.820   2.581   4.655 -2.2292 -2.9030  0.0066
 6285SOL     OW30313   4.431   3.522  13.200  0.1219 -0.1063  0.5542
 6285SOL    HW130314   4.456   3.441  13.244 -0.4112 -1.4605 -1.6141
 6285SOL    HW230315   4.395   3.487  13.118  2.9257 -2.5473  0.3928
 6286SOL     OW30316   2.286   1.467   3.002 -0.3823 -0.4623 -0.3900
 6286SOL    HW130317   2.339   1.453   2.923  3.7641  1.9461  1.9850
 6286SOL    HW230318   2.269   1.560   2.991 -2.5756 -0.7827  0.4786
 6287SOL     OW30319   3.200   4.338   1.523 -0.2295  0.3240  0.3748
 6287SOL    HW130320   3.162   4.372   1.604 -1.7742  1.5556 -0.8749
 6287SOL    HW230321   3.119   4.299   1.489  0.1383  0.2953 -0.4836
 6288SOL     OW30322   0.780   0.661   4.199  0.3604  0.0843  0.2115
 6288SOL    HW130323   0.772   0.631   4.109 -1.5527  1.5314 -0.1086
 6288SOL    HW230324   0.723   0.738   4.207 -0.3149 -0.3206 -0.7235
 6289SOL     OW30325   1.632   4.419   2.540 -0.1611 -0.1773  0.3511
 6289SOL    HW130326   1.630   4.496   2.596 -0.9099 -0.7983  1.1825
 6289SOL    HW230327   1.699   4.442   2.475 -0.1025  0.6541  0.7163
 6290SOL     OW30328   0.896   2.361   1.864 -0.3174 -0.1235  0.2610
 6290SOL    HW130329   0.952   2.308   1.808 -0.2766 -0.9859  1.1122
 6290SOL    HW230330   0.941   2.361   1.949  1.5112  0.0403 -0.7222
 6291SOL     OW30331   1.668   1.174   8.243 -0.2903 -0.6209  0.2930
 6291SOL    HW130332   1.677   1.106   8.310  0.2852 -2.2792 -1.4641
 6291SOL    HW230333   1.672   1.134   8.156  0.3286  0.9293 -0.4013
 6292SOL     OW30334   1.414   0.344   3.431  0.3389  0.1450 -0.0182
 6292SOL    HW130335   1.378   0.299   3.355  2.2087 -0.5415 -0.4799
 6292SOL    HW230336   1.391   0.287   3.505 -0.1882  1.0116  0.4935
 6293SOL     OW30337   1.519   2.253  16.734  0.1164 -0.1021  0.7668
 6293SOL    HW130338   1.437   2.217  16.767 -0.8794  1.6302  0.2027
 6293SOL    HW230339   1.536   2.186  16.668 -3.0726  0.2265 -0.3890
 6294SOL     OW30340   1.603   0.626  10.071 -0.6994  0.0372  0.0848
 6294SOL    HW130341   1.667   0.555  10.077 -0.2075  0.2692 -2.3635
 6294SOL    HW230342   1.548   0.596   9.999 -0.6640  0.4712 -0.1245
 6295SOL     OW30343   1.915   1.570   2.683  0.1898  1.2681  0.7059
 6295SOL    HW130344   1.886   1.552   2.772  0.5122 -1.4304  0.2546
 6295SOL    HW230345   1.837   1.545   2.632  0.5237  1.4984  0.0762
 6296SOL     OW30346   3.693   1.138  15.090  0.1533 -0.1752 -0.2288
 6296SOL    HW130347   3.666   1.052  15.058 -0.3656  0.0528 -0.4198
 6296SOL    HW230348   3.609   1.180  15.110 -0.4033 -0.6754 -1.4914
 6297SOL     OW30349   1.832   2.031  12.548  0.5655  0.3115  0.1284
 6297SOL    HW130350   1.745   2.060  12.522  1.3709  1.8446 -0.8859
 6297SOL    HW230351   1.817   2.000  12.637 -0.3199  1.3159  0.3232
 6298SOL     OW30352   0.989   1.835  13.601  0.0227  0.4765 -0.0688
 6298SOL    HW130353   0.969   1.885  13.681 -0.5908 -0.3809  0.3148
 6298SOL    HW230354   0.907   1.856  13.558 -1.3607 -2.1427  1.2451
 6299SOL     OW30355   3.373   0.826   2.256 -0.0300 -0.6953  0.5741
 6299SOL    HW130356   3.318   0.835   2.333  1.5033 -1.2361  1.7183
 6299SOL    HW230357   3.435   0.762   2.290  1.2837  0.0858 -0.3411
 6300SOL     OW30358   4.614   3.884   5.779 -0.2463  0.3390  0.0449
 6300SOL    HW130359   4.663   3.966   5.786  1.8463 -0.8140 -0.9314
 6300SOL    HW230360   4.526   3.916   5.762 -0.5443 -1.7365 -2.2385
 6301SOL     OW30361   2.215   3.796   7.938 -0.0532 -1.2882  0.1151
 6301SOL    HW130362   2.166   3.714   7.949 -2.5015 -0.3958 -3.9981
 6301SOL    HW230363   2.301   3.762   7.913  0.0940  0.4928 -1.8142
 6302SOL     OW30364   1.766   0.390  10.096  0.1372  0.4015 -0.4039
 6302SOL    HW130365   1.798   0.374  10.185  0.9357 -0.1042 -0.7923
 6302SOL    HW230366   1.780   0.300  10.066  0.0539  0.2801 -0.0798
 6303SOL     OW30367   2.638   0.669   5.338 -0.0852  0.4222 -0.1375
 6303SOL    HW130368   2.650   0.726   5.415  1.7442  1.5507 -1.2646
 6303SOL    HW230369   2.545   0.688   5.330  0.1292  1.0152 -1.2333
 6304SOL     OW30370   1.844   2.737   8.627 -0.3586  0.1266 -0.2061
 6304SOL    HW130371   1.801   2.718   8.710  0.3130  1.2450  0.3868
 6304SOL    HW230372   1.932   2.766   8.650 -0.5813  1.6309 -1.2633
 6305SOL     OW30373   2.231   1.824   1.524 -0.4051  0.3351  0.3248
 6305SOL    HW130374   2.232   1.919   1.535 -1.0271  0.3036  0.6857
 6305SOL    HW230375   2.248   1.814   1.430 -0.8395  0.5053  0.2267
 6306SOL     OW30376   2.744   2.017   3.830  0.1188  0.4428 -0.0001
 6306SOL    HW130377   2.734   1.923   3.815 -0.5717  0.8753 -2.2437
 6306SOL    HW230378   2.808   2.026   3.900 -0.7330 -0.9585  0.9619
 6307SOL     OW30379   0.660   1.215   4.740 -0.4344 -0.2302 -0.0318
 6307SOL    HW130380   0.614   1.292   4.706 -2.0685 -0.3834  1.8238
 6307SOL    HW230381   0.731   1.213   4.676  0.1346  0.6347  0.5662
 6308SOL     OW30382   0.901   2.389   2.554  0.7186 -0.1462 -0.0762
 6308SOL    HW130383   0.882   2.298   2.530 -1.1375  0.5054 -1.0507
 6308SOL    HW230384   0.826   2.402   2.612 -0.1966 -2.6192 -0.6837
 6309SOL     OW30385   0.250   4.645   9.441  0.1483 -0.2415  0.0905
 6309SOL    HW130386   0.342   4.653   9.416  0.0530 -0.6581 -0.3955
 6309SOL    HW230387   0.251   4.549   9.445  0.6325 -0.2358  0.1031
 6310SOL     OW30388   3.823   4.695  14.688  0.3309 -0.4369 -0.1743
 6310SOL    HW130389   3.911   0.002  14.703 -0.3212  0.4086  1.8989
 6310SOL    HW230390   3.806   4.639  14.764  0.1639 -1.0597 -0.6716
 6311SOL     OW30391   2.185   0.344   0.611  0.0479 -0.0796 -0.1460
 6311SOL    HW130392   2.189   0.272   0.674 -0.5685  0.0571  0.0446
 6311SOL    HW230393   2.274   0.375   0.629 -0.0814 -0.3181  0.9106
 6312SOL     OW30394   1.181   0.271   7.925  0.5501 -0.7927  0.6346
 6312SOL    HW130395   1.273   0.246   7.932  0.3727 -1.5947  0.1392
 6312SOL    HW230396   1.156   0.219   7.848  1.0078  0.2393 -0.1999
 6313SOL     OW30397   4.363   4.694  15.714  0.0512  0.0868 -0.2195
 6313SOL    HW130398   4.383   4.656  15.629 -1.4666  0.4074 -0.7157
 6313SOL    HW230399   4.355   0.062  15.690 -3.0850  0.3322  1.8260
 6314SOL     OW30400   4.396   2.491   6.954 -0.2535  0.1252 -0.0261
 6314SOL    HW130401   4.343   2.523   7.027  0.7457 -0.8124  1.1095
 6314SOL    HW230402   4.460   2.561   6.939 -0.2828  0.3278  0.7590
 6315SOL     OW30403   2.060   4.200   7.821 -0.2708 -0.0033 -0.2518
 6315SOL    HW130404   2.088   4.271   7.878  0.3863 -1.7740  1.6325
 6315SOL    HW230405   2.119   4.132   7.854 -2.8413 -1.6872  0.8858
 6316SOL     OW30406   0.393   2.010   9.066 -0.6170 -0.2191  0.3413
 6316SOL    HW130407   0.387   2.084   9.006  1.4439 -0.0791  0.3182
 6316SOL    HW230408   0.385   1.937   9.005  0.5905 -0.6217  0.6578
 6317SOL     OW30409   3.829   1.250   0.870 -0.4399 -0.4134 -0.0369
 6317SOL    HW130410   3.924   1.245   0.871 -0.4848 -0.9251  1.1823
 6317SOL    HW230411   3.813   1.310   0.942 -3.6477 -1.8311  0.4182
 6318SOL     OW30412   2.426   2.326  16.007 -0.0852  0.3593  0.2356
 6318SOL    HW130413   2.461   2.342  15.919 -1.7831 -1.2338 -0.7048
 6318SOL    HW230414   2.356   2.390  15.994  0.6607  0.7409 -1.9006
 6319SOL     OW30415   0.907   3.695   7.839  0.2139  0.1574 -0.1787
 6319SOL    HW130416   0.871   3.691   7.751  0.8383  1.2128 -0.4812
 6319SOL    HW230417   0.917   3.600   7.849 -1.2090  0.0992  0.7694
 6320SOL     OW30418   3.237   0.398   8.342  0.2709  0.3358  0.1924
 6320SOL    HW130419   3.179   0.467   8.376 -0.0208  0.1894 -0.0013
 6320SOL    HW230420   3.324   0.438   8.347 -0.1393  0.8876  2.6513
 6321SOL     OW30421   1.481   1.047   6.053 -0.5811 -0.3560  0.1257
 6321SOL    HW130422   1.417   1.003   6.110 -0.8538 -1.1508 -0.7911
 6321SOL    HW230423   1.511   0.970   6.005  2.8207  1.3315 -0.4635
 6322SOL     OW30424   3.152   1.678   4.044  0.2701  0.4629  0.3250
 6322SOL    HW130425   3.057   1.670   4.050 -0.0489  2.9397 -1.2750
 6322SOL    HW230426   3.174   1.591   4.011 -0.1314  0.3486  0.3620
 6323SOL     OW30427   2.439   3.615  11.469 -0.6724  0.6713 -0.3897
 6323SOL    HW130428   2.408   3.604  11.559 -0.2288  1.2453 -0.1706
 6323SOL    HW230429   2.395   3.699  11.458 -2.5108 -0.3380 -0.8323
 6324SOL     OW30430   0.034   3.758  15.139  0.0926  0.5627 -0.4620
 6324SOL    HW130431   0.109   3.699  15.151  0.9682  1.5884 -0.8800
 6324SOL    HW230432   4.690   3.692  15.153  0.5876  0.0064 -0.6408
 6325SOL     OW30433   2.153   0.224   5.968 -0.4124 -0.7390 -0.2632
 6325SOL    HW130434   2.073   0.177   5.992 -0.7918 -1.3512 -2.7266
 6325SOL    HW230435   2.134   0.299   5.913  0.7022  0.0874  0.4804
 6326SOL     OW30436   0.703   4.188  11.924  0.2730 -0.0945 -0.5580
 6326SOL    HW130437   0.612   4.190  11.896 -0.1982 -0.1406  0.9644
 6326SOL    HW230438   0.750   4.253  11.872  2.7304 -0.7907  0.8073
 6327SOL     OW30439   4.679   3.414   6.215 -0.0516 -0.0287 -0.4224
 6327SOL    HW130440   4.689   3.483   6.280  0.3015  0.6407 -1.1884
 6327SOL    HW230441   4.627   3.347   6.260 -0.0635  0.0305 -0.3486
 6328SOL     OW30442   1.900   2.297   9.402 -0.1033  0.1249  0.1271
 6328SOL    HW130443   1.836   2.300   9.473 -1.2054  0.0387 -0.8666
 6328SOL    HW230444   1.975   2.344   9.439  0.2798 -1.5600  1.4718
 6329SOL     OW30445   0.816   1.473   5.886 -0.2334 -0.1035 -0.2365
 6329SOL    HW130446   0.861   1.513   5.959 -0.5664  1.2461 -0.7680
 6329SOL    HW230447   0.732   1.446   5.924  1.1966 -1.8101  1.6771
 6330SOL     OW30448   1.857   0.866   2.048 -0.2427 -0.4349 -0.1123
 6330SOL    HW130449   1.776   0.877   1.998 -0.5563 -1.1782  0.2397
 6330SOL    HW230450   1.920   0.923   2.003  2.4734 -2.6997  0.8268
 6331SOL     OW30451   0.206   2.149   3.600 -0.5651 -0.5457 -0.5565
 6331SOL    HW130452   0.178   2.085   3.535  1.8395 -1.3507 -0.8050
 6331SOL    HW230453   0.285   2.101   3.626  0.1362 -0.6509 -2.8466
 6332SOL     OW30454   0.006   4.234   6.737  0.5847  0.4018 -0.4585
 6332SOL    HW130455   4.635   4.226   6.733  0.7548 -2.4035  0.7417
 6332SOL    HW230456   0.023   4.309   6.794  0.6719 -0.7245  1.0055
 6333SOL     OW30457   4.058   1.492  14.377  0.5601 -0.0966 -0.0594
 6333SOL    HW130458   4.097   1.404  14.381  1.9944  0.5292 -0.4474
 6333SOL    HW230459   3.990   1.493  14.310 -0.7325  0.5756  1.2582
 6334SOL     OW30460   3.743   1.994  16.112 -0.2501 -0.1121 -0.0755
 6334SOL    HW130461   3.743   2.090  16.115 -1.2189 -0.0720 -1.3659
 6334SOL    HW230462   3.671   1.981  16.049 -0.1334 -1.5492  0.0817
 6335SOL     OW30463   2.165   3.447   4.315  0.3440 -0.1812  0.3456
 6335SOL    HW130464   2.110   3.487   4.248 -0.3516 -0.3354  0.8198
 6335SOL    HW230465   2.125   3.359   4.315 -1.2946  0.5476 -0.8848
 6336SOL     OW30466   3.479   3.972   8.576 -0.1846 -0.4079 -0.1588
 6336SOL    HW130467   3.395   4.002   8.541  0.3381 -1.4943 -2.3564
 6336SOL    HW230468   3.444   3.898   8.627 -0.4604  0.2160  0.5713
 6337SOL     OW30469   1.457   4.476  10.144  0.3822  0.1293  0.2490
 6337SOL    HW130470   1.426   4.519  10.065  0.4153  0.2665  0.3102
 6337SOL    HW230471   1.548   4.504  10.150  0.5986 -0.9441  2.1198
 6338SOL     OW30472   3.225   0.191   5.036 -0.1955 -0.0479  0.5692
 6338SOL    HW130473   3.202   0.223   4.949 -1.8609 -0.2654  0.9316
 6338SOL    HW230474   3.298   0.137   5.006  1.1051  2.3569 -0.5766
 6339SOL     OW30475   1.505   0.184  10.890  0.7312  0.0348  0.2193
 6339SOL    HW130476   1.569   0.166  10.821  1.2837  0.1284  0.7097
 6339SOL    HW230477   1.547   0.227  10.964 -0.1983 -2.0312  1.9448
 6340SOL     OW30478   2.620   1.161   7.630  0.7104 -0.2917  0.5895
 6340SOL    HW130479   2.568   1.091   7.593  0.5440  0.5292 -0.7136
 6340SOL    HW230480   2.612   1.231   7.565  0.7495 -1.4719 -0.6634
 6341SOL     OW30481   1.622   2.647  15.504 -0.1151  0.0113  0.0183
 6341SOL    HW130482   1.533   2.625  15.479  0.3438 -0.7444 -0.9322
 6341SOL    HW230483   1.644   2.717  15.443 -1.3895 -1.9999 -2.7373
 6342SOL     OW30484   2.449   0.337   8.150  0.3612  0.5622 -0.1871
 6342SOL    HW130485   2.368   0.386   8.164  0.6762  0.5628  1.6405
 6342SOL    HW230486   2.486   0.322   8.237  1.0450 -0.7612 -0.7088
 6343SOL     OW30487   4.178   2.261  13.659 -0.3896 -0.2339 -0.2650
 6343SOL    HW130488   4.140   2.216  13.583 -0.0242 -3.2524  1.3439
 6343SOL    HW230489   4.200   2.178  13.701 -0.3617 -0.6867 -1.1811
 6344SOL     OW30490   3.830   4.013  15.527  0.3175  0.5292 -0.2092
 6344SOL    HW130491   3.901   4.076  15.517  2.4543 -2.2248 -2.3439
 6344SOL    HW230492   3.884   3.934  15.520 -0.4521  0.0539 -0.7793
 6345SOL     OW30493   0.612   1.688   4.208  0.6546 -0.5468 -0.2385
 6345SOL    HW130494   0.563   1.660   4.130 -2.3851 -0.2426  1.5726
 6345SOL    HW230495   0.611   1.602   4.251  0.0167 -0.4722 -0.1034
 6346SOL     OW30496   1.652   1.422   7.705  0.2293  0.2901 -0.1857
 6346SOL    HW130497   1.694   1.337   7.718 -1.1069 -0.1388  1.4245
 6346SOL    HW230498   1.646   1.469   7.787  0.8743  0.2183 -0.0999
 6347SOL     OW30499   3.087   4.491   6.853  0.0859 -0.3040 -0.7820
 6347SOL    HW130500   3.177   4.524   6.862  0.3817 -1.2426 -0.2917
 6347SOL    HW230501   3.097   4.406   6.811  0.9998 -0.5393 -0.0896
 6348SOL     OW30502   1.066   2.408   3.002  0.6524  0.1831 -0.0136
 6348SOL    HW130503   1.053   2.498   3.031 -1.2226  0.7641 -2.5988
 6348SOL    HW230504   1.051   2.367   3.087 -0.8754  2.0752  0.6382
 6349SOL     OW30505   3.760   3.538   1.769  0.4474  0.3533 -0.1493
 6349SOL    HW130506   3.754   3.628   1.738  0.1055  0.9876  1.7226
 6349SOL    HW230507   3.847   3.520   1.733  0.4589  0.3590 -0.1245
 6350SOL     OW30508   4.682   3.987   7.592 -0.2932  0.0482  0.4155
 6350SOL    HW130509   0.048   4.017   7.588  0.2938 -1.8770 -0.3491
 6350SOL    HW230510   4.691   3.903   7.636  1.2538 -0.9694 -1.7947
 6351SOL     OW30511   3.198   4.675   3.050 -0.6480 -0.0792 -1.1510
 6351SOL    HW130512   3.183   4.616   2.975 -0.2782  0.4790 -1.6646
 6351SOL    HW230513   3.292   4.676   3.033 -0.5454 -0.0518 -0.5478
 6352SOL     OW30514   1.193   4.574   9.286  1.0042  0.5192 -0.0548
 6352SOL    HW130515   1.171   4.663   9.314 -0.7643  0.3046 -0.7944
 6352SOL    HW230516   1.284   4.579   9.318  0.9983  0.3315 -0.0103
 6353SOL     OW30517   2.002   2.192   1.198  0.0889  0.0915  0.8990
 6353SOL    HW130518   2.080   2.247   1.192  0.3832 -0.3989  0.3199
 6353SOL    HW230519   2.039   2.104   1.196 -2.9126 -1.1783  0.7192
 6354SOL     OW30520   0.668   1.340   1.460 -0.3066  0.0742 -0.3223
 6354SOL    HW130521   0.735   1.335   1.528 -1.4802  0.5659  0.8647
 6354SOL    HW230522   0.721   1.337   1.380 -0.7432 -1.9440 -0.5496
 6355SOL     OW30523   1.466   1.604   3.795  0.5806 -0.0901 -0.4719
 6355SOL    HW130524   1.547   1.637   3.834  1.6779 -0.8998 -2.0625
 6355SOL    HW230525   1.461   1.645   3.708  0.6622  1.2054  0.1312
 6356SOL     OW30526   3.174   3.198   7.152  0.5313 -0.3582  0.7484
 6356SOL    HW130527   3.239   3.268   7.155  2.0210 -1.6050 -2.6148
 6356SOL    HW230528   3.106   3.234   7.095  2.7309  0.7366 -1.1624
 6357SOL     OW30529   1.500   1.873   6.199 -0.3845  0.1870 -0.0421
 6357SOL    HW130530   1.460   1.796   6.239  1.0771 -0.5015  0.0636
 6357SOL    HW230531   1.435   1.940   6.223 -0.1289  0.9795 -1.6106
 6358SOL     OW30532   4.360   0.579   3.138  0.2514 -0.8094 -0.1530
 6358SOL    HW130533   4.377   0.574   3.232  2.3166  1.5568 -0.4091
 6358SOL    HW230534   4.431   0.635   3.108 -1.4400  1.6340  0.4333
 6359SOL     OW30535   2.512   1.233   7.961  0.5058 -0.2155  0.1446
 6359SOL    HW130536   2.516   1.279   7.878 -0.9768  1.4781  0.9907
 6359SOL    HW230537   2.601   1.248   7.993  1.0617 -0.8911 -1.1215
 6360SOL     OW30538   4.187   2.134   1.398 -0.0750  0.1913 -0.2177
 6360SOL    HW130539   4.110   2.184   1.423  0.5581  1.0683  0.0115
 6360SOL    HW230540   4.156   2.046   1.419  0.6087 -0.2224 -0.9169
 6361SOL     OW30541   0.606   4.665   5.780 -0.1413  0.2378  0.5181
 6361SOL    HW130542   0.545   0.011   5.758 -0.6153 -0.4868 -0.5286
 6361SOL    HW230543   0.631   4.649   5.689 -0.9104  1.3257  0.1124
 6362SOL     OW30544   3.523   4.200  11.352 -0.2737 -0.4183 -0.1092
 6362SOL    HW130545   3.588   4.177  11.419 -2.8594 -2.8712  1.5892
 6362SOL    HW230546   3.550   4.292  11.351 -1.0058 -0.1937  0.7566
 6363SOL     OW30547   0.521   3.841   6.487  0.4696 -0.3076  0.9334
 6363SOL    HW130548   0.601   3.853   6.538 -0.2912  0.2239  1.9978
 6363SOL    HW230549   0.456   3.877   6.547 -0.1109 -0.2886  0.2830
 6364SOL     OW30550   3.219   0.011   2.142  0.0786  0.7118 -0.2350
 6364SOL    HW130551   3.262   0.033   2.060  0.7931  0.6111  0.1151
 6364SOL    HW230552   3.154   4.669   2.119  0.3799 -0.0149  1.0345
 6365SOL     OW30553   0.235   2.486   4.194 -0.3681 -0.6519  0.9379
 6365SOL    HW130554   0.236   2.528   4.279  1.3189  2.3500 -0.5674
 6365SOL    HW230555   0.327   2.463   4.184  0.3977  2.6760  0.2442
 6366SOL     OW30556   0.085   2.869   4.003 -0.0067 -0.4592 -0.4807
 6366SOL    HW130557   0.101   2.780   3.971 -1.8294 -0.9305 -0.0841
 6366SOL    HW230558   0.119   2.879   4.092  0.0286  2.4190 -0.8222
 6367SOL     OW30559   1.639   4.225   7.748 -0.2079 -0.2736 -0.7154
 6367SOL    HW130560   1.628   4.314   7.715  0.7348  0.3305  0.5984
 6367SOL    HW230561   1.731   4.215   7.724 -0.3387  1.0654 -1.7763
 6368SOL     OW30562   1.975   2.292   8.519  0.4886  0.5833 -0.6203
 6368SOL    HW130563   2.036   2.242   8.465 -0.2460 -2.8006  1.6947
 6368SOL    HW230564   1.894   2.260   8.480  0.5680 -0.9524  0.4641
 6369SOL     OW30565   2.280   3.706   3.853  0.0204  0.0247  0.3375
 6369SOL    HW130566   2.321   3.755   3.781 -0.4501 -1.8438 -1.1997
 6369SOL    HW230567   2.237   3.767   3.913  0.4841 -0.3054  0.9993
 6370SOL     OW30568   3.062   3.813   5.642 -0.3822 -0.6464 -0.1112
 6370SOL    HW130569   2.986   3.768   5.680  0.2859 -3.3835 -2.0077
 6370SOL    HW230570   3.133   3.780   5.697  1.5283  0.0041 -2.1810
 6371SOL     OW30571   2.846   2.333   5.653 -0.0450  0.6722  0.2242
 6371SOL    HW130572   2.784   2.272   5.612  0.3532  1.4737 -1.5590
 6371SOL    HW230573   2.844   2.406   5.592 -0.3296 -1.4577 -2.3249
 6372SOL     OW30574   2.043   4.619  15.024  0.5226  0.4842 -0.0220
 6372SOL    HW130575   2.114   4.558  15.002  0.7675  0.4227  0.9591
 6372SOL    HW230576   2.085   4.650  15.104 -1.4670  2.0400  0.3975
 6373SOL     OW30577   4.544   3.009   4.665  0.0919 -0.2624 -0.6975
 6373SOL    HW130578   4.525   2.982   4.755  1.8063  2.1532  0.3823
 6373SOL    HW230579   4.461   2.986   4.623  1.1327  0.0025 -2.8626
 6374SOL     OW30580   3.650   3.270   7.681  0.5795  0.1907  0.4839
 6374SOL    HW130581   3.719   3.336   7.684  1.2737 -0.4603 -0.8806
 6374SOL    HW230582   3.609   3.281   7.595 -3.5729  0.9189  2.5661
 6375SOL     OW30583   4.508   4.266   4.708  0.7840 -0.6287 -0.0152
 6375SOL    HW130584   4.489   4.298   4.620  0.1595 -1.2521 -0.1128
 6375SOL    HW230585   4.584   4.321   4.727  0.0976  0.6228 -0.9327
 6376SOL     OW30586   1.168   1.635   1.992  0.5027 -0.3080  0.0416
 6376SOL    HW130587   1.251   1.661   1.952 -0.1508 -0.0918 -1.1722
 6376SOL    HW230588   1.168   1.686   2.073  3.2835 -1.3583  0.6911
 6377SOL     OW30589   2.795   0.486   9.445  0.8421  0.3093  0.3702
 6377SOL    HW130590   2.777   0.575   9.413 -0.9663 -1.0254 -2.3529
 6377SOL    HW230591   2.862   0.462   9.381  1.3873  2.3507  0.1652
 6378SOL     OW30592   2.246   4.452   1.473  0.3534  0.1790  0.2162
 6378SOL    HW130593   2.317   4.399   1.438 -0.1490 -0.8743  0.8017
 6378SOL    HW230594   2.280   4.473   1.560  2.2983 -0.3433 -0.4175
 6379SOL     OW30595   2.342   3.352   2.841  0.4915  0.0732 -0.7336
 6379SOL    HW130596   2.276   3.361   2.910  0.9480  2.2846 -0.5853
 6379SOL    HW230597   2.317   3.416   2.774  0.0023 -0.1927 -0.8078
 6380SOL     OW30598   2.524   1.919   1.932  0.4503  0.4876  0.0734
 6380SOL    HW130599   2.597   1.946   1.988  0.8975 -0.2986 -0.1390
 6380SOL    HW230600   2.504   1.831   1.964  0.0161  0.8559  0.8301
 6381SOL     OW30601   1.577   2.064  10.373 -0.2136 -0.3298 -0.6755
 6381SOL    HW130602   1.552   2.151  10.342  2.4745  0.2170 -1.3054
 6381SOL    HW230603   1.672   2.072  10.365 -0.3753  1.2675 -1.1030
 6382SOL     OW30604   4.433   4.211   6.722  0.2342  0.7353  0.0071
 6382SOL    HW130605   4.375   4.283   6.701  0.0454  0.7447  0.5521
 6382SOL    HW230606   4.438   4.163   6.640  3.5192 -1.7141  1.6412
 6383SOL     OW30607   1.988   1.368   4.708  0.4852 -0.7824 -0.3102
 6383SOL    HW130608   1.947   1.452   4.687  1.1824 -0.9233 -2.2287
 6383SOL    HW230609   1.918   1.303   4.696 -0.9901  0.7074  0.1878
 6384SOL     OW30610   3.912   0.046  10.672  0.1065  0.0202  0.2645
 6384SOL    HW130611   3.825   0.030  10.636  0.2341  1.1000 -0.5296
 6384SOL    HW230612   3.966   0.035  10.594 -2.3538  1.1804 -1.6142
 6385SOL     OW30613   4.628   0.248   3.987 -0.6138 -1.0853  0.0323
 6385SOL    HW130614   4.707   0.194   3.995  0.3578  0.0666 -1.7961
 6385SOL    HW230615   4.592   0.192   3.918 -0.7368 -0.4133 -0.4465
 6386SOL     OW30616   1.350   4.194  16.921 -0.3172  0.0151 -0.1724
 6386SOL    HW130617   1.364   4.284  16.950 -3.0500 -0.0116  1.1950
 6386SOL    HW230618   1.280   4.166  16.979  0.3295  1.9361  1.5111
 6387SOL     OW30619   0.789   3.594   6.188  0.4804  0.2246 -0.1681
 6387SOL    HW130620   0.804   3.500   6.175  0.5273  0.3781 -1.2345
 6387SOL    HW230621   0.703   3.620   6.156  0.2445  1.4967  1.5561
 6388SOL     OW30622   2.966   0.498   2.415  0.3928  0.4205 -0.4337
 6388SOL    HW130623   3.025   0.539   2.351 -0.1721  0.0062 -1.2266
 6388SOL    HW230624   3.007   0.413   2.429  0.0435  0.7444  2.4001
 6389SOL     OW30625   3.657   2.216   6.966  0.0599  0.1589  0.0743
 6389SOL    HW130626   3.577   2.163   6.965 -0.2438  0.5808  1.7885
 6389SOL    HW230627   3.673   2.219   6.872  2.1179 -0.3078  0.4125
 6390SOL     OW30628   2.979   2.182   3.475  0.1968 -0.3100  0.7152
 6390SOL    HW130629   3.006   2.095   3.505  1.0963  0.1334  1.1900
 6390SOL    HW230630   2.924   2.171   3.397 -0.1853 -1.4221  1.1327
 6391SOL     OW30631   3.472   2.578   8.354 -0.3606  0.4727  0.4714
 6391SOL    HW130632   3.533   2.643   8.318 -1.3257  0.0741 -1.8632
 6391SOL    HW230633   3.428   2.633   8.420  0.8384  1.2741  0.6145
 6392SOL     OW30634   2.796   1.904  11.337 -0.3749  0.2039 -0.3159
 6392SOL    HW130635   2.767   1.923  11.248  2.4334  0.3252 -1.2118
 6392SOL    HW230636   2.845   1.822  11.340 -0.7257  0.0792  2.3217
 6393SOL     OW30637   2.564   3.948  12.995  0.5339 -0.0320  0.1468
 6393SOL    HW130638   2.641   3.990  12.955 -1.7344  3.6940 -0.3157
 6393SOL    HW230639   2.485   3.998  12.973 -1.2641 -2.9089  0.1359
 6394SOL     OW30640   4.176   1.847  11.097 -0.3286 -0.0847  0.3727
 6394SOL    HW130641   4.114   1.863  11.026 -0.3526 -2.5518 -0.1744
 6394SOL    HW230642   4.252   1.811  11.051 -0.6006 -0.4323  0.1920
 6395SOL     OW30643   4.351   1.088   7.254 -0.0183 -0.2459  0.8029
 6395SOL    HW130644   4.294   1.025   7.299 -0.6538 -0.8041 -0.7865
 6395SOL    HW230645   4.287   1.158   7.256 -1.9985 -2.1404  3.3542
 6396SOL     OW30646   0.980   3.987  15.395  0.0370 -0.3998 -0.0411
 6396SOL    HW130647   0.991   3.915  15.457 -0.3837 -1.2936 -1.0106
 6396SOL    HW230648   0.885   3.997  15.405  0.1801  0.2335  0.7155
 6397SOL     OW30649   2.707   1.937  15.138  0.0034 -0.4096 -0.0442
 6397SOL    HW130650   2.739   1.889  15.062 -0.9478 -0.0974 -0.6495
 6397SOL    HW230651   2.779   1.945  15.200 -0.6676 -2.7850  1.0399
 6398SOL     OW30652   3.569   2.534   6.642 -0.6594 -0.2511  0.0170
 6398SOL    HW130653   3.649   2.496   6.678 -0.7800  0.4871  1.0507
 6398SOL    HW230654   3.619   2.588   6.581 -0.4848  0.0093  0.3912
 6399SOL     OW30655   3.448   3.386  11.110 -0.4848  1.0760  0.2526
 6399SOL    HW130656   3.389   3.324  11.154  2.5648 -1.3303  1.0157
 6399SOL    HW230657   3.511   3.381  11.182 -0.4567 -0.5738  0.1292
 6400SOL     OW30658   4.169   1.440   7.026  0.0075  0.2357 -0.2659
 6400SOL    HW130659   4.193   1.456   6.934  1.2136  1.3825  0.2530
 6400SOL    HW230660   4.109   1.366   7.017  0.5137 -0.0307 -1.4891
 6401SOL     OW30661   1.696   1.686   8.179  0.1232 -0.0845 -0.1522
 6401SOL    HW130662   1.606   1.717   8.173 -0.0833 -0.6507 -0.0270
 6401SOL    HW230663   1.683   1.615   8.117  1.0419  0.6665 -1.2088
 6402SOL     OW30664   2.457   2.432   6.633 -0.0213  0.0840  0.0334
 6402SOL    HW130665   2.520   2.434   6.706 -0.0663 -1.1519  0.0925
 6402SOL    HW230666   2.452   2.526   6.612 -0.0411 -0.1821 -1.1433
 6403SOL     OW30667   0.399   4.336  13.768 -0.0980 -0.1610 -0.2464
 6403SOL    HW130668   0.441   4.421  13.781  1.5380 -1.1393  0.8367
 6403SOL    HW230669   0.341   4.337  13.844 -2.3354  2.3575 -1.9921
 6404SOL     OW30670   2.306   3.942   6.329  0.3089 -0.4657  0.4271
 6404SOL    HW130671   2.377   3.881   6.312 -0.3780 -0.6861 -1.6799
 6404SOL    HW230672   2.349   3.998   6.394 -1.4279  0.6461  0.6194
 6405SOL     OW30673   2.293   3.868   5.892 -0.3916 -0.2866 -0.0618
 6405SOL    HW130674   2.367   3.925   5.869  1.8602 -2.2954  2.2257
 6405SOL    HW230675   2.259   3.919   5.965 -1.7124  0.5026 -1.2187
 6406SOL     OW30676   1.226   3.089   3.882 -0.2297  0.6493 -0.2858
 6406SOL    HW130677   1.199   3.012   3.831  2.6278 -1.9260  2.0584
 6406SOL    HW230678   1.268   3.149   3.821 -0.4084  0.5395 -0.5190
 6407SOL     OW30679   2.068   4.346  16.018  0.0182  0.1954  0.3648
 6407SOL    HW130680   2.009   4.270  16.017  0.1342  0.1075  0.0369
 6407SOL    HW230681   2.095   4.348  15.927 -1.4810 -1.8148 -0.1353
 6408SOL     OW30682   1.761   1.178   4.942  0.0040  0.1489  0.1118
 6408SOL    HW130683   1.737   1.224   5.023  0.7076 -2.4952  1.8217
 6408SOL    HW230684   1.714   1.097   4.962  1.8902 -0.4959  1.8439
 6409SOL     OW30685   0.825   3.152   6.993 -0.6476 -0.4031 -0.2454
 6409SOL    HW130686   0.908   3.129   7.033 -0.3925 -0.0514 -0.5736
 6409SOL    HW230687   0.793   3.064   6.971 -0.0103 -0.9092  0.8571
 6410SOL     OW30688   3.102   0.868   4.547  0.3599 -0.0455 -0.2702
 6410SOL    HW130689   3.101   0.795   4.609  0.4141  1.1349  1.1274
 6410SOL    HW230690   3.190   0.905   4.555  0.6640 -1.1055  1.1673
 6411SOL     OW30691   3.779   0.713   1.033  0.3115 -0.2760  0.1644
 6411SOL    HW130692   3.851   0.766   1.066  0.6889 -0.7932  0.1640
 6411SOL    HW230693   3.817   0.625   1.037 -0.5812 -0.6492  0.3878
 6412SOL     OW30694   0.088   2.056   9.171 -0.1570 -0.1752  0.3245
 6412SOL    HW130695   0.183   2.047   9.177 -0.4162 -2.1171  1.2453
 6412SOL    HW230696   0.085   2.130   9.111 -1.6198 -0.1942  0.3645
 6413SOL     OW30697   0.544   3.344  10.438  0.4203 -0.2148 -0.4606
 6413SOL    HW130698   0.639   3.348  10.440  0.3362  0.3059  1.5136
 6413SOL    HW230699   0.537   3.251  10.460 -0.8268  0.0299  0.1636
 6414SOL     OW30700   2.802   0.748   5.123 -0.3543  0.2818 -0.0220
 6414SOL    HW130701   2.723   0.715   5.168 -0.2468 -0.3135 -0.2675
 6414SOL    HW230702   2.847   0.785   5.199  0.2400  0.7797 -0.6258
 6415SOL     OW30703   3.222   4.252   8.177  0.1704 -0.2893  0.7485
 6415SOL    HW130704   3.173   4.334   8.170 -1.6172 -1.4653 -0.3851
 6415SOL    HW230705   3.299   4.283   8.225  1.9257 -2.0145 -0.9264
 6416SOL     OW30706   2.217   3.606   6.032 -0.0876 -0.3159  0.3815
 6416SOL    HW130707   2.287   3.593   5.968 -0.0007  2.0469  0.0352
 6416SOL    HW230708   2.192   3.516   6.054  2.6736 -1.0261  0.6707
 6417SOL     OW30709   1.753   2.566   2.114 -0.5971  0.4393  0.4077
 6417SOL    HW130710   1.829   2.544   2.059 -0.7119 -0.5469  0.6542
 6417SOL    HW230711   1.799   2.604   2.189  3.1987 -1.2625 -1.0279
 6418SOL     OW30712   0.500   4.178  14.067  0.2979  0.2075  0.2478
 6418SOL    HW130713   0.465   4.263  14.094  0.4676  0.8234 -1.4779
 6418SOL    HW230714   0.584   4.176  14.113  0.1394 -3.0817  0.4245
 6419SOL     OW30715   3.147   3.874   8.162  0.0072  0.6159 -0.0346
 6419SOL    HW130716   3.058   3.849   8.134  0.3031 -0.9182  0.4080
 6419SOL    HW230717   3.186   3.788   8.179  0.4011  0.4007 -2.0061
 6420SOL     OW30718   1.668   1.893   5.998  0.4520  0.4539 -0.0393
 6420SOL    HW130719   1.615   1.914   6.076 -0.3641  1.9540 -0.9938
 6420SOL    HW230720   1.683   1.985   5.978  0.6176  0.5006  0.2916
 6421SOL     OW30721   4.118   3.657   7.091 -0.7003  0.2915  0.2497
 6421SOL    HW130722   4.061   3.702   7.154 -0.1603  0.4833  0.5999
 6421SOL    HW230723   4.148   3.587   7.149  1.4267  0.5170 -0.6110
 6422SOL     OW30724   2.048   0.147  15.717  0.3685  0.2919  0.1498
 6422SOL    HW130725   2.038   0.077  15.653  0.4594 -1.1361  1.6936
 6422SOL    HW230726   1.971   0.200  15.697  1.1212  1.6835  0.8930
 6423SOL     OW30727   0.628   0.532  14.778 -0.1724  0.6945  0.6756
 6423SOL    HW130728   0.712   0.558  14.738 -0.6183  0.2480 -0.5513
 6423SOL    HW230729   0.565   0.544  14.707  0.1377 -0.5274  0.1944
 6424SOL     OW30730   4.714   2.741   3.728 -0.4570 -0.4519  0.0507
 6424SOL    HW130731   4.623   2.724   3.751 -1.0189  1.3071 -0.9532
 6424SOL    HW230732   0.041   2.701   3.799  0.3608 -1.6309 -1.1954
 6425SOL     OW30733   3.498   0.501   9.390 -1.1650 -0.1288 -0.0140
 6425SOL    HW130734   3.582   0.533   9.359  0.0755 -1.6289  1.7579
 6425SOL    HW230735   3.485   0.529   9.481 -1.9835 -1.6925  0.3565
 6426SOL     OW30736   0.705   1.027   0.095  0.3395 -0.6997 -0.8225
 6426SOL    HW130737   0.675   1.110   0.132 -0.4433 -1.2843 -0.1402
 6426SOL    HW230738   0.671   0.968   0.162  1.2895 -1.1763 -0.7463
 6427SOL     OW30739   4.211   3.096   9.057 -0.0097 -0.1883  0.5273
 6427SOL    HW130740   4.248   3.141   9.133  0.2660 -0.3575  0.4967
 6427SOL    HW230741   4.216   3.167   8.994 -0.0504  0.1857  0.9477
 6428SOL     OW30742   4.292   4.160   0.949  0.2315  0.1926 -0.1622
 6428SOL    HW130743   4.378   4.121   0.967  1.5527  2.5906 -1.2371
 6428SOL    HW230744   4.321   4.251   0.937  1.9257 -0.2232  0.7702
 6429SOL     OW30745   3.651   3.504   7.258 -0.0819  0.0712  0.1532
 6429SOL    HW130746   3.729   3.488   7.311  0.9056  2.7316 -0.4844
 6429SOL    HW230747   3.679   3.443   7.190  0.4139  1.8851 -1.2728
 6430SOL     OW30748   2.762   1.003   0.547 -0.3738  0.1197 -0.2675
 6430SOL    HW130749   2.737   1.057   0.472  2.7911  2.0198  0.0213
 6430SOL    HW230750   2.748   0.919   0.504 -1.8183  0.7519 -1.0405
 6431SOL     OW30751   1.939   1.184   1.451  0.3372 -0.7618  0.3193
 6431SOL    HW130752   2.031   1.203   1.470 -0.6539 -0.8762  5.2279
 6431SOL    HW230753   1.923   1.271   1.414 -0.1371 -0.7801  0.4849
 6432SOL     OW30754   3.509   2.239   2.088  0.2046  0.1971 -0.6447
 6432SOL    HW130755   3.586   2.296   2.082  1.6688 -1.8440 -1.2457
 6432SOL    HW230756   3.456   2.261   2.011 -1.9756 -1.4090  0.4034
 6433SOL     OW30757   0.325   3.461   3.170 -0.3014  0.2699 -0.3105
 6433SOL    HW130758   0.235   3.430   3.181 -0.0574 -0.0488  0.8268
 6433SOL    HW230759   0.309   3.527   3.103  1.1156  3.2893  2.3329
 6434SOL     OW30760   3.965   0.842   1.167  0.2676  0.1351 -0.4086
 6434SOL    HW130761   4.055   0.874   1.161  0.4379 -0.1872  0.5541
 6434SOL    HW230762   3.928   0.893   1.239 -1.9255 -1.2146 -0.5813
 6435SOL     OW30763   0.823   4.058   3.506 -0.2959 -0.1829  0.7913
 6435SOL    HW130764   0.842   4.022   3.593  0.9890  1.6941  1.2859
 6435SOL    HW230765   0.896   4.014   3.462 -1.3458 -1.1636  0.0305
 6436SOL     OW30766   1.120   3.796   9.729 -0.5651 -0.3154  0.1051
 6436SOL    HW130767   1.081   3.790   9.816 -0.9164  0.0286 -0.0267
 6436SOL    HW230768   1.086   3.716   9.689  0.2242 -0.6871  0.1955
 6437SOL     OW30769   0.467   4.388   5.262  0.2173  0.5777  0.0612
 6437SOL    HW130770   0.545   4.425   5.303 -0.7762  0.6864  1.9021
 6437SOL    HW230771   0.488   4.295   5.254 -0.7080  0.4332 -0.6942
 6438SOL     OW30772   1.674   1.055   7.151 -0.3162 -0.3623  0.2380
 6438SOL    HW130773   1.711   1.024   7.234 -1.3433  1.9982  1.5872
 6438SOL    HW230774   1.647   1.147   7.163 -0.8160 -0.2767 -1.6866
 6439SOL     OW30775   2.532   0.736   8.340  0.1337  0.0012 -0.2845
 6439SOL    HW130776   2.620   0.737   8.302  0.1551  1.3087 -0.1813
 6439SOL    HW230777   2.476   0.742   8.262  0.4547  0.3378 -0.4908
 6440SOL     OW30778   2.610   0.662   2.956  1.2709 -0.2489 -0.2911
 6440SOL    HW130779   2.577   0.678   3.044 -2.7972  0.2309 -1.9402
 6440SOL    HW230780   2.525   0.657   2.913  1.1265 -0.3538  0.0123
 6441SOL     OW30781   1.448   2.561   8.018 -0.0577  0.0301  0.1862
 6441SOL    HW130782   1.352   2.554   8.011 -0.0737  0.3466  0.1017
 6441SOL    HW230783   1.483   2.536   7.932 -1.0395 -0.5525 -0.0588
 6442SOL     OW30784   3.037   2.477   2.895 -0.5058 -0.6715  0.0038
 6442SOL    HW130785   3.120   2.476   2.943 -0.6406 -0.6931  0.2355
 6442SOL    HW230786   3.009   2.562   2.927 -2.6739 -1.5327  0.4006
 6443SOL     OW30787   0.537   3.344   6.015  0.0963  0.3362  0.1871
 6443SOL    HW130788   0.516   3.281   6.085 -0.4862 -1.7611 -1.8580
 6443SOL    HW230789   0.575   3.292   5.944 -0.5948 -0.3419  0.3122
 6444SOL     OW30790   4.156   1.507  13.918 -0.2853  0.8913  0.6390
 6444SOL    HW130791   4.138   1.445  13.989 -0.6825  1.1891  0.8008
 6444SOL    HW230792   4.191   1.585  13.963  0.5891  1.1480 -0.5002
 6445SOL     OW30793   0.940   2.315   1.506 -0.3491  0.3305  0.1639
 6445SOL    HW130794   0.972   2.386   1.450 -1.6423  0.2722 -0.6312
 6445SOL    HW230795   0.878   2.363   1.562 -1.2167  0.2175 -0.7046
 6446SOL     OW30796   1.137   4.700   9.554  0.3157  0.2275  0.0820
 6446SOL    HW130797   1.128   4.605   9.556  4.8054 -0.1946  0.0424
 6446SOL    HW230798   1.045   4.724   9.568  0.0891 -1.6582  1.8600
 6447SOL     OW30799   2.591   2.313   3.115  0.0174  0.5257  0.3406
 6447SOL    HW130800   2.539   2.235   3.136 -0.0742  0.5390  0.1687
 6447SOL    HW230801   2.603   2.287   3.023 -2.6612  1.4745 -0.2826
 6448SOL     OW30802   2.048   2.296   6.246 -0.1785  0.4094 -0.3662
 6448SOL    HW130803   2.108   2.234   6.287  0.5638  0.1150 -1.9150
 6448SOL    HW230804   2.032   2.361   6.315 -0.8678 -0.6938  0.5083
 6449SOL     OW30805   0.753   1.909  16.782 -0.2251 -0.2614 -0.1683
 6449SOL    HW130806   0.738   2.002  16.798  0.5366 -0.4025  1.3281
 6449SOL    HW230807   0.721   1.868  16.863 -0.3038  1.9082  0.9131
 6450SOL     OW30808   1.364   3.378   6.018 -0.1356  0.1862 -0.5928
 6450SOL    HW130809   1.458   3.373   6.004 -0.0962  0.3572 -0.3830
 6450SOL    HW230810   1.352   3.471   6.001  0.0166  0.1958 -0.6473
 6451SOL     OW30811   2.654   1.580   8.104  0.1846 -0.3381 -0.4018
 6451SOL    HW130812   2.624   1.518   8.171  0.9029  0.3794  0.5972
 6451SOL    HW230813   2.594   1.651   8.126 -1.7204 -1.7906 -0.8671
 6452SOL     OW30814   3.219   2.617  16.615  0.5616  0.5052 -0.2228
 6452SOL    HW130815   3.270   2.646  16.540 -2.4359  1.3185 -1.9514
 6452SOL    HW230816   3.280   2.551  16.649 -1.5318 -1.2831  0.1127
 6453SOL     OW30817   0.821   2.625   1.385  0.4642  0.3942  0.4516
 6453SOL    HW130818   0.907   2.630   1.427  1.0815 -3.1636 -0.3930
 6453SOL    HW230819   0.769   2.597   1.461 -1.6940 -2.7382 -2.1761
 6454SOL     OW30820   3.592   3.872  10.985 -0.2385 -0.4271  0.3217
 6454SOL    HW130821   3.668   3.881  10.928 -1.4193 -1.7620 -1.4821
 6454SOL    HW230822   3.601   3.786  11.027  0.3118  0.4545  1.9981
 6455SOL     OW30823   3.742   3.255   5.257  0.0001 -0.7173  0.4105
 6455SOL    HW130824   3.731   3.281   5.166 -0.8686  2.2265  1.3713
 6455SOL    HW230825   3.827   3.293   5.278  0.0871 -0.9549  0.4932
 6456SOL     OW30826   2.054   2.682   5.109  0.3146 -0.2422  1.0438
 6456SOL    HW130827   2.018   2.594   5.122  1.5804 -0.6430  1.7710
 6456SOL    HW230828   2.121   2.674   5.041 -0.1544 -0.7134  0.6287
 6457SOL     OW30829   1.109   0.967   7.218  0.3361 -0.1464  0.0878
 6457SOL    HW130830   1.200   0.971   7.189  0.5524  0.0807  0.8252
 6457SOL    HW230831   1.119   1.027   7.291  1.4693  1.4231 -1.3483
 6458SOL     OW30832   2.790   2.811   7.214  0.0700 -0.0911  0.1841
 6458SOL    HW130833   2.768   2.860   7.135 -0.6469 -0.9042 -0.1162
 6458SOL    HW230834   2.709   2.762   7.225 -1.3093  2.7719  3.0262
 6459SOL     OW30835   1.338   0.698   9.912  0.5970 -0.2089  0.4122
 6459SOL    HW130836   1.321   0.612   9.873  5.0217 -1.2930  0.8029
 6459SOL    HW230837   1.295   0.749   9.844 -0.5653 -1.6901  0.0400
 6460SOL     OW30838   2.103   0.370  16.308 -0.0345 -0.2235 -0.7255
 6460SOL    HW130839   2.035   0.347  16.370  0.2492  0.0352 -0.3137
 6460SOL    HW230840   2.137   0.283  16.287 -1.3203 -1.2000  1.2823
 6461SOL     OW30841   3.079   0.081   7.175 -0.7442  0.4965  0.3667
 6461SOL    HW130842   3.031   4.723   7.183  0.3045 -0.0689  0.7911
 6461SOL    HW230843   3.142   0.073   7.247 -0.1141 -0.8021 -0.3334
 6462SOL     OW30844   0.916   2.611   7.629 -0.0228 -0.3175 -0.4414
 6462SOL    HW130845   0.913   2.544   7.697  0.4933 -0.6832 -0.7791
 6462SOL    HW230846   0.957   2.688   7.669  2.5403 -1.9996  0.1734
 6463SOL     OW30847   3.556   1.115   5.017  0.2991 -0.0058  0.1168
 6463SOL    HW130848   3.486   1.086   4.957 -0.4017 -1.8780  1.8683
 6463SOL    HW230849   3.527   1.087   5.103  0.4634  0.4261  0.3108
 6464SOL     OW30850   3.404   1.337  15.758  0.1266  0.2948 -0.9299
 6464SOL    HW130851   3.414   1.365  15.667  2.2906 -0.8255 -1.0414
 6464SOL    HW230852   3.488   1.369  15.789 -1.0878  0.7528  1.8663
 6465SOL     OW30853   0.524   1.446   4.291 -0.5644 -0.1470  0.4161
 6465SOL    HW130854   0.430   1.461   4.303 -0.8740 -0.9232 -1.0257
 6465SOL    HW230855   0.540   1.372   4.349  0.6330 -0.1189  0.1230
 6466SOL     OW30856   1.361   0.794   3.375 -0.3545  0.1420  0.3220
 6466SOL    HW130857   1.305   0.798   3.298  1.2131 -1.3068 -0.8782
 6466SOL    HW230858   1.329   0.714   3.418  0.9553 -0.7828 -0.4442
 6467SOL     OW30859   3.770   4.674   8.274 -0.2414  0.5883  0.4901
 6467SOL    HW130860   3.816   4.616   8.214 -0.4535  0.5697  0.3444
 6467SOL    HW230861   3.778   4.620   8.353 -0.7084 -0.0433  0.1035
 6468SOL     OW30862   4.157   0.807   2.683 -0.3945 -0.1466 -0.7764
 6468SOL    HW130863   4.175   0.726   2.731  0.3108 -0.9247 -2.3784
 6468SOL    HW230864   4.083   0.778   2.630 -1.4834  2.2995 -0.5692
 6469SOL     OW30865   1.727   4.713  15.767 -0.1923  0.6426  0.3948
 6469SOL    HW130866   1.744   0.068  15.716  0.2370  0.1395 -0.2448
 6469SOL    HW230867   1.721   4.644  15.701  0.9550  1.5899 -0.6911
 6470SOL     OW30868   4.386   1.055   0.384 -0.1190 -0.0725  0.1237
 6470SOL    HW130869   4.440   1.050   0.305  0.8840 -1.4477  0.8914
 6470SOL    HW230870   4.304   1.019   0.351 -0.0566  1.6775 -1.9265
 6471SOL     OW30871   3.197   3.065   4.068 -0.4088  0.2287  0.1721
 6471SOL    HW130872   3.140   3.024   4.132 -1.1700  1.6962  0.4263
 6471SOL    HW230873   3.135   3.101   4.005  0.3268 -0.6176 -1.0435
 6472SOL     OW30874   3.265   2.896  14.912 -0.3094 -0.0026 -0.4638
 6472SOL    HW130875   3.321   2.852  14.848  0.2980  1.2369 -0.7952
 6472SOL    HW230876   3.307   2.982  14.903 -1.6670  1.0792  3.3913
 6473SOL     OW30877   4.347   1.006   6.071 -0.0544 -0.2009 -0.1120
 6473SOL    HW130878   4.297   1.074   6.026  1.4019  2.2678  1.9445
 6473SOL    HW230879   4.377   1.050   6.151  0.6389  0.8766 -0.9507
 6474SOL     OW30880   2.031   1.166   3.571  0.1750  0.3562 -0.5583
 6474SOL    HW130881   1.974   1.241   3.556 -0.4002 -0.0905 -0.5970
 6474SOL    HW230882   1.976   1.095   3.537  1.8434 -0.2085 -2.0634
 6475SOL     OW30883   4.447   3.849   3.552 -0.0598  0.1894 -0.0194
 6475SOL    HW130884   4.513   3.842   3.621  1.2296  1.5219 -1.1145
 6475SOL    HW230885   4.460   3.764   3.510 -0.3123 -0.2001  0.7012
 6476SOL     OW30886   1.539   1.577  15.708 -0.3262  0.6806 -0.1436
 6476SOL    HW130887   1.582   1.527  15.778 -0.2865 -0.7671 -1.2020
 6476SOL    HW230888   1.613   1.629  15.677  0.7504 -0.5147  0.4155
 6477SOL     OW30889   3.102   4.367  14.216  0.6307 -0.1480 -0.8628
 6477SOL    HW130890   3.132   4.338  14.130  1.7573 -1.6895  0.0538
 6477SOL    HW230891   3.184   4.392  14.259 -0.0027  1.2815 -0.4704
 6478SOL     OW30892   2.192   3.179   8.875 -0.4708  0.3355 -0.5288
 6478SOL    HW130893   2.116   3.125   8.852  0.2335 -1.2075  0.7305
 6478SOL    HW230894   2.253   3.169   8.801  1.0331  0.9356  0.6374
 6479SOL     OW30895   4.252   2.746   6.012 -0.1575  0.0915  0.1168
 6479SOL    HW130896   4.258   2.711   5.923  0.5357  0.3793  0.0506
 6479SOL    HW230897   4.200   2.821   5.983  0.1843 -0.2303 -1.3242
 6480SOL     OW30898   3.599   0.585  16.426 -0.9318  0.1764  1.0908
 6480SOL    HW130899   3.595   0.491  16.443 -1.5751 -0.4453 -2.6322
 6480SOL    HW230900   3.671   0.596  16.365 -0.0972  0.1617  2.0688
 6481SOL     OW30901   2.982   2.310   3.985  0.2034 -0.5431  0.5789
 6481SOL    HW130902   3.052   2.295   3.922  0.2501 -1.9268  0.9581
 6481SOL    HW230903   3.032   2.339   4.061  1.7555 -0.4967 -0.4551
 6482SOL     OW30904   1.198   1.604   2.927 -0.5428 -0.0320  0.7065
 6482SOL    HW130905   1.157   1.583   2.843  2.4346  1.5177 -1.1122
 6482SOL    HW230906   1.205   1.521   2.974 -0.1449  0.3934  1.3984
 6483SOL     OW30907   3.186   0.328  15.445 -0.1572  0.2376 -0.0760
 6483SOL    HW130908   3.175   0.400  15.383  0.8667 -0.7461 -1.4127
 6483SOL    HW230909   3.275   0.295  15.430  0.3670  0.8124  1.7734
 6484SOL     OW30910   4.167   1.577   1.261  0.3555  0.3895  0.2553
 6484SOL    HW130911   4.244   1.600   1.312  0.0210  0.4057  0.7587
 6484SOL    HW230912   4.156   1.483   1.278 -0.3596  0.4591  0.1897
 6485SOL     OW30913   0.199   1.835   3.078 -0.1645 -0.2197  0.4629
 6485SOL    HW130914   0.135   1.903   3.056  0.2774  0.2937  0.7597
 6485SOL    HW230915   0.265   1.889   3.121 -0.0487 -0.3790  0.4839
 6486SOL     OW30916   3.959   0.616   2.889 -0.1388  1.2424  0.3906
 6486SOL    HW130917   4.038   0.666   2.912  0.1977  0.8936  0.0023
 6486SOL    HW230918   3.930   0.662   2.810  0.2355  0.0613 -0.4431
 6487SOL     OW30919   4.636   1.147  15.225  0.3726  0.2206  0.0065
 6487SOL    HW130920   4.587   1.220  15.188  0.6026  0.1567 -0.4267
 6487SOL    HW230921   4.720   1.153  15.179  0.6791  1.0701  0.6736
 6488SOL     OW30922   0.588   3.433   8.611  0.2914 -0.0332  0.1524
 6488SOL    HW130923   0.614   3.403   8.698  1.4313  1.5906  0.3725
 6488SOL    HW230924   0.505   3.391   8.590  0.5071 -0.4080  0.0640
 6489SOL     OW30925   3.027   3.606  14.566  0.0191 -0.0744  0.4504
 6489SOL    HW130926   3.112   3.572  14.535 -0.3822  0.8345 -1.6835
 6489SOL    HW230927   3.056   3.688  14.606  1.3730 -1.5844  2.5465
 6490SOL     OW30928   4.436   3.611   2.198  0.3816 -0.1651 -0.1008
 6490SOL    HW130929   4.424   3.518   2.178 -0.2230  0.1548 -1.2524
 6490SOL    HW230930   4.528   3.631   2.219 -0.5563  2.8108  1.1204
 6491SOL     OW30931   1.960   0.435   5.833 -0.3677 -0.9702  0.0574
 6491SOL    HW130932   1.985   0.482   5.754 -0.6826 -0.4303  0.2818
 6491SOL    HW230933   1.952   0.505   5.898 -1.4330 -2.1817  1.2529
 6492SOL     OW30934   0.699   4.523   7.485 -0.1444 -0.1246 -0.3411
 6492SOL    HW130935   0.703   4.428   7.494 -0.8555 -0.1365 -0.1987
 6492SOL    HW230936   0.771   4.534   7.423  1.7501 -0.6170  1.7370
 6493SOL     OW30937   0.808   1.777   3.382 -0.1901 -0.1959  0.1704
 6493SOL    HW130938   0.841   1.778   3.292 -2.5550  0.6487 -0.6723
 6493SOL    HW230939   0.888   1.805   3.428 -0.4148 -0.2571  0.6021
 6494SOL     OW30940   0.408   3.905   0.479 -0.0654  0.3393  0.2647
 6494SOL    HW130941   0.352   3.829   0.461 -1.2721  1.4814 -0.8284
 6494SOL    HW230942   0.374   3.935   0.563  0.6486  0.5738  0.4695
 6495SOL     OW30943   2.334   2.082   4.472 -0.5075  0.3542 -0.1563
 6495SOL    HW130944   2.383   2.036   4.540 -1.5143  0.7899  0.8638
 6495SOL    HW230945   2.251   2.081   4.519 -0.6707 -2.2958 -0.4848
 6496SOL     OW30946   2.505   4.103   3.227 -0.0245 -0.7022  0.2698
 6496SOL    HW130947   2.460   4.186   3.243 -0.8178 -1.3067  1.1913
 6496SOL    HW230948   2.457   4.072   3.151 -2.1802 -1.3113  1.8747
 6497SOL     OW30949   2.651   2.225   2.847 -0.4254 -0.4464  0.4604
 6497SOL    HW130950   2.616   2.233   2.758 -0.3467  0.4499  0.5113
 6497SOL    HW230951   2.744   2.228   2.823 -0.5765 -2.5352 -0.4449
 6498SOL     OW30952   2.099   3.829  13.622 -0.1367 -0.1346  0.0280
 6498SOL    HW130953   2.060   3.913  13.597 -2.6346 -1.8702 -1.8635
 6498SOL    HW230954   2.119   3.793  13.536  1.6803  1.7144 -0.3465
 6499SOL     OW30955   1.062   3.470   2.409 -0.1059  0.3949 -0.7976
 6499SOL    HW130956   1.000   3.515   2.352  0.3872  0.4153 -1.3211
 6499SOL    HW230957   1.061   3.382   2.372 -0.6714 -0.8280  2.1064
 6500SOL     OW30958   2.456   0.754   7.126  0.0840 -0.3867 -0.5958
 6500SOL    HW130959   2.492   0.667   7.140  0.1077 -0.5199 -1.4871
 6500SOL    HW230960   2.530   0.810   7.149  0.9115 -1.2860 -1.0854
 6501SOL     OW30961   2.682   2.560   8.446  0.1051  0.2936  0.4000
 6501SOL    HW130962   2.713   2.650   8.449 -0.0446  0.3811 -0.8138
 6501SOL    HW230963   2.702   2.532   8.536  0.3460  1.2484  0.6486
 6502SOL     OW30964   2.894   3.571   1.908 -0.4408 -0.0393  0.3416
 6502SOL    HW130965   2.862   3.596   1.821 -0.2220 -1.6204 -0.2005
 6502SOL    HW230966   2.819   3.519   1.937 -0.4252  0.9862  2.1937
 6503SOL     OW30967   1.567   2.613   5.907  0.0824 -0.3006  0.0612
 6503SOL    HW130968   1.555   2.706   5.928 -0.1545 -0.4285  0.4833
 6503SOL    HW230969   1.603   2.603   5.819  1.9867 -0.3906  0.8497
 6504SOL     OW30970   2.115   1.575   5.890  0.2529 -0.0399  0.2961
 6504SOL    HW130971   2.038   1.608   5.845  1.0653 -0.8241 -1.6699
 6504SOL    HW230972   2.092   1.482   5.888 -0.3416  0.0793  1.4818
 6505SOL     OW30973   0.171   3.949   2.522 -0.0698 -0.1434 -0.3645
 6505SOL    HW130974   0.153   3.924   2.613  1.1491 -0.2784 -0.1628
 6505SOL    HW230975   0.255   3.905   2.513  0.9551  1.4659  1.4186
 6506SOL     OW30976   3.173   4.481   3.381  0.2540  0.1085 -0.2902
 6506SOL    HW130977   3.193   4.428   3.459 -1.1773  0.9335  0.6460
 6506SOL    HW230978   3.089   4.520   3.401 -0.6583 -1.4648 -1.0445
 6507SOL     OW30979   0.048   3.358   4.086  0.0667  0.3229 -0.7527
 6507SOL    HW130980   0.026   3.355   4.179  2.0866  1.5620 -0.2178
 6507SOL    HW230981   4.714   3.287   4.060 -0.8838 -0.5976  3.9896
 6508SOL     OW30982   3.409   3.739  11.373 -0.2432 -0.0622 -0.1333
 6508SOL    HW130983   3.346   3.738  11.445 -2.5811  0.8005 -2.1884
 6508SOL    HW230984   3.372   3.710  11.289 -0.2345 -0.5016  0.0146
 6509SOL     OW30985   0.928   3.347   6.050  0.2984  0.1981  0.0849
 6509SOL    HW130986   0.879   3.266   6.062  0.6709  0.0629  0.6960
 6509SOL    HW230987   1.008   3.334   6.101  0.6676  3.2104  0.2823
 6510SOL     OW30988   0.647   0.554   5.676  0.1538  0.2019  0.4657
 6510SOL    HW130989   0.726   0.504   5.654  0.0796  0.7512 -1.0967
 6510SOL    HW230990   0.576   0.490   5.684 -0.3234  0.4735 -1.5107
 6511SOL     OW30991   4.000   4.358   6.201  0.3195 -0.2668  0.3127
 6511SOL    HW130992   3.917   4.311   6.192 -0.5792  1.1416  1.2806
 6511SOL    HW230993   4.006   4.412   6.122 -2.2647 -1.3612 -0.6595
 6512SOL     OW30994   1.780   0.865  12.256 -0.0946 -0.0099  0.3763
 6512SOL    HW130995   1.730   0.820  12.188 -0.5156  2.1301 -0.7273
 6512SOL    HW230996   1.724   0.862  12.334  1.2125  0.0984  1.3248
 6513SOL     OW30997   3.047   1.196  16.747  0.2249 -0.8227  0.0938
 6513SOL    HW130998   2.999   1.115  16.761 -0.8086  0.0609  1.6682
 6513SOL    HW230999   3.035   1.214  16.654 -0.1746 -2.0329 -0.0925
 6514SOL     OW31000   2.132   1.437   6.464 -0.2199 -0.2727 -0.4172
 6514SOL    HW131001   2.222   1.468   6.450 -0.4329  0.5665  0.0319
 6514SOL    HW231002   2.113   1.380   6.390  0.6353  1.4117 -1.9620
 6515SOL     OW31003   4.048   0.306   6.055  0.0466 -0.3047  0.4012
 6515SOL    HW131004   4.041   0.260   6.139  0.9789  0.1188  0.7059
 6515SOL    HW231005   4.133   0.349   6.066  0.6033 -1.7953  1.8925
 6516SOL     OW31006   3.953   4.490   8.188  0.0837 -0.1287 -0.8562
 6516SOL    HW131007   4.030   4.461   8.238  0.0357 -1.8473 -1.7903
 6516SOL    HW231008   3.898   4.412   8.195  2.2785 -1.4689  1.5654
 6517SOL     OW31009   4.579   1.554  12.602 -0.2956 -0.2058 -0.1520
 6517SOL    HW131010   4.600   1.464  12.577 -1.3500  0.1105 -2.1708
 6517SOL    HW231011   4.662   1.600  12.591 -0.3621  0.2526  1.2162
 6518SOL     OW31012   0.558   4.471  12.864  0.1041  0.0210 -0.2471
 6518SOL    HW131013   0.572   4.565  12.876  0.5878  0.1233 -1.5491
 6518SOL    HW231014   0.531   4.445  12.952 -3.1046  1.6185 -0.7691
 6519SOL     OW31015   2.613   3.825   8.209  0.0638  0.4478  0.7678
 6519SOL    HW131016   2.617   3.830   8.305  0.0718  2.9279  0.6281
 6519SOL    HW231017   2.537   3.769   8.193  0.5203 -0.0713  0.4199
 6520SOL     OW31018   0.208   1.117  16.909 -0.7107  0.4010  0.3095
 6520SOL    HW131019   0.298   1.150  16.907  0.5091 -3.1059 -2.8339
 6520SOL    HW231020   0.213   1.067  16.990  0.7946  0.7288  0.4196
 6521SOL     OW31021   1.256   1.210   3.993 -0.1311 -0.1081  0.1886
 6521SOL    HW131022   1.200   1.142   3.955  0.9114 -2.2804  2.5915
 6521SOL    HW231023   1.304   1.238   3.915 -0.1485  0.2173  0.2936
 6522SOL     OW31024   0.646   4.604   5.170 -0.7037  0.2955 -0.3629
 6522SOL    HW131025   0.621   4.675   5.230  1.2559 -1.3333  2.4376
 6522SOL    HW231026   0.558   4.585   5.138  0.1035 -0.1012 -2.3363
 6523SOL     OW31027   3.028   0.119  10.152  0.0674 -0.3806 -1.0952
 6523SOL    HW131028   2.943   0.152  10.121 -0.9710 -0.4005  1.7385
 6523SOL    HW231029   3.036   0.037  10.104 -3.4898 -2.2610  1.5402
 6524SOL     OW31030   1.810   0.417   9.062  0.2171 -0.4218  0.2904
 6524SOL    HW131031   1.796   0.322   9.059 -2.0805 -0.0860  0.5639
 6524SOL    HW231032   1.765   0.429   9.145 -0.1844  0.9689 -0.1385
 6525SOL     OW31033   0.304   1.203   2.192  0.3243  0.4342  0.2017
 6525SOL    HW131034   0.285   1.246   2.275  0.9917  1.0864  0.0208
 6525SOL    HW231035   0.254   1.123   2.205 -1.9504  1.9108  0.6007
 6526SOL     OW31036   3.510   1.392   4.568 -0.3010 -0.2013 -0.7292
 6526SOL    HW131037   3.555   1.340   4.503  1.7091 -1.7526  1.9088
 6526SOL    HW231038   3.486   1.327   4.635  1.6419  0.2278  0.3868
 6527SOL     OW31039   3.496   0.323   8.818  0.1062  0.4040 -0.0747
 6527SOL    HW131040   3.562   0.290   8.756  0.2750 -2.1064  1.4546
 6527SOL    HW231041   3.452   0.241   8.839 -1.1034  1.0617 -0.0483
 6528SOL     OW31042   0.044   2.260   6.230 -0.0418  0.3587 -0.1807
 6528SOL    HW131043   0.067   2.304   6.311  0.4887  1.8077 -1.1132
 6528SOL    HW231044   0.103   2.185   6.226 -0.2322  0.1443  1.2450
 6529SOL     OW31045   2.940   4.531   8.176 -0.3254  0.0458  0.0830
 6529SOL    HW131046   3.029   4.534   8.210 -0.5893 -2.0796  0.9742
 6529SOL    HW231047   2.928   4.625   8.176  1.1091  0.2288  1.7181
 6530SOL     OW31048   3.175   2.564  15.873 -0.0992 -0.2005 -0.6213
 6530SOL    HW131049   3.099   2.615  15.900 -0.8339 -1.5905 -0.0708
 6530SOL    HW231050   3.206   2.607  15.793 -0.6232 -0.1350 -0.7864
 6531SOL     OW31051   3.379   1.001  11.251 -0.0320 -0.3828  0.9261
 6531SOL    HW131052   3.471   0.994  11.278  0.1137 -0.7958  0.3215
 6531SOL    HW231053   3.356   0.909  11.256  0.8062 -0.7166 -1.3345
 6532SOL     OW31054   1.466   2.073   7.293  0.3136  0.2634  0.8188
 6532SOL    HW131055   1.495   1.982   7.294 -1.7680 -0.3849  2.6145
 6532SOL    HW231056   1.400   2.085   7.225  1.1051  0.2445  0.0542
 6533SOL     OW31057   0.428   1.393  15.841 -0.5614  0.1859  0.0702
 6533SOL    HW131058   0.391   1.478  15.865 -0.6757  0.1086  0.1663
 6533SOL    HW231059   0.519   1.408  15.867 -0.8250  0.8133  0.6237
 6534SOL     OW31060   1.008   2.438   3.428 -0.0920  0.0685 -0.7037
 6534SOL    HW131061   0.975   2.528   3.425  0.0652  0.2538  2.3375
 6534SOL    HW231062   0.980   2.401   3.345  1.4612 -0.3779 -1.0254
 6535SOL     OW31063   4.231   3.194  11.462  0.1275 -0.1594 -0.2093
 6535SOL    HW131064   4.265   3.224  11.547 -0.1365 -1.3407  0.3028
 6535SOL    HW231065   4.184   3.271  11.430  1.2205  0.8463  0.5669
 6536SOL     OW31066   1.704   4.439   4.942 -0.3651 -0.0456 -0.1006
 6536SOL    HW131067   1.761   4.430   5.019 -0.8819 -1.1086  0.1594
 6536SOL    HW231068   1.659   4.356   4.932  0.6512 -0.4599 -1.1601
 6537SOL     OW31069   0.892   4.232   8.461  0.2622 -0.1663  0.6466
 6537SOL    HW131070   0.899   4.146   8.419 -1.3932  0.3319 -0.6388
 6537SOL    HW231071   0.984   4.244   8.482  0.9989 -1.6012 -1.7343
 6538SOL     OW31072   2.593   0.958   3.149 -0.1571 -0.0287  0.2496
 6538SOL    HW131073   2.587   0.886   3.211 -0.0536  1.3466  1.8344
 6538SOL    HW231074   2.507   0.976   3.110 -0.4817 -0.9421  0.5570
 6539SOL     OW31075   1.535   4.495  13.238  0.1901  0.4604  0.5108
 6539SOL    HW131076   1.524   4.412  13.284  3.5888 -0.6137 -0.6284
 6539SOL    HW231077   1.448   4.533  13.222  0.2478 -0.1164 -1.0837
 6540SOL     OW31078   1.117   4.718   2.718  0.1934 -0.2899  0.5776
 6540SOL    HW131079   1.033   0.032   2.695 -0.1442 -1.4930 -0.1660
 6540SOL    HW231080   1.182   0.045   2.669 -0.0701 -1.0262 -0.5312
 6541SOL     OW31081   1.541   2.144   9.633  0.0091 -0.4484  0.2627
 6541SOL    HW131082   1.538   2.049   9.631 -0.3368 -0.4828  2.5044
 6541SOL    HW231083   1.538   2.166   9.726 -0.5203 -0.1092  0.1645
 6542SOL     OW31084   4.064   2.292   8.273  0.4600  0.1130  0.2696
 6542SOL    HW131085   4.140   2.248   8.235  1.6182  1.9261  0.5156
 6542SOL    HW231086   4.060   2.255   8.362  0.9803 -4.9085 -1.8177
 6543SOL     OW31087   4.216   4.246   6.307 -0.2306  0.0238 -0.0258
 6543SOL    HW131088   4.129   4.274   6.279 -0.2048 -0.0308 -0.1647
 6543SOL    HW231089   4.256   4.240   6.219  0.4581 -2.3866  0.4485
 6544SOL     OW31090   2.226   1.219   5.385 -0.2783  0.0753 -0.3402
 6544SOL    HW131091   2.274   1.301   5.397  0.5819 -0.2108 -1.8521
 6544SOL    HW231092   2.233   1.201   5.291 -0.1981 -0.5160 -0.2258
 6545SOL     OW31093   2.241   2.439   4.587 -0.2291 -0.0932  0.3109
 6545SOL    HW131094   2.209   2.426   4.498 -3.8861  1.3181  1.3977
 6545SOL    HW231095   2.203   2.525   4.606  0.3765  0.1866  0.2300
 6546SOL     OW31096   4.397   4.473   3.278 -0.5732  0.4722 -0.0499
 6546SOL    HW131097   4.362   4.388   3.253 -1.1299  0.5552  0.4439
 6546SOL    HW231098   4.394   4.466   3.373 -0.3758 -0.7761 -0.1369
 6547SOL     OW31099   1.102   1.225   8.553 -0.6460  0.4154  0.0946
 6547SOL    HW131100   1.143   1.249   8.469  1.2515 -1.0824  0.5941
 6547SOL    HW231101   1.150   1.274   8.620 -1.8110  0.6468  0.7434
 6548SOL     OW31102   3.104   0.898  14.944  0.0667  0.1237  0.2971
 6548SOL    HW131103   3.048   0.865  14.873 -1.8051  0.0420  1.7989
 6548SOL    HW231104   3.180   0.841  14.937 -0.4217 -0.7139  1.6648
 6549SOL     OW31105   4.176   2.884   1.529  0.0672 -0.1297 -0.7578
 6549SOL    HW131106   4.105   2.933   1.488 -0.4089 -0.6584 -0.5681
 6549SOL    HW231107   4.166   2.907   1.621 -3.8402 -0.8016 -1.0203
 6550SOL     OW31108   4.607   3.563   5.335  0.3755 -0.0092  1.0212
 6550SOL    HW131109   4.588   3.647   5.295  2.1477  0.4579  1.1591
 6550SOL    HW231110   4.669   3.593   5.401 -2.0838  0.5309  3.0766
 6551SOL     OW31111   2.701   0.206   2.381  0.6238 -0.0574  0.3024
 6551SOL    HW131112   2.720   0.266   2.453 -1.1198 -0.7822  1.3856
 6551SOL    HW231113   2.777   0.231   2.330  0.3138  0.8496  0.2857
 6552SOL     OW31114   1.094   0.054   8.198  0.1450 -0.4896 -0.4408
 6552SOL    HW131115   1.155   4.704   8.198 -0.6375 -1.1209  0.9880
 6552SOL    HW231116   1.072   0.040   8.106 -0.9071  0.2241 -0.2906
 6553SOL     OW31117   3.944   4.693   6.660 -0.1745  0.6068 -0.1486
 6553SOL    HW131118   3.895   4.612   6.675 -0.7370  1.3101  1.9546
 6553SOL    HW231119   4.031   4.655   6.667 -0.2915 -0.4710 -4.5715
 6554SOL     OW31120   1.892   4.418  17.009 -0.5047 -0.6081 -0.3537
 6554SOL    HW131121   1.913   4.507  16.982 -2.2795 -0.9516 -2.8985
 6554SOL    HW231122   1.804   4.434  17.045 -0.5546 -1.7629  0.0366
 6555SOL     OW31123   0.357   4.439   9.592  0.3908  0.1739 -0.2607
 6555SOL    HW131124   0.401   4.499   9.652 -1.0809 -0.7968  1.7949
 6555SOL    HW231125   0.422   4.369   9.595  0.8314  0.5462 -1.0364
 6556SOL     OW31126   3.886   1.416   6.737 -0.3003 -0.8482 -0.2712
 6556SOL    HW131127   3.959   1.452   6.686  0.0410 -0.1283  0.7088
 6556SOL    HW231128   3.842   1.376   6.662 -0.5690  0.9758 -1.0796
 6557SOL     OW31129   1.880   0.946   3.498  0.0175 -0.5067 -0.0195
 6557SOL    HW131130   1.855   0.947   3.406 -0.2777 -0.3607  0.0647
 6557SOL    HW231131   1.863   0.854   3.519 -0.3074 -0.5187 -0.3401
 6558SOL     OW31132   1.969   0.926   1.327 -0.2846  0.5552  1.2500
 6558SOL    HW131133   2.058   0.944   1.298 -0.7478  0.5605 -0.1826
 6558SOL    HW231134   1.963   0.975   1.409 -0.2847  3.1221 -0.2896
 6559SOL     OW31135   1.608   0.643   7.538 -0.0954  0.2404 -0.4211
 6559SOL    HW131136   1.548   0.703   7.494  0.2604  0.7673 -0.1786
 6559SOL    HW231137   1.605   0.573   7.472 -1.5787  1.2101 -1.3764
 6560SOL     OW31138   4.295   1.125   2.561  0.2150 -0.2907 -0.0326
 6560SOL    HW131139   4.336   1.042   2.539 -0.4696 -0.3325 -1.1272
 6560SOL    HW231140   4.223   1.082   2.608  0.3835  2.3479  2.6620
 6561SOL     OW31141   2.899   1.993   0.741 -0.1924 -0.1930  0.6394
 6561SOL    HW131142   2.834   2.062   0.758  0.0755 -0.0683  1.1646
 6561SOL    HW231143   2.906   2.001   0.646  0.2701 -0.2981  0.6648
 6562SOL     OW31144   1.346   4.024   2.973 -0.1821  0.3392 -0.1868
 6562SOL    HW131145   1.253   4.019   2.955 -0.4104  0.8809  0.8095
 6562SOL    HW231146   1.369   4.069   2.892  0.2425 -1.5341 -1.0970
 6563SOL     OW31147   0.919   4.679   9.190 -0.5809  0.2396 -0.1111
 6563SOL    HW131148   0.953   4.611   9.248  1.4900 -0.0010 -1.5859
 6563SOL    HW231149   0.893   0.025   9.248 -2.1635  0.4616 -1.1052
 6564SOL     OW31150   3.753   0.843   4.982 -0.7656 -0.5730 -0.0075
 6564SOL    HW131151   3.704   0.851   5.063  1.3540  2.7530  0.9387
 6564SOL    HW231152   3.684   0.829   4.917 -0.9669  1.7803 -0.2959
 6565SOL     OW31153   2.264   4.059  13.593  0.5615 -0.5863 -0.1131
 6565SOL    HW131154   2.292   3.985  13.646 -2.1783 -2.9384 -1.9535
 6565SOL    HW231155   2.333   4.068  13.527 -0.2806 -0.6687 -1.0069
 6566SOL     OW31156   0.587   3.466  12.092  0.2562 -0.0873 -0.1326
 6566SOL    HW131157   0.573   3.538  12.031  1.4316  1.7768  1.7879
 6566SOL    HW231158   0.678   3.442  12.073  0.4182  2.4435 -2.4822
 6567SOL     OW31159   3.711   0.957   4.554  0.7426  0.4399  0.4263
 6567SOL    HW131160   3.633   0.919   4.594 -0.1085 -1.4922 -3.1028
 6567SOL    HW231161   3.763   0.991   4.626  1.4006 -1.0566  0.6431
 6568SOL     OW31162   3.428   1.228   4.761  0.0017  0.9444  0.1881
 6568SOL    HW131163   3.413   1.306   4.814  1.4888  1.1748  0.2501
 6568SOL    HW231164   3.360   1.164   4.781  0.7666  0.3513  0.9000
 6569SOL     OW31165   3.325   0.262   5.456  0.0013 -0.5643  0.3866
 6569SOL    HW131166   3.280   0.279   5.539  1.2600 -2.8306  1.5341
 6569SOL    HW231167   3.404   0.220   5.490  0.7324  0.0810 -0.5406
 6570SOL     OW31168   1.623   1.310  12.868  0.3514 -0.6290  0.1280
 6570SOL    HW131169   1.694   1.282  12.926  0.5497  1.7753  1.0763
 6570SOL    HW231170   1.657   1.399  12.853  0.5665 -0.1040  3.8580
 6571SOL     OW31171   0.227   1.215   3.116 -0.1721 -0.2511 -0.0403
 6571SOL    HW131172   0.241   1.227   3.022 -3.4636 -1.3139 -0.6701
 6571SOL    HW231173   0.170   1.291   3.128 -3.2696 -2.3612 -1.4067
 6572SOL     OW31174   1.751   0.482   8.464  0.2732 -0.0855  0.6113
 6572SOL    HW131175   1.747   0.405   8.521 -0.6487 -0.7904 -0.3893
 6572SOL    HW231176   1.846   0.482   8.457  0.3202  1.5756  1.3018
 6573SOL     OW31177   2.892   3.673   5.798  0.3953  0.1318  0.0955
 6573SOL    HW131178   2.800   3.658   5.819  0.3439  0.1846 -0.0964
 6573SOL    HW231179   2.918   3.731   5.870 -0.5558  0.2177  0.3647
 6574SOL     OW31180   4.440   1.115   9.392 -0.3962 -0.3955 -0.0287
 6574SOL    HW131181   4.399   1.030   9.412  0.9834 -0.7718  1.2715
 6574SOL    HW231182   4.523   1.092   9.433 -0.9909  0.8735  1.8696
 6575SOL     OW31183   2.934   1.412   1.623  0.4456 -0.4037  0.2062
 6575SOL    HW131184   2.995   1.474   1.585 -1.3831  0.2661 -1.6569
 6575SOL    HW231185   2.864   1.466   1.661  0.7011 -0.3156  0.5520
 6576SOL     OW31186   0.655   4.568  10.188  0.3208 -0.1343  0.0234
 6576SOL    HW131187   0.749   4.570  10.168  0.1512  1.1592 -0.6191
 6576SOL    HW231188   0.652   4.538  10.279  0.0546  1.5456  0.5553
 6577SOL     OW31189   2.768   0.854   5.808  0.3033  0.1429 -0.2308
 6577SOL    HW131190   2.796   0.945   5.807 -0.5491  0.4241  1.8320
 6577SOL    HW231191   2.825   0.820   5.878  1.2903  1.0584 -0.5965
 6578SOL     OW31192   2.201   3.467   1.575 -0.6654 -0.2381  0.4142
 6578SOL    HW131193   2.162   3.552   1.557 -1.2988 -0.5055  0.4922
 6578SOL    HW231194   2.131   3.408   1.545 -0.8223 -0.0337  0.3806
 6579SOL     OW31195   3.187   2.706   2.236  0.1699 -0.8126  0.9878
 6579SOL    HW131196   3.160   2.795   2.212  0.7543 -0.4151  1.8064
 6579SOL    HW231197   3.204   2.667   2.150  3.3170  2.3953  0.1350
 6580SOL     OW31198   0.872   3.466  11.997 -0.0812 -0.1347 -0.6029
 6580SOL    HW131199   0.964   3.445  12.010 -0.6623 -1.3589  1.5239
 6580SOL    HW231200   0.873   3.561  11.989 -1.3623 -0.1444 -0.9148
 6581SOL     OW31201   1.067   1.100   4.730 -0.4157 -0.6277  0.4016
 6581SOL    HW131202   0.999   1.126   4.668  1.8914  1.4921 -1.2513
 6581SOL    HW231203   1.079   1.179   4.784 -2.7978 -0.0961  0.1412
 6582SOL     OW31204   1.431   1.429   8.045  0.2365 -0.3932 -0.3470
 6582SOL    HW131205   1.429   1.361   7.978 -0.7534 -1.0026  0.2976
 6582SOL    HW231206   1.468   1.502   7.994 -0.5543  0.6076  0.5039
 6583SOL     OW31207   2.530   3.868  16.586  0.3449  0.0015 -0.6295
 6583SOL    HW131208   2.591   3.811  16.539  0.4391 -0.6148  0.2371
 6583SOL    HW231209   2.451   3.814  16.588  0.0116  0.5371  0.7514
 6584SOL     OW31210   1.471   3.280   3.226 -0.1276  0.3821  0.6238
 6584SOL    HW131211   1.466   3.359   3.173  1.3190 -0.3322 -0.6022
 6584SOL    HW231212   1.476   3.310   3.317 -1.0236 -0.8918  1.1032
 6585SOL     OW31213   2.932   2.808  14.670  0.2231 -0.4383 -0.4425
 6585SOL    HW131214   2.883   2.739  14.624 -0.3255 -0.2347 -0.1591
 6585SOL    HW231215   3.007   2.810  14.609 -1.2251  0.9096 -2.1831
 6586SOL     OW31216   3.954   2.319   2.548 -0.6610 -0.1796 -0.1025
 6586SOL    HW131217   4.026   2.372   2.514 -1.2772 -0.0213 -1.1521
 6586SOL    HW231218   3.982   2.308   2.639 -1.9795  0.6261  0.3997
 6587SOL     OW31219   3.916   0.719   8.755  0.0002 -0.5386  0.4264
 6587SOL    HW131220   3.998   0.693   8.712  0.3609 -0.3757  1.0179
 6587SOL    HW231221   3.883   0.630   8.771 -0.9918 -0.4458 -1.1222
 6588SOL     OW31222   0.621   1.490   3.100 -0.4115  0.1018  0.0610
 6588SOL    HW131223   0.672   1.424   3.055 -1.5400 -0.5955 -0.1938
 6588SOL    HW231224   0.567   1.433   3.154  1.6461 -1.5787  0.3426
 6589SOL     OW31225   0.227   0.864   3.288 -0.0777  0.0983 -0.0396
 6589SOL    HW131226   0.299   0.811   3.253  0.2840 -2.0135  3.9714
 6589SOL    HW231227   0.205   0.899   3.201 -0.0938  1.5770  0.5595
 6590SOL     OW31228   1.255   4.462   4.580 -0.3420  0.3188  0.0029
 6590SOL    HW131229   1.323   4.458   4.647  1.3109  1.1144 -1.6058
 6590SOL    HW231230   1.184   4.422   4.629 -2.1007  1.3429 -1.7250
 6591SOL     OW31231   3.174   0.147   6.911 -0.3232 -0.4746 -0.0367
 6591SOL    HW131232   3.146   0.139   7.002 -0.7155 -0.3135 -0.1436
 6591SOL    HW231233   3.087   0.147   6.871 -1.2576 -0.3015  2.0319
 6592SOL     OW31234   0.478   4.460   8.575  0.2977 -0.3772 -0.2605
 6592SOL    HW131235   0.542   4.455   8.646 -2.0075  1.4687  1.9486
 6592SOL    HW231236   0.532   4.488   8.502  0.0666 -0.6836 -0.5514
 6593SOL     OW31237   1.648   0.022   4.987  0.2397 -0.0085  0.3622
 6593SOL    HW131238   1.564   0.050   4.952  0.2360  0.2319  0.5663
 6593SOL    HW231239   1.638   4.652   4.987  1.1893 -0.1150 -0.3801
 6594SOL     OW31240   4.582   3.043  15.341  0.3564  0.0344  0.7442
 6594SOL    HW131241   4.650   2.988  15.380  1.2878 -0.4277 -1.5825
 6594SOL    HW231242   4.621   3.080  15.262 -1.4782  1.9186  0.7143
 6595SOL     OW31243   2.992   3.108  11.998  0.2802 -0.7500  0.1503
 6595SOL    HW131244   2.992   3.172  12.069  0.5544 -2.2279  1.4868
 6595SOL    HW231245   3.076   3.121  11.954  0.0548 -1.7231 -0.5639
 6596SOL     OW31246   1.682   2.384   8.417  0.4504 -0.0413  0.1679
 6596SOL    HW131247   1.745   2.375   8.346  0.7108 -1.1002  0.5453
 6596SOL    HW231248   1.631   2.452   8.371  2.5328  0.9420 -0.6665
 6597SOL     OW31249   3.315   4.095   6.492 -0.0086 -0.5150  0.4097
 6597SOL    HW131250   3.331   4.083   6.585  0.2228 -0.0856  0.4241
 6597SOL    HW231251   3.314   4.190   6.480 -0.9263 -0.3811  1.5712
 6598SOL     OW31252   1.264   0.101   3.934  0.5506  0.1693 -0.3136
 6598SOL    HW131253   1.326   0.029   3.950 -0.1324 -0.7186 -1.7336
 6598SOL    HW231254   1.310   0.170   3.982 -0.9462  2.8859 -2.7798
 6599SOL     OW31255   3.955   4.331   7.876 -0.0048 -0.3370  0.2880
 6599SOL    HW131256   3.869   4.291   7.883 -0.3433  0.3803  0.2528
 6599SOL    HW231257   4.017   4.258   7.881  0.9497  0.6200  2.3599
 6600SOL     OW31258   3.178   2.350  16.353 -0.6827  0.2080 -0.2181
 6600SOL    HW131259   3.202   2.258  16.351 -0.6058  0.2366 -0.5954
 6600SOL    HW231260   3.106   2.347  16.416 -0.5106 -0.2878 -0.0544
 6601SOL     OW31261   4.096   2.706   8.978  0.5052  0.4455 -0.1156
 6601SOL    HW131262   4.025   2.665   9.027 -0.5584  0.5167 -1.5636
 6601SOL    HW231263   4.165   2.639   8.978  0.1363  0.0505 -1.7294
 6602SOL     OW31264   0.645   0.029   1.132 -0.3111 -0.1782  0.3438
 6602SOL    HW131265   0.577   4.687   1.118 -0.2587 -0.6528  2.3581
 6602SOL    HW231266   0.690   0.018   1.048  1.5054 -1.9341  1.5478
 6603SOL     OW31267   2.516   4.568   5.905  0.2487 -0.3595  0.2418
 6603SOL    HW131268   2.501   4.660   5.887  0.3755 -0.4101 -0.1275
 6603SOL    HW231269   2.509   4.529   5.818 -1.3862  1.7941 -0.5589
 6604SOL     OW31270   4.059   2.730  10.976  0.2209 -0.0787  0.1460
 6604SOL    HW131271   4.005   2.776  10.911  0.2783 -0.8364 -0.4416
 6604SOL    HW231272   4.009   2.745  11.056 -1.1162 -0.0955 -0.6892
 6605SOL     OW31273   3.844   4.073   7.446  0.3187  0.1807 -0.0755
 6605SOL    HW131274   3.939   4.087   7.447  0.5950 -1.7896 -0.1951
 6605SOL    HW231275   3.814   4.164   7.440  0.4584  0.1815 -0.6879
 6606SOL     OW31276   0.519   4.418   2.636 -0.1244  0.0677  0.4902
 6606SOL    HW131277   0.502   4.324   2.633 -0.6630  0.1764  0.0398
 6606SOL    HW231278   0.546   4.438   2.546 -1.5532 -1.1547 -0.2085
 6607SOL     OW31279   0.648   4.387   4.331 -0.2105 -0.0739 -0.0579
 6607SOL    HW131280   0.698   4.325   4.278  0.9405 -0.6336  1.6991
 6607SOL    HW231281   0.691   4.472   4.323  0.7109 -0.5868 -0.5593
 6608SOL     OW31282   0.089   3.283   2.825  0.0357  0.0079 -0.2453
 6608SOL    HW131283   0.090   3.369   2.783  1.3691  0.3689  0.5269
 6608SOL    HW231284   0.181   3.276   2.851 -0.2428  3.8211  1.7351
 6609SOL     OW31285   1.539   3.537   8.078  0.1909  0.3808  0.1053
 6609SOL    HW131286   1.540   3.613   8.019 -0.3016 -1.6683 -2.5549
 6609SOL    HW231287   1.549   3.584   8.161  1.6625  1.8905 -0.9095
 6610SOL     OW31288   1.945   2.298   3.428 -0.1103  0.3827 -0.7418
 6610SOL    HW131289   1.925   2.385   3.462 -1.1182  0.0831 -0.5691
 6610SOL    HW231290   1.854   2.270   3.421  0.2157 -1.0217  0.5456
 6611SOL     OW31291   4.037   4.516   0.227 -0.7200  0.1353 -0.0832
 6611SOL    HW131292   3.978   4.591   0.219 -2.8669 -1.8353 -3.0068
 6611SOL    HW231293   4.081   4.528   0.142 -0.4362 -2.1283 -0.2633
 6612SOL     OW31294   2.246   1.481   6.912  0.0368  0.0713 -0.9688
 6612SOL    HW131295   2.296   1.442   6.984  0.0643 -1.7099 -1.9647
 6612SOL    HW231296   2.294   1.469   6.830  0.8216  0.5195 -0.5762
 6613SOL     OW31297   4.343   4.155  15.898 -0.4327 -0.0641 -0.2258
 6613SOL    HW131298   4.333   4.138  15.992 -1.8349 -2.7104 -0.8773
 6613SOL    HW231299   4.328   4.250  15.891  0.7755  0.2704  1.5794
 6614SOL     OW31300   0.784   1.746  15.742 -0.1613 -0.3102 -0.1670
 6614SOL    HW131301   0.762   1.694  15.820 -3.5470  1.3930  0.0262
 6614SOL    HW231302   0.855   1.698  15.700  1.3411  1.3952  0.4561
 6615SOL     OW31303   0.358   1.190  13.688  0.3280 -0.2051  0.0342
 6615SOL    HW131304   0.357   1.227  13.776  1.8368  0.0525 -0.0514
 6615SOL    HW231305   0.413   1.249  13.635 -2.1246  1.8498 -0.2389
 6616SOL     OW31306   1.040   2.558   1.100  0.0603 -0.4149 -0.3524
 6616SOL    HW131307   1.056   2.536   1.192  0.3215  1.4672  0.0466
 6616SOL    HW231308   1.099   2.496   1.058 -0.2030 -0.0622 -1.2402
 6617SOL     OW31309   4.618   4.001  11.534  0.1639 -0.1961  0.5656
 6617SOL    HW131310   4.705   4.033  11.560  0.1920  0.1171  0.0804
 6617SOL    HW231311   4.571   4.019  11.615 -1.4030 -1.7520 -0.0059
 6618SOL     OW31312   2.714   2.566   2.781  0.1353 -0.0113 -0.4605
 6618SOL    HW131313   2.781   2.543   2.717  2.3653 -0.8673  2.2149
 6618SOL    HW231314   2.769   2.599   2.852 -0.2987  0.2985 -0.2675
 6619SOL     OW31315   3.874   2.956   6.334  0.0024  0.1599  0.4724
 6619SOL    HW131316   3.807   2.989   6.393  1.8339  0.3541  2.4285
 6619SOL    HW231317   3.833   2.973   6.249  0.6572 -0.4076  0.0421
 6620SOL     OW31318   3.599   0.807   1.211  0.0098 -0.0206 -0.6986
 6620SOL    HW131319   3.660   0.780   1.143  1.5293 -1.0771  1.0926
 6620SOL    HW231320   3.663   0.843   1.272 -1.4494 -0.9624  1.4100
 6621SOL     OW31321   3.767   0.530  11.357  0.1154  0.8158  0.1082
 6621SOL    HW131322   3.704   0.546  11.428  0.2540  2.8603 -0.2289
 6621SOL    HW231323   3.727   0.589  11.292 -0.5482  1.8579  1.4660
 6622SOL     OW31324   0.283   2.624   0.669 -0.5697 -0.6600 -0.8541
 6622SOL    HW131325   0.299   2.716   0.687  1.6347 -1.4124  1.1181
 6622SOL    HW231326   0.364   2.602   0.623 -0.0383 -1.4395  0.4517
 6623SOL     OW31327   3.574   3.104   5.479 -0.0654  0.1427 -0.1497
 6623SOL    HW131328   3.534   3.163   5.414 -2.0231  1.2579  2.0904
 6623SOL    HW231329   3.648   3.158   5.507 -0.1379  0.2804 -0.2277
 6624SOL     OW31330   1.525   0.388  10.462  0.1985 -0.1402 -0.2276
 6624SOL    HW131331   1.599   0.431  10.506 -1.2309  0.4458  1.5990
 6624SOL    HW231332   1.496   0.464  10.412  1.4255  0.0298 -0.6849
 6625SOL     OW31333   3.285   0.616   1.143 -0.2469 -0.2470  0.4866
 6625SOL    HW131334   3.313   0.700   1.180  1.1847  0.9944 -3.3953
 6625SOL    HW231335   3.190   0.610   1.152 -0.4148  1.4470 -0.0127
 6626SOL     OW31336   0.408   2.998   3.920  0.1846  0.5766 -0.0527
 6626SOL    HW131337   0.368   2.927   3.870 -1.6976  1.6731 -0.1398
 6626SOL    HW231338   0.377   2.982   4.009  2.7387 -2.6761  0.2227
 6627SOL     OW31339   3.413   3.244   4.016 -0.3336 -0.2217 -0.2087
 6627SOL    HW131340   3.371   3.312   4.068 -0.1944 -1.4530  1.4973
 6627SOL    HW231341   3.341   3.182   4.007  0.1650 -0.8048 -0.1244
 6628SOL     OW31342   1.153   2.411   1.671  0.0427 -0.4462  0.3233
 6628SOL    HW131343   1.244   2.430   1.697  0.4552  1.6816 -2.7182
 6628SOL    HW231344   1.111   2.492   1.699  2.1321  0.7683 -0.0673
 6629SOL     OW31345   2.359   4.519   1.899  0.3176 -0.0159  0.3379
 6629SOL    HW131346   2.366   4.535   1.993  1.0605 -0.0981  0.2913
 6629SOL    HW231347   2.451   4.522   1.876  0.0255 -0.8729 -0.9156
 6630SOL     OW31348   2.656   2.016   8.694 -0.2408 -0.1392  0.0896
 6630SOL    HW131349   2.750   2.019   8.678 -0.6191  2.8586 -1.4402
 6630SOL    HW231350   2.642   2.100   8.739 -0.7052 -0.3200  0.2867
 6631SOL     OW31351   1.613   3.765  10.121 -0.4774 -0.1376 -0.1339
 6631SOL    HW131352   1.670   3.697  10.157 -1.3786 -0.6493  0.3286
 6631SOL    HW231353   1.528   3.722  10.113 -0.1927 -0.1720 -3.0321
 6632SOL     OW31354   2.799   2.061  13.581 -0.1498  0.0387 -0.5770
 6632SOL    HW131355   2.790   1.974  13.543 -4.0384 -0.2997  1.1185
 6632SOL    HW231356   2.891   2.049  13.604  0.6140  0.9099 -3.1797
 6633SOL     OW31357   0.864   4.393  11.855  0.1632  0.0985 -0.0254
 6633SOL    HW131358   0.919   4.337  11.800 -0.9464 -0.8818 -0.1424
 6633SOL    HW231359   0.903   4.393  11.942  1.2273 -2.5636 -0.5112
 6634SOL     OW31360   3.295   0.729   6.244  0.0887 -0.0771 -0.2218
 6634SOL    HW131361   3.212   0.682   6.249  0.6130 -1.1232 -1.2650
 6634SOL    HW231362   3.349   0.654   6.269  0.2971 -0.0800 -0.6739
 6635SOL     OW31363   1.238   3.975   5.552 -0.3593  0.0636 -0.2754
 6635SOL    HW131364   1.269   3.887   5.531 -1.9383 -0.0016 -2.2538
 6635SOL    HW231365   1.249   4.021   5.469 -2.9237  1.8559  0.4007
 6636SOL     OW31366   0.247   1.146   1.250 -0.1857 -0.2518 -0.2561
 6636SOL    HW131367   0.298   1.099   1.184  1.9515  1.8542 -0.0772
 6636SOL    HW231368   0.305   1.129   1.324  1.7341  0.4451 -1.6042
 6637SOL     OW31369   1.755   1.450  10.478 -0.0986 -0.2780  0.0609
 6637SOL    HW131370   1.754   1.518  10.411  1.3726  0.5406  0.8649
 6637SOL    HW231371   1.811   1.387  10.433  0.7380  2.4220 -2.6445
 6638SOL     OW31372   0.127   2.580   2.847  0.2139 -0.0663  0.0821
 6638SOL    HW131373   0.181   2.598   2.923 -0.8141 -1.8913  1.2513
 6638SOL    HW231374   0.192   2.535   2.792  1.1222 -0.7934  1.7518
 6639SOL     OW31375   2.153   0.799  16.500 -0.0793  0.1238 -0.4141
 6639SOL    HW131376   2.207   0.853  16.442 -0.2121  2.4286  1.6078
 6639SOL    HW231377   2.109   0.869  16.548 -1.1520  1.2452 -3.0490
 6640SOL     OW31378   0.246   0.777   4.191 -0.1339 -0.3800  0.3885
 6640SOL    HW131379   0.195   0.749   4.267 -0.2226  0.9078  0.8032
 6640SOL    HW231380   0.186   0.830   4.138 -2.0957  0.9729  3.9576
 6641SOL     OW31381   2.280   2.195   9.197 -0.2103  0.0503  0.2566
 6641SOL    HW131382   2.374   2.198   9.182 -0.0098  0.4133  1.5681
 6641SOL    HW231383   2.254   2.107   9.170 -1.7073  1.4666 -2.9410
 6642SOL     OW31384   1.361   3.882   5.259  0.1773 -0.6601 -0.9335
 6642SOL    HW131385   1.430   3.948   5.260 -0.9825  0.4798  2.3422
 6642SOL    HW231386   1.370   3.836   5.343  0.8489 -0.1487 -0.7267
 6643SOL     OW31387   4.038   3.226  11.048  0.3910 -0.0041  0.1212
 6643SOL    HW131388   3.953   3.222  11.003 -0.7959  1.4288  2.2701
 6643SOL    HW231389   4.051   3.145  11.097 -0.1283  0.1892  0.5813
 6644SOL     OW31390   4.125   0.147  10.448 -0.0151 -0.4530 -0.6884
 6644SOL    HW131391   4.100   0.158  10.356  2.5653 -0.7234 -1.4132
 6644SOL    HW231392   4.072   0.217  10.487  2.8872  1.6354 -0.4271
 6645SOL     OW31393   1.364   0.361  15.343  0.0105 -0.2700 -0.2387
 6645SOL    HW131394   1.293   0.297  15.340 -0.8525  0.7648 -1.8421
 6645SOL    HW231395   1.389   0.366  15.250  0.6234  1.4552  0.0269
 6646SOL     OW31396   1.220   3.637  13.992  0.1038  0.2137 -0.3193
 6646SOL    HW131397   1.167   3.666  14.067  3.3442 -1.1394  2.4817
 6646SOL    HW231398   1.167   3.638  13.912  0.5613  0.9835 -0.6147
 6647SOL     OW31399   1.862   3.584   9.478  0.8724 -0.3235 -0.3059
 6647SOL    HW131400   1.827   3.510   9.429  2.8949 -1.7749  0.4468
 6647SOL    HW231401   1.791   3.647   9.466  1.5908  1.1092  2.9788
 6648SOL     OW31402   3.070   2.925   8.707 -0.1368  0.0687 -0.1757
 6648SOL    HW131403   3.000   2.880   8.756 -0.8605  1.9793  0.5711
 6648SOL    HW231404   3.029   3.010   8.689  0.6481  0.2107 -1.3112
 6649SOL     OW31405   3.874   3.100   2.774 -0.5270  0.0826 -0.0752
 6649SOL    HW131406   3.801   3.159   2.787  1.4870  2.5196  0.1889
 6649SOL    HW231407   3.840   3.014   2.799  1.6351 -0.5584  0.6801
 6650SOL     OW31408   0.126   1.107   9.005  0.4658 -0.0696  0.4391
 6650SOL    HW131409   0.188   1.178   8.989  0.1357 -0.0157 -0.5975
 6650SOL    HW231410   0.079   1.115   8.922  0.1202  0.6236  0.6975
 6651SOL     OW31411   2.951   0.939  15.177 -0.4825 -0.4140  0.6062
 6651SOL    HW131412   2.997   0.984  15.248  1.6371 -0.1290 -0.9665
 6651SOL    HW231413   3.011   0.939  15.103 -0.4416 -0.8807  0.6392
 6652SOL     OW31414   3.307   1.555  10.291 -0.0456  0.2630  0.3293
 6652SOL    HW131415   3.300   1.476  10.345 -3.2412  0.0678 -0.3312
 6652SOL    HW231416   3.311   1.624  10.357 -0.1104  1.1173 -0.5554
 6653SOL     OW31417   3.593   3.117   8.514  0.1466  0.5540  0.3070
 6653SOL    HW131418   3.603   3.148   8.425  0.2059 -0.9464 -0.2180
 6653SOL    HW231419   3.682   3.082   8.527 -0.2199 -0.5407 -0.0942
 6654SOL     OW31420   2.033   0.637  10.596  0.0503  0.8982  0.4321
 6654SOL    HW131421   1.954   0.587  10.576  1.0343 -1.3837  2.2847
 6654SOL    HW231422   2.085   0.577  10.542  2.2365  2.1945  1.1104
 6655SOL     OW31423   3.260   3.085   5.306 -0.0703  0.8746  0.5786
 6655SOL    HW131424   3.264   3.180   5.295  0.8953  0.8583  0.7269
 6655SOL    HW231425   3.170   3.073   5.275  1.1363  1.1970 -3.0631
 6656SOL     OW31426   1.595   1.040   6.887 -0.4464 -0.1437  0.3653
 6656SOL    HW131427   1.638   1.066   6.968  1.2246  3.5373 -1.6992
 6656SOL    HW231428   1.660   1.070   6.824 -1.7098  0.6815 -0.5308
 6657SOL     OW31429   3.490   3.853   1.829 -0.2648  0.0275 -0.0354
 6657SOL    HW131430   3.484   3.830   1.736  0.7334  3.0502 -0.8538
 6657SOL    HW231431   3.583   3.847   1.852 -0.2629 -0.6589 -0.2242
 6658SOL     OW31432   3.299   0.667   4.239 -0.1788  0.6402  0.2042
 6658SOL    HW131433   3.284   0.662   4.145  2.3710 -1.2267 -0.1098
 6658SOL    HW231434   3.289   0.577   4.271  0.3092  0.1868 -0.9291
 6659SOL     OW31435   3.588   0.200   2.721  0.2836  0.3820  0.1208
 6659SOL    HW131436   3.501   0.172   2.691  0.2114 -3.1697  3.7662
 6659SOL    HW231437   3.571   0.251   2.800  1.3825  1.7548 -0.5129
 6660SOL     OW31438   0.892   3.394   0.100  0.1605 -0.1908  0.6421
 6660SOL    HW131439   0.981   3.428   0.091  0.4394 -0.4559  2.3291
 6660SOL    HW231440   0.907   3.302   0.123 -0.1951 -0.3097  0.3930
 6661SOL     OW31441   0.474   2.250   9.752 -0.2765 -0.4530 -0.0161
 6661SOL    HW131442   0.507   2.331   9.714 -1.7892  0.4372  0.5924
 6661SOL    HW231443   0.479   2.273   9.844 -1.6135  2.0565 -0.5928
 6662SOL     OW31444   2.044   2.955   2.474  0.0543 -0.3295 -0.4531
 6662SOL    HW131445   2.125   2.913   2.501  0.3312  1.6121  1.7648
 6662SOL    HW231446   2.010   2.993   2.555  0.2518  0.6912 -0.8497
 6663SOL     OW31447   0.354   1.563  16.575 -0.2816 -0.1528 -0.5987
 6663SOL    HW131448   0.266   1.575  16.538 -0.4585 -2.8254 -1.0982
 6663SOL    HW231449   0.393   1.649  16.560  0.7919 -0.4636  0.4037
 6664SOL     OW31450   1.664   4.191  16.081  0.3655 -0.6048  0.5850
 6664SOL    HW131451   1.681   4.193  16.175 -3.2093  1.9281  1.1957
 6664SOL    HW231452   1.602   4.263  16.073  2.1562  0.7188 -1.2920
 6665SOL     OW31453   2.590   3.924   2.070  0.0393  0.0602 -0.0510
 6665SOL    HW131454   2.534   3.958   2.140  0.5486  1.3576 -0.2676
 6665SOL    HW231455   2.517   3.883   2.025 -1.4754  1.5298  1.0382
 6666SOL     OW31456   1.340   0.226   8.751  0.1927 -0.5793 -0.6495
 6666SOL    HW131457   1.338   0.215   8.846  2.6733  1.0072 -0.4298
 6666SOL    HW231458   1.250   0.249   8.729  0.1528  0.1526  0.2836
 6667SOL     OW31459   0.313   2.504   5.069 -0.1811 -0.3390  0.6849
 6667SOL    HW131460   0.345   2.594   5.063  1.2475 -0.7954  1.4127
 6667SOL    HW231461   0.226   2.515   5.032  0.8252 -0.1041 -1.6037
 6668SOL     OW31462   0.202   2.095   8.142  0.4088 -0.6371 -0.5543
 6668SOL    HW131463   0.252   2.046   8.207  1.9191 -0.2067 -1.4059
 6668SOL    HW231464   0.181   2.023   8.082 -0.0470  0.5345 -1.8037
 6669SOL     OW31465   2.259   0.527   5.770 -0.1602 -0.1579  0.4741
 6669SOL    HW131466   2.189   0.531   5.705  1.5145  2.3619 -1.1830
 6669SOL    HW231467   2.326   0.470   5.731 -1.6392 -2.0806  0.7720
 6670SOL     OW31468   1.253   2.279  12.263 -0.3204 -0.1590 -0.0986
 6670SOL    HW131469   1.316   2.207  12.266  0.8733  0.8685 -0.8546
 6670SOL    HW231470   1.183   2.242  12.318 -0.3066 -2.6202 -1.7475
 6671SOL     OW31471   0.080   2.970   6.579 -0.2442  0.1313  0.3298
 6671SOL    HW131472   0.034   2.995   6.499 -0.3141  0.3651  0.4438
 6671SOL    HW231473   0.061   3.047   6.632  0.3526  2.4103 -2.7574
 6672SOL     OW31474   0.854   3.803   5.674  0.2274 -0.4415 -0.0962
 6672SOL    HW131475   0.873   3.865   5.604 -4.3863 -0.0689 -1.0250
 6672SOL    HW231476   0.780   3.836   5.725  0.5504 -0.4611  0.3877
 6673SOL     OW31477   2.609   3.931   1.620 -0.5791 -0.2779 -0.1348
 6673SOL    HW131478   2.522   3.956   1.652 -1.4554 -2.3092 -0.9326
 6673SOL    HW231479   2.666   3.926   1.696 -2.0221  1.3582  1.0547
 6674SOL     OW31480   3.694   0.349   4.554  0.0629  0.0999  0.5133
 6674SOL    HW131481   3.740   0.311   4.629  0.4860  0.8604  0.6405
 6674SOL    HW231482   3.706   0.444   4.560 -1.5169  0.2628  0.9925
 6675SOL     OW31483   3.633   1.415   6.235 -0.2482  0.0080  0.6143
 6675SOL    HW131484   3.605   1.357   6.164 -1.1670 -0.1218  1.0852
 6675SOL    HW231485   3.705   1.468   6.201  0.5391 -1.9689 -0.8373
 6676SOL     OW31486   1.637   1.250  10.010  0.4861  0.4099  0.0565
 6676SOL    HW131487   1.713   1.239   9.953 -1.3725 -0.4884 -2.2570
 6676SOL    HW231488   1.594   1.165  10.003  1.1218  0.2037 -1.4178
 6677SOL     OW31489   3.712   3.818   7.360 -0.1535  0.5215 -0.2435
 6677SOL    HW131490   3.679   3.742   7.407 -1.2974  1.2537  0.1352
 6677SOL    HW231491   3.679   3.896   7.407 -1.5829  0.8062 -1.7345
 6678SOL     OW31492   0.610   0.781   2.059  0.7684  0.1999 -0.2476
 6678SOL    HW131493   0.551   0.720   2.104  2.0925 -0.6334  0.3833
 6678SOL    HW231494   0.606   0.851   2.124 -2.2414 -1.3091  1.2029
 6679SOL     OW31495   3.431   1.473   3.649 -0.3142  0.3595  0.3815
 6679SOL    HW131496   3.380   1.554   3.650 -0.5930  0.1855  0.1609
 6679SOL    HW231497   3.513   1.492   3.604 -0.8709  1.1967 -0.2765
 6680SOL     OW31498   0.435   2.996   4.773 -0.0999  0.0777 -0.0982
 6680SOL    HW131499   0.350   2.951   4.779  0.8499 -1.6484  0.3396
 6680SOL    HW231500   0.451   2.997   4.678  1.5043  1.6192  0.1825
 6681SOL     OW31501   1.396   0.016   2.053 -0.2796  0.3178  0.2358
 6681SOL    HW131502   1.411   0.051   1.965  3.1564 -1.6121  0.0715
 6681SOL    HW231503   1.480   4.696   2.058 -1.0388 -1.0610  0.5120
 6682SOL     OW31504   3.949   1.481  16.984 -0.7942  0.1769 -0.2554
 6682SOL    HW131505   3.992   1.460  17.066 -1.0007  1.5990  0.2260
 6682SOL    HW231506   4.004   1.429  16.925  0.3035  1.2873 -0.2277
 6683SOL     OW31507   4.488   0.602   7.607  0.1843  0.1929 -0.7108
 6683SOL    HW131508   4.453   0.647   7.530  0.4314  1.6459  0.0213
 6683SOL    HW231509   4.546   0.536   7.571 -0.4081 -1.6533  1.7248
 6684SOL     OW31510   4.249   0.504   2.483 -0.0950 -0.2630  0.5407
 6684SOL    HW131511   4.194   0.429   2.459 -1.0188  0.2230  1.1364
 6684SOL    HW231512   4.220   0.518   2.573 -0.8351  1.4920  0.0272
 6685SOL     OW31513   2.042   0.870   7.416  0.2182 -0.2833  0.0566
 6685SOL    HW131514   1.998   0.826   7.489 -1.2388 -0.8158 -1.1383
 6685SOL    HW231515   2.041   0.803   7.347 -2.0743 -0.6015  0.3827
 6686SOL     OW31516   3.440   2.886   4.591  0.1570 -0.3044 -0.2323
 6686SOL    HW131517   3.431   2.978   4.563  0.7567 -0.8642 -2.2838
 6686SOL    HW231518   3.355   2.880   4.634 -0.4816  0.4778 -1.3560
 6687SOL     OW31519   3.316   3.842  17.442 -0.0391  0.1334 -0.3365
 6687SOL    HW131520   3.364   3.803  17.516  0.6701  0.8372 -0.4208
 6687SOL    HW231521   3.307   3.769  17.381 -1.5293  0.7864 -0.8919
 6688SOL     OW31522   4.722   0.253  14.801  0.8690  0.5802  0.1458
 6688SOL    HW131523   0.085   0.227  14.769  0.2365 -1.1503 -0.2086
 6688SOL    HW231524   4.668   0.257  14.722  0.3321 -0.8117  0.4459
 6689SOL     OW31525   4.444   2.908   8.526 -0.0140 -0.3947  0.2462
 6689SOL    HW131526   4.456   3.002   8.528 -0.3308 -0.3925  1.8987
 6689SOL    HW231527   4.508   2.872   8.465  0.4993 -2.5793  2.0562
 6690SOL     OW31528   2.676   4.141   6.734 -0.0504  0.2540 -0.5601
 6690SOL    HW131529   2.716   4.175   6.814  2.1195  1.5586 -2.2477
 6690SOL    HW231530   2.709   4.209   6.677 -1.0801 -0.7372 -2.3290
 6691SOL     OW31531   2.537   2.373   4.945  0.3707  0.3292 -0.2929
 6691SOL    HW131532   2.595   2.306   4.982  1.8181  2.2217  0.8481
 6691SOL    HW231533   2.507   2.340   4.860  0.0253 -0.2758  0.0660
 6692SOL     OW31534   0.176   0.518   3.518 -0.3515 -0.6128 -0.0468
 6692SOL    HW131535   0.131   0.446   3.473 -0.1841 -0.5171 -0.3680
 6692SOL    HW231536   0.267   0.506   3.491 -0.3427 -0.0551 -0.2850
 6693SOL     OW31537   0.482   0.343   8.066  0.1855 -0.0753 -0.1209
 6693SOL    HW131538   0.463   0.252   8.088  0.6916  0.0671  0.9002
 6693SOL    HW231539   0.531   0.330   7.985  1.3131  0.2049  0.5206
 6694SOL     OW31540   4.319   3.903   6.603 -0.6915 -0.3008  0.0238
 6694SOL    HW131541   4.392   3.851   6.636 -0.4635  0.8307  1.2898
 6694SOL    HW231542   4.364   3.977   6.562 -0.1553  0.3100  1.7155
 6695SOL     OW31543   0.993   1.112   6.109 -0.1640  0.3811 -0.1836
 6695SOL    HW131544   0.970   1.019   6.098 -2.9483  0.9376  0.8512
 6695SOL    HW231545   0.979   1.132   6.017  0.4770 -0.2171 -0.4077
 6696SOL     OW31546   4.181   3.151  10.842  0.2597  0.4508 -0.4682
 6696SOL    HW131547   4.207   3.066  10.878 -2.6590 -0.6337 -0.9253
 6696SOL    HW231548   4.151   3.196  10.921  0.7253 -0.5185  0.2615
 6697SOL     OW31549   3.260   1.980   6.755 -0.5157  0.4009  0.5276
 6697SOL    HW131550   3.175   2.014   6.783 -0.9252 -0.5204  0.3930
 6697SOL    HW231551   3.233   1.933   6.676 -1.2763  0.9209  0.4783
 6698SOL     OW31552   0.235   0.411   1.080  0.3973 -0.1071  0.1906
 6698SOL    HW131553   0.249   0.317   1.091 -0.5009 -0.3333 -0.6035
 6698SOL    HW231554   0.321   0.437   1.045  0.0010 -0.1474 -0.8246
 6699SOL     OW31555   1.762   3.960  11.218 -0.3155  0.1575 -0.4070
 6699SOL    HW131556   1.842   3.931  11.174 -1.0901 -0.8896 -1.1402
 6699SOL    HW231557   1.704   3.921  11.153 -0.2260  0.7218 -0.8368
 6700SOL     OW31558   1.604   4.638   2.714  0.1044  0.0325 -0.1704
 6700SOL    HW131559   1.515   4.651   2.746 -0.5947  0.9267 -2.4737
 6700SOL    HW231560   1.613   4.720   2.665  1.2537  0.7332  1.2100
 6701SOL     OW31561   2.398   0.339   4.601  0.1693 -0.1288  0.0074
 6701SOL    HW131562   2.343   0.415   4.618 -0.9293 -1.0790  0.7557
 6701SOL    HW231563   2.442   0.360   4.519 -0.7520  1.2234 -0.1303
 6702SOL     OW31564   1.500   1.637  17.145 -0.1263 -0.4242 -0.2087
 6702SOL    HW131565   1.531   1.553  17.179 -1.1052 -1.0558 -0.8836
 6702SOL    HW231566   1.410   1.618  17.117 -0.1656  2.0118 -1.7559
 6703SOL     OW31567   1.832   0.379  15.844  0.0882  0.6883 -0.0012
 6703SOL    HW131568   1.806   0.431  15.920 -0.5698 -1.0565  0.9783
 6703SOL    HW231569   1.901   0.327  15.885 -0.3004 -0.2018 -0.4859
 6704SOL     OW31570   1.087   3.386   7.588  0.0767  0.4727 -0.0851
 6704SOL    HW131571   1.088   3.348   7.676  0.8546  0.2889 -0.1700
 6704SOL    HW231572   1.122   3.315   7.533  2.9121  3.6896 -2.4303
 6705SOL     OW31573   4.649   3.764   3.076  0.1554  0.3466 -0.2607
 6705SOL    HW131574   4.684   3.811   3.000  0.4322  1.9864  0.8870
 6705SOL    HW231575   4.589   3.698   3.040  1.5645 -1.0782  0.0248
 6706SOL     OW31576   3.151   3.558   4.145  0.1064  0.0602 -0.0769
 6706SOL    HW131577   3.091   3.589   4.213  1.7499  0.7312  1.0740
 6706SOL    HW231578   3.194   3.492   4.198  0.6571  0.2463 -0.2893
 6707SOL     OW31579   1.549   2.941   1.862 -0.6101 -0.2453 -0.4659
 6707SOL    HW131580   1.591   3.024   1.883 -1.7404  0.3640 -0.6738
 6707SOL    HW231581   1.626   2.886   1.845 -0.3232 -0.6175  2.0377
 6708SOL     OW31582   4.621   2.789   3.267 -0.6535  0.4237  0.3158
 6708SOL    HW131583   4.671   2.759   3.343 -0.7405 -1.5961 -0.4160
 6708SOL    HW231584   4.655   2.876   3.246  0.7649 -0.5209 -1.2909
 6709SOL     OW31585   3.215   0.410   1.969  0.3462 -0.7225  0.5503
 6709SOL    HW131586   3.256   0.353   1.904 -0.7750  0.0430 -0.8154
 6709SOL    HW231587   3.293   0.432   2.020 -0.5284 -0.2092  1.6903
 6710SOL     OW31588   3.998   2.466   5.456 -0.0088 -0.0143  0.2250
 6710SOL    HW131589   3.909   2.431   5.469  0.3362 -2.2235 -3.3757
 6710SOL    HW231590   4.008   2.469   5.361 -0.6041 -0.9314  0.1231
 6711SOL     OW31591   1.100   3.717   5.814  0.4099 -0.1673 -0.2180
 6711SOL    HW131592   1.054   3.636   5.831  0.4303 -0.1700 -0.1748
 6711SOL    HW231593   1.029   3.771   5.778  0.7491 -0.6627 -1.6434
 6712SOL     OW31594   1.709   4.111   9.506 -0.9536 -0.2989  0.4403
 6712SOL    HW131595   1.649   4.143   9.574 -0.4736  1.0780  0.2241
 6712SOL    HW231596   1.742   4.029   9.542  0.2559  0.2792  0.6437
 6713SOL     OW31597   1.580   3.609   8.335  0.2887  0.5981  0.1340
 6713SOL    HW131598   1.513   3.628   8.401  0.7900  2.2573  0.1574
 6713SOL    HW231599   1.626   3.544   8.388 -1.1318 -1.1363 -0.7744
 6714SOL     OW31600   0.025   1.177  11.119  0.2882  0.1701  0.0990
 6714SOL    HW131601   0.042   1.091  11.082  1.3949  0.0333  0.9358
 6714SOL    HW231602   0.068   1.163  11.204 -1.1972 -2.0360  0.4652
 6715SOL     OW31603   1.981   2.452   6.444 -0.2110 -0.7844  0.0502
 6715SOL    HW131604   1.888   2.450   6.467 -0.1121 -2.6116  0.3223
 6715SOL    HW231605   2.018   2.457   6.532 -0.9743 -2.6145  0.4872
 6716SOL     OW31606   1.914   1.340   5.566  0.0844  0.2258  0.0045
 6716SOL    HW131607   1.932   1.433   5.548  1.6879 -0.1762 -0.4634
 6716SOL    HW231608   1.866   1.339   5.649  2.1704 -1.1327  1.1731
 6717SOL     OW31609   1.426   2.536   4.280 -0.1185 -0.8776 -0.4606
 6717SOL    HW131610   1.420   2.546   4.185 -1.3600  1.9704 -0.0836
 6717SOL    HW231611   1.335   2.549   4.307  0.5794  3.5355 -0.2484
 6718SOL     OW31612   3.533   3.316   3.141  0.3393 -0.0046 -0.0447
 6718SOL    HW131613   3.517   3.384   3.207  2.5968  1.3370 -0.8495
 6718SOL    HW231614   3.517   3.238   3.194  1.4745 -0.9694 -1.1399
 6719SOL     OW31615   4.239   1.479   3.074  0.5966 -0.0250 -0.2540
 6719SOL    HW131616   4.256   1.574   3.073 -3.6442  0.7199  0.1639
 6719SOL    HW231617   4.245   1.460   2.981  0.8206  2.9633 -0.8675
 6720SOL     OW31618   1.476   4.357  14.110 -0.6330 -0.2289  0.0241
 6720SOL    HW131619   1.505   4.448  14.115 -1.6748  0.1016  0.1880
 6720SOL    HW231620   1.383   4.354  14.135 -0.5628  1.1415  0.4421
 6721SOL     OW31621   2.514   3.018  15.568 -0.1186  0.0560 -0.7821
 6721SOL    HW131622   2.524   2.965  15.646  1.9301  0.1869 -0.9412
 6721SOL    HW231623   2.606   3.039  15.552 -0.6148  1.7652 -1.3990
 6722SOL     OW31624   3.812   0.586  15.005  0.3242  0.2858  0.3064
 6722SOL    HW131625   3.750   0.545  15.066  1.2802 -1.9835 -0.2439
 6722SOL    HW231626   3.753   0.614  14.935 -0.8357  1.1992  1.6481
 6723SOL     OW31627   3.360   0.985  10.959  0.0569  0.0621 -0.5926
 6723SOL    HW131628   3.344   0.999  11.052  2.5159 -2.1743  0.1388
 6723SOL    HW231629   3.350   0.890  10.963 -3.2354  0.3629 -1.3451
 6724SOL     OW31630   4.132   2.887   3.294 -0.0138  0.1780  0.0668
 6724SOL    HW131631   4.123   2.952   3.364 -0.9798 -1.6338  1.6396
 6724SOL    HW231632   4.225   2.893   3.273  0.1342 -2.9834 -0.1211
 6725SOL     OW31633   4.162   1.846   8.984  0.0134 -0.0389 -0.4623
 6725SOL    HW131634   4.113   1.764   8.998  1.7407 -1.2364 -1.4079
 6725SOL    HW231635   4.101   1.900   8.934  1.4447  1.3050 -0.7392
 6726SOL     OW31636   3.934   0.912   9.488 -0.7744 -0.4258 -0.0927
 6726SOL    HW131637   3.973   0.926   9.402 -0.0424  0.2474  0.3562
 6726SOL    HW231638   3.920   0.818   9.473 -0.5544 -0.4139 -0.3633
 6727SOL     OW31639   4.026   1.154  13.004 -0.0352 -0.0580 -0.2139
 6727SOL    HW131640   3.985   1.239  13.015 -0.8498 -0.4898  0.0273
 6727SOL    HW231641   4.112   1.188  12.979  0.4964 -1.2235  0.0263
 6728SOL     OW31642   3.005   3.523   5.148 -0.4383 -0.3101  0.2943
 6728SOL    HW131643   2.964   3.544   5.232 -0.5707 -1.7341  0.5889
 6728SOL    HW231644   2.925   3.526   5.096 -1.6819 -2.7187  2.0813
 6729SOL     OW31645   3.752   0.725  16.646 -0.8890  0.1372  0.4419
 6729SOL    HW131646   3.815   0.710  16.576 -1.4356 -0.2242  0.0225
 6729SOL    HW231647   3.693   0.650  16.639 -2.3355  0.8915  4.4119
 6730SOL     OW31648   3.501   4.236   4.464 -0.3703 -0.0807 -0.2016
 6730SOL    HW131649   3.554   4.212   4.388  1.4876 -1.1137  1.4263
 6730SOL    HW231650   3.575   4.222   4.523 -1.3657  0.4079  1.1772
 6731SOL     OW31651   2.684   3.122   4.563 -0.3972  0.5275  0.4568
 6731SOL    HW131652   2.588   3.116   4.567 -0.3902 -0.0306 -0.2307
 6731SOL    HW231653   2.708   3.058   4.496  1.1895  0.9933  0.5937
 6732SOL     OW31654   3.370   4.525  14.990 -0.1548  0.1692  0.3152
 6732SOL    HW131655   3.389   4.517  15.083  0.1620  0.4593  0.2772
 6732SOL    HW231656   3.417   4.604  14.963  1.2146 -0.6617  0.2837
 6733SOL     OW31657   2.145   2.269   8.293 -0.4997 -0.4234 -0.1122
 6733SOL    HW131658   2.207   2.334   8.261 -2.0891  0.0331 -2.2357
 6733SOL    HW231659   2.055   2.294   8.273 -0.1368 -0.4275 -1.7272
 6734SOL     OW31660   4.486   1.646  14.462 -0.1652  0.3534 -0.5285
 6734SOL    HW131661   4.421   1.668  14.529  0.4848  2.8955 -0.7656
 6734SOL    HW231662   4.421   1.637  14.392 -0.8438 -0.1451  0.1571
 6735SOL     OW31663   4.657   2.706   6.843  0.5316  0.3426  0.1106
 6735SOL    HW131664   4.599   2.778   6.821  0.4637  0.5098  0.8480
 6735SOL    HW231665   0.015   2.739   6.808  0.5874 -1.6355 -1.6226
 6736SOL     OW31666   4.448   2.499   1.225  0.1511  0.4478  0.0866
 6736SOL    HW131667   4.507   2.488   1.151  1.7255 -2.6876  1.8190
 6736SOL    HW231668   4.438   2.407   1.249 -0.6106  0.6043  0.3780
 6737SOL     OW31669   3.356   1.231  17.064 -0.3943  0.3400 -0.5921
 6737SOL    HW131670   3.372   1.246  17.157  0.8896 -0.1698 -0.7338
 6737SOL    HW231671   3.262   1.248  17.056 -0.7876 -1.5528  0.1686
 6738SOL     OW31672   2.001   1.212   0.309  0.3763 -0.0087  0.1652
 6738SOL    HW131673   1.932   1.243   0.368  1.5764  0.0758  1.5519
 6738SOL    HW231674   2.072   1.272   0.335  0.0724 -0.5704  2.3306
 6739SOL     OW31675   1.883   2.559   7.074  0.1597  0.2166 -0.2488
 6739SOL    HW131676   1.976   2.579   7.078  0.4316 -1.2956  1.2407
 6739SOL    HW231677   1.877   2.507   6.994  2.8369 -0.6888  0.1366
 6740SOL     OW31678   1.921   0.138  10.091 -0.0769 -0.0663  0.0648
 6740SOL    HW131679   1.883   0.073  10.150  0.3661 -1.1373 -0.8528
 6740SOL    HW231680   1.957   0.080  10.024  1.7136  0.4641  0.5707
 6741SOL     OW31681   1.013   3.493  12.866  0.1246 -0.5188 -0.0819
 6741SOL    HW131682   0.957   3.548  12.812  0.4716 -0.3942 -0.3092
 6741SOL    HW231683   0.969   3.408  12.872  1.4905 -1.3118 -1.4118
 6742SOL     OW31684   1.151   1.961   6.007 -0.8429 -0.0938  0.3997
 6742SOL    HW131685   1.208   1.936   5.934  1.9010  1.6009  1.9530
 6742SOL    HW231686   1.060   1.960   5.976 -1.0150  1.1582  0.8361
 6743SOL     OW31687   0.937   4.699   0.686 -0.7475 -0.0302 -1.0446
 6743SOL    HW131688   0.918   0.035   0.614 -0.8519  1.1417 -0.0436
 6743SOL    HW231689   0.881   0.015   0.752 -1.2383 -2.2070 -0.1265
 6744SOL     OW31690   1.663   1.349  11.893  0.0947  0.5370  0.1651
 6744SOL    HW131691   1.591   1.374  11.951  0.8713  2.5818  0.2387
 6744SOL    HW231692   1.627   1.270  11.852  0.8639  0.3302 -0.1102
 6745SOL     OW31693   1.038   3.949   3.405 -0.6158 -0.1394 -0.0544
 6745SOL    HW131694   1.114   4.004   3.387  0.3528 -1.7445 -0.8638
 6745SOL    HW231695   1.067   3.897   3.480 -0.9037 -0.9868 -0.5207
 6746SOL     OW31696   1.812   0.006   9.386  0.2077 -0.0382  0.1067
 6746SOL    HW131697   1.755   4.699   9.455  0.5941 -0.7795  0.0874
 6746SOL    HW231698   1.828   0.092   9.424 -0.3898  0.2751 -0.3475
 6747SOL     OW31699   3.517   4.322   5.303 -0.4340  0.1244 -0.1701
 6747SOL    HW131700   3.476   4.379   5.238  2.1713  0.1442 -1.8156
 6747SOL    HW231701   3.494   4.371   5.382  0.9071 -2.4346  1.8149
 6748SOL     OW31702   3.583   0.445  13.456  0.2809 -0.3830  0.1297
 6748SOL    HW131703   3.490   0.464  13.467  0.0124 -1.3803 -0.5103
 6748SOL    HW231704   3.619   0.534  13.446 -1.2996  0.6227  3.3717
 6749SOL     OW31705   2.867   3.368   8.432  0.0395  0.4652  0.1161
 6749SOL    HW131706   2.943   3.390   8.486  0.3695  0.2105 -0.2439
 6749SOL    HW231707   2.801   3.353   8.500 -0.3490 -1.4630 -0.6605
 6750SOL     OW31708   2.954   2.136  16.763  0.5900 -0.7854  0.3688
 6750SOL    HW131709   2.974   2.220  16.804  0.9843  1.4591 -4.4427
 6750SOL    HW231710   2.999   2.077  16.823  1.6521  0.3019  0.6270
 6751SOL     OW31711   1.015   0.304   2.334  0.0011 -0.4123  0.3314
 6751SOL    HW131712   0.961   0.364   2.282 -1.0007 -0.3121  1.4900
 6751SOL    HW231713   1.085   0.361   2.367  0.3490 -1.6277  1.6920
 6752SOL     OW31714   2.202   1.326  14.841 -0.4294 -0.3001 -0.0911
 6752SOL    HW131715   2.294   1.305  14.827  0.6378  2.9166  2.3110
 6752SOL    HW231716   2.208   1.413  14.803 -0.6013 -1.0141 -1.7558
 6753SOL     OW31717   4.327   3.669   2.957  0.4168 -0.0363 -0.4723
 6753SOL    HW131718   4.385   3.676   2.881  1.7770  0.9697  0.6776
 6753SOL    HW231719   4.243   3.673   2.912  0.8827  0.1280 -1.3349
 6754SOL     OW31720   0.654   0.693   7.674 -0.2786  0.0746 -0.3525
 6754SOL    HW131721   0.608   0.650   7.746  0.2781  0.9611  0.5289
 6754SOL    HW231722   0.595   0.760   7.639 -0.1469  1.0258  1.2235
 6755SOL     OW31723   0.742   3.431   4.024 -0.5625 -0.1691  0.5418
 6755SOL    HW131724   0.795   3.357   4.055  1.9585  0.9775 -1.0639
 6755SOL    HW231725   0.668   3.448   4.083 -0.8327 -1.1264  0.4791
 6756SOL     OW31726   4.099   0.755  17.075  0.3387 -0.0814  0.4884
 6756SOL    HW131727   4.148   0.797  17.004  1.3204 -2.1166 -0.0238
 6756SOL    HW231728   4.041   0.829  17.095 -0.3145 -0.5105  0.1657
 6757SOL     OW31729   3.906   3.661   4.115  0.6257  0.0298  0.5478
 6757SOL    HW131730   3.826   3.632   4.073  1.5816 -0.5094 -0.9057
 6757SOL    HW231731   3.914   3.592   4.182 -0.0865 -0.6410 -0.0630
 6758SOL     OW31732   1.346   2.794   8.782 -0.4230  0.5658  0.0706
 6758SOL    HW131733   1.393   2.779   8.700 -1.5533 -0.8600 -0.3214
 6758SOL    HW231734   1.263   2.824   8.747  0.8769  0.3257 -3.2082
 6759SOL     OW31735   0.546   4.531   3.789  0.1384 -0.5554  0.6708
 6759SOL    HW131736   0.513   4.441   3.794  1.5644 -1.0957  0.2538
 6759SOL    HW231737   0.640   4.520   3.777  0.1390 -0.6363  0.7482
 6760SOL     OW31738   0.426   0.915   6.081 -0.2233 -0.3470  0.1337
 6760SOL    HW131739   0.405   0.917   6.174  2.8004 -1.0225  0.8316
 6760SOL    HW231740   0.519   0.893   6.092  0.4049  1.4789 -1.5451
 6761SOL     OW31741   4.537   4.453   1.386  0.0012  0.2315  0.6716
 6761SOL    HW131742   4.540   4.366   1.346 -1.3276  0.9672 -1.0282
 6761SOL    HW231743   4.625   4.488   1.379 -0.9726  2.7926  1.0982
 6762SOL     OW31744   1.531   0.469   4.737  0.0465 -0.0161 -0.1978
 6762SOL    HW131745   1.531   0.552   4.785  0.2425  0.9820 -1.9215
 6762SOL    HW231746   1.484   0.496   4.658 -0.6088 -0.2235  0.1281
 6763SOL     OW31747   4.367   1.934   9.138 -0.0795  0.6194 -0.2995
 6763SOL    HW131748   4.390   1.861   9.195 -1.3307 -0.3160 -1.0111
 6763SOL    HW231749   4.296   1.887   9.095 -0.3307  1.6145 -0.9784
 6764SOL     OW31750   0.530   3.988   7.369 -0.3221  0.1167 -0.4144
 6764SOL    HW131751   0.514   4.014   7.279  0.9730  1.1401 -0.3552
 6764SOL    HW231752   0.511   3.895   7.368 -2.1635  0.4715  1.8654
 6765SOL     OW31753   1.146   3.520   9.671 -0.2774  0.1701 -0.5047
 6765SOL    HW131754   1.239   3.522   9.648 -0.7192  4.0403 -1.9529
 6765SOL    HW231755   1.141   3.480   9.758  0.3090 -0.7723 -0.9019
 6766SOL     OW31756   3.086   3.387   4.885  0.4095  0.0039 -0.2127
 6766SOL    HW131757   3.021   3.435   4.834  0.4900  0.9801  0.5854
 6766SOL    HW231758   3.165   3.436   4.864  0.6088 -0.3314 -0.2386
 6767SOL     OW31759   4.060   0.457   7.196 -0.2810  0.1072 -0.1450
 6767SOL    HW131760   4.003   0.418   7.130  0.6843 -0.3153 -0.7341
 6767SOL    HW231761   4.052   0.384   7.258  0.6823 -1.3987 -1.7924
 6768SOL     OW31762   4.631   1.287   4.845 -0.4735 -0.2597  0.2659
 6768SOL    HW131763   4.671   1.205   4.816 -3.2713 -1.1598 -1.0032
 6768SOL    HW231764   4.556   1.250   4.890  0.2637  0.6442  2.2779
 6769SOL     OW31765   4.483   3.520   3.320 -0.3057  0.0925 -0.1951
 6769SOL    HW131766   4.529   3.604   3.324 -1.5314  0.7729 -0.2012
 6769SOL    HW231767   4.408   3.547   3.373 -2.2990 -1.2692 -2.3158
 6770SOL     OW31768   0.413   3.385  12.289  0.4203  0.4712 -0.1062
 6770SOL    HW131769   0.448   3.433  12.214 -1.7614  1.0263 -0.7612
 6770SOL    HW231770   0.487   3.328  12.311 -0.6305 -0.1737  1.8196
 6771SOL     OW31771   1.255   1.211   7.244 -0.4354  0.6066 -0.4353
 6771SOL    HW131772   1.187   1.278   7.250  0.0073  1.0674 -0.5939
 6771SOL    HW231773   1.269   1.208   7.149 -2.3950  0.0645 -0.7113
 6772SOL     OW31774   2.771   0.317   4.335 -0.1711 -0.0408 -0.2834
 6772SOL    HW131775   2.710   0.247   4.312  0.3274 -0.8569  0.8721
 6772SOL    HW231776   2.744   0.327   4.426  2.3602  0.2286  0.4499
 6773SOL     OW31777   3.066   1.606   5.475  1.1163  0.9520  0.4062
 6773SOL    HW131778   3.088   1.692   5.511 -1.6082  2.9928 -2.7130
 6773SOL    HW231779   3.152   1.565   5.470  0.5817  0.0545 -1.3478
 6774SOL     OW31780   1.497   1.452   2.223  0.3797 -0.2381 -0.0966
 6774SOL    HW131781   1.419   1.402   2.244 -1.0744  2.4622  0.8925
 6774SOL    HW231782   1.562   1.417   2.285  1.3321 -0.3896 -1.1675
 6775SOL     OW31783   0.490   0.908   4.865  0.1627 -0.3943  0.1611
 6775SOL    HW131784   0.432   0.836   4.838  0.0391 -0.1785 -0.1412
 6775SOL    HW231785   0.556   0.851   4.903  1.3030  1.6598  1.2441
 6776SOL     OW31786   1.689   1.815  11.053 -0.2506 -0.0213 -0.1468
 6776SOL    HW131787   1.605   1.861  11.044 -1.2626 -1.4446  2.0431
 6776SOL    HW231788   1.691   1.763  10.973 -0.4387 -0.8409  0.3893
 6777SOL     OW31789   3.781   3.971   3.552 -0.2440 -0.0769  0.7679
 6777SOL    HW131790   3.818   4.053   3.587 -0.2456 -0.1907  1.0373
 6777SOL    HW231791   3.701   4.011   3.518  0.1823 -1.7198 -2.0958
 6778SOL     OW31792   2.363   2.561   3.202  0.1334 -0.2517  0.1076
 6778SOL    HW131793   2.355   2.467   3.217 -2.8963 -0.3423 -2.0179
 6778SOL    HW231794   2.446   2.581   3.246  0.3756  3.2770 -1.9630
 6779SOL     OW31795   3.817   1.469   2.087 -0.5640  0.0575 -0.0966
 6779SOL    HW131796   3.828   1.397   2.149  0.1278 -1.0384 -1.4976
 6779SOL    HW231797   3.822   1.542   2.149 -0.5164  0.1060 -0.1572
 6780SOL     OW31798   0.000   2.289   2.668  0.0631 -0.0614 -0.0610
 6780SOL    HW131799   0.074   2.237   2.701 -0.6785 -0.6685  0.6488
 6780SOL    HW231800   4.703   2.334   2.749 -0.3520  0.7340 -0.6140
 6781SOL     OW31801   2.752   1.880   6.308 -0.1061 -0.0551 -0.7233
 6781SOL    HW131802   2.815   1.945   6.339 -1.2415  0.7281 -0.0473
 6781SOL    HW231803   2.762   1.819   6.381 -0.2927  1.1844  0.3499
 6782SOL     OW31804   4.454   1.383   0.058 -0.0470 -0.0254  0.2345
 6782SOL    HW131805   4.381   1.435   0.092  0.6465  0.5283  0.8822
 6782SOL    HW231806   4.526   1.443   0.077  1.2317 -1.6505  0.4668
 6783SOL     OW31807   1.521   4.252  12.354 -0.1350 -0.1726 -0.1832
 6783SOL    HW131808   1.493   4.320  12.293  0.8305  0.7416  0.3986
 6783SOL    HW231809   1.606   4.286  12.383 -0.0640  1.6345 -2.5046
 6784SOL     OW31810   1.097   3.877   0.923  0.2911  0.2752  0.3376
 6784SOL    HW131811   1.103   3.896   0.829  2.8326  0.6836  0.5866
 6784SOL    HW231812   1.100   3.781   0.925  0.1838  0.2792  0.7219
 6785SOL     OW31813   4.522   2.018   4.888  0.2531 -0.0119  0.0438
 6785SOL    HW131814   4.428   2.000   4.890  0.2482  0.1737  2.1655
 6785SOL    HW231815   4.514   2.102   4.844  2.6977  0.6956  0.9747
 6786SOL     OW31816   3.677   1.535   4.732 -0.1121  0.2869 -0.3433
 6786SOL    HW131817   3.626   1.496   4.660  3.5811 -0.4807 -2.5102
 6786SOL    HW231818   3.652   1.627   4.728  0.7875  0.5686  0.6148
 6787SOL     OW31819   1.427   1.280  10.637  0.5574  0.0615  0.4316
 6787SOL    HW131820   1.358   1.327  10.685  0.5134 -0.1204  0.5486
 6787SOL    HW231821   1.483   1.357  10.633 -2.4816  2.2323 -0.7664
 6788SOL     OW31822   4.148   0.847   7.116 -0.5634 -0.0801 -0.6151
 6788SOL    HW131823   4.133   0.902   7.039 -1.4767  1.2922  0.5346
 6788SOL    HW231824   4.098   0.768   7.097  0.8240 -1.5506  1.9493
 6789SOL     OW31825   1.073   2.936   1.722  1.0555 -0.1280  0.1928
 6789SOL    HW131826   1.135   2.993   1.768 -0.5234  3.5961 -2.2883
 6789SOL    HW231827   1.073   2.866   1.787 -0.5141  0.8053  1.1806
 6790SOL     OW31828   1.605   0.501   3.125 -0.8168 -0.3813 -0.2920
 6790SOL    HW131829   1.516   0.512   3.157 -2.0484 -0.5504 -3.7475
 6790SOL    HW231830   1.654   0.556   3.187 -2.0927  0.1608  0.2186
 6791SOL     OW31831   4.175   0.876   5.680  0.1291  0.2801  0.2317
 6791SOL    HW131832   4.161   0.825   5.760 -3.4794 -1.4838 -1.5229
 6791SOL    HW231833   4.271   0.884   5.676  0.0779  0.0622 -1.4799
 6792SOL     OW31834   0.000   2.996   5.151  0.1844  0.2729  0.1394
 6792SOL    HW131835   4.680   2.964   5.073 -0.1992 -1.2260  0.9608
 6792SOL    HW231836   0.063   3.055   5.110  0.2957  0.9861  1.3188
 6793SOL     OW31837   1.498   0.193   1.466  0.5113 -0.0057 -0.5816
 6793SOL    HW131838   1.512   0.170   1.374  1.5318  0.0004 -0.4271
 6793SOL    HW231839   1.467   0.283   1.474  0.4186 -0.1394  0.4562
 6794SOL     OW31840   0.659   1.806  10.897  0.0907  0.7495 -0.0233
 6794SOL    HW131841   0.694   1.751  10.827  0.4785 -0.4704  1.1292
 6794SOL    HW231842   0.570   1.771  10.905  0.2479  0.6185  1.1690
 6795SOL     OW31843   3.850   0.469   7.460  0.0505 -0.0512  0.3980
 6795SOL    HW131844   3.893   0.388   7.435  1.4884  1.3542 -1.7136
 6795SOL    HW231845   3.825   0.513   7.379  1.6834  2.1295  1.0743
 6796SOL     OW31846   2.967   2.549   3.253 -0.7329  0.1007  0.2054
 6796SOL    HW131847   2.988   2.641   3.237 -1.3426  0.4107  1.1628
 6796SOL    HW231848   3.042   2.496   3.224 -1.7116 -2.6031  2.6851
 6797SOL     OW31849   1.877   4.499   3.518 -0.2064  0.5576 -0.3601
 6797SOL    HW131850   1.878   4.417   3.470 -1.7718  1.4258 -1.8590
 6797SOL    HW231851   1.898   4.556   3.445 -3.1223  0.0915 -1.5461
 6798SOL     OW31852   3.573   2.376  14.462  0.0790  0.0555  0.2188
 6798SOL    HW131853   3.666   2.376  14.483  0.3432  0.4623 -0.9348
 6798SOL    HW231854   3.543   2.305  14.518 -1.8608  0.2029 -0.6208
 6799SOL     OW31855   2.692   1.936  17.528 -0.1773 -0.3712  0.4218
 6799SOL    HW131856   2.777   1.980  17.519 -0.6648  0.4567 -0.1007
 6799SOL    HW231857   2.660   1.914  17.441  1.5893 -1.3845  0.0136
 6800SOL     OW31858   3.322   4.481   5.522 -0.2880  0.1140 -0.2712
 6800SOL    HW131859   3.235   4.515   5.541  0.5069  1.5557  0.8273
 6800SOL    HW231860   3.386   4.545   5.554  1.5623 -2.2788  0.9339
 6801SOL     OW31861   1.754   0.569  10.649  0.0594 -0.3664 -0.1562
 6801SOL    HW131862   1.729   0.591  10.559  3.9397 -1.4146 -1.4899
 6801SOL    HW231863   1.683   0.621  10.686  0.5325 -0.6207  1.1028
 6802SOL     OW31864   0.526   0.308   9.322  0.4733 -0.3467  0.3824
 6802SOL    HW131865   0.479   0.385   9.353  1.9929  0.6938  0.1162
 6802SOL    HW231866   0.466   0.254   9.271  2.5146 -1.9687 -0.3300
 6803SOL     OW31867   1.565   4.593   5.523  0.4965  0.8906 -0.5088
 6803SOL    HW131868   1.561   4.649   5.600  0.8919 -0.4575  0.5046
 6803SOL    HW231869   1.474   4.570   5.505  0.8262 -0.5812 -0.3334
 6804SOL     OW31870   0.516   4.420   4.925  0.0180 -0.2003 -0.9743
 6804SOL    HW131871   0.467   4.481   4.980  0.7904 -0.4732  0.0283
 6804SOL    HW231872   0.484   4.335   4.953  1.7930  0.1186  2.0126
 6805SOL     OW31873   4.039   0.993   4.486  0.1248  0.2321 -0.0464
 6805SOL    HW131874   4.079   0.968   4.569 -2.0345  1.0481  1.2301
 6805SOL    HW231875   4.100   1.063   4.463 -0.8457  0.4747 -1.9141
 6806SOL     OW31876   2.090   3.204   4.041 -0.0904  0.2989 -0.0790
 6806SOL    HW131877   2.032   3.198   4.117 -1.0012 -2.9482 -1.0290
 6806SOL    HW231878   2.033   3.183   3.967 -1.1077 -0.3778  0.9008
 6807SOL     OW31879   3.202   2.068  12.051  0.4797  0.5779  0.0499
 6807SOL    HW131880   3.244   1.998  12.001 -1.0837  1.6518 -2.7841
 6807SOL    HW231881   3.233   2.040  12.137  4.2738 -2.1517 -2.2493
 6808SOL     OW31882   2.919   0.674   3.005  0.0971  0.1448 -0.3836
 6808SOL    HW131883   2.939   0.700   3.094 -0.8459  1.1903 -0.4777
 6808SOL    HW231884   2.823   0.670   3.012  0.2605 -0.6569  1.4472
 6809SOL     OW31885   2.691   3.718   4.554 -0.2688 -0.0388 -0.1193
 6809SOL    HW131886   2.673   3.724   4.648 -1.6217 -0.1008 -0.3775
 6809SOL    HW231887   2.765   3.779   4.554  1.2423 -1.8784  2.5382
 6810SOL     OW31888   1.895   3.145  16.278  0.5131 -0.9470  0.6516
 6810SOL    HW131889   1.900   3.052  16.260 -0.7048 -1.4073  2.6976
 6810SOL    HW231890   1.988   3.165  16.293 -0.0167  1.2089  1.0950
 6811SOL     OW31891   1.017   3.389   4.779 -0.2669  0.2872 -0.3781
 6811SOL    HW131892   0.997   3.426   4.865 -1.1160 -0.1465 -0.3887
 6811SOL    HW231893   1.016   3.295   4.794  1.0851  0.0949 -1.5234
 6812SOL     OW31894   4.478   4.621   6.600 -0.7008 -0.6588 -0.6143
 6812SOL    HW131895   4.573   4.633   6.604 -0.6827 -1.2839  0.6221
 6812SOL    HW231896   4.479   4.583   6.512 -0.3663 -0.3362 -0.7488
 6813SOL     OW31897   3.175   4.147  13.593  0.1254  0.0462  0.3465
 6813SOL    HW131898   3.150   4.106  13.676 -0.2200 -0.7886 -0.1739
 6813SOL    HW231899   3.263   4.180  13.608 -0.4481  2.4044 -1.4991
 6814SOL     OW31900   3.635   1.072   0.925 -0.0156  0.3377  0.2228
 6814SOL    HW131901   3.658   1.090   1.016  2.0307 -0.1523 -0.1844
 6814SOL    HW231902   3.685   1.145   0.887 -1.3207 -0.0438 -2.2394
 6815SOL     OW31903   1.580   3.891   7.532  0.0460  0.4599 -0.0482
 6815SOL    HW131904   1.651   3.843   7.489 -2.2791 -1.6743 -1.4473
 6815SOL    HW231905   1.585   3.964   7.469 -0.9362  0.9932  0.4988
 6816SOL     OW31906   3.008   4.010   1.949 -0.2083  0.1920  0.6214
 6816SOL    HW131907   3.035   3.989   2.038 -0.5819  1.7470  1.1032
 6816SOL    HW231908   3.095   4.031   1.915 -0.9505  0.4166 -1.1585
 6817SOL     OW31909   2.790   0.936   2.039 -0.2246  0.3275  0.1041
 6817SOL    HW131910   2.748   0.951   1.954 -0.9823  0.9341  0.5920
 6817SOL    HW231911   2.816   1.027   2.056  0.5388  0.2296 -0.5172
 6818SOL     OW31912   4.494   2.749   3.897 -0.4742 -0.8030  0.0158
 6818SOL    HW131913   4.547   2.722   3.971  1.6545  2.8339 -0.1879
 6818SOL    HW231914   4.444   2.669   3.883 -1.0694 -0.4319  0.0218
 6819SOL     OW31915   1.467   2.465   8.846 -0.5234 -0.0247 -0.0271
 6819SOL    HW131916   1.470   2.376   8.880 -0.4896 -1.4037 -3.6226
 6819SOL    HW231917   1.398   2.505   8.899 -1.0984 -0.6468 -0.3048
 6820SOL     OW31918   3.001   4.287   2.148  0.2290 -0.1476  0.3698
 6820SOL    HW131919   2.994   4.252   2.059 -2.9828  0.9331  0.1858
 6820SOL    HW231920   2.924   4.257   2.197 -0.4932  2.6951  0.9628
 6821SOL     OW31921   4.481   4.118  14.864 -0.1305 -0.1266  0.3838
 6821SOL    HW131922   4.547   4.109  14.795  0.6940 -0.4700  1.2143
 6821SOL    HW231923   4.408   4.081  14.815 -0.7950  3.2501 -1.1858
 6822SOL     OW31924   4.071   2.743   8.315 -0.0105 -0.4814  0.0628
 6822SOL    HW131925   4.015   2.690   8.371  0.4345  1.5847  2.4754
 6822SOL    HW231926   4.066   2.707   8.226 -1.3149 -0.9045  0.3116
 6823SOL     OW31927   1.248   2.388   4.924  0.1464 -0.1987 -0.0678
 6823SOL    HW131928   1.269   2.323   4.992  1.3542 -1.3079 -1.5052
 6823SOL    HW231929   1.308   2.462   4.924  1.1499 -1.0077  0.6464
 6824SOL     OW31930   4.277   4.720  11.109 -0.8078  0.4696 -0.2484
 6824SOL    HW131931   4.205   0.009  11.049 -0.1309  2.2302 -0.6402
 6824SOL    HW231932   4.216   4.683  11.174  0.0868  1.9060  1.4299
 6825SOL     OW31933   4.004   0.281  14.898 -0.1353 -0.1886 -0.4973
 6825SOL    HW131934   4.087   0.248  14.932 -0.7259 -1.2192 -0.0385
 6825SOL    HW231935   4.026   0.306  14.809  0.6911 -3.4647 -1.2099
 6826SOL     OW31936   1.045   2.829   1.201 -0.2641 -0.6669 -0.0170
 6826SOL    HW131937   1.113   2.811   1.265 -0.3399 -0.5813  0.0880
 6826SOL    HW231938   1.004   2.742   1.193  1.5515 -1.4810 -0.3685
 6827SOL     OW31939   2.186   0.058   4.254  0.0031 -0.5943  0.2700
 6827SOL    HW131940   2.125   4.713   4.278 -0.9250 -0.5304 -1.9310
 6827SOL    HW231941   2.145   0.115   4.189  1.5006  0.2304  0.0526
 6828SOL     OW31942   3.663   1.469   1.851  0.3826  0.1620  0.2560
 6828SOL    HW131943   3.718   1.448   1.926  0.8519  0.4198 -0.0209
 6828SOL    HW231944   3.653   1.563   1.862 -1.6625 -0.0253  0.1275
 6829SOL     OW31945   4.424   0.193   2.936  0.8364 -0.0888  0.2094
 6829SOL    HW131946   4.368   0.257   2.891  1.4039 -0.4240 -0.9807
 6829SOL    HW231947   4.460   0.248   3.006  1.7184 -1.2133  0.6407
 6830SOL     OW31948   2.011   2.935   6.968  0.0944 -0.3033 -0.3658
 6830SOL    HW131949   2.064   2.890   7.033 -0.9840  0.3200  0.9390
 6830SOL    HW231950   1.930   2.945   7.018  0.0994  2.9614 -0.9976
 6831SOL     OW31951   3.369   2.338   6.574 -0.3824  0.6670  0.2342
 6831SOL    HW131952   3.413   2.416   6.607 -0.2095  0.2621  0.9846
 6831SOL    HW231953   3.280   2.368   6.560 -0.9678 -0.0576  2.3853
 6832SOL     OW31954   2.442   1.724   1.717  0.4291  0.6638 -0.2949
 6832SOL    HW131955   2.416   1.764   1.800  2.0119  1.1893 -0.0678
 6832SOL    HW231956   2.382   1.768   1.656 -1.9299 -2.8886 -0.5482
 6833SOL     OW31957   3.387   4.517   9.053  0.1820 -0.8448 -0.1016
 6833SOL    HW131958   3.300   4.479   9.042 -0.4800 -0.2054  3.0747
 6833SOL    HW231959   3.440   4.440   9.033  0.4886 -1.0281  1.4037
 6834SOL     OW31960   0.511   0.886   2.639  0.6374 -0.6144  0.4715
 6834SOL    HW131961   0.430   0.929   2.613 -1.4243 -3.7346  1.7184
 6834SOL    HW231962   0.490   0.792   2.635  2.6267 -1.0126 -0.3412
 6835SOL     OW31963   0.612   4.330   9.333  0.1264  0.5794 -0.4870
 6835SOL    HW131964   0.586   4.346   9.242 -2.4363  2.7939  0.6572
 6835SOL    HW231965   0.558   4.394   9.378 -1.6068 -0.1931 -1.4861
 6836SOL     OW31966   3.354   3.620   8.367 -0.2754 -0.0806 -0.5663
 6836SOL    HW131967   3.411   3.696   8.360  1.1144 -0.9839  0.6951
 6836SOL    HW231968   3.347   3.588   8.277 -0.0096 -2.2542  0.1847
 6837SOL     OW31969   0.774   1.687  17.524 -0.6620 -0.2291 -0.0822
 6837SOL    HW131970   0.812   1.636  17.595  1.6284  1.2661 -0.2331
 6837SOL    HW231971   0.686   1.716  17.548 -0.6922  0.6288 -1.2029
 6838SOL     OW31972   2.408   0.874   2.645 -0.5481 -0.2065  0.2408
 6838SOL    HW131973   2.472   0.945   2.649 -0.1430 -0.6770  2.3154
 6838SOL    HW231974   2.435   0.806   2.708 -1.4526 -0.3354  0.4804
 6839SOL     OW31975   0.255   2.351   8.006  0.5858 -0.1255 -0.2125
 6839SOL    HW131976   0.210   2.276   8.045  1.8777  0.3316  2.1327
 6839SOL    HW231977   0.325   2.360   8.070  0.7083  0.2437 -0.4018
 6840SOL     OW31978   1.024   2.941  16.779  0.2325  0.0361  0.1943
 6840SOL    HW131979   1.021   3.009  16.712 -1.1078  2.0188  2.2640
 6840SOL    HW231980   1.110   2.960  16.817 -0.1747  1.6095  0.3296
 6841SOL     OW31981   4.143   0.952   0.275  0.3769 -0.0060 -0.0777
 6841SOL    HW131982   4.091   0.901   0.337 -0.7888  0.6176 -0.5543
 6841SOL    HW231983   4.126   0.900   0.196  0.4939 -0.3321  0.1109
 6842SOL     OW31984   4.348   1.198  10.459  0.2059  0.6660  0.0023
 6842SOL    HW131985   4.286   1.262  10.494  0.3354 -0.8400  2.9593
 6842SOL    HW231986   4.283   1.131  10.438  2.0024 -1.0270 -0.1549
 6843SOL     OW31987   1.003   4.166   7.483 -0.1358  0.2857  0.4981
 6843SOL    HW131988   0.949   4.087   7.478 -1.6479  1.3325  0.2368
 6843SOL    HW231989   1.029   4.173   7.574  1.2284 -1.4056  0.2493
 6844SOL     OW31990   0.962   3.999   7.133  0.2014 -0.0484  0.0668
 6844SOL    HW131991   0.996   4.087   7.151  1.2884 -0.3827 -0.3746
 6844SOL    HW231992   1.015   3.936   7.182 -0.9216 -0.6378  0.5202
 6845SOL     OW31993   2.126   1.565   7.937  0.0478  0.6493  0.3501
 6845SOL    HW131994   2.134   1.647   7.987  3.1555  0.1470  0.6852
 6845SOL    HW231995   2.217   1.543   7.921 -0.2250 -1.3291  1.5681
 6846SOL     OW31996   0.297   2.985  10.672 -0.2473 -0.1562  0.4647
 6846SOL    HW131997   0.223   3.039  10.700 -0.0877  0.7302 -0.8218
 6846SOL    HW231998   0.277   2.896  10.703 -1.3974  0.3293  1.1384
 6847SOL     OW31999   1.444   3.594  12.211  0.3932 -0.5649  0.0803
 6847SOL    HW132000   1.476   3.505  12.198  0.4222 -0.2037 -2.3002
 6847SOL    HW232001   1.517   3.648  12.180 -1.3963  0.9502 -1.5082
 6848SOL     OW32002   0.818   1.256   6.930  0.1309  0.2998 -0.2511
 6848SOL    HW132003   0.771   1.226   6.851 -1.7138 -0.9591  1.3173
 6848SOL    HW232004   0.868   1.177   6.951 -1.4328 -1.4442 -3.0776
 6849SOL     OW32005   0.685   2.218   2.976  0.2157 -0.2853  0.3028
 6849SOL    HW132006   0.777   2.199   2.961  0.3681  0.7881 -0.1502
 6849SOL    HW232007   0.644   2.149   2.925 -1.9448  1.3879 -0.2459
 6850SOL     OW32008   3.620   2.020  14.817 -0.0063 -0.0485  0.8637
 6850SOL    HW132009   3.663   2.092  14.772 -0.0716 -0.8412 -0.4918
 6850SOL    HW232010   3.576   1.973  14.746 -0.1770  0.2679  0.7592
 6851SOL     OW32011   4.220   1.834   0.226  0.6863 -0.6959 -0.8013
 6851SOL    HW132012   4.255   1.854   0.312  1.4153  0.7202 -1.4201
 6851SOL    HW232013   4.241   1.911   0.172  1.9624 -0.7920 -0.4382
 6852SOL     OW32014   0.492   4.685   9.071  0.6498  0.6759  0.6388
 6852SOL    HW132015   0.440   0.033   9.107  1.3506  1.3539  0.2886
 6852SOL    HW232016   0.556   0.011   9.022 -0.3436  0.8031 -0.5195
 6853SOL     OW32017   0.232   1.146  15.875 -0.6901 -0.0803 -0.2827
 6853SOL    HW132018   0.219   1.219  15.935  0.3818 -0.7014  0.7078
 6853SOL    HW232019   0.289   1.083  15.921 -0.4412  0.4176  0.0879
 6854SOL     OW32020   2.746   2.970  14.778  0.6983  0.4263  0.5850
 6854SOL    HW132021   2.821   2.922  14.743 -2.7008 -0.5127 -5.4939
 6854SOL    HW232022   2.783   3.058  14.789 -0.9561  1.0128  1.4098
 6855SOL     OW32023   2.484   4.366  16.013 -0.5141  0.1241  0.2261
 6855SOL    HW132024   2.409   4.381  15.956 -0.1387  1.4853  0.0751
 6855SOL    HW232025   2.448   4.418  16.085 -0.6317  0.2882  0.0480
 6856SOL     OW32026   3.537   1.588   5.818 -0.2887 -0.2277  0.1286
 6856SOL    HW132027   3.562   1.516   5.760 -1.0183 -0.9023  0.6523
 6856SOL    HW232028   3.492   1.644   5.755 -0.0116 -0.0979  0.0498
 6857SOL     OW32029   0.322   0.588   8.471  0.0036  0.2549 -0.3499
 6857SOL    HW132030   0.302   0.681   8.466 -0.8916  0.1269  0.8732
 6857SOL    HW232031   0.276   0.556   8.549  0.7684  0.3706  0.1507
 6858SOL     OW32032   1.457   4.076  11.093 -0.1234 -0.2566  0.1575
 6858SOL    HW132033   1.393   4.147  11.094 -0.0160 -0.1682  0.4562
 6858SOL    HW232034   1.509   4.092  11.014 -1.9388 -2.4285 -1.4849
 6859SOL     OW32035   0.905   0.445   5.393 -0.4094  0.2190  0.1762
 6859SOL    HW132036   0.816   0.451   5.357 -1.1038  0.8161  1.9883
 6859SOL    HW232037   0.924   0.538   5.403  0.4565  0.0505  0.0607
 6860SOL     OW32038   0.614   4.569  11.466  0.5242  0.3211  0.4493
 6860SOL    HW132039   0.699   4.532  11.487  0.9109  0.1063 -1.4449
 6860SOL    HW232040   0.571   4.491  11.431 -0.3404 -0.0033  2.2501
 6861SOL     OW32041   1.760   1.888   6.963 -0.2465  1.0175  0.2951
 6861SOL    HW132042   1.817   1.875   6.887  0.3265 -0.9054  1.0533
 6861SOL    HW232043   1.679   1.915   6.922 -0.1634  1.6534  0.5598
 6862SOL     OW32044   2.320   3.422   4.039  0.0941 -0.3644  0.4300
 6862SOL    HW132045   2.283   3.355   3.982  0.1680 -1.1856  1.3404
 6862SOL    HW232046   2.242   3.477   4.036  0.1853 -0.2172  0.7428
 6863SOL     OW32047   4.664   1.130  15.995  0.0250  0.2846 -0.1223
 6863SOL    HW132048   4.574   1.156  16.012  0.1516  0.6095  0.0673
 6863SOL    HW232049   4.715   1.209  15.976  0.9371  0.0313  1.2111
 6864SOL     OW32050   2.634   2.893   6.491 -0.1305  0.3246  0.4085
 6864SOL    HW132051   2.713   2.851   6.525 -0.3864  0.8204  1.6120
 6864SOL    HW232052   2.658   2.986   6.490 -0.0932  0.2548 -2.6340
 6865SOL     OW32053   4.000   2.664   7.035 -0.2155  0.3439 -0.1844
 6865SOL    HW132054   3.915   2.622   7.033 -0.6488  1.0639  3.5387
 6865SOL    HW232055   4.042   2.618   7.108 -0.2637  1.0202  0.2789
 6866SOL     OW32056   1.276   1.979   8.542  0.0696  0.8864 -0.0677
 6866SOL    HW132057   1.198   1.951   8.590  0.1371  1.6718  0.5049
 6866SOL    HW232058   1.344   1.960   8.607 -0.1834 -1.5354 -0.5011
 6867SOL     OW32059   1.902   2.754  12.719  0.1371 -0.0719 -0.1463
 6867SOL    HW132060   1.856   2.825  12.675 -1.9684 -2.4357 -1.8013
 6867SOL    HW232061   1.856   2.764  12.802  1.5785 -0.9313  0.7610
 6868SOL     OW32062   3.360   1.018   2.856 -0.3270  0.3457 -0.2620
 6868SOL    HW132063   3.395   1.103   2.830 -1.7411  0.4099 -1.9120
 6868SOL    HW232064   3.393   0.964   2.785  1.5164  0.5344  0.4613
 6869SOL     OW32065   1.455   3.981   4.496  0.8730  0.5815 -0.1771
 6869SOL    HW132066   1.429   4.053   4.438  1.7409  1.0421  0.0076
 6869SOL    HW232067   1.461   4.016   4.585 -0.7792  1.3198 -0.3504
 6870SOL     OW32068   0.618   2.808   7.736  0.7115 -0.7383  0.0339
 6870SOL    HW132069   0.621   2.806   7.831 -0.6277  0.7980  0.1107
 6870SOL    HW232070   0.705   2.778   7.712  1.4796 -0.5403  2.6148
 6871SOL     OW32071   3.674   0.821   7.648  0.2171  0.0011 -0.1794
 6871SOL    HW132072   3.623   0.741   7.661 -1.3829  1.2854  1.5325
 6871SOL    HW232073   3.716   0.812   7.563 -1.9225 -2.7708 -0.9551
 6872SOL     OW32074   2.404   3.444  15.521  0.4070  1.0616  0.1548
 6872SOL    HW132075   2.437   3.476  15.605 -4.1258  0.2236  2.2922
 6872SOL    HW232076   2.431   3.517  15.465 -0.3894 -0.3692 -2.0821
 6873SOL     OW32077   3.869   2.086  13.760  0.1604 -0.0416 -0.0675
 6873SOL    HW132078   3.827   2.062  13.843 -1.1110 -0.0302 -0.7107
 6873SOL    HW232079   3.803   2.138  13.715 -0.2921 -0.6993 -0.1615
 6874SOL     OW32080   4.557   4.535  15.243 -0.2888 -0.1689  0.0873
 6874SOL    HW132081   4.646   4.546  15.277  0.9654 -0.1405 -3.1327
 6874SOL    HW232082   4.564   4.461  15.183  3.4370  0.3285 -0.0850
 6875SOL     OW32083   2.675   0.504   8.791 -0.1992  0.3319 -0.2283
 6875SOL    HW132084   2.662   0.587   8.745 -1.6086  0.8576  1.1414
 6875SOL    HW232085   2.669   0.546   8.877 -2.9229 -3.0456  1.2237
 6876SOL     OW32086   2.183   3.352   9.325  0.6436 -0.6755  0.2527
 6876SOL    HW132087   2.141   3.323   9.406 -0.4951  0.3305  0.0172
 6876SOL    HW232088   2.197   3.266   9.285  0.9618 -0.4415 -0.1421
 6877SOL     OW32089   3.658   4.438   2.526  0.1624 -0.2109 -0.2626
 6877SOL    HW132090   3.647   4.435   2.621 -0.3815 -0.7383 -0.3410
 6877SOL    HW232091   3.745   4.399   2.511  0.8223  0.9222  0.6316
 6878SOL     OW32092   2.104   1.788   8.450 -0.1404  0.3416  0.7294
 6878SOL    HW132093   2.157   1.728   8.502 -1.1591 -1.2639 -0.0979
 6878SOL    HW232094   2.028   1.731   8.437 -0.2728  1.2294 -2.3943
 6879SOL     OW32095   4.293   1.496  15.960  0.4572 -0.5526  0.0543
 6879SOL    HW132096   4.257   1.493  15.871 -0.5743  2.2675  0.3443
 6879SOL    HW232097   4.211   1.508  16.009  0.5883  2.5035 -0.4259
 6880SOL     OW32098   3.441   4.462   3.002  0.0437  0.2776  0.8051
 6880SOL    HW132099   3.490   4.403   3.060 -1.8579 -0.6242  1.4865
 6880SOL    HW232100   3.442   4.398   2.931  1.1156 -0.7251  1.7252
 6881SOL     OW32101   1.367   0.917   2.185  0.3120  0.4441  0.0429
 6881SOL    HW132102   1.373   0.886   2.095 -2.5178 -1.2819  0.4184
 6881SOL    HW232103   1.277   0.900   2.213  0.5987  0.2261  0.8273
 6882SOL     OW32104   1.942   4.367   5.094 -0.3704  0.2373 -0.3286
 6882SOL    HW132105   1.924   4.275   5.111  1.0652 -0.3585 -2.1518
 6882SOL    HW232106   1.920   4.394   5.184 -0.5662  0.7731 -0.5380
 6883SOL     OW32107   3.292   4.046   4.738  0.0414  0.0880 -0.2175
 6883SOL    HW132108   3.253   3.960   4.752 -0.9461  0.5312 -0.2591
 6883SOL    HW232109   3.220   4.080   4.686  0.0366  1.0710  0.4246
 6884SOL     OW32110   3.523   1.864   8.917  0.0422 -0.3322  0.5915
 6884SOL    HW132111   3.580   1.881   8.992 -2.8103 -0.3899  2.7463
 6884SOL    HW232112   3.531   1.769   8.905  0.3739  0.0685 -2.5278
 6885SOL     OW32113   4.469   4.004   3.881  1.0672  0.2161 -0.4976
 6885SOL    HW132114   4.516   3.923   3.860 -0.1962 -1.0223  1.4303
 6885SOL    HW232115   4.522   4.066   3.831  0.2634  0.0994 -1.4891
 6886SOL     OW32116   0.910   2.376   8.786  0.1246  0.3900  0.6115
 6886SOL    HW132117   0.979   2.389   8.851 -0.7406 -0.8455  1.7950
 6886SOL    HW232118   0.953   2.428   8.718 -0.4782  1.1990  0.8464
 6887SOL     OW32119   1.602   4.716   9.836  0.1783 -0.0541 -0.5956
 6887SOL    HW132120   1.679   4.715   9.892  0.3747 -1.2050 -0.8804
 6887SOL    HW232121   1.542   4.650   9.871  1.2675 -0.8512 -0.2260
 6888SOL     OW32122   2.704   1.405   5.996 -0.1806 -0.3736  0.4373
 6888SOL    HW132123   2.705   1.499   5.978 -1.1863 -0.7177 -1.4190
 6888SOL    HW232124   2.656   1.370   5.921  0.4862 -1.8513  0.6914
 6889SOL     OW32125   0.582   1.693   2.940  0.3478 -0.3339 -0.2276
 6889SOL    HW132126   0.589   1.617   2.998  0.4606  1.4652  2.0804
 6889SOL    HW232127   0.597   1.770   2.995 -1.8553 -0.8428  1.0903
 6890SOL     OW32128   1.827   3.853   1.912  0.0528 -0.2809  0.1286
 6890SOL    HW132129   1.853   3.872   2.002  1.0249 -0.2235 -0.1627
 6890SOL    HW232130   1.840   3.936   1.866 -0.8843  0.4587  1.2008
 6891SOL     OW32131   1.870   2.580   5.731  0.3587  0.0714 -0.3222
 6891SOL    HW132132   1.917   2.662   5.713 -1.0689  0.7740 -0.8543
 6891SOL    HW232133   1.781   2.609   5.750  0.5989 -1.2519  2.8520
 6892SOL     OW32134   0.099   0.376   1.318 -0.4259 -0.4629  0.3763
 6892SOL    HW132135   0.109   0.380   1.223  2.9829  2.0711  0.8307
 6892SOL    HW232136   0.182   0.419   1.340  0.0116 -0.5811 -1.0546
 6893SOL     OW32137   4.356   1.440  12.403 -0.7159  0.1156  0.2588
 6893SOL    HW132138   4.437   1.464  12.449  0.3467  0.5088 -1.8104
 6893SOL    HW232139   4.310   1.389  12.470 -1.6517 -0.4182 -0.7922
 6894SOL     OW32140   1.363   2.261   9.855  0.3620 -0.2915  0.0533
 6894SOL    HW132141   1.310   2.208   9.915 -0.2988  0.6114  0.2583
 6894SOL    HW232142   1.362   2.348   9.895  0.8195  0.1102 -0.8048
 6895SOL     OW32143   0.066   0.938  10.164 -0.0778  0.0747 -0.2107
 6895SOL    HW132144   0.159   0.962  10.163 -0.1957  0.5695  2.5495
 6895SOL    HW232145   0.024   1.024  10.166 -0.5848 -0.1871  0.2979
 6896SOL     OW32146   4.234   1.853   8.360 -0.5277  0.1756  0.2906
 6896SOL    HW132147   4.319   1.810   8.366 -0.8988 -0.6145 -0.0003
 6896SOL    HW232148   4.253   1.915   8.430  1.3021 -0.6775  0.5495
 6897SOL     OW32149   4.423   1.030   8.056  0.4560  0.3069  0.2795
 6897SOL    HW132150   4.371   0.959   8.094 -0.5543  0.1772 -1.3268
 6897SOL    HW232151   4.475   0.980   7.993 -0.8951  0.2721 -0.8090
 6898SOL     OW32152   3.409   3.608   3.957  0.5697  0.2592 -0.1851
 6898SOL    HW132153   3.342   3.569   3.901  0.5715 -1.6193  1.1214
 6898SOL    HW232154   3.348   3.625   4.029  1.3193  0.5363  0.3874
 6899SOL     OW32155   0.226   4.170   5.885  0.2600  0.0423 -0.7896
 6899SOL    HW132156   0.228   4.265   5.892 -1.1003  0.1607 -2.1850
 6899SOL    HW232157   0.320   4.149   5.892  0.6882  2.1894 -0.1116
 6900SOL     OW32158   3.904   3.060   1.541  0.1480 -0.6711 -0.2876
 6900SOL    HW132159   3.914   3.140   1.489 -1.5019 -0.3423 -0.0849
 6900SOL    HW232160   3.809   3.061   1.548  0.2069  2.1204  0.0554
 6901SOL     OW32161   2.591   4.072   0.504  0.2292 -0.1047 -0.2657
 6901SOL    HW132162   2.582   4.130   0.428  0.5770 -0.6194 -0.6963
 6901SOL    HW232163   2.541   4.122   0.569  0.6005 -0.0960  0.0188
 6902SOL     OW32164   3.842   3.914  10.451 -0.1611 -0.0917  0.2583
 6902SOL    HW132165   3.778   3.925  10.380  0.6930 -3.0124 -0.9510
 6902SOL    HW232166   3.844   3.820  10.471  2.5415 -0.6048 -2.5085
 6903SOL     OW32167   1.251   2.521  11.286  0.7073  0.1017 -0.4455
 6903SOL    HW132168   1.213   2.514  11.199 -1.2786  2.1857  0.2545
 6903SOL    HW232169   1.338   2.486  11.269  0.7701  0.4065 -0.7622
 6904SOL     OW32170   1.277   0.764  12.593 -0.2237  0.4233 -0.0612
 6904SOL    HW132171   1.331   0.687  12.574  0.8654  1.1959 -0.0977
 6904SOL    HW232172   1.199   0.718  12.625  2.1394 -1.7486  2.5107
 6905SOL     OW32173   1.917   1.920   9.167 -0.3833 -0.2776 -0.4878
 6905SOL    HW132174   1.852   1.940   9.235  1.1198  0.6363  0.6969
 6905SOL    HW232175   1.948   1.833   9.191  0.4728  0.2261  0.2894
 6906SOL     OW32176   0.884   3.710   3.315 -0.4201 -0.0353 -0.2345
 6906SOL    HW132177   0.921   3.793   3.344 -0.0958 -0.2255 -0.0947
 6906SOL    HW232178   0.845   3.678   3.396  1.0923 -0.9392  0.1540
 6907SOL     OW32179   1.253   0.337   2.078  0.3141 -0.0089  0.1097
 6907SOL    HW132180   1.312   0.307   2.147 -0.6394  0.1894  0.9996
 6907SOL    HW232181   1.234   0.258   2.028  1.2944 -0.0046 -0.2663
 6908SOL     OW32182   4.376   3.713   2.453  0.6414 -0.2495  0.3363
 6908SOL    HW132183   4.440   3.672   2.395 -1.8750 -2.0743 -1.1760
 6908SOL    HW232184   4.410   3.797   2.484 -0.6928 -0.2425  1.7768
 6909SOL     OW32185   2.498   4.469  16.564 -0.6040  0.9024 -0.3337
 6909SOL    HW132186   2.476   4.426  16.481 -3.6055  1.1233  0.3446
 6909SOL    HW232187   2.514   4.560  16.537 -1.3407  1.0069 -0.4197
 6910SOL     OW32188   2.340   0.239   6.930  0.1278 -0.2566  0.3889
 6910SOL    HW132189   2.338   0.225   6.835  3.1819 -0.3801  0.3290
 6910SOL    HW232190   2.308   0.329   6.935 -1.6935 -0.8297 -1.0051
 6911SOL     OW32191   0.226   1.691   1.156  0.3932 -0.4961  0.0465
 6911SOL    HW132192   0.224   1.785   1.173  2.5175 -0.5271  0.3811
 6911SOL    HW232193   0.318   1.681   1.134  0.7306 -1.1814  1.7732
 6912SOL     OW32194   4.384   0.145   7.206  0.2769 -0.3441  0.4855
 6912SOL    HW132195   4.339   0.166   7.125 -0.8300  0.6695  1.3589
 6912SOL    HW232196   4.477   0.160   7.187  0.4773  1.1022  2.6126
 6913SOL     OW32197   4.366   2.058  13.366  0.6142  0.5322 -0.2677
 6913SOL    HW132198   4.403   2.085  13.450  0.1781 -1.4864  0.5592
 6913SOL    HW232199   4.274   2.073  13.388  0.5678 -0.4418  0.1921
 6914SOL     OW32200   1.707   0.654   5.582 -0.4616 -0.3765  0.4943
 6914SOL    HW132201   1.763   0.611   5.518 -0.4038  0.2692  0.1072
 6914SOL    HW232202   1.724   0.746   5.561 -1.3658 -0.7076 -1.7030
 6915SOL     OW32203   4.431   0.814   7.114 -0.4148 -0.0888  0.4992
 6915SOL    HW132204   4.344   0.851   7.126 -0.1767 -0.0953  2.3607
 6915SOL    HW232205   4.429   0.765   7.032 -1.4232 -1.4499  1.3211
 6916SOL     OW32206   2.231   2.001   5.479 -0.1645 -0.1789  0.2558
 6916SOL    HW132207   2.197   2.089   5.466  1.3369  0.3039 -0.3850
 6916SOL    HW232208   2.218   1.965   5.391 -0.9248  1.7349 -0.4053
 6917SOL     OW32209   1.310   1.489   2.477 -0.3718 -0.0591 -0.3230
 6917SOL    HW132210   1.369   1.562   2.498  1.4220 -0.9769 -2.1972
 6917SOL    HW232211   1.224   1.532   2.474  0.5471  1.6389 -2.1368
 6918SOL     OW32212   1.907   3.910   5.634 -0.3260  0.0687 -0.3786
 6918SOL    HW132213   1.865   3.824   5.628  0.0334 -0.2122  0.9919
 6918SOL    HW232214   1.909   3.932   5.728  0.6370 -2.0139  0.1017
 6919SOL     OW32215   0.060   3.625   1.480 -0.5536  0.1891  0.3237
 6919SOL    HW132216   0.046   3.547   1.534  2.3539  0.1817  1.0581
 6919SOL    HW232217   4.723   3.678   1.531 -0.6184 -1.3144  1.8060
 6920SOL     OW32218   0.433   0.789  12.418  0.0476 -0.3994 -0.5025
 6920SOL    HW132219   0.460   0.697  12.420  1.6806  0.1028  0.5097
 6920SOL    HW232220   0.510   0.845  12.419 -0.0530 -0.2547 -1.2157
 6921SOL     OW32221   4.363   3.149   6.891  0.2163 -0.3541  0.0927
 6921SOL    HW132222   4.389   3.138   6.983 -0.4184  2.0886  0.5686
 6921SOL    HW232223   4.277   3.106   6.897 -0.2809  0.5109 -0.8346
 6922SOL     OW32224   1.319   4.581   5.006 -0.2717  0.2198  0.3002
 6922SOL    HW132225   1.325   4.649   4.939  0.0938  0.1493  0.2620
 6922SOL    HW232226   1.301   4.633   5.085  1.5456 -0.3256  1.0682
 6923SOL     OW32227   1.468   3.236   1.024  0.0581 -0.4153 -0.2048
 6923SOL    HW132228   1.534   3.216   1.091  0.2777 -1.6197 -0.7780
 6923SOL    HW232229   1.409   3.161   1.026 -0.4886  0.0224  0.0324
 6924SOL     OW32230   3.387   3.581   5.640 -0.4271  0.3984  0.6888
 6924SOL    HW132231   3.318   3.521   5.666 -0.9559  0.4686 -0.5924
 6924SOL    HW232232   3.408   3.551   5.552 -0.0173 -0.6887  1.1673
 6925SOL     OW32233   0.684   3.561   9.155  0.5317 -0.2603 -0.2742
 6925SOL    HW132234   0.705   3.569   9.062 -1.2459  0.3255 -0.6291
 6925SOL    HW232235   0.674   3.655   9.167  0.8049 -0.3126  0.3890
 6926SOL     OW32236   2.626   1.027   0.883 -0.4033 -0.7773  0.1114
 6926SOL    HW132237   2.691   1.012   0.952  0.9172  1.5857 -0.6250
 6926SOL    HW232238   2.628   0.948   0.829  0.6111 -0.0059 -0.9761
 6927SOL     OW32239   0.351   4.543   0.703 -0.0475  0.3061  0.1579
 6927SOL    HW132240   0.276   4.505   0.748  0.8741 -0.7039  0.8479
 6927SOL    HW232241   0.366   4.479   0.633 -1.1160  1.8337 -1.4681
 6928SOL     OW32242   1.859   2.347   8.168  0.7400  0.0886  0.1500
 6928SOL    HW132243   1.875   2.421   8.109  0.8648  1.4310  1.8976
 6928SOL    HW232244   1.842   2.277   8.104 -3.3068  1.3926 -0.2521
 6929SOL     OW32245   4.600   1.053   5.037 -0.5487 -0.2108  0.0050
 6929SOL    HW132246   4.673   1.053   4.975 -1.2432 -1.5564 -0.8120
 6929SOL    HW232247   4.655   1.067   5.114 -2.4774 -0.4900  1.4307
 6930SOL     OW32248   3.074   1.982  11.448  0.3857  0.4502  0.7261
 6930SOL    HW132249   2.979   1.969  11.441  0.0692  2.8964  0.4187
 6930SOL    HW232250   3.094   1.932  11.527 -0.0717 -0.5078  0.2341
 6931SOL     OW32251   2.444   3.512   5.038  0.0844 -0.2883 -0.1906
 6931SOL    HW132252   2.451   3.604   5.063 -0.2390 -0.1432 -0.6426
 6931SOL    HW232253   2.492   3.506   4.956  2.2135  2.1469  0.8942
 6932SOL     OW32254   2.969   2.686   5.854  0.3782 -0.5206  0.1636
 6932SOL    HW132255   2.997   2.639   5.776 -0.6352 -2.0414  0.7171
 6932SOL    HW232256   2.989   2.626   5.925  1.9332 -1.5066 -1.1096
 6933SOL     OW32257   0.110   4.073   0.413 -0.0327 -0.1937  0.2790
 6933SOL    HW132258   0.138   3.985   0.386 -0.9571 -0.9733  1.8660
 6933SOL    HW232259   0.174   4.125   0.364 -2.0331  2.5509  0.5933
 6934SOL     OW32260   1.554   1.258   5.736 -0.1704 -0.1772 -0.8183
 6934SOL    HW132261   1.478   1.313   5.715  0.2720  0.4173 -0.8684
 6934SOL    HW232262   1.616   1.330   5.748 -2.0314  1.5296 -1.4420
 6935SOL     OW32263   1.679   2.085   3.742  0.5848 -0.1227 -0.0453
 6935SOL    HW132264   1.587   2.060   3.750  0.8467 -1.2485 -0.5410
 6935SOL    HW232265   1.714   2.018   3.683 -0.3568 -3.0705  2.7430
 6936SOL     OW32266   2.795   3.384   5.744  0.1956  0.0735 -0.0049
 6936SOL    HW132267   2.808   3.333   5.664  1.2869 -2.0675  1.5313
 6936SOL    HW232268   2.856   3.458   5.739  0.8943 -0.6222 -1.8313
 6937SOL     OW32269   0.548   2.308   6.646 -0.6402  0.4621 -1.1408
 6937SOL    HW132270   0.642   2.324   6.642 -0.3686 -0.9528 -0.5171
 6937SOL    HW232271   0.537   2.296   6.740  1.7093  0.5831 -0.8455
 6938SOL     OW32272   3.153   1.254   6.725 -0.2794 -0.3266 -0.2148
 6938SOL    HW132273   3.088   1.305   6.678 -0.1610 -0.5900 -0.6657
 6938SOL    HW232274   3.214   1.222   6.658 -1.0523 -1.0447 -0.5747
 6939SOL     OW32275   2.303   0.296   2.234  0.5357  0.0607  0.3595
 6939SOL    HW132276   2.356   0.371   2.208 -1.2895  1.6594  1.2819
 6939SOL    HW232277   2.318   0.239   2.159  0.9225  0.6504 -0.0075
 6940SOL     OW32278   1.118   1.681   9.233  0.5842  0.2141 -0.4169
 6940SOL    HW132279   1.031   1.655   9.263  1.0297  2.2393  2.6264
 6940SOL    HW232280   1.161   1.596   9.244  0.9784  0.2605 -1.5649
 6941SOL     OW32281   4.035   4.143  10.229  0.6655  0.1479  0.0131
 6941SOL    HW132282   4.119   4.168  10.268 -0.6780  1.7534  1.9107
 6941SOL    HW232283   4.040   4.048  10.236  0.7090  0.1462 -0.0399
 6942SOL     OW32284   3.791   1.899   2.203  0.3861 -0.0401  0.4775
 6942SOL    HW132285   3.837   1.819   2.229 -0.4428 -0.1612  1.5668
 6942SOL    HW232286   3.837   1.963   2.258  0.2812  1.3976 -1.1300
 6943SOL     OW32287   2.194   3.483  10.498 -0.2722 -0.1121  0.1406
 6943SOL    HW132288   2.285   3.512  10.485 -0.1579 -0.6538 -0.2804
 6943SOL    HW232289   2.212   3.416  10.565  2.3829  0.0735 -0.3826
 6944SOL     OW32290   0.928   4.198   3.802  0.0353 -1.1456  0.3900
 6944SOL    HW132291   0.853   4.247   3.769  1.0684  0.7437  0.8466
 6944SOL    HW232292   0.942   4.123   3.743 -1.1306  0.1436 -1.5220
 6945SOL     OW32293   1.329   1.721   3.236 -0.4040 -0.4024  0.0528
 6945SOL    HW132294   1.275   1.644   3.255 -0.5678 -0.1780  0.4948
 6945SOL    HW232295   1.337   1.693   3.145  0.3282  1.8190 -0.5772
 6946SOL     OW32296   0.158   3.340  16.428 -0.3122  0.0650  0.1513
 6946SOL    HW132297   0.209   3.420  16.413 -0.3962  0.5795  2.7686
 6946SOL    HW232298   0.166   3.343  16.523  1.5421 -3.0799  0.1055
 6947SOL     OW32299   3.627   0.519  15.214  0.1741  1.1691  0.2949
 6947SOL    HW132300   3.637   0.506  15.308 -0.3115 -3.4792 -0.3050
 6947SOL    HW232301   3.641   0.431  15.178 -1.4160  0.3596  1.6048
 6948SOL     OW32302   1.379   2.302   2.223 -0.1995 -0.5591  0.6049
 6948SOL    HW132303   1.468   2.268   2.234 -1.2189 -2.4201  3.0633
 6948SOL    HW232304   1.394   2.390   2.189  2.4092 -0.9019  0.9104
 6949SOL     OW32305   4.047   0.349   3.428 -0.6478  0.2980  0.1547
 6949SOL    HW132306   4.116   0.414   3.443 -1.3740  0.7575  1.4651
 6949SOL    HW232307   4.078   0.306   3.349  1.6563  0.7669  0.7972
 6950SOL     OW32308   1.286   4.412   9.730 -0.4398 -0.3174  0.1962
 6950SOL    HW132309   1.311   4.343   9.793 -1.5203 -0.9327 -0.0444
 6950SOL    HW232310   1.195   4.398   9.706 -0.1813 -2.0215  0.1501
 6951SOL     OW32311   2.663   4.180   8.722 -0.3417  0.2753  0.4206
 6951SOL    HW132312   2.595   4.167   8.656  1.2541  0.0141 -1.1531
 6951SOL    HW232313   2.612   4.202   8.800 -2.3816 -1.9794 -0.2826
 6952SOL     OW32314   4.034   4.620  11.257 -0.0301  0.1810 -0.4614
 6952SOL    HW132315   3.973   4.691  11.240 -1.3191 -1.1625 -1.3993
 6952SOL    HW232316   3.997   4.546  11.207  0.5905  0.0426 -0.7214
 6953SOL     OW32317   0.694   4.632  14.756  0.1198 -0.0756 -0.3096
 6953SOL    HW132318   0.737   4.657  14.838 -1.0326 -0.6091  0.4657
 6953SOL    HW232319   0.732   4.546  14.738  2.1671  0.6555  0.5869
 6954SOL     OW32320   0.029   2.512   8.344 -0.1273 -0.0210  0.6928
 6954SOL    HW132321   0.123   2.529   8.355  0.3500 -2.0108 -0.2270
 6954SOL    HW232322   0.013   2.418   8.335 -1.2326  0.2642 -0.2960
 6955SOL     OW32323   0.078   0.079   2.243  0.2810 -0.1506 -0.1918
 6955SOL    HW132324   0.077   0.020   2.318  0.7222  0.1505  0.0589
 6955SOL    HW232325   4.710   0.100   2.241  0.5837  1.2749  0.5384
 6956SOL     OW32326   4.015   1.381   6.318  0.1286  0.7012 -0.6849
 6956SOL    HW132327   3.977   1.335   6.392 -0.7649  0.2101 -1.4595
 6956SOL    HW232328   3.984   1.468   6.346  0.4461 -0.4332  3.1484
 6957SOL     OW32329   4.274   4.689   8.376  0.1388  0.0886 -0.4232
 6957SOL    HW132330   4.307   4.611   8.420  0.3177  1.2537  1.5200
 6957SOL    HW232331   4.183   4.693   8.404  0.3354 -2.4719  0.5674
 6958SOL     OW32332   4.409   4.045   4.147 -0.0400  0.4569  0.3696
 6958SOL    HW132333   4.429   4.000   4.065 -1.8199  1.6307 -0.6797
 6958SOL    HW232334   4.373   4.128   4.117 -1.0468 -0.0643  0.1408
 6959SOL     OW32335   3.175   3.473   6.855  0.0948 -0.1540 -0.0140
 6959SOL    HW132336   3.255   3.422   6.843  0.5533  0.9422 -1.5679
 6959SOL    HW232337   3.205   3.561   6.833  1.9246 -0.9066 -0.5329
 6960SOL     OW32338   4.477   4.453   8.884  0.0760 -0.2889 -0.0088
 6960SOL    HW132339   4.408   4.499   8.836 -1.5881 -1.7398  1.0039
 6960SOL    HW232340   4.444   4.441   8.973  0.2702 -1.4145 -0.0800
 6961SOL     OW32341   2.858   3.024   4.975  0.4958 -0.0147 -0.2741
 6961SOL    HW132342   2.836   2.959   4.908  0.6468 -0.5564  0.2039
 6961SOL    HW232343   2.772   3.065   4.985  0.9309  0.7873  0.1312
 6962SOL     OW32344   0.380   3.780   7.328  0.4550  0.4491  0.4489
 6962SOL    HW132345   0.346   3.730   7.253 -1.5110  2.1725  0.1812
 6962SOL    HW232346   0.309   3.843   7.344 -0.7087 -0.9318  0.7659
 6963SOL     OW32347   2.431   1.128   8.994 -0.0835 -0.3603 -0.3388
 6963SOL    HW132348   2.496   1.196   8.977 -0.6414  0.7604  2.0065
 6963SOL    HW232349   2.490   1.078   9.052 -0.8036  0.3199  0.9648
 6964SOL     OW32350   3.951   3.408   5.309 -1.1933 -0.0964  0.0254
 6964SOL    HW132351   3.973   3.426   5.400  2.2812 -0.6120 -0.7396
 6964SOL    HW232352   3.994   3.487   5.277 -1.1322 -0.3231 -0.4407
 6965SOL     OW32353   3.471   1.370  15.159  0.6258  1.3048 -0.3998
 6965SOL    HW132354   3.474   1.437  15.091  1.1176  2.4964  0.8059
 6965SOL    HW232355   3.554   1.382  15.206 -0.0290  0.5628  0.9391
 6966SOL     OW32356   4.429   1.489   4.289 -0.0067  0.5791 -0.6089
 6966SOL    HW132357   4.494   1.439   4.338  0.0020  0.9214 -0.2640
 6966SOL    HW232358   4.448   1.581   4.306 -2.0180  0.6272  1.4591
 6967SOL     OW32359   3.242   3.597   3.122 -0.6526 -0.3131 -0.1309
 6967SOL    HW132360   3.161   3.638   3.090  0.0176  1.4064  0.3886
 6967SOL    HW232361   3.201   3.540   3.187 -1.3925  2.0439  1.4695
 6968SOL     OW32362   0.969   0.445  15.755 -0.0313  0.4217  0.1080
 6968SOL    HW132363   0.884   0.462  15.794 -0.2468  0.5817 -0.4244
 6968SOL    HW232364   0.995   0.373  15.812 -0.7146  1.2301  1.4278
 6969SOL     OW32365   0.434   1.832   0.628 -0.9456 -0.0882  0.1452
 6969SOL    HW132366   0.402   1.760   0.574  1.0938 -0.0924 -1.0723
 6969SOL    HW232367   0.503   1.875   0.577 -0.8583 -0.0256  0.3157
 6970SOL     OW32368   1.021   1.071   2.129 -0.0669 -0.2104  0.3779
 6970SOL    HW132369   1.008   1.077   2.034  0.5562  1.7745  0.4353
 6970SOL    HW232370   1.053   0.981   2.131  2.1740  0.5748 -0.3585
 6971SOL     OW32371   1.955   0.524   9.946 -0.0635 -0.6700 -0.0061
 6971SOL    HW132372   2.029   0.471   9.976  0.1422 -0.8935 -0.9114
 6971SOL    HW232373   1.892   0.490  10.009  1.2607 -0.5191  1.4086
 6972SOL     OW32374   1.835   0.131  11.500 -0.1482 -0.4189 -0.2638
 6972SOL    HW132375   1.815   0.040  11.522 -0.5614 -0.1064  0.6450
 6972SOL    HW232376   1.911   0.136  11.558 -1.6417 -0.8339  1.7590
 6973SOL     OW32377   2.668   3.669   2.978 -0.0577  0.5909  0.5870
 6973SOL    HW132378   2.678   3.579   3.009 -0.3428  0.8276  1.3543
 6973SOL    HW232379   2.745   3.717   3.007 -0.1674  1.7961 -1.0855
 6974SOL     OW32380   3.808   2.749   5.382  0.8295  0.4839 -0.0023
 6974SOL    HW132381   3.787   2.743   5.475 -3.1690 -1.1345 -0.9930
 6974SOL    HW232382   3.826   2.841   5.366 -2.9533  1.0886 -0.7671
 6975SOL     OW32383   1.901   0.877   2.572 -0.0207  0.4710  0.4172
 6975SOL    HW132384   1.850   0.910   2.497  0.5605  0.1928 -0.1059
 6975SOL    HW232385   1.993   0.904   2.567  0.1749  0.0411  1.7377
 6976SOL     OW32386   4.218   4.300   6.993  0.1550 -0.0837  0.0978
 6976SOL    HW132387   4.203   4.328   6.902 -1.0982 -0.0753  0.3050
 6976SOL    HW232388   4.207   4.205   6.997 -0.2127  0.1347  3.9448
 6977SOL     OW32389   4.635   4.653   8.607  0.0796 -0.1999  0.1325
 6977SOL    HW132390   4.723   4.673   8.578 -1.2459  3.1462 -1.5390
 6977SOL    HW232391   4.602   4.596   8.538  1.6843 -2.6144  1.3699
 6978SOL     OW32392   4.140   0.063   4.817  0.0956  0.7092 -0.2169
 6978SOL    HW132393   4.208   0.070   4.750  0.2449 -0.8206 -0.2162
 6978SOL    HW232394   4.141   4.693   4.823 -1.6995  0.6699 -0.3172
 6979SOL     OW32395   2.354   4.480   8.729  0.2867  0.0221  0.1708
 6979SOL    HW132396   2.323   4.416   8.793  1.1563 -1.4097 -0.8395
 6979SOL    HW232397   2.358   4.420   8.655  1.7476  1.1868 -0.6838
 6980SOL     OW32398   4.207   3.274   1.333  0.1857  0.1544  0.2363
 6980SOL    HW132399   4.284   3.289   1.279  0.7712 -1.2460  0.6817
 6980SOL    HW232400   4.156   3.210   1.283  3.0140 -1.4186 -0.6312
 6981SOL     OW32401   2.058   4.286   4.879 -0.7888  0.3167 -0.4853
 6981SOL    HW132402   2.092   4.212   4.930  0.5305  1.0703 -0.2872
 6981SOL    HW232403   2.032   4.341   4.952  1.0755  0.4216  0.1005
 6982SOL     OW32404   1.392   0.139   3.645  0.1628 -0.5981  0.4227
 6982SOL    HW132405   1.417   0.094   3.565 -0.5988  0.3912 -0.3739
 6982SOL    HW232406   1.427   0.081   3.713 -1.1195  1.2424  2.6396
 6983SOL     OW32407   2.837   1.042   8.239  0.0789 -0.1625 -0.5629
 6983SOL    HW132408   2.822   0.959   8.284 -0.9679  0.9803  1.2014
 6983SOL    HW232409   2.928   1.027   8.214 -0.4297 -1.3653 -1.6104
 6984SOL     OW32410   0.823   1.778   4.055  0.2924  0.7097 -0.0897
 6984SOL    HW132411   0.749   1.758   4.113  0.7682 -0.2609  0.1772
 6984SOL    HW232412   0.890   1.734   4.107  0.7530  2.4495  0.8040
 6985SOL     OW32413   0.405   0.333   2.785  0.5098  0.1112  0.0385
 6985SOL    HW132414   0.443   0.246   2.790 -0.6442 -0.3716  0.3896
 6985SOL    HW232415   0.480   0.371   2.740  0.4366  0.3774  0.1347
 6986SOL     OW32416   4.255   2.187  14.751  0.2468  0.4334 -0.8336
 6986SOL    HW132417   4.218   2.177  14.839 -1.4261  0.6587 -1.5141
 6986SOL    HW232418   4.218   2.273  14.731  0.3669  1.1601  2.0216
 6987SOL     OW32419   1.784   4.010  12.361 -0.2271  0.4191  0.2463
 6987SOL    HW132420   1.702   3.961  12.353  0.3364 -0.2051 -1.4950
 6987SOL    HW232421   1.774   4.034  12.454 -0.1513 -2.7786  1.0649
 6988SOL     OW32422   0.775   3.784   9.529 -0.1643 -0.0595 -0.1594
 6988SOL    HW132423   0.800   3.692   9.516 -1.5773 -0.3256 -0.9324
 6988SOL    HW232424   0.721   3.795   9.451  0.5690  1.0450 -0.5074
 6989SOL     OW32425   4.174   3.132   6.120 -0.1888 -0.6485 -0.0606
 6989SOL    HW132426   4.107   3.090   6.065 -0.5589  0.0575 -0.1485
 6989SOL    HW232427   4.128   3.139   6.203 -2.1417  0.0947 -1.1923
 6990SOL     OW32428   1.132   1.258   2.594  0.0900  0.9285  0.1194
 6990SOL    HW132429   1.183   1.327   2.553 -0.6120  0.5520 -1.4169
 6990SOL    HW232430   1.070   1.233   2.525 -0.8271 -0.8265  1.5691
 6991SOL     OW32431   4.081   3.675   5.681  0.0920 -0.2304 -0.0284
 6991SOL    HW132432   4.173   3.693   5.699 -0.1396  0.3383  0.5975
 6991SOL    HW232433   4.048   3.759   5.651  1.3642  0.9810  1.9514
 6992SOL     OW32434   2.999   4.674   9.420  0.2190  0.0269 -0.7731
 6992SOL    HW132435   3.002   4.703   9.329 -1.0220  0.8759 -0.5425
 6992SOL    HW232436   2.940   0.016   9.453 -0.1432 -0.4692 -0.4181
 6993SOL     OW32437   2.220   0.055   1.506 -0.2166 -0.1693  0.1929
 6993SOL    HW132438   2.212   4.719   1.580  0.5731 -0.7719 -0.2183
 6993SOL    HW232439   2.299   0.019   1.466 -0.7010  0.3110 -1.1797
 6994SOL     OW32440   0.091   2.413   6.446 -0.3298  0.5637  0.6186
 6994SOL    HW132441   0.119   2.499   6.416 -0.1644  0.0593 -0.6812
 6994SOL    HW232442   0.014   2.437   6.497 -1.1962  0.6967 -0.7521
 6995SOL     OW32443   3.637   3.319  10.555 -0.4848 -0.2674 -0.4056
 6995SOL    HW132444   3.672   3.236  10.588  2.7885  0.6103 -1.6993
 6995SOL    HW232445   3.545   3.297  10.538 -0.7726  1.2781 -0.8304
 6996SOL     OW32446   4.653   4.664   8.910 -0.3085 -0.3659 -0.3796
 6996SOL    HW132447   4.577   4.609   8.930 -0.4301  0.2232  0.8079
 6996SOL    HW232448   4.679   4.620   8.829 -2.1295  2.1571 -2.2993
 6997SOL     OW32449   4.138   3.716   3.958 -0.4842  0.0331 -0.1099
 6997SOL    HW132450   4.203   3.732   4.027 -0.1553 -0.7560 -0.2362
 6997SOL    HW232451   4.052   3.709   4.000  0.0840 -0.3195  0.9859
 6998SOL     OW32452   0.883   0.811   8.913  0.1276  0.2217  0.2067
 6998SOL    HW132453   0.832   0.866   8.853 -0.9526 -0.6816  0.2842
 6998SOL    HW232454   0.816   0.756   8.955  1.4053 -2.0359 -0.7216
 6999SOL     OW32455   2.962   3.989   4.823  0.0099 -0.1872  0.0750
 6999SOL    HW132456   3.042   3.962   4.869  0.7090 -2.1513 -2.2842
 6999SOL    HW232457   2.913   3.908   4.831  1.5451 -1.0757  0.5803
 7000SOL     OW32458   1.331   0.375   6.540  0.2523 -0.0541 -0.6491
 7000SOL    HW132459   1.417   0.341   6.516  0.0637 -0.8924 -0.1512
 7000SOL    HW232460   1.283   0.335   6.468 -1.8107  2.2238 -0.5607
 7001SOL     OW32461   3.955   0.164   4.507  0.3040 -0.1625  0.2655
 7001SOL    HW132462   3.897   0.216   4.452  1.3495 -0.0032 -0.6904
 7001SOL    HW232463   4.038   0.207   4.488 -0.4209  1.6845  1.2679
 7002SOL     OW32464   0.715   2.938   4.295 -0.4826 -0.1556 -0.5271
 7002SOL    HW132465   0.711   2.858   4.243 -2.4028  0.0896 -0.7811
 7002SOL    HW232466   0.738   3.001   4.226 -0.8886  1.1192  0.4925
 7003SOL     OW32467   2.371   3.391   6.655 -0.3572  0.3281  0.1331
 7003SOL    HW132468   2.441   3.427   6.600 -0.0024  1.4970  1.3547
 7003SOL    HW232469   2.423   3.346   6.721 -0.5392  0.6852  0.5189
 7004SOL     OW32470   2.440   1.537  10.796  0.2450 -0.5001  0.2269
 7004SOL    HW132471   2.430   1.606  10.732  0.2830  0.2897  1.0759
 7004SOL    HW232472   2.421   1.587  10.876 -2.4301 -0.7133 -0.2913
 7005SOL     OW32473   0.913   3.009  12.515  0.4271 -0.6416 -0.7734
 7005SOL    HW132474   0.841   2.967  12.562  0.8443  1.7340  2.0488
 7005SOL    HW232475   0.901   3.101  12.539  1.9390 -1.0795  1.6991
 7006SOL     OW32476   4.220   3.553  11.880  0.1020  0.0872 -0.3163
 7006SOL    HW132477   4.261   3.477  11.921  1.8238  3.0641  3.4617
 7006SOL    HW232478   4.149   3.512  11.831  0.5926  0.6829 -1.5129
 7007SOL     OW32479   1.390   0.570  10.295  0.5237 -0.5262 -0.0207
 7007SOL    HW132480   1.410   0.501  10.231  1.1411 -0.7078  0.3695
 7007SOL    HW232481   1.436   0.638  10.247 -0.7891  0.5643  0.2583
 7008SOL     OW32482   2.866   3.395   0.179 -0.8436  0.2874  0.5439
 7008SOL    HW132483   2.881   3.452   0.254 -1.6734  1.1649  0.0377
 7008SOL    HW232484   2.956   3.379   0.150 -0.7465  1.6660  0.0877
 7009SOL     OW32485   4.569   1.283   0.431  0.3492 -0.1078  0.3353
 7009SOL    HW132486   4.499   1.344   0.407 -0.0563 -0.8206 -0.3182
 7009SOL    HW232487   4.528   1.197   0.428  0.8026 -0.2675 -1.6500
 7010SOL     OW32488   2.240   4.091   6.939  0.2804 -0.4843 -0.6707
 7010SOL    HW132489   2.186   4.013   6.926  0.2422 -0.3562 -1.3136
 7010SOL    HW232490   2.322   4.050   6.909  1.1642  0.6468  0.1904
 7011SOL     OW32491   2.081   1.225   9.641  0.7405  0.2768 -0.1301
 7011SOL    HW132492   2.153   1.231   9.579  0.1762 -1.5112 -0.9545
 7011SOL    HW232493   2.071   1.320   9.650  0.9669  0.5671 -3.0481
 7012SOL     OW32494   4.509   3.994  15.482 -0.0990  0.0256 -0.1037
 7012SOL    HW132495   4.575   4.032  15.424  0.0690 -0.0134  0.0602
 7012SOL    HW232496   4.436   4.055  15.475  1.7080  2.2212 -0.0353
 7013SOL     OW32497   2.512   0.170   5.125 -0.0902  0.9445  0.0895
 7013SOL    HW132498   2.497   0.253   5.080 -2.5257 -1.5649 -3.7216
 7013SOL    HW232499   2.576   0.125   5.070 -0.1973  1.4254 -0.4337
 7014SOL     OW32500   4.589   0.532   7.182 -0.4197 -0.1227 -0.1211
 7014SOL    HW132501   4.497   0.528   7.154 -0.0796 -1.7406 -1.0327
 7014SOL    HW232502   4.618   0.601   7.122 -2.1678 -0.8061 -1.7851
 7015SOL     OW32503   3.097   0.610   2.213 -0.0474 -0.0795  0.1855
 7015SOL    HW132504   3.107   0.700   2.183  0.2592  0.1925  1.1063
 7015SOL    HW232505   3.185   0.582   2.188  0.2275  0.0437  1.0155
 7016SOL     OW32506   3.855   4.354  10.233  0.0231 -0.1377  0.5270
 7016SOL    HW132507   3.921   4.285  10.231  0.7257  0.6040 -1.4563
 7016SOL    HW232508   3.910   4.414  10.183 -1.5961  0.6113 -0.3300
 7017SOL     OW32509   1.234   3.417   8.296  0.4749 -0.0080  0.2598
 7017SOL    HW132510   1.178   3.493   8.278 -0.4675 -0.9273 -0.7368
 7017SOL    HW232511   1.273   3.443   8.379 -1.5500 -0.6416  1.4169
 7018SOL     OW32512   4.541   3.444  15.826 -0.3808 -0.1947 -0.6181
 7018SOL    HW132513   4.576   3.471  15.911 -1.2765  0.4472 -0.4575
 7018SOL    HW232514   4.608   3.379  15.806  1.0012  1.0007  0.1300
 7019SOL     OW32515   2.386   2.327  16.799 -0.7249  0.0715  0.2345
 7019SOL    HW132516   2.398   2.404  16.743  0.6366 -0.8587 -0.7485
 7019SOL    HW232517   2.478   2.302  16.812 -0.7984 -0.8065 -0.9696
 7020SOL     OW32518   2.587   3.681   6.723 -0.6712 -0.3901  0.6956
 7020SOL    HW132519   2.540   3.656   6.643 -1.8183  0.5054  1.1082
 7020SOL    HW232520   2.518   3.659   6.785 -1.8066  0.0229 -0.4110
 7021SOL     OW32521   4.376   2.028   2.348  0.1659 -0.7551 -0.4821
 7021SOL    HW132522   4.380   1.938   2.317  1.2588 -0.9346  0.1724
 7021SOL    HW232523   4.294   2.060   2.310  0.3768  0.2859 -0.0596
 7022SOL     OW32524   2.550   3.126   7.966 -0.0223 -0.1524 -0.1992
 7022SOL    HW132525   2.585   3.178   7.894 -0.8238  0.1296 -0.3895
 7022SOL    HW232526   2.467   3.174   7.973 -0.1109 -0.1895 -1.0457
 7023SOL     OW32527   0.941   2.001   2.153  1.0811  0.3427  0.1729
 7023SOL    HW132528   0.946   1.973   2.062  1.5118 -0.8031  0.5443
 7023SOL    HW232529   0.850   1.977   2.167  1.2197 -1.1497 -1.4861
 7024SOL     OW32530   0.007   3.813  13.702 -0.3678 -0.2203 -0.2259
 7024SOL    HW132531   4.639   3.794  13.687  0.1417 -2.5374 -0.4064
 7024SOL    HW232532   0.013   3.819  13.797 -1.2804 -1.2111 -0.1146
 7025SOL     OW32533   3.035   2.200   6.709  0.3591  0.3112 -0.0058
 7025SOL    HW132534   3.096   2.243   6.769  0.3487 -0.4787  0.5780
 7025SOL    HW232535   2.956   2.246   6.736  1.7048  3.5938 -1.7117
 7026SOL     OW32536   1.642   1.186   3.478  0.2557  0.7418 -0.0979
 7026SOL    HW132537   1.699   1.178   3.401  1.4181 -0.0646  0.8454
 7026SOL    HW232538   1.580   1.254   3.452  1.0149  0.3791 -2.9120
 7027SOL     OW32539   4.522   2.254  14.733 -0.5163  0.2470 -0.3109
 7027SOL    HW132540   4.534   2.258  14.638  1.5187  0.2313 -0.0709
 7027SOL    HW232541   4.429   2.233  14.741 -0.4343  0.5058  1.4591
 7028SOL     OW32542   0.155   3.534   9.333  0.0982 -0.1638 -0.9011
 7028SOL    HW132543   0.060   3.534   9.320 -0.0971  1.1512  0.5016
 7028SOL    HW232544   0.169   3.485   9.414 -0.2268  1.9321  0.4212
 7029SOL     OW32545   3.442   1.784   4.124 -0.3554 -0.2576  0.3129
 7029SOL    HW132546   3.447   1.754   4.034 -4.4780  1.4380 -0.5116
 7029SOL    HW232547   3.493   1.716   4.168 -1.7701  0.1192  2.5919
 7030SOL     OW32548   3.980   1.255   6.927  0.8531  0.2145 -0.2955
 7030SOL    HW132549   3.926   1.266   7.005  2.4405 -0.9031  0.9647
 7030SOL    HW232550   3.937   1.311   6.863  0.0716  0.2462  0.2595
 7031SOL     OW32551   4.008   2.770  11.370  0.3127  0.1601 -0.2071
 7031SOL    HW132552   3.947   2.727  11.310 -1.5942  0.4818  1.4994
 7031SOL    HW232553   4.083   2.718  11.341 -0.1199 -1.3638  1.3938
 7032SOL     OW32554   3.887   1.008  14.475  0.2210  0.2074  0.1229
 7032SOL    HW132555   3.903   1.034  14.566  1.4954 -0.2733  0.0499
 7032SOL    HW232556   3.859   0.917  14.489 -0.9496  0.2904 -1.7041
 7033SOL     OW32557   0.540   0.286   1.672  0.4291 -0.1057 -0.4081
 7033SOL    HW132558   0.477   0.231   1.720  2.6715 -1.2142  1.2613
 7033SOL    HW232559   0.542   0.358   1.735  1.2172 -0.3267 -0.1784
 7034SOL     OW32560   4.294   0.823   3.359  0.5933  0.1097 -0.1596
 7034SOL    HW132561   4.388   0.840   3.351  0.9611 -0.6759  2.4553
 7034SOL    HW232562   4.267   0.902   3.311  0.5059 -0.6099 -1.2818
 7035SOL     OW32563   3.662   1.423   3.470  0.2714 -0.5282  0.8648
 7035SOL    HW132564   3.737   1.379   3.430 -0.1122 -2.7246  2.5769
 7035SOL    HW232565   3.700   1.477   3.539  3.3913 -1.8895  0.1730
 7036SOL     OW32566   3.426   1.976  12.576 -0.5238 -0.0941 -0.4373
 7036SOL    HW132567   3.520   1.978  12.597 -0.6587 -1.4335  0.2402
 7036SOL    HW232568   3.406   2.056  12.624  2.0326 -0.8420  1.9019
 7037SOL     OW32569   0.656   2.232   1.952 -0.0800 -0.1252 -0.3331
 7037SOL    HW132570   0.603   2.228   1.872 -1.6496  0.9544  0.6308
 7037SOL    HW232571   0.739   2.255   1.911  0.2092 -0.1832  0.2277
 7038SOL     OW32572   2.955   1.205   0.231 -0.3602 -0.0092 -0.0454
 7038SOL    HW132573   2.924   1.290   0.201 -2.1578 -0.5937  0.1229
 7038SOL    HW232574   3.011   1.241   0.300  1.3079 -0.8759 -0.9538
 7039SOL     OW32575   4.412   2.882   1.753 -0.6087 -0.3941  0.1242
 7039SOL    HW132576   4.336   2.931   1.786 -1.2708 -1.3820  0.0567
 7039SOL    HW232577   4.377   2.793   1.746 -1.2361 -0.2135  1.0412
 7040SOL     OW32578   3.498   3.038   2.393 -0.0664  0.7230  0.3826
 7040SOL    HW132579   3.447   2.986   2.331  0.5221  0.5678  0.0320
 7040SOL    HW232580   3.585   3.049   2.356 -0.3843 -1.4233 -0.9533
 7041SOL     OW32581   3.478   2.626   1.275 -0.5495  0.0080 -0.0576
 7041SOL    HW132582   3.545   2.670   1.328 -1.7228  1.6893  0.0308
 7041SOL    HW232583   3.406   2.689   1.280 -0.6085 -0.0273 -0.5373
 7042SOL     OW32584   0.851   2.683   7.340  0.4097 -0.1630 -0.3320
 7042SOL    HW132585   0.874   2.627   7.414 -2.4168  0.3267  0.9106
 7042SOL    HW232586   0.936   2.691   7.297 -0.3985  0.3393 -1.8419
 7043SOL     OW32587   0.791   2.659   6.766  0.4401 -0.2611 -0.5909
 7043SOL    HW132588   0.748   2.637   6.683 -1.5055 -1.0961  0.6346
 7043SOL    HW232589   0.783   2.576   6.814  2.5614  0.1028  0.3827
 7044SOL     OW32590   4.539   1.650   6.004 -0.0106  0.1235 -0.1541
 7044SOL    HW132591   4.611   1.601   5.966 -0.5953  1.2571 -2.7831
 7044SOL    HW232592   4.493   1.685   5.927 -0.5663  0.3291  0.2666
 7045SOL     OW32593   0.076   0.278  10.977 -0.2849 -0.1186  0.0684
 7045SOL    HW132594   0.055   0.344  11.043 -1.1721 -0.5826  0.2468
 7045SOL    HW232595   0.014   0.307  10.910  0.4043 -1.0328 -0.9426
 7046SOL     OW32596   2.516   0.751   1.787 -0.0981 -0.3062 -0.2079
 7046SOL    HW132597   2.447   0.685   1.787 -1.6394  1.2923 -1.2450
 7046SOL    HW232598   2.591   0.702   1.820 -2.2109 -1.2407  3.1255
 7047SOL     OW32599   1.919   0.096   8.683 -0.1731 -0.0452  0.2344
 7047SOL    HW132600   1.931   0.170   8.741  0.8306 -0.1666  0.1799
 7047SOL    HW232601   2.007   0.058   8.682 -0.5678 -0.9519 -0.2867
 7048SOL     OW32602   3.384   0.015   4.928 -0.0725 -0.3545 -0.1517
 7048SOL    HW132603   3.336   4.660   4.906  1.0000 -0.8654 -0.6333
 7048SOL    HW232604   3.438   0.032   4.850  0.1898  0.1115  0.1318
 7049SOL     OW32605   0.798   3.973   2.442  0.0614  0.0853 -0.3936
 7049SOL    HW132606   0.713   3.978   2.399 -0.1658 -2.0536 -0.1901
 7049SOL    HW232607   0.832   4.060   2.421 -1.8944  0.5890 -1.4080
 7050SOL     OW32608   3.330   0.104   4.269  0.3543  0.4813 -0.6324
 7050SOL    HW132609   3.345   0.134   4.359  1.1498  2.1230 -1.3171
 7050SOL    HW232610   3.256   0.162   4.250  1.7405  1.6893 -2.2732
 7051SOL     OW32611   3.198   2.612   5.377  0.2014 -0.8063  0.3521
 7051SOL    HW132612   3.270   2.675   5.371  1.2081 -1.8967  0.8632
 7051SOL    HW232613   3.247   2.530   5.381  2.2556  0.4577  1.0900
 7052SOL     OW32614   4.018   2.675  17.383 -0.0852 -0.7210 -0.2188
 7052SOL    HW132615   4.099   2.721  17.361 -1.0555  1.3072  0.4329
 7052SOL    HW232616   3.976   2.744  17.434 -1.8076 -1.9759  0.0605
 7053SOL     OW32617   1.116   2.860   8.675  0.3408  0.3249 -0.1211
 7053SOL    HW132618   1.039   2.866   8.731 -0.0363 -2.1345 -0.3669
 7053SOL    HW232619   1.090   2.806   8.601  0.1635  2.0124 -1.2944
 7054SOL     OW32620   1.203   1.538   8.177 -0.3236 -0.7192 -0.4425
 7054SOL    HW132621   1.234   1.479   8.245 -1.1387 -0.3998  0.2059
 7054SOL    HW232622   1.270   1.515   8.112  1.2231 -2.1156  1.6407
 7055SOL     OW32623   4.042   3.523  17.113  0.0833 -0.3450 -0.5314
 7055SOL    HW132624   4.113   3.515  17.177 -0.1767  1.3885 -0.0383
 7055SOL    HW232625   3.984   3.581  17.161 -2.2642 -2.2356 -1.0813
 7056SOL     OW32626   4.640   1.606  16.460  0.3659 -0.1383  0.2956
 7056SOL    HW132627   4.651   1.540  16.529  0.6954 -1.0078 -0.5789
 7056SOL    HW232628   0.001   1.648  16.462  1.2154 -1.8153 -0.2866
 7057SOL     OW32629   2.017   4.557   4.315 -0.1523 -0.5583  0.7410
 7057SOL    HW132630   2.029   4.544   4.221  1.8286  0.2060  0.8758
 7057SOL    HW232631   1.944   4.502   4.342  0.3156 -0.7128  1.7115
 7058SOL     OW32632   1.872   3.036   5.097  0.0756 -0.7774  0.5224
 7058SOL    HW132633   1.932   2.961   5.105 -0.1748 -0.9010  1.2517
 7058SOL    HW232634   1.908   3.095   5.163  0.2860 -1.1500  0.7461
 7059SOL     OW32635   1.612   3.361  15.272 -0.0215  0.1308 -0.4368
 7059SOL    HW132636   1.661   3.311  15.338 -0.4424  1.2386  0.7294
 7059SOL    HW232637   1.613   3.293  15.205 -0.8067 -0.3075  0.0024
 7060SOL     OW32638   4.639   4.465   7.151 -0.0640 -0.0414  0.0943
 7060SOL    HW132639   4.544   4.466   7.145 -0.0432  1.7131  0.0237
 7060SOL    HW232640   4.671   4.554   7.134  1.7586 -0.2447  2.4777
 7061SOL     OW32641   2.357   1.780  16.090  0.0295 -0.2740 -0.3042
 7061SOL    HW132642   2.291   1.848  16.077 -0.5784 -0.9523 -0.6707
 7061SOL    HW232643   2.406   1.776  16.008  0.2948 -3.5583  0.0059
 7062SOL     OW32644   2.785   1.773   3.236  0.2923  1.1309 -0.1681
 7062SOL    HW132645   2.869   1.732   3.218  0.6177  1.0992  1.4995
 7062SOL    HW232646   2.793   1.841   3.169 -3.0765  2.6468  0.9614
 7063SOL     OW32647   4.290   2.511   8.969  0.0130  0.2853 -0.0764
 7063SOL    HW132648   4.360   2.541   9.026  1.8258 -2.5701 -0.7774
 7063SOL    HW232649   4.255   2.440   9.022  1.3155 -0.2904 -0.0042
 7064SOL     OW32650   0.196   1.837   7.954 -0.3523 -0.1320 -0.6520
 7064SOL    HW132651   0.270   1.782   7.979  0.4261  0.2505 -2.0736
 7064SOL    HW232652   0.144   1.785   7.893  0.6398 -0.1575 -1.4881
 7065SOL     OW32653   3.168   2.130   6.329  0.4789  0.0599  0.0598
 7065SOL    HW132654   3.252   2.151   6.289  0.1297 -1.4442 -1.4685
 7065SOL    HW232655   3.108   2.136   6.254  1.3075 -1.0419 -0.6864
 7066SOL     OW32656   4.484   4.196  16.527  0.2951  0.5553  0.3259
 7066SOL    HW132657   4.429   4.252  16.582  0.2169  1.1025 -0.3172
 7066SOL    HW232658   4.518   4.141  16.597  0.3741 -1.1207 -1.0272
 7067SOL     OW32659   0.269   0.417  15.454 -0.1658  0.1966  0.0411
 7067SOL    HW132660   0.207   0.344  15.455 -0.5196  0.4954 -0.0133
 7067SOL    HW232661   0.217   0.481  15.406  0.4651 -0.0993 -1.0255
 7068SOL     OW32662   2.182   2.273   0.873  0.1973 -0.1954 -0.4354
 7068SOL    HW132663   2.229   2.220   0.938  0.2960  0.4968  0.0581
 7068SOL    HW232664   2.175   2.210   0.801 -0.0413  0.3743 -0.9091
 7069SOL     OW32665   0.490   2.895   1.803 -0.5166  0.1581 -0.1349
 7069SOL    HW132666   0.425   2.965   1.804 -1.7096 -0.9378  0.4829
 7069SOL    HW232667   0.439   2.815   1.787 -1.1117 -0.0055  2.5292
 7070SOL     OW32668   0.699   3.466  13.812  0.3892  0.7696 -0.5709
 7070SOL    HW132669   0.734   3.381  13.786  0.3849  0.5772  0.0464
 7070SOL    HW232670   0.761   3.493  13.879 -0.3364  1.1963 -0.0700
 7071SOL     OW32671   2.487   2.686   6.567 -0.6429 -0.6641 -0.0964
 7071SOL    HW132672   2.557   2.751   6.557 -0.8362 -0.9201 -3.0784
 7071SOL    HW232673   2.405   2.735   6.579  0.8782  1.9108 -0.2218
 7072SOL     OW32674   4.303   0.981  14.764  0.4686 -0.1240 -0.0217
 7072SOL    HW132675   4.290   0.887  14.781 -1.2823 -0.0964 -1.1798
 7072SOL    HW232676   4.361   1.014  14.831 -2.0734 -1.7391  3.0008
 7073SOL     OW32677   1.166   3.736  11.346  0.2865  0.0323 -0.0278
 7073SOL    HW132678   1.121   3.740  11.262 -0.8542  0.0047  0.5856
 7073SOL    HW232679   1.230   3.808  11.346  1.5565 -1.0832  0.7095
 7074SOL     OW32680   1.775   0.557   4.604  0.1836 -0.1881 -0.0389
 7074SOL    HW132681   1.723   0.628   4.567  0.7799  0.5768  0.5965
 7074SOL    HW232682   1.703   0.512   4.649 -0.4200 -0.5836 -1.4085
 7075SOL     OW32683   3.522   0.555   5.287 -0.2281  0.3421  0.1899
 7075SOL    HW132684   3.554   0.620   5.224  1.0579  1.1445  1.6448
 7075SOL    HW232685   3.451   0.507   5.245 -0.7618  1.5620 -0.2974
 7076SOL     OW32686   3.365   1.412   5.508  0.2729 -0.5984  0.4859
 7076SOL    HW132687   3.338   1.448   5.424 -1.1869  0.8827  1.5822
 7076SOL    HW232688   3.458   1.393   5.497  0.2410  0.5512 -1.5941
 7077SOL     OW32689   1.953   0.814   2.862  0.3093  0.1392  0.3297
 7077SOL    HW132690   2.013   0.742   2.879  0.8706  1.2615  3.0242
 7077SOL    HW232691   1.912   0.795   2.777  1.1036 -1.9324  0.4161
 7078SOL     OW32692   2.771   0.290   3.936  0.0491  0.5976  0.3224
 7078SOL    HW132693   2.823   0.275   3.857 -2.4263  0.5131 -1.2856
 7078SOL    HW232694   2.841   0.312   3.998  1.3963 -0.1741 -0.9273
 7079SOL     OW32695   2.781   0.059   3.383 -0.1348 -0.1749  0.5730
 7079SOL    HW132696   2.860   0.004   3.392  0.1842  0.3458  0.9508
 7079SOL    HW232697   2.710   4.720   3.385 -1.0375  0.8090 -0.4342
 7080SOL     OW32698   1.842   1.486   7.114  0.3535  0.2161 -0.9710
 7080SOL    HW132699   1.759   1.445   7.139  0.9809  0.2835  1.1930
 7080SOL    HW232700   1.868   1.422   7.047 -0.6247 -3.9226  2.6235
 7081SOL     OW32701   4.292   1.830  13.715 -0.2293  0.1683 -0.5439
 7081SOL    HW132702   4.269   1.780  13.794 -0.0527  1.5149  0.3602
 7081SOL    HW232703   4.278   1.759  13.652 -0.1110 -1.9907  1.8569
 7082SOL     OW32704   1.336   2.309   9.557 -0.4373  0.1036 -0.2551
 7082SOL    HW132705   1.327   2.355   9.640 -1.7566 -0.4294 -0.0927
 7082SOL    HW232706   1.413   2.256   9.573  1.6419  2.9400 -0.9606
 7083SOL     OW32707   1.394   0.001  12.942 -0.3870  0.5413  0.7721
 7083SOL    HW132708   1.344   0.074  12.905  1.8159  1.4053 -0.4378
 7083SOL    HW232709   1.382   4.659  12.874  3.3832  1.0646 -0.3553
 7084SOL     OW32710   1.251   0.328   1.186 -0.3260 -0.3078 -0.4812
 7084SOL    HW132711   1.323   0.267   1.203 -1.3737 -1.1729  0.8227
 7084SOL    HW232712   1.189   0.265   1.150  0.9697 -1.2870 -1.0103
 7085SOL     OW32713   3.237   2.109  16.899 -0.0830  0.2806 -0.1229
 7085SOL    HW132714   3.233   2.032  16.955  0.1628 -2.0670 -3.3405
 7085SOL    HW232715   3.225   2.176  16.966  3.0178  0.3409  0.3556
 7086SOL     OW32716   3.167   1.245   5.986  0.3618  0.2205 -0.5447
 7086SOL    HW132717   3.207   1.290   5.912 -0.8697  1.3093 -0.5497
 7086SOL    HW232718   3.206   1.286   6.063 -0.8029 -1.0984  0.7394
 7087SOL     OW32719   1.096   2.779   0.929 -0.3430  0.9260 -0.7945
 7087SOL    HW132720   1.073   2.687   0.943 -1.0082  1.0989 -0.7632
 7087SOL    HW232721   1.110   2.812   1.017  1.1038 -1.3677 -0.1876
 7088SOL     OW32722   2.180   3.018   7.661 -0.3136 -0.0843 -0.0473
 7088SOL    HW132723   2.270   2.999   7.635 -1.2725 -0.6633 -2.8939
 7088SOL    HW232724   2.140   2.932   7.655  0.4172 -0.3325 -1.1478
 7089SOL     OW32725   3.376   3.773  16.069 -0.4863 -0.3831 -0.3934
 7089SOL    HW132726   3.428   3.698  16.099  2.4284  1.1561 -1.6231
 7089SOL    HW232727   3.410   3.784  15.980 -0.7478  0.6919 -0.3591
 7090SOL     OW32728   0.436   2.954  14.600 -0.6336  0.0465 -0.0699
 7090SOL    HW132729   0.379   2.935  14.525 -0.1586 -0.4574 -0.3051
 7090SOL    HW232730   0.454   2.869  14.638  0.4148 -0.8575 -2.5743
 7091SOL     OW32731   1.870   3.271   7.872 -0.1838  0.0409  0.0478
 7091SOL    HW132732   1.821   3.313   7.802  0.8498 -1.6534 -1.6716
 7091SOL    HW232733   1.809   3.297   7.941 -1.6046 -1.0503 -0.7942
 7092SOL     OW32734   2.781   0.976   6.128 -0.3386  0.2514  0.1856
 7092SOL    HW132735   2.860   0.927   6.153  0.9910  1.7001 -1.1589
 7092SOL    HW232736   2.812   1.066   6.116 -1.2240  0.7363  1.5558
 7093SOL     OW32737   1.139   2.799   8.275  0.6783  0.5119  0.4465
 7093SOL    HW132738   1.095   2.867   8.326 -0.8152  0.9893 -1.4954
 7093SOL    HW232739   1.224   2.798   8.320  0.5735 -0.4522  0.6317
 7094SOL     OW32740   0.032   4.132   5.702  0.0277  0.3067 -0.3168
 7094SOL    HW132741   0.079   4.053   5.674  2.1212  1.1924  0.6192
 7094SOL    HW232742   0.103   4.155   5.763 -1.2769 -0.6265  1.5601
 7095SOL     OW32743   0.981   0.520   3.403  0.2792  0.4375  0.0527
 7095SOL    HW132744   1.015   0.518   3.313 -1.0112 -0.4411 -0.4252
 7095SOL    HW232745   0.908   0.459   3.397  0.7577  0.1142 -2.7139
 7096SOL     OW32746   2.005   3.008   4.262  0.4608  0.7121  0.1067
 7096SOL    HW132747   1.970   3.092   4.291 -3.1961 -0.5864 -0.4885
 7096SOL    HW232748   1.926   2.956   4.279  0.5447  0.8223  0.8416
 7097SOL     OW32749   1.629   2.908   5.388 -0.1171  0.0235  0.6424
 7097SOL    HW132750   1.592   2.874   5.307  1.1798 -1.2616  0.5998
 7097SOL    HW232751   1.652   2.993   5.351 -2.1177 -0.8115 -2.5773
 7098SOL     OW32752   3.519   3.561   2.142 -0.1331 -0.3259  0.0427
 7098SOL    HW132753   3.601   3.609   2.156  0.2576 -1.5872  2.0854
 7098SOL    HW232754   3.463   3.597   2.210 -3.2441 -0.4500 -2.4550
 7099SOL     OW32755   2.558   2.474   9.063 -0.0419 -0.8344 -0.0544
 7099SOL    HW132756   2.569   2.379   9.055 -0.9777 -0.9057 -0.4760
 7099SOL    HW232757   2.636   2.509   9.021  0.4585 -1.2818  0.5041
 7100SOL     OW32758   3.489   3.347   1.975 -0.0074  0.3487 -0.0118
 7100SOL    HW132759   3.394   3.354   1.989  0.0045 -0.9483  0.7740
 7100SOL    HW232760   3.521   3.410   2.040  1.4937 -1.1110  0.6605
 7101SOL     OW32761   3.881   0.113  11.211 -0.2057  0.5294 -0.4089
 7101SOL    HW132762   3.934   0.179  11.167 -0.0602  0.4887 -0.2915
 7101SOL    HW232763   3.814   0.168  11.253  1.1970  1.2540  0.8988
 7102SOL     OW32764   3.724   4.223   6.809 -0.2591 -0.1239  0.3285
 7102SOL    HW132765   3.674   4.254   6.885 -0.0296 -0.1945  0.5090
 7102SOL    HW232766   3.791   4.172   6.855 -0.2658 -0.1904  0.2647
 7103SOL     OW32767   4.305   4.096   2.534 -0.3520  0.2254  0.0359
 7103SOL    HW132768   4.296   4.159   2.463  1.3565 -0.2379 -0.5840
 7103SOL    HW232769   4.211   4.079   2.544 -0.1527 -1.0982 -0.3041
 7104SOL     OW32770   1.980   1.596   5.199  0.1517 -0.2051 -0.2094
 7104SOL    HW132771   1.988   1.536   5.125  1.9660 -0.9920  0.6394
 7104SOL    HW232772   1.889   1.582   5.228 -0.3652  2.1311 -0.7437
 7105SOL     OW32773   0.885   2.712   8.786  0.5524  0.2501 -0.9996
 7105SOL    HW132774   0.828   2.638   8.803  1.3801 -0.3663 -0.9040
 7105SOL    HW232775   0.973   2.684   8.811 -1.2160 -2.1687  2.5221
 7106SOL     OW32776   3.436   3.791   3.198  0.5551  0.0725 -0.1832
 7106SOL    HW132777   3.385   3.714   3.172 -0.4416  1.3071 -1.9058
 7106SOL    HW232778   3.414   3.799   3.290 -0.8304 -1.6224 -0.3532
 7107SOL     OW32779   1.227   4.427   2.975  0.1725 -0.4424 -0.3311
 7107SOL    HW132780   1.189   4.341   2.956  1.5762 -1.1028 -0.1734
 7107SOL    HW232781   1.254   4.417   3.066 -2.1816 -1.7053  0.2188
 7108SOL     OW32782   0.950   2.810  12.086 -0.4287  0.2440  0.3710
 7108SOL    HW132783   0.908   2.830  12.170 -0.4598  0.7476  0.2333
 7108SOL    HW232784   1.002   2.736  12.116  0.1704  0.9600  1.1050
 7109SOL     OW32785   2.092   3.200   1.919  0.1554  0.3955 -0.0652
 7109SOL    HW132786   2.075   3.141   1.845 -1.3760 -1.2843  1.6196
 7109SOL    HW232787   2.029   3.270   1.902  0.3652  0.9419  1.4716
 7110SOL     OW32788   0.323   3.849   5.938 -0.0313  0.0625  0.5696
 7110SOL    HW132789   0.258   3.780   5.954 -0.3982  0.3247  0.1934
 7110SOL    HW232790   0.282   3.915   5.994 -2.7092 -0.7441 -0.4593
 7111SOL     OW32791   3.665   4.169   8.539  0.5768 -0.4105 -0.3456
 7111SOL    HW132792   3.605   4.102   8.573 -1.6513  1.5213 -0.5480
 7111SOL    HW232793   3.617   4.187   8.459  0.7238  0.8200 -0.1466
 7112SOL     OW32794   3.268   0.523   6.944 -0.3773  0.4047  0.4222
 7112SOL    HW132795   3.179   0.520   6.980 -1.2979  2.0837 -1.6766
 7112SOL    HW232796   3.311   0.583   7.004 -0.7266 -0.1489  1.2149
 7113SOL     OW32797   3.351   4.184   5.605  0.7053 -0.0424 -0.1452
 7113SOL    HW132798   3.294   4.194   5.682  1.2750 -0.1963  0.3033
 7113SOL    HW232799   3.340   4.267   5.558 -0.5893  0.3779  0.8762
 7114SOL     OW32800   3.316   0.756   9.459 -0.1735  0.0597  1.0188
 7114SOL    HW132801   3.331   0.662   9.452  0.1353  0.2244 -0.5376
 7114SOL    HW232802   3.268   0.755   9.543 -0.3729 -1.9226  0.8853
 7115SOL     OW32803   2.061   0.890   5.433 -0.5770 -0.3711  0.1535
 7115SOL    HW132804   2.086   0.972   5.475  0.4566  1.9196 -4.9043
 7115SOL    HW232805   2.143   0.844   5.451 -1.0190 -0.7510  1.2073
 7116SOL     OW32806   0.647   1.884   5.779  0.2293 -0.3249  0.0196
 7116SOL    HW132807   0.591   1.944   5.729  0.4576  0.9014  1.2272
 7116SOL    HW232808   0.683   1.823   5.715  1.8484  1.0951 -0.4112
 7117SOL     OW32809   0.844   1.324  11.813  0.9679 -0.2708  0.7585
 7117SOL    HW132810   0.784   1.293  11.881  0.6873 -2.5257 -0.5193
 7117SOL    HW232811   0.905   1.370  11.871  1.8564  0.3924 -0.6863
 7118SOL     OW32812   4.423   1.506   9.586 -0.2654  0.1399  0.6266
 7118SOL    HW132813   4.375   1.424   9.572  0.1368  0.3341 -2.0318
 7118SOL    HW232814   4.362   1.569   9.548 -0.8067  0.4295  1.9893
 7119SOL     OW32815   1.634   4.690   3.801  0.5127  0.2186  0.3351
 7119SOL    HW132816   1.635   0.056   3.770  5.8358  0.4793  1.2544
 7119SOL    HW232817   1.710   4.680   3.859  1.3629  1.5909 -0.5202
 7120SOL     OW32818   2.346   3.559   2.619  0.1516  0.8288  0.3642
 7120SOL    HW132819   2.427   3.611   2.622  1.1484 -0.5139 -3.0927
 7120SOL    HW232820   2.343   3.501   2.543  0.0066 -0.2767  1.2145
 7121SOL     OW32821   3.337   4.059  11.982 -0.2542  0.8246 -0.2696
 7121SOL    HW132822   3.264   4.051  11.919 -0.9886  0.1976  0.6674
 7121SOL    HW232823   3.397   3.988  11.962 -0.5263  0.9255 -1.5080
 7122SOL     OW32824   3.014   4.340   6.463  0.4315 -0.0032 -0.2450
 7122SOL    HW132825   3.003   4.431   6.491  1.3548 -0.1430  0.5759
 7122SOL    HW232826   2.994   4.345   6.369  1.6000 -0.8674 -0.5352
 7123SOL     OW32827   1.446   1.972   5.184 -0.2838 -0.2304 -0.0140
 7123SOL    HW132828   1.460   2.037   5.115  0.2032 -0.1784  0.1315
 7123SOL    HW232829   1.398   1.905   5.135 -1.0357  1.4458 -1.5950
 7124SOL     OW32830   4.672   2.395   9.246 -0.5152  0.5322 -0.7863
 7124SOL    HW132831   4.604   2.331   9.269 -0.8310  0.4188 -2.0454
 7124SOL    HW232832   4.701   2.349   9.168 -2.5779 -0.9656 -0.7014
 7125SOL     OW32833   4.580   1.484   4.047 -0.4498  0.1724  0.0305
 7125SOL    HW132834   4.618   1.552   4.102  1.4848 -0.8817  0.0250
 7125SOL    HW232835   4.507   1.463   4.105  0.7880 -1.7945  0.9082
 7126SOL     OW32836   4.690   1.682   1.032  0.3071 -0.0318 -0.2948
 7126SOL    HW132837   0.059   1.700   1.043  0.1684  0.5232 -0.0109
 7126SOL    HW232838   4.666   1.734   0.956 -0.0419  0.1376 -0.0678
 7127SOL     OW32839   3.109   4.660   5.513 -0.4058 -0.1574  0.1426
 7127SOL    HW132840   3.110   0.017   5.564 -2.1771 -0.3050  0.4282
 7127SOL    HW232841   3.053   4.686   5.439 -0.9739  1.2906  1.0688
 7128SOL     OW32842   4.675   4.001  16.568  0.4225 -0.1380 -0.4490
 7128SOL    HW132843   4.703   3.930  16.511  1.6175 -0.9838  1.1883
 7128SOL    HW232844   4.651   4.072  16.508 -1.5441  0.6204  1.2111
 7129SOL     OW32845   0.804   4.457   8.282  0.3595 -0.0463  0.1709
 7129SOL    HW132846   0.829   4.407   8.359 -0.1260  1.1617  1.1181
 7129SOL    HW232847   0.824   4.547   8.307 -1.4119 -0.1087  1.7956
 7130SOL     OW32848   4.603   2.877   4.933 -0.3183  0.5129 -0.3665
 7130SOL    HW132849   4.512   2.905   4.922 -0.7271 -0.5793  0.1722
 7130SOL    HW232850   4.590   2.797   4.985  2.5811 -0.2502 -0.8182
 7131SOL     OW32851   4.507   4.050   1.053 -0.3472  0.6817  0.3097
 7131SOL    HW132852   4.503   3.964   1.012  1.1289 -0.4052  2.4477
 7131SOL    HW232853   4.583   4.091   1.011  0.4789  0.1332  1.2755
 7132SOL     OW32854   3.400   1.604  13.787 -0.0664 -0.7196  0.5226
 7132SOL    HW132855   3.395   1.513  13.756  1.2788 -0.8420  0.6427
 7132SOL    HW232856   3.315   1.610  13.830 -1.3885  0.4884 -2.2547
 7133SOL     OW32857   2.276   3.331   0.134  1.3520 -0.2862 -0.4465
 7133SOL    HW132858   2.268   3.236   0.142  1.2151 -0.2997 -0.7598
 7133SOL    HW232859   2.357   3.337   0.083  0.8242  1.8531 -1.0372
 7134SOL     OW32860   4.433   3.746   7.853  0.0687  0.1675 -0.2211
 7134SOL    HW132861   4.456   3.674   7.795  1.3261  0.0723  0.3905
 7134SOL    HW232862   4.504   3.724   7.914  0.0009  0.2633 -0.1079
 7135SOL     OW32863   2.795   3.412   9.065  0.3438  0.5672  0.3326
 7135SOL    HW132864   2.751   3.368   9.139  0.3674 -0.1190 -0.0571
 7135SOL    HW232865   2.778   3.346   8.997  3.7212 -0.5785  0.6330
 7136SOL     OW32866   3.215   2.675   7.517  0.1350  0.0264 -0.3037
 7136SOL    HW132867   3.185   2.687   7.607 -1.4408 -0.6024 -0.7292
 7136SOL    HW232868   3.135   2.687   7.465  2.4318  0.3365 -3.7931
 7137SOL     OW32869   2.675   4.212   5.528  0.1873  0.0990 -0.0316
 7137SOL    HW132870   2.740   4.221   5.598 -1.0218  0.5732  1.0344
 7137SOL    HW232871   2.687   4.300   5.492  1.6191  0.3210  1.0305
 7138SOL     OW32872   0.232   4.432   5.843  0.3553  0.4308  0.3539
 7138SOL    HW132873   0.182   4.475   5.773  1.9135  0.7570 -0.5562
 7138SOL    HW232874   0.286   4.505   5.874 -1.6796  1.9866  0.2360
 7139SOL     OW32875   0.572   3.680   2.069 -0.2407 -0.3955  0.3190
 7139SOL    HW132876   0.542   3.758   2.024  0.7560 -0.1846  0.0163
 7139SOL    HW232877   0.595   3.712   2.156  0.9919 -1.2860  0.3242
 7140SOL     OW32878   2.858   3.328   3.340  0.3063 -0.1755  0.0083
 7140SOL    HW132879   2.800   3.313   3.265  1.3220 -0.1262 -0.8020
 7140SOL    HW232880   2.944   3.339   3.298  0.1262 -1.6034 -0.7541
 7141SOL     OW32881   3.376   1.300  12.541  0.4000  0.3249 -0.0593
 7141SOL    HW132882   3.322   1.373  12.570  0.5973  0.7899 -0.8639
 7141SOL    HW232883   3.348   1.292  12.450 -1.4592 -0.1861  0.5673
 7142SOL     OW32884   3.532   3.087   7.473 -0.2121 -0.2848 -0.3949
 7142SOL    HW132885   3.580   3.068   7.392  0.8491 -0.5988  0.2948
 7142SOL    HW232886   3.503   3.178   7.465  0.3405  0.0353  1.1962
 7143SOL     OW32887   1.257   3.472   2.761 -0.1202 -0.2269  0.1950
 7143SOL    HW132888   1.169   3.443   2.735  0.2712 -1.7934  0.6050
 7143SOL    HW232889   1.308   3.459   2.681 -0.0047 -1.4166  0.4591
 7144SOL     OW32890   3.407   2.969  14.447 -0.0972 -0.3592  0.4881
 7144SOL    HW132891   3.403   3.040  14.383  1.4362  0.2515  1.0522
 7144SOL    HW232892   3.442   2.897  14.393  0.5823  0.1152  0.3004
 7145SOL     OW32893   0.701   0.896   3.807  0.1575  0.2062  0.3176
 7145SOL    HW132894   0.756   0.963   3.768 -2.1694  2.4537  0.8571
 7145SOL    HW232895   0.719   0.827   3.744  1.6917  3.8323 -3.1540
 7146SOL     OW32896   2.638   0.737   7.602  0.1742  0.3790  0.2263
 7146SOL    HW132897   2.668   0.791   7.674  1.2527  2.8853 -2.1077
 7146SOL    HW232898   2.542   0.736   7.609  0.3398  1.0612  2.3681
 7147SOL     OW32899   1.390   1.016   4.130  0.2210  1.3538  0.1663
 7147SOL    HW132900   1.424   0.970   4.053  2.2811 -0.0569  1.8973
 7147SOL    HW232901   1.329   1.076   4.088  0.6565  2.8158  1.6281
 7148SOL     OW32902   1.106   0.189  11.222 -0.2247  0.2595  0.1908
 7148SOL    HW132903   1.156   0.183  11.140 -0.9344 -1.1369 -0.1416
 7148SOL    HW232904   1.100   0.097  11.248 -2.6311  0.4385  0.2730
 7149SOL     OW32905   4.452   1.308  14.579 -0.1129 -0.1096  0.1548
 7149SOL    HW132906   4.413   1.310  14.491 -0.6084  0.7019  0.3919
 7149SOL    HW232907   4.527   1.250  14.566  1.0466  1.2302  0.9491
 7150SOL     OW32908   3.184   1.103   0.097 -0.4590  0.4186  0.1882
 7150SOL    HW132909   3.098   1.130   0.130 -0.2009 -0.5345  1.6269
 7150SOL    HW232910   3.239   1.181   0.109  1.2836 -0.9320  1.0921
 7151SOL     OW32911   1.559   2.140  16.134  0.5743  0.2616 -0.2301
 7151SOL    HW132912   1.521   2.115  16.050  1.3236  1.3173 -0.8813
 7151SOL    HW232913   1.491   2.109  16.194  0.0977 -0.0507 -0.9317
 7152SOL     OW32914   3.381   1.410   5.978  0.3450 -0.4112  0.1823
 7152SOL    HW132915   3.442   1.481   5.956  1.5625 -1.3942  0.3679
 7152SOL    HW232916   3.442   1.337   5.985 -1.6571 -2.1643 -0.9160
 7153SOL     OW32917   2.921   2.566   9.180  0.7439  0.5228  0.0424
 7153SOL    HW132918   3.005   2.571   9.224  0.5113  1.7463  0.3422
 7153SOL    HW232919   2.884   2.481   9.204 -1.7746  1.2606 -1.1897
 7154SOL     OW32920   4.031   0.840   4.903 -0.1878 -0.1068 -0.1234
 7154SOL    HW132921   4.054   0.757   4.945 -0.9602  0.1728  0.8480
 7154SOL    HW232922   3.935   0.843   4.906 -0.1348 -0.3193  1.3673
 7155SOL     OW32923   0.651   0.087   4.959  0.2290  0.4667 -0.4389
 7155SOL    HW132924   0.741   0.068   4.986  0.7329  0.1557 -2.2824
 7155SOL    HW232925   0.614   0.148   5.023 -1.5927  1.3974 -2.3822
 7156SOL     OW32926   2.937   1.415  15.117  0.2807  0.2364 -0.4099
 7156SOL    HW132927   2.896   1.483  15.169  0.9130 -0.6151  1.1945
 7156SOL    HW232928   3.017   1.460  15.090  0.8085 -0.6559 -0.3453
 7157SOL     OW32929   1.421   4.137   7.989 -0.1456  0.1735 -0.0487
 7157SOL    HW132930   1.440   4.128   7.896  0.1219 -1.3444  0.1502
 7157SOL    HW232931   1.373   4.058   8.013  0.9709 -0.4753  0.0382
 7158SOL     OW32932   2.668   0.852   4.721 -0.2836 -0.6488 -0.3003
 7158SOL    HW132933   2.673   0.924   4.783  3.2059 -1.2075  0.0323
 7158SOL    HW232934   2.622   0.890   4.645  0.6109  2.1111  0.5599
 7159SOL     OW32935   1.048   1.465   9.577 -0.3321 -0.0419 -0.0869
 7159SOL    HW132936   0.965   1.429   9.547 -1.0141  1.4435  0.0489
 7159SOL    HW232937   1.025   1.557   9.578 -0.6170 -0.1164  0.2216
 7160SOL     OW32938   3.563   4.501   6.790 -0.1495  0.0222 -0.0236
 7160SOL    HW132939   3.503   4.432   6.820  0.4635 -0.8743 -0.8617
 7160SOL    HW232940   3.533   4.581   6.833  0.1679  0.0798  0.0871
 7161SOL     OW32941   2.468   1.842   4.627  0.2639 -0.7595  0.1107
 7161SOL    HW132942   2.431   1.879   4.707  0.8244 -1.6070  0.7662
 7161SOL    HW232943   2.557   1.819   4.653  0.0921 -0.2311  1.1561
 7162SOL     OW32944   1.906   3.458   4.572 -0.0788  0.1626 -0.6891
 7162SOL    HW132945   1.836   3.517   4.543 -2.2670 -3.6009 -3.0859
 7162SOL    HW232946   1.966   3.525   4.604  0.5564 -0.4574 -0.5906
 7163SOL     OW32947   3.217   4.196   5.880  0.6292  0.0062 -0.5441
 7163SOL    HW132948   3.185   4.286   5.875  1.5062  0.3208 -0.5112
 7163SOL    HW232949   3.141   4.144   5.905  0.4007 -0.1816 -1.6435
 7164SOL     OW32950   3.196   4.174  15.088 -0.3507  0.2124  0.1602
 7164SOL    HW132951   3.125   4.130  15.136  0.2430 -0.6412  0.2517
 7164SOL    HW232952   3.275   4.161  15.140 -0.5604  0.1708  0.4771
 7165SOL     OW32953   2.879   3.887   7.845  0.1750  0.4834  0.6086
 7165SOL    HW132954   2.791   3.925   7.843  0.1744  0.5754  2.4372
 7165SOL    HW232955   2.882   3.849   7.933 -0.4665 -0.8047  0.0640
 7166SOL     OW32956   3.654   2.917  11.626 -0.3078 -0.4592 -0.2202
 7166SOL    HW132957   3.749   2.904  11.628 -0.0135  1.8178  0.5319
 7166SOL    HW232958   3.639   2.982  11.557 -2.8461 -0.4685  0.3297
 7167SOL     OW32959   0.185   4.504  10.668  0.2201  0.3724  0.5159
 7167SOL    HW132960   0.141   4.518  10.584  1.3254  2.9443  0.3724
 7167SOL    HW232961   0.199   4.596  10.689 -0.5786  0.4405  0.7676
 7168SOL     OW32962   0.548   0.561   8.195  0.0813  0.7562 -0.9761
 7168SOL    HW132963   0.593   0.510   8.263  1.9442  3.4848 -0.1821
 7168SOL    HW232964   0.514   0.487   8.144 -2.0658 -0.3678  2.0926
 7169SOL     OW32965   3.756   3.771   6.069  0.3371  0.0700 -0.3429
 7169SOL    HW132966   3.843   3.735   6.087  1.0291  2.4418  1.0640
 7169SOL    HW232967   3.776   3.863   6.056  1.4804 -0.3037 -1.2994
 7170SOL     OW32968   1.893   2.247   9.863 -0.4888 -0.0633  0.0225
 7170SOL    HW132969   1.967   2.237   9.803 -0.0896 -0.4980  0.5925
 7170SOL    HW232970   1.876   2.162   9.903  0.1943  0.0397  0.5233
 7171SOL     OW32971   4.282   3.605   3.503  0.8611  0.6076  0.2582
 7171SOL    HW132972   4.225   3.635   3.573 -0.6292 -0.1553 -0.6226
 7171SOL    HW232973   4.236   3.650   3.432 -3.2379  0.5979  2.9347
 7172SOL     OW32974   1.812   3.898   7.773 -0.6639  0.0588 -0.0467
 7172SOL    HW132975   1.821   3.975   7.716  2.1737  0.4980  1.0111
 7172SOL    HW232976   1.897   3.860   7.749  0.0263  0.4253  1.8688
 7173SOL     OW32977   0.040   3.881   4.430 -0.2835  0.4511 -0.5596
 7173SOL    HW132978   4.690   3.832   4.463  0.5012 -0.7660 -0.5624
 7173SOL    HW232979   4.710   3.956   4.409 -1.2066 -0.1920 -0.4361
 7174SOL     OW32980   3.354   4.507  14.083 -0.6334  0.3791 -0.0985
 7174SOL    HW132981   3.412   4.498  14.159  0.0474  0.0622 -0.6595
 7174SOL    HW232982   3.310   4.588  14.110 -1.1028 -0.3281  1.2623
 7175SOL     OW32983   1.215   2.752  12.749  0.2900  0.3737  0.3948
 7175SOL    HW132984   1.254   2.839  12.756  0.5698  0.3030 -0.2681
 7175SOL    HW232985   1.282   2.694  12.786  1.5603  0.3284 -1.9576
 7176SOL     OW32986   1.787   2.399   4.561 -0.2200  0.0782 -0.3078
 7176SOL    HW132987   1.737   2.476   4.589 -0.4852 -0.7392  1.5147
 7176SOL    HW232988   1.861   2.402   4.622  0.0681  1.3104 -0.7105
 7177SOL     OW32989   2.925   4.383   6.190  0.5345  0.6206  0.1543
 7177SOL    HW132990   2.914   4.336   6.108 -0.6418  1.9781 -0.4569
 7177SOL    HW232991   2.836   4.380   6.224  0.0213  0.1032 -1.2647
 7178SOL     OW32992   3.851   1.964   5.902 -0.2285  0.3940 -0.2060
 7178SOL    HW132993   3.781   1.899   5.903 -0.4992  0.6912  1.0191
 7178SOL    HW232994   3.874   1.977   5.994 -1.7548  2.2145 -0.0638
 7179SOL     OW32995   4.263   4.272   4.003 -0.0409 -0.5336 -0.0969
 7179SOL    HW132996   4.212   4.319   3.937 -0.6379  0.2157  0.8997
 7179SOL    HW232997   4.344   4.318   3.980  0.4984 -0.3761  2.0808
 7180SOL     OW32998   1.105   0.346  10.879 -0.4828 -0.5405  0.2761
 7180SOL    HW132999   1.165   0.348  10.805  1.4886 -0.1004  1.9025
 7180SOL    HW233000   1.155   0.284  10.932  2.6203  2.1258  0.4274
 7181SOL     OW33001   0.334   0.059  15.226  0.3017  0.1725  0.7187
 7181SOL    HW133002   0.346   0.119  15.152  0.2829 -1.9928 -1.0284
 7181SOL    HW233003   0.390   4.707  15.216 -0.3163 -0.0678 -0.9125
 7182SOL     OW33004   3.089   3.764  16.092 -0.4171 -0.2943  0.3168
 7182SOL    HW133005   3.183   3.757  16.078 -0.6961 -1.7934 -0.7971
 7182SOL    HW233006   3.065   3.738  16.003  3.1020 -1.3135 -0.3281
 7183SOL     OW33007   1.288   2.852   9.387  0.0064  0.3040 -0.3318
 7183SOL    HW133008   1.203   2.887   9.362 -1.4395 -1.9213  1.4655
 7183SOL    HW233009   1.270   2.830   9.478 -0.2902  1.7358 -0.0369
 7184SOL     OW33010   4.272   2.012   5.385 -0.1006 -0.4048  0.0513
 7184SOL    HW133011   4.196   1.972   5.428 -0.3519  0.1164  0.0922
 7184SOL    HW233012   4.241   2.102   5.375  0.7060 -0.0135  1.1242
 7185SOL     OW33013   1.957   1.602   5.517 -0.1265  0.1631 -0.1079
 7185SOL    HW133014   1.981   1.693   5.538 -2.1344  0.8409 -0.8163
 7185SOL    HW233015   1.868   1.611   5.485  0.1665  2.1009 -0.3680
 7186SOL     OW33016   2.859   2.796   8.776  0.5039 -0.3439 -0.1005
 7186SOL    HW133017   2.850   2.709   8.817  0.2650 -0.1908  0.1737
 7186SOL    HW233018   2.771   2.826   8.754  1.3811  2.0768 -0.2405
 7187SOL     OW33019   3.433   3.485   3.410 -0.2100  0.0926 -0.3295
 7187SOL    HW133020   3.524   3.463   3.430 -0.1006 -1.2377 -2.3217
 7187SOL    HW233021   3.442   3.580   3.420 -0.4659  0.2691 -1.7408
 7188SOL     OW33022   2.440   4.295   8.519  1.2361  0.2722  0.1178
 7188SOL    HW133023   2.365   4.256   8.475 -0.3874  2.2573  1.1387
 7188SOL    HW233024   2.495   4.312   8.442  0.5738 -1.9367 -0.8558
 7189SOL     OW33025   4.208   0.209   8.022 -0.3579  0.6480 -0.0276
 7189SOL    HW133026   4.159   0.169   7.950  1.5798 -1.8109  0.0029
 7189SOL    HW233027   4.261   0.137   8.056 -0.1831  1.6250  1.8127
 7190SOL     OW33028   2.710   2.298   6.161 -0.1178 -0.2600  0.0924
 7190SOL    HW133029   2.618   2.292   6.187  0.3711  0.4656  2.0099
 7190SOL    HW233030   2.744   2.325   6.247 -1.1635  1.8461 -0.1626
 7191SOL     OW33031   3.452   2.034  12.940  0.3503  0.0738  0.2297
 7191SOL    HW133032   3.399   2.076  12.872 -0.1671  2.2852  2.0069
 7191SOL    HW233033   3.395   2.069  13.008 -1.5710 -1.6166 -0.4850
 7192SOL     OW33034   0.011   0.570   1.731 -0.3709  0.3926 -0.7271
 7192SOL    HW133035   0.086   0.609   1.687 -0.4996 -0.0418 -1.3222
 7192SOL    HW233036   0.023   0.608   1.819 -3.1976 -2.5198  0.8914
 7193SOL     OW33037   4.213   0.186   5.050  0.5501 -0.2857 -0.1075
 7193SOL    HW133038   4.127   0.201   5.090  0.3083 -0.3394 -0.6073
 7193SOL    HW233039   4.190   0.139   4.970 -1.3763  2.4341 -1.1469
 7194SOL     OW33040   1.889   1.407   3.480 -0.0890  0.0011  0.0903
 7194SOL    HW133041   1.956   1.476   3.483  1.4068 -1.4051 -0.7157
 7194SOL    HW233042   1.815   1.447   3.435 -0.6242 -2.3470 -1.0998
 7195SOL     OW33043   2.861   0.229   5.149 -0.3892 -0.4274 -0.2455
 7195SOL    HW133044   2.943   0.251   5.104  0.2538 -1.3864  0.4426
 7195SOL    HW233045   2.841   0.311   5.195 -0.0355 -0.1883 -0.5155
 7196SOL     OW33046   2.723   4.330   1.165  0.1982 -0.1842  0.0471
 7196SOL    HW133047   2.670   4.258   1.131 -0.5705  0.6655 -0.5624
 7196SOL    HW233048   2.717   4.398   1.097 -0.2015  0.4626  0.7174
 7197SOL     OW33049   2.056   0.080  17.023  0.2063 -0.3426  0.7537
 7197SOL    HW133050   2.138   0.041  16.991  0.7621  1.4775 -0.0318
 7197SOL    HW233051   2.068   0.173  17.004  1.4481 -0.5308  0.5836
 7198SOL     OW33052   1.513   0.664  10.718 -0.2309 -0.3697 -0.0682
 7198SOL    HW133053   1.550   0.737  10.767  1.5583 -0.9456 -0.5496
 7198SOL    HW233054   1.435   0.708  10.683 -0.9651 -1.5287  0.1471
 7199SOL     OW33055   1.964   2.784  15.971 -0.1274  0.0673  0.2165
 7199SOL    HW133056   1.875   2.819  15.965 -1.3318 -2.9852  0.4082
 7199SOL    HW233057   1.964   2.716  15.904 -1.2443  1.2519 -1.0083
 7200SOL     OW33058   1.206   4.387  14.789 -0.0328  0.8409 -0.5520
 7200SOL    HW133059   1.295   4.403  14.819  0.2710 -0.1388 -0.9245
 7200SOL    HW233060   1.162   4.455  14.840 -0.0598  0.6310 -0.2977
 7201SOL     OW33061   4.260   1.313  14.903  0.3852 -0.0067 -0.4917
 7201SOL    HW133062   4.214   1.244  14.951 -0.0836  0.7952  0.1991
 7201SOL    HW233063   4.272   1.379  14.971  0.3507  0.0476 -0.5385
 7202SOL     OW33064   3.735   4.280   6.202 -0.1650 -0.3612 -0.2369
 7202SOL    HW133065   3.657   4.332   6.180  0.6989  1.2251  0.4669
 7202SOL    HW233066   3.677   4.229   6.259  0.1528 -2.5245 -1.8594
 7203SOL     OW33067   1.668   0.303   4.351  0.8960  0.0812  0.2820
 7203SOL    HW133068   1.762   0.309   4.369  0.5668  2.1399  1.2760
 7203SOL    HW233069   1.661   0.383   4.298  1.2480  0.3792  0.6843
 7204SOL     OW33070   3.953   4.274   4.820 -0.1323  0.9146  0.1184
 7204SOL    HW133071   3.969   4.212   4.891  1.2503  1.2967  0.1477
 7204SOL    HW233072   4.025   4.250   4.761  0.0705  0.4122  0.5740
 7205SOL     OW33073   3.934   3.686   8.429 -0.4628 -0.0236  0.2314
 7205SOL    HW133074   3.999   3.737   8.477 -0.4825  1.9940 -1.8612
 7205SOL    HW233075   3.861   3.747   8.420  0.7271  1.3557 -0.0446
 7206SOL     OW33076   3.412   3.981   3.631 -0.3385 -0.3844 -0.1694
 7206SOL    HW133077   3.323   3.948   3.643 -0.7247  1.3983  1.9059
 7206SOL    HW233078   3.461   3.923   3.689  0.7782  1.2883  0.5851
 7207SOL     OW33079   2.476   0.219   3.662 -0.3299  0.5750  0.8415
 7207SOL    HW133080   2.449   0.207   3.571  2.4392  0.8349 -0.0171
 7207SOL    HW233081   2.444   0.308   3.676 -0.1804  0.8992 -0.8155
 7208SOL     OW33082   1.602   1.796   5.324  0.3162  0.1784  0.5495
 7208SOL    HW133083   1.613   1.745   5.244  2.8811  2.0765 -0.3317
 7208SOL    HW233084   1.537   1.862   5.299  1.2858  1.0589  0.3161
 7209SOL     OW33085   3.794   1.153   4.749  0.0646 -0.0091  0.1665
 7209SOL    HW133086   3.746   1.110   4.819 -0.3244  0.0948 -0.0320
 7209SOL    HW233087   3.859   1.201   4.800 -0.8044  0.7084  0.6000
 7210SOL     OW33088   2.429   0.797   2.379  0.1513  0.3864 -0.1634
 7210SOL    HW133089   2.423   0.808   2.474 -1.3976 -2.8150  0.1112
 7210SOL    HW233090   2.524   0.793   2.369  0.1002 -0.9462 -0.0675
 7211SOL     OW33091   1.037   3.214   4.068  0.1238 -0.5216 -0.0283
 7211SOL    HW133092   0.968   3.181   4.011 -0.5270  1.2066 -0.2374
 7211SOL    HW233093   1.117   3.178   4.028  0.4288 -0.9407  0.9430
 7212SOL     OW33094   1.045   0.115   6.548 -0.5390  0.2338  0.6899
 7212SOL    HW133095   1.036   0.208   6.528 -0.0106 -0.2218 -1.5977
 7212SOL    HW233096   1.006   0.067   6.475  2.8167 -0.7811 -0.4539
 7213SOL     OW33097   1.327   4.720   0.172 -0.3357 -0.1514 -0.0143
 7213SOL    HW133098   1.363   4.713   0.260 -1.0989 -1.3895  0.2109
 7213SOL    HW233099   1.409   4.717   0.123 -0.0074 -2.0125  0.6481
 7214SOL     OW33100   0.055   2.697   5.407  0.3437 -0.7335  0.1331
 7214SOL    HW133101   0.134   2.719   5.358  0.8418 -0.2226  1.1654
 7214SOL    HW233102   0.088   2.698   5.496  0.7067 -1.9414  0.0084
 7215SOL     OW33103   3.356   2.026   4.193  0.5783 -0.2216 -0.1035
 7215SOL    HW133104   3.264   2.001   4.199  0.4060  0.3546 -0.3308
 7215SOL    HW233105   3.391   1.941   4.165  0.3273 -1.1522  2.4423
 7216SOL     OW33106   0.683   0.443   0.510 -0.1090  0.0277  0.1002
 7216SOL    HW133107   0.719   0.520   0.466 -2.2251  0.0135 -1.6675
 7216SOL    HW233108   0.670   0.376   0.442  1.4759 -0.0887 -0.0942
 7217SOL     OW33109   3.195   2.655   1.919 -0.4842 -0.1362  0.0103
 7217SOL    HW133110   3.266   2.695   1.868 -0.1059 -0.6299  0.1471
 7217SOL    HW233111   3.131   2.726   1.920  1.1899  1.3277  2.6076
 7218SOL     OW33112   0.771   2.534  14.558  0.3165  0.5525 -0.2087
 7218SOL    HW133113   0.810   2.524  14.471 -0.3175 -0.7622 -0.3433
 7218SOL    HW233114   0.798   2.455  14.604  1.0794  0.7878 -0.2578
 7219SOL     OW33115   4.472   4.099   6.964 -0.2024  0.2609  0.0334
 7219SOL    HW133116   4.385   4.064   6.980 -1.2463  1.0546 -3.6810
 7219SOL    HW233117   4.462   4.141   6.878  1.6425  0.0700 -0.2799
 7220SOL     OW33118   4.045   2.022  13.048  0.1824 -0.2891 -0.0205
 7220SOL    HW133119   4.033   2.060  12.962 -0.3757  0.2412  0.2950
 7220SOL    HW233120   3.975   2.071  13.090  2.2312  1.9771  0.8078
 7221SOL     OW33121   4.352   3.618  17.607 -0.5712 -0.5889 -0.0353
 7221SOL    HW133122   4.377   3.533  17.571  0.0910 -0.9175  1.2019
 7221SOL    HW233123   4.301   3.597  17.685  0.9572 -1.1415  0.8025
 7222SOL     OW33124   3.659   0.014   6.631  0.5831 -0.8058 -0.3752
 7222SOL    HW133125   3.737   0.043   6.677 -0.3230  1.2487 -0.1363
 7222SOL    HW233126   3.635   4.652   6.663 -3.1930  1.7487  3.7476
 7223SOL     OW33127   4.608   1.639   9.735  0.0613 -0.6884  0.1566
 7223SOL    HW133128   4.564   1.724   9.726  1.0753 -0.2483 -0.7425
 7223SOL    HW233129   4.551   1.587   9.679 -0.6305  0.1645  0.0515
 7224SOL     OW33130   2.535   1.609   7.135  0.0586  0.7074  0.2519
 7224SOL    HW133131   2.625   1.638   7.147 -0.0734  1.0892  0.3111
 7224SOL    HW233132   2.494   1.683   7.091  0.2431  0.8491  0.3180
 7225SOL     OW33133   2.645   2.347  10.864 -0.2299  0.5158  1.1848
 7225SOL    HW133134   2.561   2.392  10.878 -1.6315 -2.1373  1.1728
 7225SOL    HW233135   2.629   2.305  10.780  1.0500  2.4132  0.0062
 7226SOL     OW33136   2.683   2.595  15.990 -0.1848 -0.0695  0.1523
 7226SOL    HW133137   2.658   2.535  16.061  1.8233 -2.0750 -0.8082
 7226SOL    HW233138   2.641   2.673  16.025  1.2822  1.5534 -1.7592
 7227SOL     OW33139   1.974   0.694   8.583  0.5128  0.5066 -0.4538
 7227SOL    HW133140   2.007   0.667   8.669  0.7092  2.2492  0.0195
 7227SOL    HW233141   1.967   0.788   8.600 -2.3027  0.1406  0.4701
 7228SOL     OW33142   3.729   3.855   5.163 -0.1755 -0.3970 -0.4191
 7228SOL    HW133143   3.696   3.773   5.200  0.2616 -0.2292  0.3366
 7228SOL    HW233144   3.686   3.860   5.077  2.4429  0.7231 -1.6784
 7229SOL     OW33145   1.491   0.256   2.799  0.2758 -0.1872 -0.8005
 7229SOL    HW133146   1.441   0.318   2.746  0.0662 -0.4293 -0.8856
 7229SOL    HW233147   1.423   0.197   2.831  0.4061  1.0164  1.6506
 7230SOL     OW33148   2.692   0.037   7.407  0.1373  0.3893 -0.5041
 7230SOL    HW133149   2.627   4.691   7.399 -0.1297  0.5212  0.5512
 7230SOL    HW233150   2.765   4.720   7.360 -0.5122  0.7400 -1.8388
 7231SOL     OW33151   3.655   4.284   7.538  0.1727  0.0844  0.1872
 7231SOL    HW133152   3.677   4.352   7.602 -0.1317  0.1926  0.1778
 7231SOL    HW233153   3.641   4.347   7.467 -0.8778 -0.1369  0.2020
 7232SOL     OW33154   2.760   0.057   5.613  0.1402  0.2383 -0.0992
 7232SOL    HW133155   2.789   0.140   5.576  1.0575 -0.7633 -1.6528
 7232SOL    HW233156   2.784   0.002   5.538 -1.4357 -0.0517 -0.3891
 7233SOL     OW33157   0.003   4.221   7.044  0.4122  0.4251 -0.2934
 7233SOL    HW133158   4.708   4.310   7.070 -1.2296 -0.0453  0.0870
 7233SOL    HW233159   4.645   4.172   7.052  0.8024 -0.3861 -1.2130
 7234SOL     OW33160   0.313   3.959   6.644  1.0294 -0.6732  0.5075
 7234SOL    HW133161   0.290   3.870   6.672  0.2777 -0.0536  1.8142
 7234SOL    HW233162   0.234   4.001   6.678  1.9660  0.8368  0.7744
 7235SOL     OW33163   3.705   2.730   9.873 -0.1189 -0.3730 -0.1857
 7235SOL    HW133164   3.754   2.696   9.798 -0.1702  0.4352 -0.5888
 7235SOL    HW233165   3.615   2.737   9.839 -0.0900 -0.5709 -0.2980
 7236SOL     OW33166   3.262   2.819   6.326  1.0024  0.1845 -0.1999
 7236SOL    HW133167   3.292   2.910   6.323 -1.0853  0.9160  0.5680
 7236SOL    HW233168   3.330   2.770   6.280  0.2132 -0.1151 -1.0639
 7237SOL     OW33169   2.832   3.466   2.235  0.0287  0.5142 -0.5422
 7237SOL    HW133170   2.867   3.384   2.270  0.6544  1.0117  0.0081
 7237SOL    HW233171   2.802   3.431   2.151  1.5155 -2.9999  0.4062
 7238SOL     OW33172   0.848   4.459   9.370  0.1495  0.0473  0.1243
 7238SOL    HW133173   0.810   4.534   9.415  0.4070  1.6219 -2.2960
 7238SOL    HW233174   0.773   4.401   9.356  0.7826 -0.0353 -2.7678
 7239SOL     OW33175   0.407   0.428   2.470 -0.2366  0.1342 -0.4625
 7239SOL    HW133176   0.313   0.444   2.467 -0.1373  1.0237  1.1129
 7239SOL    HW233177   0.406   0.341   2.431  0.5192  0.1409 -0.5032
 7240SOL     OW33178   1.163   3.068   1.489 -0.4812 -0.0570  0.3089
 7240SOL    HW133179   1.102   3.044   1.559 -0.7136  1.7174  0.7244
 7240SOL    HW233180   1.241   3.013   1.498 -1.8888 -2.4274 -2.0748
 7241SOL     OW33181   4.190   4.214  14.937 -0.7824  0.2413  0.3969
 7241SOL    HW133182   4.251   4.270  14.888 -2.4828  0.2699 -1.6623
 7241SOL    HW233183   4.114   4.234  14.882 -1.1176 -1.1958  0.3589
 7242SOL     OW33184   4.280   4.578   8.744  0.4121  0.6968 -0.1656
 7242SOL    HW133185   4.200   4.601   8.791  0.5508  1.5328 -0.3271
 7242SOL    HW233186   4.242   4.559   8.659 -0.2726  1.3977 -0.0211
 7243SOL     OW33187   0.008   0.697   1.962  0.4660 -0.5885 -0.3765
 7243SOL    HW133188   0.069   0.711   2.034 -0.2529  1.4218 -0.1425
 7243SOL    HW233189   4.648   0.677   2.003  1.2636 -1.3183  0.8996
 7244SOL     OW33190   3.090   2.781   2.726  0.2522 -0.5267 -0.3271
 7244SOL    HW133191   3.064   2.873   2.727  3.7345  0.4129  1.5756
 7244SOL    HW233192   3.173   2.795   2.681  0.2439 -0.0104 -0.1840
 7245SOL     OW33193   2.971   2.898   7.542 -0.0386 -0.1772 -0.4191
 7245SOL    HW133194   3.034   2.905   7.470 -0.1056  2.5166 -0.2111
 7245SOL    HW233195   3.001   2.969   7.598  1.1629 -1.7910  1.0103
 7246SOL     OW33196   2.848   1.581  17.375  0.5115 -0.2966  0.2288
 7246SOL    HW133197   2.860   1.574  17.470 -0.3330 -4.2588  0.0433
 7246SOL    HW233198   2.754   1.571  17.365  0.5487 -0.6729  0.2600
 7247SOL     OW33199   2.450   2.088   5.028  0.1457 -0.4386 -0.0068
 7247SOL    HW133200   2.507   2.015   5.005  0.2430 -0.2469 -0.3746
 7247SOL    HW233201   2.457   2.083   5.124  1.1586 -0.2178 -0.0691
 7248SOL     OW33202   0.948   2.098   9.647  0.5526  0.3591 -0.3397
 7248SOL    HW133203   1.020   2.035   9.637  1.5966  1.9837 -3.1359
 7248SOL    HW233204   0.952   2.130   9.737 -1.6335 -0.1343 -0.0764
 7249SOL     OW33205   4.281   4.432  15.825  0.4415  0.2023  0.4515
 7249SOL    HW133206   4.329   4.515  15.819  0.1737  0.2988 -0.2795
 7249SOL    HW233207   4.214   4.473  15.881 -0.8512 -2.7666  1.0863
 7250SOL     OW33208   3.338   3.081   6.732 -0.1196  0.0659 -0.2386
 7250SOL    HW133209   3.317   3.055   6.821  0.6139  1.9722  0.4859
 7250SOL    HW233210   3.299   3.011   6.679  1.1975  0.0754 -1.2351
 7251SOL     OW33211   0.158   0.242  13.219  0.0200 -0.5008 -0.3881
 7251SOL    HW133212   0.082   0.288  13.253  0.2820 -1.1735  1.0989
 7251SOL    HW233213   0.221   0.278  13.281 -1.6085  0.6077  0.6268
 7252SOL     OW33214   1.884   1.632   8.395 -0.2738  0.0884 -0.3139
 7252SOL    HW133215   1.829   1.665   8.324 -1.2124 -0.5499  0.1209
 7252SOL    HW233216   1.893   1.542   8.362 -0.2185  0.8746 -2.4558
 7253SOL     OW33217   1.483   1.348  16.602  0.3378  0.3422 -0.7998
 7253SOL    HW133218   1.573   1.316  16.599  0.6277  1.1955 -1.4486
 7253SOL    HW233219   1.502   1.442  16.602  1.3492  0.1323 -0.7117
 7254SOL     OW33220   3.742   1.144   8.453 -0.4003  0.5639  0.1406
 7254SOL    HW133221   3.774   1.090   8.525  2.4318  1.5026 -0.4332
 7254SOL    HW233222   3.749   1.225   8.504 -0.5331  1.7106 -1.6882
 7255SOL     OW33223   0.989   2.917   4.710  0.4790  0.0144 -0.0355
 7255SOL    HW133224   1.008   2.955   4.624 -2.1988 -0.1162 -0.6649
 7255SOL    HW233225   0.900   2.885   4.695  0.0881  0.6852  0.8475
 7256SOL     OW33226   0.048   4.234   6.079 -0.0849 -0.0807  0.1341
 7256SOL    HW133227   4.698   4.195   6.033  0.9221  0.2762 -1.8002
 7256SOL    HW233228   0.117   4.204   6.019  0.1927  1.3148 -0.2594
 7257SOL     OW33229   3.892   0.878   0.791 -0.0513 -0.4392 -0.2564
 7257SOL    HW133230   3.837   0.931   0.848 -0.7106  1.3434 -2.5602
 7257SOL    HW233231   3.979   0.914   0.808  0.0288 -1.3444  1.1948
 7258SOL     OW33232   3.228   1.912   8.360 -0.5609 -0.6341  0.8898
 7258SOL    HW133233   3.270   1.879   8.281 -0.0159  1.1130  0.4330
 7258SOL    HW233234   3.138   1.884   8.343 -0.6674 -0.1584  0.6460
 7259SOL     OW33235   4.148   1.946   2.698 -0.0967  0.0787  0.8520
 7259SOL    HW133236   4.228   1.977   2.655  0.8457 -2.2029  0.9835
 7259SOL    HW233237   4.116   2.021   2.749 -1.8965 -1.1233  1.4754
 7260SOL     OW33238   2.404   0.777   6.830  0.0940  0.4863 -0.5892
 7260SOL    HW133239   2.491   0.782   6.790  0.4472  1.1305  0.2659
 7260SOL    HW233240   2.409   0.828   6.911  0.4433 -2.1408  1.0504
 7261SOL     OW33241   2.739   0.431  15.238  0.0149 -0.1542  0.0581
 7261SOL    HW133242   2.789   0.364  15.191 -0.5199 -0.7329  0.3060
 7261SOL    HW233243   2.789   0.509  15.218 -2.1795  1.0976 -0.5523
 7262SOL     OW33244   2.655   0.737  15.346  0.2156 -0.3279  0.1817
 7262SOL    HW133245   2.709   0.766  15.273  0.7742 -1.2130  0.2576
 7262SOL    HW233246   2.674   0.810  15.405  0.2279  0.3304 -0.6245
 7263SOL     OW33247   0.046   4.051   4.784 -0.3849  0.9036  0.0261
 7263SOL    HW133248   4.678   4.060   4.806 -0.5186  3.3280 -1.5751
 7263SOL    HW233249   0.082   4.117   4.844 -0.7613  1.9513 -0.9059
 7264SOL     OW33250   0.732   2.495   1.634  0.0221  0.5122 -0.8382
 7264SOL    HW133251   0.776   2.473   1.716 -1.1957  0.7091 -0.1287
 7264SOL    HW233252   0.644   2.522   1.663 -0.4915 -2.3494  0.3082
 7265SOL     OW33253   0.737   2.826   4.643  0.2720 -0.1093 -0.2761
 7265SOL    HW133254   0.703   2.880   4.572 -0.8345  1.9353  1.7873
 7265SOL    HW233255   0.665   2.779   4.685 -1.1233  1.0513 -1.3672
 7266SOL     OW33256   4.674   3.024   8.136  1.0278  0.4469 -0.1450
 7266SOL    HW133257   4.718   2.986   8.212 -0.9074 -2.0740 -0.2943
 7266SOL    HW233258   4.629   2.943   8.110  1.5381 -0.8956  3.0770
 7267SOL     OW33259   4.014   0.839   7.636 -0.0672 -0.6758  0.0068
 7267SOL    HW133260   4.076   0.776   7.601  0.4666 -0.5446  0.7221
 7267SOL    HW233261   3.948   0.832   7.567 -0.3618  0.6927  0.1483
 7268SOL     OW33262   0.649   3.814   8.239  0.2910  0.1670 -0.1323
 7268SOL    HW133263   0.607   3.796   8.155 -0.4015 -0.0591  0.2563
 7268SOL    HW233264   0.735   3.777   8.222  1.1803  1.8088  0.7514
 7269SOL     OW33265   1.476   1.649   2.915 -0.6214  0.1566  0.1171
 7269SOL    HW133266   1.483   1.740   2.884  0.8712  0.2156  0.6049
 7269SOL    HW233267   1.382   1.647   2.900 -0.8008  1.4427  1.0630
 7270SOL     OW33268   3.796   1.400   3.812  0.5164 -0.3822 -0.2894
 7270SOL    HW133269   3.759   1.327   3.861 -0.9723 -1.4332 -2.9847
 7270SOL    HW233270   3.871   1.364   3.763  0.0179 -1.3514 -0.3329
 7271SOL     OW33271   3.189   2.311   3.806  0.7824 -0.4544  0.1217
 7271SOL    HW133272   3.164   2.317   3.713 -0.1644 -1.4861  0.3021
 7271SOL    HW233273   3.252   2.383   3.808  0.9584 -0.5392 -2.2148
 7272SOL     OW33274   2.201   2.514  15.993 -0.3251 -0.1345 -0.1134
 7272SOL    HW133275   2.123   2.532  15.941  1.3869 -0.5517 -2.8108
 7272SOL    HW233276   2.168   2.493  16.080 -1.6301  1.0492 -0.3295
 7273SOL     OW33277   0.996   1.062   6.658  0.2048  0.4228  0.0018
 7273SOL    HW133278   1.018   1.041   6.749  0.3838  0.6017  0.0013
 7273SOL    HW233279   0.915   1.112   6.663  0.2310  0.7887 -3.2549
 7274SOL     OW33280   0.520   4.487   8.240 -0.0724 -0.4156 -0.0960
 7274SOL    HW133281   0.501   4.544   8.166  3.1971  1.0281  0.1924
 7274SOL    HW233282   0.613   4.500   8.254 -0.4199 -0.3620  2.2036
 7275SOL     OW33283   0.758   1.402   3.941 -0.6104 -0.7191  0.5309
 7275SOL    HW133284   0.714   1.435   4.020 -2.6934 -0.9946 -0.5261
 7275SOL    HW233285   0.740   1.309   3.951  0.6498 -0.9666  0.4630
 7276SOL     OW33286   0.856   2.620   9.731 -0.1572 -0.0699 -0.5864
 7276SOL    HW133287   0.912   2.615   9.809 -1.9163 -1.0201  0.6005
 7276SOL    HW233288   0.767   2.612   9.764  0.1364  1.3421  0.5365
 7277SOL     OW33289   4.315   1.557  12.121  0.3136 -0.0107  0.0127
 7277SOL    HW133290   4.350   1.551  12.210 -1.1298  1.9385  0.7070
 7277SOL    HW233291   4.321   1.650  12.098 -0.7056  0.2139  0.6603
 7278SOL     OW33292   3.677   0.171   1.876 -0.0421 -0.0836  0.1529
 7278SOL    HW133293   3.739   0.211   1.937 -1.1602 -0.0597  1.2952
 7278SOL    HW233294   3.727   0.105   1.828 -0.1084  0.5555 -0.7905
 7279SOL     OW33295   2.408   4.085   2.966 -0.3353  0.7307  0.0799
 7279SOL    HW133296   2.375   3.998   2.944 -0.5272  0.9987 -0.6865
 7279SOL    HW233297   2.470   4.095   2.894 -0.5285  1.5762  0.0335
 7280SOL     OW33298   3.144   1.092   4.812  0.2671  0.9964 -0.5146
 7280SOL    HW133299   3.132   1.119   4.721  0.5280  0.3905 -0.7327
 7280SOL    HW233300   3.053   1.084   4.841  0.3598  1.4400 -0.1217
 7281SOL     OW33301   0.340   0.673   5.902 -0.0168  0.0425  0.1340
 7281SOL    HW133302   0.383   0.751   5.935  1.2115 -0.2507 -0.7412
 7281SOL    HW233303   0.259   0.653   5.948  0.2497 -0.8979  0.2094
 7282SOL     OW33304   3.154   2.337   9.602 -0.2751 -0.3738  0.3431
 7282SOL    HW133305   3.198   2.291   9.674 -2.1198 -2.3951  0.1622
 7282SOL    HW233306   3.155   2.263   9.542 -1.6190 -0.4072  0.3570
 7283SOL     OW33307   0.782   4.189   5.992 -0.4331  0.4545  0.1276
 7283SOL    HW133308   0.767   4.134   6.070 -0.8785 -1.4126 -1.2870
 7283SOL    HW233309   0.787   4.279   6.023 -0.9954  0.6813 -0.4556
 7284SOL     OW33310   1.079   2.646   9.871  0.2339  0.1569 -0.0501
 7284SOL    HW133311   1.098   2.690   9.954  0.2454  0.3284 -0.1447
 7284SOL    HW233312   1.047   2.561   9.901  1.9938 -0.0534  1.3010
 7285SOL     OW33313   2.904   1.212   1.143  0.1989  0.3108  0.4335
 7285SOL    HW133314   2.889   1.221   1.237  1.1282 -2.2197  0.8428
 7285SOL    HW233315   2.900   1.305   1.122 -4.2517  0.3882  1.8047
 7286SOL     OW33316   4.038   1.832   0.966  0.8536 -0.9399  0.1453
 7286SOL    HW133317   3.996   1.777   1.032 -2.9037  0.1354 -1.3446
 7286SOL    HW233318   4.112   1.773   0.952  1.1997 -0.1272 -1.4354
 7287SOL     OW33319   0.259   0.520   7.874  0.2329 -0.3364 -0.5593
 7287SOL    HW133320   0.171   0.536   7.906 -0.2236  2.8066 -3.3609
 7287SOL    HW233321   0.270   0.441   7.926 -0.9554  0.0950  0.3455
 7288SOL     OW33322   0.585   4.603  11.076  0.4059  0.9587 -0.0386
 7288SOL    HW133323   0.502   4.587  11.031  0.1203 -0.2029  0.9055
 7288SOL    HW233324   0.637   4.660  11.020  0.2505 -1.6451 -2.8399
 7289SOL     OW33325   2.443   0.791   3.483 -0.6357 -0.3760 -0.0689
 7289SOL    HW133326   2.459   0.752   3.569  2.4407 -1.5376 -1.1675
 7289SOL    HW233327   2.474   0.881   3.495  1.7547 -1.6200  3.0951
 7290SOL     OW33328   1.780   2.847   6.620 -0.6056 -0.2076  0.5530
 7290SOL    HW133329   1.829   2.793   6.681 -1.7317 -3.1351 -1.1245
 7290SOL    HW233330   1.837   2.846   6.543 -0.0485 -2.2094  0.9908
 7291SOL     OW33331   0.571   2.351   9.162  0.3821 -0.2176 -0.2236
 7291SOL    HW133332   0.479   2.331   9.142  0.4015  0.7004 -1.2022
 7291SOL    HW233333   0.572   2.364   9.257  2.9147  0.5299 -0.3510
 7292SOL     OW33334   3.894   1.000  15.948  0.0871  0.1167  0.6883
 7292SOL    HW133335   3.823   0.949  15.986  1.4855 -1.9343  0.6000
 7292SOL    HW233336   3.892   0.970  15.857  0.2364  1.0443  0.3802
 7293SOL     OW33337   1.799   0.850   9.473  0.4139 -0.3542 -0.1417
 7293SOL    HW133338   1.714   0.807   9.464 -0.1022  0.7911 -0.7333
 7293SOL    HW233339   1.791   0.918   9.540  1.0616 -0.6525  0.2440
 7294SOL     OW33340   4.373   3.511   0.564 -0.5553 -0.1763 -0.4261
 7294SOL    HW133341   4.359   3.590   0.616  2.2727  0.3020 -0.3517
 7294SOL    HW233342   4.430   3.540   0.492  1.4982 -0.3090  1.1449
 7295SOL     OW33343   3.169   4.533   8.329 -0.6561  0.0398  0.3455
 7295SOL    HW133344   3.143   4.459   8.384 -0.2554 -0.1086  0.3326
 7295SOL    HW233345   3.188   4.602   8.392 -0.6947  0.8523 -0.5355
 7296SOL     OW33346   0.934   3.783  10.518 -0.0528 -0.3134  0.6871
 7296SOL    HW133347   0.865   3.841  10.487  0.0354  0.5601  2.0842
 7296SOL    HW233348   1.006   3.841  10.545 -1.2097  1.4003  0.1123
 7297SOL     OW33349   1.678   1.502   5.692 -0.7050 -0.5160  0.3189
 7297SOL    HW133350   1.630   1.585   5.692 -0.8822 -0.6180  1.2604
 7297SOL    HW233351   1.746   1.530   5.753  0.3573 -2.0295 -0.1986
 7298SOL     OW33352   1.112   1.694   2.482 -0.1903  0.9966 -0.0841
 7298SOL    HW133353   1.043   1.690   2.415 -0.2724  0.2300  0.0442
 7298SOL    HW233354   1.184   1.746   2.449  0.3098 -1.3431 -2.6284
 7299SOL     OW33355   4.057   2.396  14.635 -0.0981  0.3493  0.1183
 7299SOL    HW133356   4.112   2.446  14.695 -0.0080 -0.0011  0.3283
 7299SOL    HW233357   4.027   2.462  14.572 -0.7737  1.2000  1.3274
 7300SOL     OW33358   0.385   2.217   2.938  0.9450  0.2748  0.1643
 7300SOL    HW133359   0.392   2.210   3.034 -0.2071  1.1681  0.3130
 7300SOL    HW233360   0.443   2.292   2.926  0.0322  0.9548  0.0484
 7301SOL     OW33361   4.274   2.006   7.882 -0.2327 -0.2965 -0.0065
 7301SOL    HW133362   4.233   2.092   7.877 -1.8706 -0.9743  1.5051
 7301SOL    HW233363   4.243   1.964   7.963 -0.8868 -0.0121 -0.1085
 7302SOL     OW33364   1.325   1.539  16.328 -0.0135 -0.2164  0.0275
 7302SOL    HW133365   1.267   1.504  16.396  0.5984  1.6928  1.5186
 7302SOL    HW233366   1.369   1.611  16.374  1.1412 -1.6358  1.1562
 7303SOL     OW33367   4.177   3.745   6.844 -0.2490 -0.4849 -0.2014
 7303SOL    HW133368   4.228   3.673   6.806  1.0144  0.7327 -0.8344
 7303SOL    HW233369   4.141   3.700   6.921  0.5649 -1.0776 -0.1621
 7304SOL     OW33370   0.921   0.259   4.757  0.7188 -0.7700 -0.1034
 7304SOL    HW133371   0.898   0.178   4.802  0.3446 -0.5413  0.1165
 7304SOL    HW233372   0.924   0.331   4.820 -1.0654 -1.0661  0.3223
 7305SOL     OW33373   3.125   1.896   4.224 -0.0397  0.0954 -0.7366
 7305SOL    HW133374   3.030   1.885   4.236 -0.1515  0.5642 -1.2019
 7305SOL    HW233375   3.142   1.827   4.161  0.6087 -0.1985 -0.2379
 7306SOL     OW33376   1.502   2.841   6.027 -0.4861 -0.3280  0.1403
 7306SOL    HW133377   1.412   2.853   5.997 -0.9875  1.3010  2.2548
 7306SOL    HW233378   1.490   2.803   6.114  0.3253 -0.0929  0.3544
 7307SOL     OW33379   3.742   0.405   8.980  0.2547  0.4807  0.2884
 7307SOL    HW133380   3.660   0.369   8.947  0.9145  0.4153 -1.2815
 7307SOL    HW233381   3.801   0.335   8.950  1.6634  2.5486 -1.8352
 7308SOL     OW33382   4.169   4.331  14.092 -0.2529  0.1219 -0.0078
 7308SOL    HW133383   4.260   4.300  14.089 -0.6662 -1.1532  0.7308
 7308SOL    HW233384   4.179   4.426  14.096 -1.7888  0.3534 -1.7393
 7309SOL     OW33385   4.241   0.114  16.066  0.2717  0.5295  0.0098
 7309SOL    HW133386   4.290   0.171  16.007 -2.4353  3.0517  0.1695
 7309SOL    HW233387   4.208   0.174  16.133  1.0311  0.7444  0.1823
 7310SOL     OW33388   2.460   0.452   0.880  0.2852  0.5093 -0.0682
 7310SOL    HW133389   2.383   0.453   0.936 -0.8267  2.0169 -1.6261
 7310SOL    HW233390   2.521   0.399   0.930  0.3410 -2.0288 -2.8304
 7311SOL     OW33391   2.087   3.911   7.167  0.3956  0.5159 -0.0898
 7311SOL    HW133392   2.040   3.991   7.191 -1.2180 -0.4973  0.1846
 7311SOL    HW233393   2.100   3.863   7.249  1.0847  0.3526 -0.2941
 7312SOL     OW33394   2.747   1.413   7.186 -0.0468 -0.0335  0.2495
 7312SOL    HW133395   2.769   1.506   7.199  0.7391 -0.0694 -0.7836
 7312SOL    HW233396   2.777   1.392   7.098  1.0213 -0.4625  0.7093
 7313SOL     OW33397   0.308   0.433   5.767 -0.1728  0.2253  0.4886
 7313SOL    HW133398   0.217   0.428   5.798  0.1734 -0.4201  1.4166
 7313SOL    HW233399   0.339   0.495   5.833 -1.3270  0.9450  0.3464
 7314SOL     OW33400   2.934   1.774   6.972 -0.3796 -0.4177 -0.1968
 7314SOL    HW133401   3.023   1.745   6.992  0.4584  0.7934 -2.1562
 7314SOL    HW233402   2.956   1.858   6.933 -0.7271  0.1562  0.8405
 7315SOL     OW33403   3.808   1.896   3.793  0.1583 -0.5798 -0.3222
 7315SOL    HW133404   3.817   1.983   3.755 -0.9735 -0.2786  0.1118
 7315SOL    HW233405   3.883   1.860   3.745  0.0762 -0.1196 -0.7865
 7316SOL     OW33406   1.212   0.796  15.519 -0.0097 -0.7895 -0.5889
 7316SOL    HW133407   1.188   0.727  15.581 -0.6313  0.2819  0.3688
 7316SOL    HW233408   1.220   0.752  15.434  1.5560 -2.1581  0.2780
 7317SOL     OW33409   2.793   3.627   1.665  0.5086 -0.0098  0.3260
 7317SOL    HW133410   2.749   3.662   1.588  1.2944  3.0575  1.2681
 7317SOL    HW233411   2.844   3.551   1.634  0.1501 -0.0317 -0.2124
 7318SOL     OW33412   2.988   0.351   0.485  0.1447 -0.7559 -0.0072
 7318SOL    HW133413   3.041   0.286   0.440  0.3516  0.1312 -1.0647
 7318SOL    HW233414   3.044   0.400   0.545  1.6500 -2.1187 -0.2952
 7319SOL     OW33415   1.663   0.366  12.936 -0.0202 -0.0025  0.2799
 7319SOL    HW133416   1.661   0.280  12.978  0.9310 -0.2234 -0.1355
 7319SOL    HW233417   1.572   0.396  12.928  0.0326 -0.4064 -1.8870
 7320SOL     OW33418   0.162   4.326  17.654  0.7798 -0.2377  0.0717
 7320SOL    HW133419   0.125   4.414  17.651 -1.8220 -1.2820  1.1252
 7320SOL    HW233420   0.083   4.276  17.633  1.2685  0.4031 -3.1971
 7321SOL     OW33421   4.346   1.807   5.725  0.4283  0.2106  0.1238
 7321SOL    HW133422   4.392   1.824   5.643  0.2541  0.0243 -0.0111
 7321SOL    HW233423   4.325   1.714   5.716  0.1855  0.5019 -2.2795
 7322SOL     OW33424   1.233   2.777   6.476 -0.0425  0.2740  0.0030
 7322SOL    HW133425   1.164   2.835   6.506 -0.5170  0.9645 -2.4050
 7322SOL    HW233426   1.188   2.693   6.475  1.3698 -0.4981  0.1761
 7323SOL     OW33427   3.997   0.845   6.418  0.5647  0.5410 -0.5979
 7323SOL    HW133428   3.932   0.850   6.488  1.0466 -1.1840 -0.0355
 7323SOL    HW233429   3.992   0.930   6.375 -1.1320  0.4799 -0.5130
 7324SOL     OW33430   3.730   2.484  13.149 -0.6060 -0.6328 -0.1024
 7324SOL    HW133431   3.643   2.508  13.117 -1.4939 -1.1386  1.8812
 7324SOL    HW233432   3.757   2.574  13.162  3.5257 -1.6430 -1.8232
 7325SOL     OW33433   3.862   1.086   5.061  0.0914 -0.1982 -0.1924
 7325SOL    HW133434   3.768   1.072   5.068  0.2798 -2.2265 -1.8567
 7325SOL    HW233435   3.887   0.994   5.060  3.2606  0.6628 -1.0098
 7326SOL     OW33436   4.010   2.264   8.562 -0.2497  0.3791  0.3712
 7326SOL    HW133437   3.935   2.322   8.571 -1.1997 -0.5278 -1.8070
 7326SOL    HW233438   4.042   2.269   8.652 -1.2701  0.9495  0.6997
 7327SOL     OW33439   1.656   3.946   8.495  0.0812 -0.1581  0.1321
 7327SOL    HW133440   1.663   4.027   8.445 -0.3896  0.1287  0.5275
 7327SOL    HW233441   1.730   3.964   8.553  1.2967 -0.2954 -1.3725
 7328SOL     OW33442   0.719   1.545   7.018  0.1719 -0.0516  0.0617
 7328SOL    HW133443   0.696   1.469   7.071 -0.1025  0.0510  0.0874
 7328SOL    HW233444   0.654   1.552   6.948 -0.0151  0.4065  0.2880
 7329SOL     OW33445   1.551   2.881   6.974 -0.5820 -0.1492  0.2459
 7329SOL    HW133446   1.570   2.789   6.988 -1.4905 -0.7420 -2.4794
 7329SOL    HW233447   1.561   2.896   6.880  1.4508 -1.9799  0.1791
 7330SOL     OW33448   2.200   3.918   4.932 -0.3597 -0.4579  0.1173
 7330SOL    HW133449   2.185   3.966   4.851 -2.6416  1.3155  1.5901
 7330SOL    HW233450   2.116   3.882   4.963 -0.1166 -0.4082  0.8429
 7331SOL     OW33451   0.218   0.178  16.767 -0.8727 -0.0653  0.4330
 7331SOL    HW133452   0.299   0.209  16.806 -0.2274  0.0454 -0.9945
 7331SOL    HW233453   0.232   0.084  16.756  2.1189  0.6002 -1.4212
 7332SOL     OW33454   2.185   2.706  10.876 -0.5723 -0.2557  0.8277
 7332SOL    HW133455   2.223   2.784  10.916 -0.9075 -0.3093  1.2500
 7332SOL    HW233456   2.099   2.749  10.877  0.1215  1.1205  0.7582
 7333SOL     OW33457   3.335   3.750   5.323 -0.3334 -0.0578 -0.0268
 7333SOL    HW133458   3.343   3.826   5.381 -0.7277  0.0081 -0.0613
 7333SOL    HW233459   3.267   3.700   5.368  0.1161 -0.6498 -0.0072
 7334SOL     OW33460   0.717   3.932   4.838 -0.0307 -0.0621 -0.1937
 7334SOL    HW133461   0.729   3.837   4.832  1.8325  0.2743 -1.8910
 7334SOL    HW233462   0.666   3.957   4.761 -0.7693  0.7158  0.5514
 7335SOL     OW33463   2.268   3.171   2.650  0.3022  0.1361  0.2057
 7335SOL    HW133464   2.275   3.238   2.718  3.0052 -0.7569  0.8249
 7335SOL    HW233465   2.223   3.205   2.573 -0.4381 -2.1049 -0.3501
 7336SOL     OW33466   2.835   0.278   5.481 -0.3102 -0.4430  0.3154
 7336SOL    HW133467   2.901   0.348   5.481  0.0359 -0.7650 -1.2344
 7336SOL    HW233468   2.770   0.306   5.417  1.0332  1.4218 -0.2445
 7337SOL     OW33469   2.121   3.390   3.017  0.2682 -0.0220 -0.6400
 7337SOL    HW133470   2.117   3.476   3.059 -1.3155 -0.4955  0.1932
 7337SOL    HW233471   2.079   3.335   3.083 -0.3028 -0.1322 -1.0964
 7338SOL     OW33472   0.660   0.877   7.007 -0.0886  0.2727 -0.3301
 7338SOL    HW133473   0.744   0.851   7.045 -0.0173  0.9056 -0.0442
 7338SOL    HW233474   0.641   0.805   6.947  0.5300 -0.7063  0.6495
 7339SOL     OW33475   0.453   1.376   7.765 -0.1090  0.1027 -0.0325
 7339SOL    HW133476   0.534   1.379   7.816  0.0273 -0.9590 -0.1876
 7339SOL    HW233477   0.443   1.281   7.765 -0.7990  0.1626  1.5827
 7340SOL     OW33478   3.160   0.138   6.547 -0.1859  0.3999 -0.1236
 7340SOL    HW133479   3.248   0.127   6.585 -1.5086 -1.4407  2.4092
 7340SOL    HW233480   3.136   0.226   6.576 -0.9886  1.2118 -3.2891
 7341SOL     OW33481   3.075   1.656   9.282 -0.0488  0.3873  0.5337
 7341SOL    HW133482   3.041   1.635   9.369 -0.5625 -1.4093 -0.1007
 7341SOL    HW233483   3.010   1.622   9.221  0.7226  0.1581 -0.1631
 7342SOL     OW33484   2.602   2.301  11.852 -0.2413  0.0807 -0.0267
 7342SOL    HW133485   2.511   2.332  11.853  0.4062  1.9956  0.7874
 7342SOL    HW233486   2.643   2.367  11.908  1.6003 -0.6974 -0.4629
 7343SOL     OW33487   3.214   2.093  15.907  0.0402 -0.4325 -0.5537
 7343SOL    HW133488   3.146   2.054  15.961  0.6797 -3.0698 -1.6354
 7343SOL    HW233489   3.161   2.164  15.870  0.9286  0.8177  0.5379
 7344SOL     OW33490   4.555   2.462   8.629  0.4085  0.3484 -0.2890
 7344SOL    HW133491   4.492   2.533   8.616  0.9424  0.7488 -0.6875
 7344SOL    HW233492   4.574   2.474   8.722  0.8170  1.8449 -0.5666
 7345SOL     OW33493   0.321   1.758   5.403 -0.1384 -0.6779 -0.0249
 7345SOL    HW133494   0.349   1.694   5.338  1.5208 -1.1689  1.1592
 7345SOL    HW233495   0.233   1.783   5.375  0.3344 -1.3703 -2.1015
 7346SOL     OW33496   0.883   4.562   4.414  0.3713  0.0332 -0.3786
 7346SOL    HW133497   0.864   4.549   4.507  1.4252  0.9895 -0.0286
 7346SOL    HW233498   0.942   4.637   4.415  0.0451  0.2757  1.2399
 7347SOL     OW33499   0.245   2.876   4.554 -0.2640  0.4722 -0.0437
 7347SOL    HW133500   0.253   2.964   4.517 -0.7097 -0.1475 -1.6444
 7347SOL    HW233501   0.192   2.888   4.633 -0.2385  0.0239  0.0452
 7348SOL     OW33502   0.462   2.899   2.180  0.4463 -0.1277 -0.0328
 7348SOL    HW133503   0.539   2.844   2.193  1.5234  0.7029 -2.8162
 7348SOL    HW233504   0.501   2.983   2.203  0.3143 -0.5837  1.8098
 7349SOL     OW33505   1.568   1.003   5.647  0.3566  0.0015 -0.2592
 7349SOL    HW133506   1.662   0.999   5.627  0.6219  0.0312  0.9828
 7349SOL    HW233507   1.564   1.085   5.696  0.1903 -0.3224  0.2704
 7350SOL     OW33508   3.766   3.883   4.247  0.5030 -0.3106  0.1145
 7350SOL    HW133509   3.753   3.860   4.339 -1.0023  0.7876  0.1855
 7350SOL    HW233510   3.833   3.819   4.224  1.1924  0.6348 -0.5263
 7351SOL     OW33511   2.281   3.085   2.067  0.0776  0.6770 -0.0893
 7351SOL    HW133512   2.217   3.114   2.002 -0.4671 -1.1508 -0.3527
 7351SOL    HW233513   2.280   2.993   2.043  0.5487  1.0621 -1.5454
 7352SOL     OW33514   1.318   0.669  12.929 -0.6390 -0.1131  0.1066
 7352SOL    HW133515   1.345   0.584  12.892  0.8369  0.5317 -0.2869
 7352SOL    HW233516   1.239   0.701  12.885  0.1657  1.1562 -0.3932
 7353SOL     OW33517   0.341   3.940   9.167 -0.1169 -0.1607  0.3588
 7353SOL    HW133518   0.388   3.998   9.108 -1.4611 -1.2647 -1.8089
 7353SOL    HW233519   0.294   3.890   9.100  0.9629  1.4460 -1.5802
 7354SOL     OW33520   0.341   2.664  16.187  0.0712 -0.2461 -0.1072
 7354SOL    HW133521   0.284   2.703  16.121 -0.0186  1.3282  0.8957
 7354SOL    HW233522   0.331   2.569  16.186  0.7557 -0.2883 -3.2803
 7355SOL     OW33523   0.019   1.634   5.539  0.1219  0.4158  0.0177
 7355SOL    HW133524   0.023   1.699   5.469  1.9051 -1.4297 -1.5776
 7355SOL    HW233525   0.037   1.550   5.498  0.9130  1.2136 -1.2838
 7356SOL     OW33526   1.986   2.647   9.625  0.0987 -0.3004  0.8313
 7356SOL    HW133527   2.028   2.569   9.591  2.4731  0.7208  1.4068
 7356SOL    HW233528   1.901   2.614   9.598 -0.0579 -0.8942  2.0387
 7357SOL     OW33529   0.157   1.032   8.597 -0.7784  0.0167 -0.2542
 7357SOL    HW133530   0.081   1.020   8.654  0.5155 -0.8038  1.2815
 7357SOL    HW233531   0.231   1.018   8.656 -0.3991  0.1162 -0.7005
 7358SOL     OW33532   1.173   3.279   6.201 -0.6456 -0.3232 -0.3330
 7358SOL    HW133533   1.247   3.318   6.154 -0.2134 -2.3281 -1.2894
 7358SOL    HW233534   1.148   3.355   6.254  0.0498 -1.0021  0.9717
 7359SOL     OW33535   1.075   0.710  10.741  0.1065 -0.0341 -0.0037
 7359SOL    HW133536   0.985   0.693  10.713 -0.3184  1.3530  0.5389
 7359SOL    HW233537   1.114   0.628  10.709 -1.5414 -1.2844  1.1631
 7360SOL     OW33538   0.545   3.419   7.694  0.1537 -0.2815  0.0623
 7360SOL    HW133539   0.467   3.373   7.724 -0.2954 -0.7453 -1.8113
 7360SOL    HW233540   0.526   3.452   7.606  1.9414  1.6942  0.4158
 7361SOL     OW33541   0.331   1.512   5.901 -0.3686  0.6476 -0.0905
 7361SOL    HW133542   0.296   1.468   5.823  1.5088 -1.0167  0.0078
 7361SOL    HW233543   0.350   1.595   5.856 -3.6397  1.1314 -0.6031
 7362SOL     OW33544   4.645   0.786   5.176  0.3656 -0.8603  0.0211
 7362SOL    HW133545   4.622   0.856   5.237 -0.6726 -1.3777  0.2184
 7362SOL    HW233546   4.606   0.806   5.092  0.4270  0.2793  0.2690
 7363SOL     OW33547   3.077   4.653   3.710 -0.2563  0.0946 -0.0818
 7363SOL    HW133548   3.034   4.609   3.637 -0.5840 -0.5776  0.5253
 7363SOL    HW233549   3.095   4.588   3.777  0.5436  1.9701  1.5376
 7364SOL     OW33550   4.634   1.413   7.833 -0.1742  0.4893 -0.1563
 7364SOL    HW133551   4.566   1.352   7.862  1.7919 -1.7897 -0.3678
 7364SOL    HW233552   4.691   1.346   7.796  1.0160  1.4039  0.0305
 7365SOL     OW33553   0.656   1.631  13.957 -0.2662 -0.4961 -0.2343
 7365SOL    HW133554   0.654   1.538  13.977 -1.1202 -0.0410  1.8253
 7365SOL    HW233555   0.569   1.657  13.925 -0.1639 -1.2333 -1.0841
 7366SOL     OW33556   1.521   0.995  10.004 -0.3267  0.2152 -0.1560
 7366SOL    HW133557   1.503   0.952   9.920 -4.3640 -0.9870  1.3368
 7366SOL    HW233558   1.437   0.991  10.049 -1.0329  0.4057 -1.4745
 7367SOL     OW33559   3.225   4.138   1.833 -0.2583 -0.0748  0.1408
 7367SOL    HW133560   3.237   4.231   1.814  1.3747 -0.5251 -1.0522
 7367SOL    HW233561   3.279   4.130   1.912 -0.6245 -1.0562  0.2987
 7368SOL     OW33562   2.900   1.723   8.139 -0.3094  0.1180  0.1759
 7368SOL    HW133563   2.912   1.629   8.128  0.7744  0.3223 -0.4006
 7368SOL    HW233564   2.805   1.721   8.137 -0.3345 -0.5729  1.9066
 7369SOL     OW33565   4.272   2.894  16.014 -0.2228 -0.0713 -0.4283
 7369SOL    HW133566   4.179   2.906  15.997  0.0893  1.2458 -1.2582
 7369SOL    HW233567   4.300   2.866  15.926  1.2457  0.0008  0.0047
 7370SOL     OW33568   2.790   1.100   5.272  0.6243  0.2242 -0.0533
 7370SOL    HW133569   2.784   1.178   5.328  0.2276 -0.7891  1.3075
 7370SOL    HW233570   2.757   1.038   5.337 -0.6853  0.6967 -0.2665
 7371SOL     OW33571   0.171   0.173   2.016  0.5574 -0.8138 -0.1320
 7371SOL    HW133572   0.167   0.185   2.111  2.5001  0.8622 -0.2441
 7371SOL    HW233573   0.078   0.172   1.994  0.0983  1.4283  1.7563
 7372SOL     OW33574   0.406   1.848  12.455  0.3759  0.5563 -0.4149
 7372SOL    HW133575   0.501   1.858  12.448  0.1114  2.4702 -1.1716
 7372SOL    HW233576   0.402   1.789  12.530  4.3819  0.0237 -0.6075
 7373SOL     OW33577   4.181   2.979   8.468  0.1790 -0.2894 -0.3383
 7373SOL    HW133578   4.164   2.886   8.478  0.4430 -0.1098  1.8031
 7373SOL    HW233579   4.270   2.975   8.501  1.2028  0.0869 -3.0945
 7374SOL     OW33580   0.790   2.440   3.684  0.0636 -0.3506 -0.1759
 7374SOL    HW133581   0.876   2.443   3.726  0.2064 -1.7746 -0.3730
 7374SOL    HW233582   0.811   2.471   3.596  1.6655 -0.1855  0.2530
 7375SOL     OW33583   1.375   4.559  12.710  0.1548 -0.7848  0.5441
 7375SOL    HW133584   1.458   4.544  12.665 -0.4703  2.4374 -1.6472
 7375SOL    HW233585   1.327   4.590  12.634 -1.5824  0.6982  2.2348
 7376SOL     OW33586   0.384   2.339   1.175 -0.0596  0.2340  0.0913
 7376SOL    HW133587   0.326   2.278   1.222  1.9620  0.2431  2.6243
 7376SOL    HW233588   0.412   2.280   1.105 -1.0465 -2.4354  1.9243
 7377SOL     OW33589   2.122   3.513   6.689  0.8914  0.3545 -0.6956
 7377SOL    HW133590   2.209   3.486   6.718  0.0927 -1.7353 -0.1543
 7377SOL    HW233591   2.115   3.464   6.607  0.6032 -0.3882 -0.2280
 7378SOL     OW33592   3.108   1.340   0.413 -0.2703 -0.6939  0.2874
 7378SOL    HW133593   3.073   1.290   0.487  0.2424  1.6427  2.1171
 7378SOL    HW233594   3.196   1.352   0.449 -1.0622  0.5908  1.7990
 7379SOL     OW33595   2.423   2.206   5.663  0.6608  0.2419  0.5590
 7379SOL    HW133596   2.515   2.180   5.652  0.2669 -0.3644 -1.3150
 7379SOL    HW233597   2.414   2.205   5.758  0.0970  2.8019  0.5261
 7380SOL     OW33598   1.683   2.981   8.790  0.3453 -1.1298 -0.2374
 7380SOL    HW133599   1.596   3.016   8.805  1.3678  1.4066 -0.1846
 7380SOL    HW233600   1.701   3.029   8.709 -2.3460 -2.7874 -1.7700
 7381SOL     OW33601   0.803   3.832  12.568 -0.1602 -0.3452  0.4507
 7381SOL    HW133602   0.792   3.924  12.544  0.0647 -0.1725  0.9906
 7381SOL    HW233603   0.870   3.832  12.637  1.2836  0.6002 -0.9699
 7382SOL     OW33604   0.043   4.429   3.860  0.6278 -0.1375  0.4947
 7382SOL    HW133605   0.114   4.438   3.797  0.4642  0.2978  0.3739
 7382SOL    HW233606   0.074   4.356   3.914  1.6642 -1.1920 -1.5120
 7383SOL     OW33607   0.309   3.346   5.573  0.3022  0.0081  0.4881
 7383SOL    HW133608   0.364   3.401   5.517  1.0258 -1.1650  0.0306
 7383SOL    HW233609   0.232   3.337   5.516 -0.4065 -1.5267  1.6767
 7384SOL     OW33610   2.246   2.255   5.252  0.9562 -0.0245  0.3846
 7384SOL    HW133611   2.327   2.209   5.274  1.3053  0.2265 -0.4254
 7384SOL    HW233612   2.270   2.342   5.221  0.7022  0.9784  2.9906
 7385SOL     OW33613   4.043   3.092   5.563  0.1361  0.4729 -0.2047
 7385SOL    HW133614   4.135   3.105   5.537  0.2669  1.8510  0.9314
 7385SOL    HW233615   4.041   3.160   5.631  0.0204 -0.6743  0.9376
 7386SOL     OW33616   3.893   3.833   1.983 -0.0673  0.0935  0.3272
 7386SOL    HW133617   3.989   3.836   1.987 -0.0733  1.0642 -0.0460
 7386SOL    HW233618   3.872   3.804   1.895  0.1178  0.6903  0.0853
 7387SOL     OW33619   1.773   4.602  12.902  0.9795 -0.0189 -0.1630
 7387SOL    HW133620   1.824   4.522  12.906  0.3659 -0.4139 -0.1352
 7387SOL    HW233621   1.801   4.625  12.813 -0.6738 -0.9244 -0.9286
 7388SOL     OW33622   0.269   2.321   9.215 -0.2525 -0.0676  0.0944
 7388SOL    HW133623   0.262   2.410   9.250 -0.4997  0.0602 -0.2812
 7388SOL    HW233624   0.280   2.273   9.297 -0.7323  0.3081  0.3823
 7389SOL     OW33625   3.381   1.616  14.738  0.3553 -0.3362  0.4849
 7389SOL    HW133626   3.445   1.686  14.723 -0.0742 -0.2338 -0.8626
 7389SOL    HW233627   3.436   1.541  14.716 -0.5263 -0.4676 -1.2873
 7390SOL     OW33628   4.202   0.625   2.118 -0.1532 -0.2884 -0.1394
 7390SOL    HW133629   4.141   0.567   2.071 -0.4283 -0.8179  0.8575
 7390SOL    HW233630   4.214   0.690   2.049 -0.0324 -0.3506 -0.1770
 7391SOL     OW33631   0.255   2.431   3.324  0.5282 -0.5060 -0.2009
 7391SOL    HW133632   0.166   2.426   3.357  0.9189  1.5414  1.1881
 7391SOL    HW233633   0.306   2.435   3.405 -0.3056  2.6813  0.1718
 7392SOL     OW33634   2.644   2.361   5.356 -0.0899 -0.4393 -0.2397
 7392SOL    HW133635   2.727   2.338   5.313  0.6228  1.8484 -0.0409
 7392SOL    HW233636   2.680   2.432   5.408  0.3586 -1.1206  0.3757
 7393SOL     OW33637   1.075   3.218  13.371  0.0561 -0.1149 -0.2924
 7393SOL    HW133638   1.052   3.142  13.423  1.2007 -1.0257 -1.1014
 7393SOL    HW233639   1.011   3.282  13.402  0.5526 -1.1147  2.7674
 7394SOL     OW33640   0.664   1.193   5.590 -0.0414 -0.1647 -0.2782
 7394SOL    HW133641   0.578   1.162   5.563  0.7073 -0.7842 -2.0044
 7394SOL    HW233642   0.671   1.154   5.677  0.0774  1.3618  0.4011
 7395SOL     OW33643   0.081   0.895   3.065  0.3612 -0.2493 -0.4016
 7395SOL    HW133644   0.051   0.806   3.045 -1.1256  0.0360  0.5642
 7395SOL    HW233645   0.053   0.940   2.985  1.5318  1.5327  0.2038
 7396SOL     OW33646   0.458   2.269  11.959  0.5014 -0.0538 -0.1740
 7396SOL    HW133647   0.460   2.195  12.021  1.3011  0.8899  0.9252
 7396SOL    HW233648   0.515   2.330  12.005  0.9059 -1.4767  1.2594
 7397SOL     OW33649   2.410   1.422   3.479 -0.4786 -0.7199  0.3410
 7397SOL    HW133650   2.500   1.391   3.476  1.0180  3.4209  1.8337
 7397SOL    HW233651   2.396   1.434   3.386 -0.6314 -2.5248  0.1401
 7398SOL     OW33652   3.053   2.920  10.682  0.6420  0.5737 -0.4886
 7398SOL    HW133653   2.980   2.967  10.723  1.2901  1.4668 -0.3422
 7398SOL    HW233654   3.023   2.832  10.661 -0.1423  0.8337 -0.4596
 7399SOL     OW33655   3.117   3.629   5.438  0.1441  0.2991 -0.7153
 7399SOL    HW133656   3.038   3.652   5.390 -2.9609 -0.7242  3.9020
 7399SOL    HW233657   3.118   3.697   5.506  2.1216  0.2889 -0.7285
 7400SOL     OW33658   4.640   0.929  16.160 -0.1067  0.5211 -0.4538
 7400SOL    HW133659   4.647   0.980  16.079 -1.4704  0.2674 -0.7271
 7400SOL    HW233660   4.567   0.871  16.140  0.9504 -1.0244  0.1687
 7401SOL     OW33661   3.559   4.538  11.595 -0.7517  0.3108 -0.0876
 7401SOL    HW133662   3.601   4.503  11.516 -1.7640 -0.9073 -0.0978
 7401SOL    HW233663   3.601   4.477  11.656 -0.5872  1.5073  0.9867
 7402SOL     OW33664   3.661   0.113   2.259 -0.2519  0.1652 -0.1301
 7402SOL    HW133665   3.651   0.023   2.289 -0.8228 -0.0659 -1.0182
 7402SOL    HW233666   3.752   0.097   2.233 -0.6492 -0.4223 -1.1692
 7403SOL     OW33667   2.445   4.722   0.786  0.0686  0.3012 -0.0164
 7403SOL    HW133668   2.453   4.643   0.840  0.0321 -0.0279 -0.4880
 7403SOL    HW233669   2.537   0.025   0.791 -0.3346  1.8926 -1.4791
 7404SOL     OW33670   3.735   2.044   3.072  0.4466  0.7350  0.4892
 7404SOL    HW133671   3.749   2.028   3.165  0.4112 -0.7322  0.2461
 7404SOL    HW233672   3.656   1.997   3.046 -1.0468  2.2262  2.4088
 7405SOL     OW33673   1.395   1.959  16.752 -0.4137  0.3528  1.0623
 7405SOL    HW133674   1.306   1.940  16.784 -0.4557  0.9593  1.3055
 7405SOL    HW233675   1.436   1.948  16.838  0.5680  2.2746  0.8399
 7406SOL     OW33676   0.251   3.188   8.365 -0.0201  0.0476 -0.7400
 7406SOL    HW133677   0.287   3.229   8.443 -3.3783  3.6061 -1.0370
 7406SOL    HW233678   0.160   3.215   8.381 -0.3056 -0.1445 -1.9967
 7407SOL     OW33679   0.602   2.317   9.418  0.5653 -0.3069 -0.2048
 7407SOL    HW133680   0.646   2.242   9.457 -0.2720  0.5786  2.4054
 7407SOL    HW233681   0.566   2.364   9.493  1.2825 -0.3602  0.1702
 7408SOL     OW33682   0.552   1.075  15.669 -0.6356 -0.2879 -0.0269
 7408SOL    HW133683   0.635   1.100  15.710 -0.9087  2.2405 -0.9844
 7408SOL    HW233684   0.585   0.996  15.626  0.5595 -0.6133  1.4600
 7409SOL     OW33685   3.427   1.552   2.507  0.6015 -0.0270 -0.3598
 7409SOL    HW133686   3.352   1.506   2.469  0.1671  0.0664  0.3830
 7409SOL    HW233687   3.423   1.640   2.468 -0.4660 -0.2551 -0.7563
 7410SOL     OW33688   4.007   1.174   9.542  0.3848  0.1713  0.7786
 7410SOL    HW133689   3.995   1.079   9.547  1.7662 -0.1684 -2.3931
 7410SOL    HW233690   3.982   1.201   9.630  1.8762 -0.0903  1.2711
 7411SOL     OW33691   0.714   1.112  15.925 -0.5441 -0.5603  0.0069
 7411SOL    HW133692   0.777   1.137  15.992  0.5691 -1.3896 -0.7406
 7411SOL    HW233693   0.766   1.053  15.871  2.4583 -0.1034  2.4311
 7412SOL     OW33694   2.016   4.382   2.188  0.4267 -0.1360 -0.6350
 7412SOL    HW133695   1.981   4.372   2.100  0.5214  2.1974 -0.9301
 7412SOL    HW233696   2.109   4.400   2.174  0.2036  1.2526 -0.2595
 7413SOL     OW33697   3.878   1.896   4.972  0.3920  0.5539  0.0613
 7413SOL    HW133698   3.886   1.954   5.047  0.8857  0.7349 -0.1372
 7413SOL    HW233699   3.971   1.896   4.949  0.1577  2.1698 -0.8339
 7414SOL     OW33700   4.147   1.463   4.919  0.1783 -0.0364 -0.0409
 7414SOL    HW133701   4.055   1.453   4.945  0.5315 -0.8388  0.9044
 7414SOL    HW233702   4.195   1.387   4.953  1.8370  1.5998  1.2403
 7415SOL     OW33703   2.184   3.751   5.633  0.0318  0.1387 -0.5694
 7415SOL    HW133704   2.168   3.845   5.619  0.0874  0.1171 -0.7727
 7415SOL    HW233705   2.225   3.756   5.720  3.1411 -1.2998 -1.9719
 7416SOL     OW33706   0.349   3.522   6.079  0.1212  0.2284  0.4325
 7416SOL    HW133707   0.387   3.605   6.109 -1.0830  1.5804 -1.8044
 7416SOL    HW233708   0.424   3.466   6.059 -0.8964  0.0226 -2.7747
 7417SOL     OW33709   1.467   2.887   7.756 -0.2373 -0.3492 -0.5072
 7417SOL    HW133710   1.543   2.907   7.812  0.4683 -1.3355 -1.1263
 7417SOL    HW233711   1.407   2.864   7.827 -1.2096  1.8578 -0.6153
 7418SOL     OW33712   0.605   2.133   4.591 -0.3103 -0.0820 -0.5711
 7418SOL    HW133713   0.553   2.112   4.513  1.4237  0.2042 -1.8075
 7418SOL    HW233714   0.531   2.150   4.650  1.3430  0.9672  1.1933
 7419SOL     OW33715   0.653   0.564   7.424 -0.3746 -0.1966 -0.4268
 7419SOL    HW133716   0.628   0.608   7.505  1.0280 -1.2415  0.5790
 7419SOL    HW233717   0.695   0.483   7.454  1.8761  1.4827  0.9221
 7420SOL     OW33718   0.998   0.645   6.834 -0.4704  0.1113  0.3369
 7420SOL    HW133719   1.031   0.700   6.905 -1.9353  2.9366 -1.1509
 7420SOL    HW233720   1.050   0.676   6.759  2.2134 -0.3259  2.0266
 7421SOL     OW33721   1.674   1.593   3.534 -0.2931 -0.1263 -0.1183
 7421SOL    HW133722   1.584   1.573   3.557 -0.2257  0.1834  0.4117
 7421SOL    HW233723   1.654   1.637   3.451 -1.9812 -0.1137  0.3015
 7422SOL     OW33724   2.564   1.612   8.399 -0.6512  0.3983  0.0584
 7422SOL    HW133725   2.549   1.706   8.396 -0.2782  0.4602  0.0798
 7422SOL    HW233726   2.539   1.590   8.489  1.9639 -0.5308  0.5793
 7423SOL     OW33727   2.194   4.610   3.843 -0.4919 -0.3117  0.5681
 7423SOL    HW133728   2.281   4.592   3.879  0.3178  1.4749 -0.5062
 7423SOL    HW233729   2.219   4.649   3.759  1.0918 -2.3507  0.0962
 7424SOL     OW33730   2.591   1.312   2.065 -0.7733 -0.6083  0.0627
 7424SOL    HW133731   2.533   1.338   1.994  3.5368  2.8299 -2.1502
 7424SOL    HW233732   2.546   1.238   2.107  0.8704 -2.1231 -0.8277
 7425SOL     OW33733   1.738   2.362   1.571  0.0644 -0.4439  0.5876
 7425SOL    HW133734   1.756   2.296   1.637  2.5307  0.3108  0.6555
 7425SOL    HW233735   1.732   2.447   1.614  0.3565  0.3007 -0.8390
 7426SOL     OW33736   4.107   1.702   2.831 -0.0841 -0.1374 -0.0529
 7426SOL    HW133737   4.130   1.786   2.789 -2.0732  0.6075  0.3215
 7426SOL    HW233738   4.153   1.636   2.780 -0.2379  1.2565 -2.0270
 7427SOL     OW33739   0.189   1.595   2.289 -0.2949  0.6197 -0.5425
 7427SOL    HW133740   0.196   1.650   2.212 -1.1755  0.3435 -0.8227
 7427SOL    HW233741   0.099   1.612   2.316 -0.5944 -0.8145 -0.6060
 7428SOL     OW33742   2.268   0.599   2.534 -0.2399 -0.1599  0.2186
 7428SOL    HW133743   2.351   0.558   2.512  0.8772  1.3902  1.5815
 7428SOL    HW233744   2.279   0.629   2.624  1.8935  0.1264 -0.1545
 7429SOL     OW33745   1.597   3.806   3.316 -0.4508  0.5235 -0.0700
 7429SOL    HW133746   1.517   3.817   3.265  1.0343  0.3731 -2.4494
 7429SOL    HW233747   1.661   3.844   3.255  0.2386 -0.4395  0.0598
 7430SOL     OW33748   0.134   2.466   1.869 -0.4003 -0.0191 -0.2174
 7430SOL    HW133749   0.182   2.385   1.885  0.8137  0.8109  0.3382
 7430SOL    HW233750   0.069   2.438   1.805  0.8981  1.4691 -2.1793
 7431SOL     OW33751   3.938   3.384   2.537  0.1778 -0.8444  0.3592
 7431SOL    HW133752   4.003   3.315   2.522  1.5026  0.3073  0.7943
 7431SOL    HW233753   3.874   3.352   2.473 -1.5421  1.7828  0.7313
 7432SOL     OW33754   3.926   2.086   7.463  0.8385 -0.0494 -0.7789
 7432SOL    HW133755   3.968   2.141   7.529 -1.6014 -0.5665  1.2141
 7432SOL    HW233756   3.904   2.151   7.396 -0.9446  3.0303  2.8056
 7433SOL     OW33757   2.379   0.818   4.621  0.1389 -0.6717 -0.0882
 7433SOL    HW133758   2.347   0.734   4.588 -1.9020 -0.6056  1.7206
 7433SOL    HW233759   2.394   0.859   4.535  1.0793  0.1729  0.4865
 7434SOL     OW33760   3.061   4.196   8.892  0.2681 -0.0359 -0.5582
 7434SOL    HW133761   3.144   4.149   8.877 -0.6357 -2.0154  0.6063
 7434SOL    HW233762   3.096   4.271   8.939  1.1377 -1.9454  1.8810
 7435SOL     OW33763   2.494   1.659   2.030 -0.1924 -0.4115  0.3173
 7435SOL    HW133764   2.464   1.569   2.044 -1.0011  0.0080  1.2810
 7435SOL    HW233765   2.583   1.636   2.056  0.2495  0.3497 -0.5554
 7436SOL     OW33766   3.748   0.404  16.633 -0.4532  0.3253  0.1701
 7436SOL    HW133767   3.679   0.356  16.586 -0.0978  0.0319 -0.0529
 7436SOL    HW233768   3.717   0.424  16.721 -1.0091 -0.2232  0.1074
 7437SOL     OW33769   2.689   1.204  11.431  0.7381 -0.3247  0.1731
 7437SOL    HW133770   2.613   1.147  11.448 -1.5543  2.0165 -2.2555
 7437SOL    HW233771   2.758   1.138  11.427  3.1239  2.2665 -0.9881
 7438SOL     OW33772   0.665   0.512   4.402  0.0352 -0.4062  0.1637
 7438SOL    HW133773   0.718   0.552   4.333  0.0830  0.6189  0.8016
 7438SOL    HW233774   0.594   0.472   4.352  0.2761  0.8825 -1.1965
 7439SOL     OW33775   1.970   0.314   8.851 -0.2695  0.3870  0.3561
 7439SOL    HW133776   1.934   0.358   8.928  0.8564  0.8995  0.6003
 7439SOL    HW233777   2.036   0.378   8.826 -0.0499  0.4338  1.0422
 7440SOL     OW33778   0.251   1.759   9.335 -0.5088  0.0061 -0.3638
 7440SOL    HW133779   0.317   1.823   9.309  0.3796 -1.6352 -2.0646
 7440SOL    HW233780   0.272   1.680   9.286  0.0304 -0.5399  0.7317
 7441SOL     OW33781   3.888   1.918   2.554 -0.0583 -0.5309  0.4709
 7441SOL    HW133782   3.865   1.850   2.618 -0.9871  0.5594  1.3052
 7441SOL    HW233783   3.980   1.930   2.578 -0.0612  2.1327 -0.8828
 7442SOL     OW33784   3.419   2.154   6.195 -0.3397 -0.6754 -0.6245
 7442SOL    HW133785   3.433   2.247   6.216 -0.2082 -1.0424  0.9069
 7442SOL    HW233786   3.497   2.152   6.140  0.9156  3.0813  1.0088
 7443SOL     OW33787   3.504   2.937   3.899  0.6488 -0.8702 -0.1888
 7443SOL    HW133788   3.540   2.935   3.810 -1.4225 -0.8254 -1.0455
 7443SOL    HW233789   3.559   3.008   3.932 -1.7260  0.8970 -0.0190
 7444SOL     OW33790   2.379   3.163   5.972  0.4722 -0.0742  0.5181
 7444SOL    HW133791   2.362   3.069   5.968  0.1692  0.0416 -1.0458
 7444SOL    HW233792   2.456   3.169   5.916  0.8469  0.2775  1.0805
 7445SOL     OW33793   3.957   2.133   4.728  0.0789 -0.0221 -0.2595
 7445SOL    HW133794   4.010   2.066   4.772  0.0465  0.1096 -0.0253
 7445SOL    HW233795   3.977   2.117   4.635  0.5560  2.4920 -0.5876
 7446SOL     OW33796   0.446   2.438   7.408  0.1398 -0.5710  0.0978
 7446SOL    HW133797   0.415   2.528   7.413 -1.9802 -1.2602 -0.5971
 7446SOL    HW233798   0.406   2.399   7.486  0.2919 -1.7544 -0.4044
 7447SOL     OW33799   3.980   1.736   8.491  0.3015  0.6702  0.5393
 7447SOL    HW133800   4.033   1.810   8.461 -0.6442  0.6248 -1.1724
 7447SOL    HW233801   4.044   1.680   8.537 -0.8679 -0.1860  1.1291
 7448SOL     OW33802   1.295   2.571   3.716  0.6417  0.6698 -0.6163
 7448SOL    HW133803   1.323   2.660   3.694  0.2521  0.6583 -1.1577
 7448SOL    HW233804   1.371   2.517   3.695  1.2083  0.2905  2.3981
 7449SOL     OW33805   2.845   0.553   6.580  0.1637  0.2582 -0.0064
 7449SOL    HW133806   2.873   0.505   6.658  0.8708  1.1357  0.2800
 7449SOL    HW233807   2.796   0.484   6.535  2.4108 -1.6432  0.4439
 7450SOL     OW33808   4.194   2.607   1.521  0.4651 -0.1975 -0.5053
 7450SOL    HW133809   4.185   2.702   1.523 -0.4820 -0.3219  0.7209
 7450SOL    HW233810   4.197   2.591   1.427  0.3792  0.5475 -0.6388
 7451SOL     OW33811   0.791   2.425   8.505 -0.3534  0.9119 -0.6959
 7451SOL    HW133812   0.748   2.354   8.457 -0.4346  0.1010  0.5681
 7451SOL    HW233813   0.792   2.399   8.597 -0.7434  0.9774 -0.6723
 7452SOL     OW33814   0.402   3.903   8.280  0.0741  0.2324 -0.6314
 7452SOL    HW133815   0.353   3.854   8.345  0.5709 -2.6230 -2.4239
 7452SOL    HW233816   0.487   3.864   8.301  0.1602 -0.5000 -2.3089
 7453SOL     OW33817   2.390   0.949  14.165 -0.6590 -0.3260 -0.2325
 7453SOL    HW133818   2.320   0.993  14.116  0.4833  1.0663 -0.6137
 7453SOL    HW233819   2.362   0.955  14.256 -1.8982 -0.0552 -0.6210
 7454SOL     OW33820   4.539   1.631   2.012  0.0847  0.1103  0.0659
 7454SOL    HW133821   4.529   1.545   2.054  0.8332  0.2114  0.4566
 7454SOL    HW233822   4.606   1.619   1.944  0.3431 -0.8825  0.4909
 7455SOL     OW33823   2.076   2.167   3.197 -0.0468  0.8701  0.1908
 7455SOL    HW133824   2.095   2.079   3.229 -1.5267  0.3243 -0.4086
 7455SOL    HW233825   2.051   2.214   3.277  1.3017  2.0506 -0.0943
 7456SOL     OW33826   1.278   1.957   4.837  0.0613  0.5836 -0.1903
 7456SOL    HW133827   1.272   1.879   4.892 -0.5869  1.1729  0.5582
 7456SOL    HW233828   1.357   1.988   4.882  0.3726 -2.1443  1.1541
 7457SOL     OW33829   4.430   1.485   3.496  0.0260 -0.3613  0.1891
 7457SOL    HW133830   4.378   1.564   3.481 -1.2169 -1.0685  0.7933
 7457SOL    HW233831   4.411   1.459   3.586 -1.3738  1.1133  0.3096
 7458SOL     OW33832   0.490   3.251   4.259  0.0140 -0.3774  0.9496
 7458SOL    HW133833   0.441   3.332   4.244  2.0058  0.4659 -1.0036
 7458SOL    HW233834   0.561   3.286   4.313  0.6877 -0.7406  0.2983
 7459SOL     OW33835   4.098   0.036   7.561 -0.0562  0.4001  1.0443
 7459SOL    HW133836   4.143   4.700   7.504 -1.1577 -0.7258  1.3664
 7459SOL    HW233837   4.043   4.697   7.608  1.6969 -1.0494  1.1231
 7460SOL     OW33838   3.812   4.451   6.661 -0.1076  0.5450 -0.1250
 7460SOL    HW133839   3.863   4.372   6.645 -1.1461 -0.2178  0.3073
 7460SOL    HW233840   3.738   4.410   6.706  1.3911  1.7881  3.3838
 7461SOL     OW33841   3.308   0.545   6.668  0.4263 -0.1207 -0.3185
 7461SOL    HW133842   3.259   0.627   6.662 -0.6139 -0.7230 -0.1539
 7461SOL    HW233843   3.307   0.524   6.761  0.7307  4.0103  0.5969
 7462SOL     OW33844   0.149   1.136   3.363  0.2619  0.3974  0.6600
 7462SOL    HW133845   0.159   1.163   3.272  1.7668  0.3546  0.8161
 7462SOL    HW233846   0.201   1.056   3.362  1.2757  1.0754 -0.6173
 7463SOL     OW33847   3.695   0.359   8.546 -0.2787 -0.2171  0.3588
 7463SOL    HW133848   3.669   0.291   8.484 -1.5049 -0.6558  1.3846
 7463SOL    HW233849   3.778   0.325   8.579 -0.8454 -2.1294 -0.2266
 7464SOL     OW33850   1.675   0.273   6.565 -0.5705  0.3633 -0.4877
 7464SOL    HW133851   1.716   0.209   6.623  0.6147  1.4235 -0.1569
 7464SOL    HW233852   1.625   0.221   6.501 -2.3508 -0.2408  1.4098
 7465SOL     OW33853   1.030   2.475  11.776  0.6033  0.0151  0.2064
 7465SOL    HW133854   1.106   2.496  11.723  0.5275 -1.4021 -0.4522
 7465SOL    HW233855   0.960   2.506  11.718  1.3731  1.9664  0.3184
 7466SOL     OW33856   1.110   3.942   4.546 -0.3587 -0.0343 -0.2969
 7466SOL    HW133857   1.188   3.983   4.584 -0.4881 -0.0226 -0.0436
 7466SOL    HW233858   1.100   3.887   4.624  0.5870 -1.5194 -1.2091
 7467SOL     OW33859   3.018   0.823  14.688 -0.2703 -0.3162  0.2641
 7467SOL    HW133860   3.055   0.760  14.626 -0.4241  0.2133 -0.3607
 7467SOL    HW233861   3.020   0.904  14.637 -2.2461 -1.8130 -2.2013
 7468SOL     OW33862   1.328   4.263  13.103 -0.0719  0.3730  0.2392
 7468SOL    HW133863   1.275   4.335  13.136 -3.8240 -2.7886  1.0634
 7468SOL    HW233864   1.325   4.283  13.009 -1.5832  2.6553  0.7872
 7469SOL     OW33865   4.552   1.003   2.164 -0.0723 -0.4375  0.5346
 7469SOL    HW133866   4.495   0.941   2.121 -1.1541  0.6791  0.3630
 7469SOL    HW233867   4.555   1.067   2.093  0.5792  0.5822  1.4606
 7470SOL     OW33868   3.025   2.077   2.635 -0.9815  1.0134 -0.4844
 7470SOL    HW133869   3.089   2.055   2.703  1.2236  0.5202 -2.6960
 7470SOL    HW233870   3.067   2.140   2.577  0.2258  0.6787  0.0217
 7471SOL     OW33871   3.804   0.809   9.725 -0.1398  0.2375 -0.0000
 7471SOL    HW133872   3.771   0.860   9.799  0.7742 -1.7415  1.7686
 7471SOL    HW233873   3.841   0.883   9.677  1.7624 -0.0116  1.1125
 7472SOL     OW33874   2.031   1.003  16.648  0.2804  0.1823  0.0867
 7472SOL    HW133875   2.028   1.077  16.588  0.1632  1.1595  1.3049
 7472SOL    HW233876   1.983   1.035  16.725  0.7872  0.0095  0.4797
 7473SOL     OW33877   2.856   4.712   1.490 -0.7942  0.4227 -0.0149
 7473SOL    HW133878   2.915   4.686   1.561 -1.2009  1.2336  0.6202
 7473SOL    HW233879   2.810   4.628   1.479 -0.0913 -0.0031  0.3168
 7474SOL     OW33880   3.859   3.255   3.489  0.5771  0.5167  0.2037
 7474SOL    HW133881   3.809   3.181   3.456 -1.0472  1.6870 -0.0068
 7474SOL    HW233882   3.943   3.211   3.498  1.3276  1.6988 -0.9830
 7475SOL     OW33883   0.458   2.805   9.924 -0.5959 -0.0668 -0.2308
 7475SOL    HW133884   0.382   2.762   9.885  1.0588  0.0376 -3.6500
 7475SOL    HW233885   0.434   2.819  10.015  0.7993 -2.5889  0.5207
 7476SOL     OW33886   0.491   4.231   6.156  0.6004 -0.9326 -0.0969
 7476SOL    HW133887   0.497   4.315   6.112 -1.9738 -1.3095 -1.2023
 7476SOL    HW233888   0.549   4.224   6.232 -0.4235  0.7632  0.8429
 7477SOL     OW33889   2.933   0.588   3.907 -0.1088 -0.1717 -0.3252
 7477SOL    HW133890   2.963   0.529   3.976  1.5683 -0.5691 -1.3870
 7477SOL    HW233891   2.875   0.648   3.955 -2.0452 -1.9876 -0.4026
 7478SOL     OW33892   1.228   2.310   2.463 -1.1984  0.1807 -0.4860
 7478SOL    HW133893   1.141   2.338   2.433 -1.8960 -1.2874  0.1662
 7478SOL    HW233894   1.271   2.313   2.378 -1.1504 -1.0227 -0.5071
 7479SOL     OW33895   4.455   3.727  13.732 -0.1662 -0.2722  0.0773
 7479SOL    HW133896   4.439   3.811  13.777 -1.8935  0.0422 -1.1098
 7479SOL    HW233897   4.426   3.756  13.646 -1.3383 -3.6691 -0.6395
 7480SOL     OW33898   4.095   0.027  17.282  0.1330  0.3679  0.1820
 7480SOL    HW133899   4.069   0.107  17.327 -0.0028  0.3693  0.1024
 7480SOL    HW233900   4.181   0.002  17.316  1.3321  1.6229 -1.9643
 7481SOL     OW33901   4.239   2.574   7.277  0.3981 -0.0575 -0.1702
 7481SOL    HW133902   4.160   2.574   7.331  0.4745 -0.7619 -0.0562
 7481SOL    HW233903   4.273   2.484   7.281 -1.3791 -0.6691  1.1649
 7482SOL     OW33904   3.400   1.476  16.495 -0.0638 -0.5151 -0.8822
 7482SOL    HW133905   3.365   1.448  16.410  0.6350 -1.5908 -0.8020
 7482SOL    HW233906   3.481   1.523  16.477 -1.1699  0.8035 -2.4840
 7483SOL     OW33907   4.019   3.737   6.161  0.3451 -0.2413 -0.1255
 7483SOL    HW133908   4.078   3.766   6.091  2.4298 -2.8310  0.5184
 7483SOL    HW233909   4.038   3.803   6.228 -1.0224  1.1180 -1.0885
 7484SOL     OW33910   3.884   1.483   6.088  0.3030  0.2979  0.0733
 7484SOL    HW133911   3.953   1.464   6.151  1.9645  0.4008 -1.7327
 7484SOL    HW233912   3.884   1.577   6.072  2.3627  0.6170  2.0722
 7485SOL     OW33913   0.817   4.385  14.754 -0.2762 -0.8662 -0.0030
 7485SOL    HW133914   0.840   4.296  14.726 -1.5804 -0.9683 -0.7222
 7485SOL    HW233915   0.878   4.428  14.694  0.6854  0.1453  1.6794
 7486SOL     OW33916   4.429   3.328   5.140  0.2790 -0.5826 -0.2618
 7486SOL    HW133917   4.337   3.328   5.114 -0.2132 -1.0663  1.4604
 7486SOL    HW233918   4.473   3.404   5.102 -0.8643  0.2628  0.1035
 7487SOL     OW33919   3.481   2.609   7.499 -0.0830  0.4961 -0.2769
 7487SOL    HW133920   3.386   2.597   7.496 -0.1513  1.6765 -2.6922
 7487SOL    HW233921   3.493   2.695   7.540  0.1960  0.5211 -0.4109
 7488SOL     OW33922   1.554   3.490  17.446 -0.2005  0.1896 -0.3238
 7488SOL    HW133923   1.641   3.529  17.458  0.5793 -2.2270  1.8717
 7488SOL    HW233924   1.519   3.559  17.390  0.1548  0.4747 -0.1986
 7489SOL     OW33925   4.296   2.559   5.342  0.1457 -0.6555  0.3255
 7489SOL    HW133926   4.377   2.597   5.375 -0.6357 -0.5351  2.1744
 7489SOL    HW233927   4.278   2.506   5.420  1.7197 -0.4697  0.8018
 7490SOL     OW33928   1.460   4.527   6.424 -0.1098  0.3770  0.4376
 7490SOL    HW133929   1.423   4.441   6.403 -0.0193  0.5613 -0.4352
 7490SOL    HW233930   1.433   4.520   6.516 -1.6424  2.7014  0.1397
 7491SOL     OW33931   2.744   1.880  17.014 -0.1385  0.6461  0.6758
 7491SOL    HW133932   2.742   1.860  16.921 -0.6674  1.0679  0.5982
 7491SOL    HW233933   2.824   1.844  17.052  0.2664  2.2168  1.3308
 7492SOL     OW33934   0.721   4.491   4.749  0.5999  0.5883 -0.0029
 7492SOL    HW133935   0.642   4.519   4.795  0.0292  0.0088 -0.6345
 7492SOL    HW233936   0.707   4.397   4.757 -0.6643  0.9954  2.7310
 7493SOL     OW33937   4.005   0.905  11.892  0.3583 -0.5000  0.1831
 7493SOL    HW133938   3.992   0.819  11.931  2.1177 -0.5571  0.6553
 7493SOL    HW233939   4.066   0.883  11.822  0.7879  1.2765 -0.0105
 7494SOL     OW33940   3.430   0.465  17.354  0.3036  0.4365 -0.2276
 7494SOL    HW133941   3.359   0.426  17.302 -0.6994  0.6408  0.9950
 7494SOL    HW233942   3.424   0.418  17.437  1.4116 -0.0945 -0.4492
 7495SOL     OW33943   0.956   2.177   7.864  0.4189 -0.0645 -0.6204
 7495SOL    HW133944   0.933   2.116   7.934  0.2236  0.9099  0.1585
 7495SOL    HW233945   0.957   2.261   7.909  0.5060  1.1749 -2.9573
 7496SOL     OW33946   1.248   3.370  11.064  0.3019  0.2661 -0.3208
 7496SOL    HW133947   1.199   3.450  11.081  3.0196  1.7138  0.7580
 7496SOL    HW233948   1.295   3.364  11.147 -0.4891 -3.4075 -0.1119
 7497SOL     OW33949   3.856   0.592   0.789  0.0184 -0.0421 -0.6637
 7497SOL    HW133950   3.896   0.679   0.797 -1.1439  0.5562 -1.2591
 7497SOL    HW233951   3.784   0.608   0.728 -0.5951 -1.6323 -0.3401
 7498SOL     OW33952   2.150   0.548   3.638  0.3734 -0.0397 -0.1176
 7498SOL    HW133953   2.189   0.621   3.686  0.2968  2.2037 -3.4542
 7498SOL    HW233954   2.217   0.483   3.657 -0.0098 -1.2037 -2.8081
 7499SOL     OW33955   4.411   1.489   5.192 -0.0422  0.3054  0.1870
 7499SOL    HW133956   4.402   1.433   5.115  2.1558 -0.1753  0.2652
 7499SOL    HW233957   4.341   1.447   5.242  0.4255  3.4036  3.4581
 7500SOL     OW33958   2.523   4.559  15.671 -0.3395  0.7090 -0.0603
 7500SOL    HW133959   2.577   4.499  15.620  1.3429  0.9703  1.4374
 7500SOL    HW233960   2.579   4.593  15.740 -0.9044  1.2601  0.1318
 7501SOL     OW33961   0.677   0.439  12.002  0.1819 -0.2761 -0.4813
 7501SOL    HW133962   0.713   0.376  11.939  0.1028 -2.7778  1.9750
 7501SOL    HW233963   0.607   0.468  11.942  1.5728 -0.3922 -2.1560
 7502SOL     OW33964   1.357   1.111   1.260  0.1063  0.2726  0.0572
 7502SOL    HW133965   1.298   1.166   1.311 -0.8702 -0.3724 -0.3818
 7502SOL    HW233966   1.437   1.163   1.269  1.0959 -1.2466  0.0796
 7503SOL     OW33967   2.490   4.705   4.840  0.7597 -0.2965 -0.5724
 7503SOL    HW133968   2.428   0.045   4.874  0.6257 -0.3535 -0.7084
 7503SOL    HW233969   2.480   4.640   4.910 -2.0452  0.4204 -0.2862
 7504SOL     OW33970   3.963   2.956  11.848 -0.3416  0.5426 -0.1293
 7504SOL    HW133971   3.928   2.867  11.858  1.4286 -0.1487 -0.0824
 7504SOL    HW233972   3.959   2.950  11.752  3.6623 -0.2582 -0.2743
 7505SOL     OW33973   3.927   1.749   3.148  0.0822  0.2117 -0.2206
 7505SOL    HW133974   3.970   1.834   3.135  1.7786 -0.7858 -1.0866
 7505SOL    HW233975   3.930   1.713   3.060 -0.7714 -0.8160  0.1744
 7506SOL     OW33976   4.603   4.408  11.110 -0.0379 -0.0570  0.0240
 7506SOL    HW133977   4.532   4.372  11.056 -0.0399 -2.0767  1.3896
 7506SOL    HW233978   4.669   4.427  11.043 -1.1878 -2.4383 -1.7977
 7507SOL     OW33979   0.761   3.525   9.421  0.3591 -0.3424  0.2259
 7507SOL    HW133980   0.734   3.561   9.336  1.4317  1.8681  0.8146
 7507SOL    HW233981   0.848   3.487   9.409  0.4207 -0.4040  0.8687
 7508SOL     OW33982   3.703   1.668   4.157 -0.4800 -0.0223  0.1551
 7508SOL    HW133983   3.681   1.759   4.140 -0.6981  0.2509  1.8427
 7508SOL    HW233984   3.765   1.658   4.085  0.2757 -0.1566  0.8215
 7509SOL     OW33985   4.463   4.470   4.230  0.3631  0.1827  0.7209
 7509SOL    HW133986   4.393   4.535   4.222  0.1946 -0.0791  0.0760
 7509SOL    HW233987   4.481   4.462   4.137  1.7857  1.5415  0.8800
 7510SOL     OW33988   0.904   0.456  11.394  0.0866 -0.0006  0.2893
 7510SOL    HW133989   0.991   0.426  11.418 -0.0179 -0.2529  0.3461
 7510SOL    HW233990   0.923   0.524  11.329 -0.4496 -0.1393 -0.0192
 7511SOL     OW33991   2.195   3.347   6.066 -0.6174 -1.0850 -0.2465
 7511SOL    HW133992   2.234   3.274   6.017 -3.0540 -1.7995 -1.1071
 7511SOL    HW233993   2.168   3.302   6.146  0.3806 -1.5282 -0.1578
 7512SOL     OW33994   1.172   4.444  16.898 -0.3804  0.4633  0.0734
 7512SOL    HW133995   1.127   4.518  16.856  0.5113  0.1232 -1.4571
 7512SOL    HW233996   1.117   4.368  16.876  0.3783 -0.3025  0.8552
 7513SOL     OW33997   0.576   1.896   3.136 -0.2416  0.2274  0.0786
 7513SOL    HW133998   0.511   1.903   3.207  0.1772  1.1470  0.3697
 7513SOL    HW233999   0.634   1.968   3.159  0.8254  0.0500 -2.0217
 7514SOL     OW34000   3.674   3.050  10.652  0.3185  0.2561 -0.4917
 7514SOL    HW134001   3.655   2.959  10.629  0.7877  0.1859 -0.6093
 7514SOL    HW234002   3.762   3.042  10.689  0.1335 -1.8068 -0.4974
 7515SOL     OW34003   1.871   0.995   5.188 -0.2803  0.2003  0.1106
 7515SOL    HW134004   1.938   1.021   5.126 -0.7878 -0.7749 -0.8412
 7515SOL    HW234005   1.840   1.079   5.222 -3.2430  0.1679 -2.5312
 7516SOL     OW34006   0.943   0.616   7.333  0.2405  0.4258 -0.4029
 7516SOL    HW134007   0.871   0.607   7.395  0.0394  2.1046 -0.3792
 7516SOL    HW234008   0.930   0.547   7.269 -1.2816  0.1589  0.2034
 7517SOL     OW34009   0.912   3.469  11.653 -0.3124 -0.1611 -0.5259
 7517SOL    HW134010   0.904   3.391  11.709 -0.0897 -0.0193 -0.2974
 7517SOL    HW234011   0.884   3.435  11.568 -2.6712  1.9373 -0.5841
 7518SOL     OW34012   2.143   0.688   2.995 -0.0469 -0.4165  0.4704
 7518SOL    HW134013   2.103   0.603   3.011 -1.0942  0.0203  0.1473
 7518SOL    HW234014   2.123   0.734   3.076 -1.4003  0.6858 -0.4926
 7519SOL     OW34015   1.666   4.012   2.686 -0.1591 -0.2355  0.7305
 7519SOL    HW134016   1.594   4.074   2.695 -0.1517 -0.0587 -0.4312
 7519SOL    HW234017   1.682   3.990   2.778 -0.4019  0.8491  1.0284
 7520SOL     OW34018   3.222   0.865   1.359 -0.5640 -0.2126  0.0734
 7520SOL    HW134019   3.134   0.881   1.325 -0.9514 -0.2001  1.0797
 7520SOL    HW234020   3.202   0.854   1.452 -0.6725 -1.1547 -0.0606
 7521SOL     OW34021   3.631   0.945   2.156 -0.6335  0.5504 -0.5120
 7521SOL    HW134022   3.554   0.888   2.161 -0.9070  1.0725  1.1434
 7521SOL    HW234023   3.595   1.020   2.108  1.4287  2.2309  0.5857
 7522SOL     OW34024   2.204   1.549   7.382  0.0553  0.1140  0.0256
 7522SOL    HW134025   2.141   1.608   7.341 -0.7866 -0.6601  0.1957
 7522SOL    HW234026   2.198   1.476   7.321 -0.5779  0.7155 -0.6222
 7523SOL     OW34027   1.285   2.484   9.076  0.1405 -0.1831  0.0445
 7523SOL    HW134028   1.284   2.431   9.156  0.0895  2.9955  2.1174
 7523SOL    HW234029   1.308   2.572   9.105  2.4412 -1.0287  0.8245
 7524SOL     OW34030   4.360   4.475   2.433 -0.0774 -0.4218 -0.3551
 7524SOL    HW134031   4.450   4.456   2.458  1.1632  1.6491 -3.2511
 7524SOL    HW234032   4.337   4.397   2.384  0.1018 -1.6374  1.4920
 7525SOL     OW34033   3.355   0.850   6.560  0.6041  0.3671 -0.3185
 7525SOL    HW134034   3.361   0.818   6.470 -0.4502  1.6885 -0.8756
 7525SOL    HW234035   3.269   0.816   6.585  0.3346 -0.4134 -2.3272
 7526SOL     OW34036   3.190   1.548   5.791  0.2351  0.4697  0.5991
 7526SOL    HW134037   3.195   1.455   5.770  1.7635  0.7917 -0.5047
 7526SOL    HW234038   3.204   1.558   5.886  0.4072  4.4704  0.1549
 7527SOL     OW34039   1.952   2.936   9.537  0.1520 -0.4139 -0.1830
 7527SOL    HW134040   1.957   2.843   9.556  1.3063  0.0504  1.7495
 7527SOL    HW234041   2.036   2.959   9.578  0.0821 -0.7069  0.1240
 7528SOL     OW34042   3.528   1.889   5.329  0.8928  0.2069 -0.0159
 7528SOL    HW134043   3.573   1.816   5.286 -1.9867  0.3912 -3.3568
 7528SOL    HW234044   3.438   1.875   5.301  1.4379 -0.6712 -1.3262
 7529SOL     OW34045   3.408   1.679  12.251  0.0165  0.0647  0.1306
 7529SOL    HW134046   3.322   1.719  12.265 -0.0436 -0.4177  1.1895
 7529SOL    HW234047   3.385   1.592  12.217  0.2741 -0.2411  0.7274
 7530SOL     OW34048   3.089   2.706   7.758 -0.3398  0.2116 -0.2166
 7530SOL    HW134049   3.109   2.639   7.823 -1.2276  0.3067  0.1490
 7530SOL    HW234050   2.994   2.703   7.753 -0.4150 -3.2111  3.2022
 7531SOL     OW34051   1.081   4.264   0.835  0.0768 -0.2628  0.1715
 7531SOL    HW134052   1.085   4.172   0.808 -1.3678 -0.8139  1.7437
 7531SOL    HW234053   1.131   4.301   0.763 -1.3588 -0.4606 -0.9434
 7532SOL     OW34054   2.542   2.438  15.768  0.1238 -0.1488 -0.1758
 7532SOL    HW134055   2.615   2.480  15.814  0.0916  0.4622 -0.6793
 7532SOL    HW234056   2.505   2.511  15.718  0.2550 -0.5758 -0.9031
 7533SOL     OW34057   1.398   4.295   7.210 -0.1581  0.4256  0.1462
 7533SOL    HW134058   1.476   4.316   7.158  1.1289  2.3395  2.8559
 7533SOL    HW234059   1.382   4.205   7.180 -0.8895  1.0367 -1.2606
 7534SOL     OW34060   1.766   4.569  10.808 -0.0092  0.3299  0.2134
 7534SOL    HW134061   1.800   4.584  10.896  0.5620  0.1219  0.0239
 7534SOL    HW234062   1.686   4.526  10.839  1.3607 -1.2172  1.6061
 7535SOL     OW34063   4.054   1.773  14.125  0.0569 -0.5379  0.0676
 7535SOL    HW134064   4.118   1.716  14.170  1.2783  0.3765 -0.5174
 7535SOL    HW234065   4.082   1.768  14.034 -0.4069  0.5173 -0.1268
 7536SOL     OW34066   4.111   2.340  11.179  0.6706  0.2242  0.2417
 7536SOL    HW134067   4.052   2.294  11.239 -0.4146  1.1954 -0.0738
 7536SOL    HW234068   4.100   2.294  11.096  0.7085 -0.8141  0.8116
 7537SOL     OW34069   2.778   4.363   3.204 -0.2034  0.0856  0.3649
 7537SOL    HW134070   2.718   4.352   3.278 -0.1056 -1.8900  0.1636
 7537SOL    HW234071   2.727   4.429   3.158  1.1760  1.1755  0.3902
 7538SOL     OW34072   2.895   1.022  11.407 -0.4292 -0.3802 -0.2606
 7538SOL    HW134073   2.986   1.041  11.383 -1.2237  1.2020 -2.0361
 7538SOL    HW234074   2.863   0.984  11.325 -0.9358 -1.1345  0.2818
 7539SOL     OW34075   4.599   1.071   4.687  0.1373 -0.3745 -0.0857
 7539SOL    HW134076   4.573   0.981   4.664 -1.2847 -0.0782  0.3469
 7539SOL    HW234077   4.680   1.076   4.636  0.0335 -2.0668 -0.4156
 7540SOL     OW34078   3.259   1.186   3.107 -0.0881  0.7683  0.0433
 7540SOL    HW134079   3.222   1.270   3.080  0.7243  0.5579 -1.7439
 7540SOL    HW234080   3.321   1.221   3.172  0.0269 -0.3835  0.5629
 7541SOL     OW34081   2.457   0.295  12.192 -0.3934 -0.3700  0.0229
 7541SOL    HW134082   2.452   0.356  12.119  3.0071 -0.8586 -0.6203
 7541SOL    HW234083   2.368   0.303  12.226 -0.1460 -1.2333  0.8866
 7542SOL     OW34084   4.220   4.370   7.421 -0.4303  0.8226  0.1381
 7542SOL    HW134085   4.255   4.445   7.374  1.5473  0.4390  0.9751
 7542SOL    HW234086   4.288   4.366   7.489 -0.8510  0.1691  0.5214
 7543SOL     OW34087   2.435   2.168   1.443  0.3834  0.0557  0.2931
 7543SOL    HW134088   2.423   2.204   1.531  1.1610  0.7226  0.1189
 7543SOL    HW234089   2.530   2.163   1.440  0.4223  0.8456  0.2560
 7544SOL     OW34090   1.011   2.525  12.068 -0.0180 -0.1497  0.7179
 7544SOL    HW134091   1.104   2.516  12.091  0.4335 -0.9879 -1.4711
 7544SOL    HW234092   1.014   2.513  11.973  0.4204  1.4837  0.5271
 7545SOL     OW34093   0.140   1.307   4.171  0.8295 -0.3558  0.3649
 7545SOL    HW134094   0.167   1.385   4.218  0.0531 -0.8569  1.6484
 7545SOL    HW234095   0.225   1.273   4.141  0.8393 -0.5125  0.5641
 7546SOL     OW34096   1.251   4.092   1.106  0.2468  0.1265  0.0835
 7546SOL    HW134097   1.230   4.066   1.016  0.9202  2.1033 -0.6388
 7546SOL    HW234098   1.183   4.054   1.163  0.0957 -0.4959 -0.5100
 7547SOL     OW34099   1.865   1.279   9.869  0.2017 -0.1386 -0.3584
 7547SOL    HW134100   1.904   1.193   9.859 -0.7756 -0.9568  2.9064
 7547SOL    HW234101   1.916   1.317   9.940 -1.1674  0.6615  0.1972
 7548SOL     OW34102   2.689   1.001   1.799 -0.0649 -0.1072  0.0843
 7548SOL    HW134103   2.645   0.934   1.748  0.3460 -0.9491  0.8302
 7548SOL    HW234104   2.759   1.034   1.743 -0.8670  1.5338  0.0388
 7549SOL     OW34105   1.220   3.469   2.011 -0.6487  0.3264 -0.4250
 7549SOL    HW134106   1.260   3.499   2.092  0.2884 -0.7168 -0.5020
 7549SOL    HW234107   1.194   3.381   2.038 -1.4913  0.1270 -1.8869
 7550SOL     OW34108   3.055   4.279  16.133 -0.0303  0.0037 -0.6578
 7550SOL    HW134109   3.105   4.337  16.075 -0.0558  0.1623 -0.5206
 7550SOL    HW234110   3.081   4.196  16.092 -0.7561 -0.0814 -0.9516
 7551SOL     OW34111   2.254   1.595   8.624  0.0773 -0.3737 -0.1805
 7551SOL    HW134112   2.217   1.532   8.685 -0.2357  0.7799  0.8377
 7551SOL    HW234113   2.344   1.566   8.612  0.5275  0.1938  1.9112
 7552SOL     OW34114   3.946   2.858  17.557  0.0727  0.2031  0.1625
 7552SOL    HW134115   3.980   2.934  17.605 -2.1334  1.2409  0.1253
 7552SOL    HW234116   3.879   2.836  17.623 -0.2072 -1.7699 -0.7812
 7553SOL     OW34117   2.027   4.111  12.319  0.2142  0.6623 -0.2777
 7553SOL    HW134118   2.020   4.187  12.377 -1.2429 -0.4738  1.0401
 7553SOL    HW234119   1.945   4.067  12.342  0.3627  0.8114  0.5637
 7554SOL     OW34120   2.743   3.381   4.534  0.2964 -0.2204  0.7388
 7554SOL    HW134121   2.699   3.296   4.543  1.5353 -0.8583  0.7043
 7554SOL    HW234122   2.743   3.399   4.440 -2.0509 -0.0585  0.7579
 7555SOL     OW34123   3.587   2.553  13.735  0.1352 -0.5894  0.4928
 7555SOL    HW134124   3.572   2.486  13.802  0.8662  0.5364  1.7771
 7555SOL    HW234125   3.679   2.539  13.710 -0.6487 -4.4317 -0.1774
 7556SOL     OW34126   0.938   3.901   2.754  0.2351  0.4761  0.2318
 7556SOL    HW134127   1.031   3.925   2.754  0.3752 -0.0444 -1.4154
 7556SOL    HW234128   0.906   3.983   2.714  2.1378  1.5284  0.8513
 7557SOL     OW34129   2.347   0.057   9.830  0.2091 -0.0309  0.3086
 7557SOL    HW134130   2.338   0.046   9.925 -1.0229  0.0049  0.1971
 7557SOL    HW234131   2.292   0.132   9.806  1.8795  0.6155 -1.4287
 7558SOL     OW34132   1.032   1.314  11.000 -0.1220  0.0200 -0.3726
 7558SOL    HW134133   1.026   1.395  11.051 -4.0242 -0.6221  0.1866
 7558SOL    HW234134   1.074   1.253  11.060 -0.4200 -0.2328 -0.4197
 7559SOL     OW34135   3.572   0.644   3.708 -0.1934  0.9896  0.1706
 7559SOL    HW134136   3.660   0.641   3.671 -0.8072 -1.4403 -1.0585
 7559SOL    HW234137   3.594   0.667   3.799 -2.5265 -0.9086  1.2124
 7560SOL     OW34138   3.212   1.183   3.946 -0.3771 -0.0095 -0.6027
 7560SOL    HW134139   3.304   1.189   3.920  0.0560 -0.9192  0.7629
 7560SOL    HW234140   3.224   1.108   4.004  2.3369  0.7603 -0.1916
 7561SOL     OW34141   1.623   2.967  16.930  0.5769 -0.1619  0.3170
 7561SOL    HW134142   1.679   2.990  16.855 -1.0180 -0.9245 -1.1038
 7561SOL    HW234143   1.680   2.942  17.002  0.1923 -1.0299  0.3233
 7562SOL     OW34144   3.145   3.293  16.398 -0.3982 -0.8448 -0.1369
 7562SOL    HW134145   3.236   3.295  16.429 -1.0847  3.6741  1.6371
 7562SOL    HW234146   3.164   3.336  16.315 -0.2493 -2.1049 -0.7476
 7563SOL     OW34147   2.630   3.547   8.774  0.4495  0.1548 -0.0494
 7563SOL    HW134148   2.542   3.571   8.802  1.3169  1.0178  1.9837
 7563SOL    HW234149   2.685   3.587   8.842 -0.1201  1.8814 -0.6016
 7564SOL     OW34150   2.089   1.836   5.223  0.0479  0.8365  0.0114
 7564SOL    HW134151   2.049   1.749   5.229  3.0821 -0.4302  2.1974
 7564SOL    HW234152   2.008   1.881   5.250 -0.1199  1.3357 -1.3301
 7565SOL     OW34153   0.424   1.971   9.329 -0.0704  0.6128  0.3644
 7565SOL    HW134154   0.433   2.002   9.239  1.0261  0.6961  0.5029
 7565SOL    HW234155   0.397   2.057   9.361 -3.0237  0.0474 -0.6212
 7566SOL     OW34156   1.882   0.267  17.490 -0.6171  0.1555  0.2631
 7566SOL    HW134157   1.873   0.220  17.407 -0.9125 -0.3255  0.5641
 7566SOL    HW234158   1.940   0.213  17.543  0.0005 -0.8284 -1.4253
 7567SOL     OW34159   0.068   2.577  10.780  0.2089  0.1194  0.3582
 7567SOL    HW134160   0.148   2.629  10.789 -0.4373  1.0542  0.6882
 7567SOL    HW234161   0.114   2.495  10.796  0.6947 -0.1179 -2.2798
 7568SOL     OW34162   2.781   1.721   0.785  0.1532  0.0822  0.0382
 7568SOL    HW134163   2.863   1.678   0.812 -0.2818 -1.0560 -0.4257
 7568SOL    HW234164   2.815   1.801   0.745 -0.2599  0.4122  0.3608
 7569SOL     OW34165   4.303   2.133   3.487  0.4889 -0.2297 -0.4255
 7569SOL    HW134166   4.318   2.228   3.484 -2.4430  0.2769  1.1664
 7569SOL    HW234167   4.375   2.098   3.435 -0.0158  0.2414 -1.4579
 7570SOL     OW34168   3.865   1.227   6.475  0.5135  0.0300  0.2162
 7570SOL    HW134169   3.791   1.288   6.472  0.8337  0.4167  0.1642
 7570SOL    HW234170   3.841   1.173   6.550 -1.6442 -2.0389 -1.9315
 7571SOL     OW34171   3.372   0.934   4.581  0.2512  0.1691 -0.0569
 7571SOL    HW134172   3.394   0.889   4.499  0.9309  1.0534 -0.3563
 7571SOL    HW234173   3.401   1.024   4.570  0.4404 -0.1048 -1.8233
 7572SOL     OW34174   0.185   4.351   4.661 -0.7187  0.3663  0.0065
 7572SOL    HW134175   0.163   4.274   4.608 -0.3443  0.1104  0.2260
 7572SOL    HW234176   0.273   4.370   4.628 -0.5764  0.4872  0.4582
 7573SOL     OW34177   2.740   4.098   5.175  0.1110 -0.5848 -0.2903
 7573SOL    HW134178   2.735   4.177   5.121 -0.4698 -0.0073  0.6254
 7573SOL    HW234179   2.664   4.111   5.232  0.6657  0.4677  0.1955
 7574SOL     OW34180   3.117   0.741   6.630  0.2213  0.1539  0.4218
 7574SOL    HW134181   3.052   0.778   6.690  0.3951 -2.8058  2.4730
 7574SOL    HW234182   3.052   0.682   6.592  0.3239  1.0882 -1.1752
 7575SOL     OW34183   3.181   1.798   3.294  0.2448 -0.0196 -0.9420
 7575SOL    HW134184   3.137   1.824   3.374  1.1817  1.1351 -0.8022
 7575SOL    HW234185   3.134   1.720   3.265 -0.9887  0.3019  0.2058
 7576SOL     OW34186   2.388   0.311   6.079 -0.2634  0.5025 -0.1338
 7576SOL    HW134187   2.422   0.321   5.990  0.4942  2.8169  0.4231
 7576SOL    HW234188   2.301   0.281   6.055  1.1186 -1.0563 -3.1738
 7577SOL     OW34189   0.701   3.102   8.131 -0.4700 -0.4912  0.4405
 7577SOL    HW134190   0.616   3.147   8.125  1.6436  3.2689 -1.4876
 7577SOL    HW234191   0.739   3.130   8.214 -1.4725  0.1961  0.6682
 7578SOL     OW34192   3.000   2.187   2.267  0.0615  0.1746  0.0045
 7578SOL    HW134193   3.038   2.154   2.186  1.7066  1.6862  0.1580
 7578SOL    HW234194   2.921   2.133   2.274  0.7988 -0.7693  0.9498
 7579SOL     OW34195   2.264   2.241   1.205  0.0793 -0.2787 -0.1503
 7579SOL    HW134196   2.312   2.203   1.131 -0.2847  2.0136 -1.5786
 7579SOL    HW234197   2.316   2.205   1.276  0.9420 -1.0158 -1.1507
 7580SOL     OW34198   0.311   4.551   2.420  0.4524 -0.1965  0.2321
 7580SOL    HW134199   0.229   4.504   2.437  0.7117 -0.8810 -0.3951
 7580SOL    HW234200   0.359   4.474   2.389  1.7811  1.6835 -2.4061
 7581SOL     OW34201   2.055   0.387   2.101 -0.5839 -0.1240  0.0006
 7581SOL    HW134202   2.072   0.481   2.097  1.2923 -0.4650 -0.0001
 7581SOL    HW234203   2.129   0.350   2.150  0.9519  1.0329 -1.4347
 7582SOL     OW34204   1.959   1.488   9.486 -0.3930  0.4492 -0.6397
 7582SOL    HW134205   1.921   1.536   9.413 -1.1230  1.6925  0.5512
 7582SOL    HW234206   1.909   1.515   9.563  0.9957  0.5440  0.2216
 7583SOL     OW34207   0.838   0.449   2.137 -0.1738  0.2395  0.3091
 7583SOL    HW134208   0.809   0.414   2.053 -1.3009  1.7380  0.0867
 7583SOL    HW234209   0.778   0.420   2.206  2.1452  0.8250  2.5660
 7584SOL     OW34210   4.531   3.121   2.426  0.5239  0.0110 -0.1032
 7584SOL    HW134211   4.596   3.098   2.492 -0.0559  0.7009  0.7010
 7584SOL    HW234212   4.452   3.088   2.468 -0.1733 -0.6164 -1.8780
 7585SOL     OW34213   4.708   1.922   2.203 -0.5095  0.1202  0.3767
 7585SOL    HW134214   4.694   1.910   2.109  1.0900 -0.6715  0.2492
 7585SOL    HW234215   4.663   2.005   2.221  0.1878  0.4251  0.7002
 7586SOL     OW34216   2.436   2.187   2.277 -0.0057  0.1724 -0.2390
 7586SOL    HW134217   2.412   2.255   2.214 -1.0993  0.2988  0.3116
 7586SOL    HW234218   2.507   2.230   2.325 -0.6090  0.4967  0.3518
 7587SOL     OW34219   3.029   3.266   5.549  0.3250 -0.2439  0.3203
 7587SOL    HW134220   3.077   3.328   5.603  1.2687  0.1460 -0.9722
 7587SOL    HW234221   3.102   3.234   5.496 -1.3349  0.0821 -2.1684
 7588SOL     OW34222   2.808   1.377   3.964  0.4216 -0.2209 -0.1456
 7588SOL    HW134223   2.834   1.286   3.979  0.0528 -0.4865 -1.1437
 7588SOL    HW234224   2.852   1.417   4.039  1.3890  0.0712 -0.8795
 7589SOL     OW34225   2.508   1.209  12.867  0.6009  0.2000 -0.0501
 7589SOL    HW134226   2.520   1.223  12.773 -0.6856 -0.0076 -0.2462
 7589SOL    HW234227   2.598   1.228  12.894  1.6211 -0.0256 -3.2883
 7590SOL     OW34228   1.861   2.097   7.092  0.1753  0.6206 -0.1416
 7590SOL    HW134229   1.817   2.020   7.056 -1.2048  0.2467  2.3600
 7590SOL    HW234230   1.790   2.159   7.106  0.5967  1.0925 -0.0827
 7591SOL     OW34231   3.953   3.084   0.005 -0.1763 -0.0283  0.0192
 7591SOL    HW134232   4.015   3.149   0.036  0.3589  0.5513 -2.2207
 7591SOL    HW234233   3.890   3.088   0.077  1.8048  0.7852  1.7080
 7592SOL     OW34234   0.171   0.433   4.152  0.7997  0.4517 -0.3507
 7592SOL    HW134235   0.187   0.501   4.086 -2.9334  0.0000 -1.7015
 7592SOL    HW234236   0.081   0.450   4.179  0.5205 -0.3485 -0.7938
 7593SOL     OW34237   2.807   1.440  11.337  0.2351 -0.0946  0.2528
 7593SOL    HW134238   2.743   1.371  11.356  2.2613 -2.8140 -2.7473
 7593SOL    HW234239   2.844   1.463  11.422 -0.9332 -0.6446  0.9113
 7594SOL     OW34240   4.492   4.161   2.925  0.4379 -0.7545 -0.4393
 7594SOL    HW134241   4.446   4.146   3.007  0.4461  0.8675 -0.1397
 7594SOL    HW234242   4.572   4.204   2.954 -0.1226 -0.2095  0.2894
 7595SOL     OW34243   2.255   0.261  17.506  0.1467  0.2283 -0.1057
 7595SOL    HW134244   2.181   0.217  17.547  1.4927 -1.4913  0.4297
 7595SOL    HW234245   2.239   0.353  17.530  0.2117  0.2464 -0.1303
 7596SOL     OW34246   0.672   2.438   5.215  0.4580 -0.0170  0.6673
 7596SOL    HW134247   0.739   2.449   5.282 -0.7625  0.0272  1.8884
 7596SOL    HW234248   0.606   2.502   5.241 -0.7873 -1.0514  0.0827
 7597SOL     OW34249   4.211   2.601  11.291 -0.2262 -0.2026  0.0775
 7597SOL    HW134250   4.303   2.594  11.267 -0.3979  0.0954 -0.6652
 7597SOL    HW234251   4.180   2.516  11.258 -0.3703  0.0963 -0.5553
 7598SOL     OW34252   2.993   2.296   5.887  0.2900  0.4880  0.3756
 7598SOL    HW134253   2.932   2.299   5.813 -1.1583  1.5340  1.6076
 7598SOL    HW234254   3.066   2.240   5.862  0.8905  1.7064 -0.5714
 7599SOL     OW34255   1.182   2.757   9.647 -0.5448 -0.3176 -0.2101
 7599SOL    HW134256   1.149   2.708   9.722  0.0372 -1.3634 -0.6414
 7599SOL    HW234257   1.106   2.739   9.592 -1.9748  1.0320  1.3025
 7600SOL     OW34258   2.258   0.968   1.210 -0.1065 -0.5756  0.3623
 7600SOL    HW134259   2.352   0.960   1.199  0.2212  3.5136  0.2333
 7600SOL    HW234260   2.230   0.912   1.138  1.1953  1.1686 -1.5049
 7601SOL     OW34261   3.771   3.828  12.955 -0.5748 -0.6106  0.6871
 7601SOL    HW134262   3.804   3.880  13.028 -0.2348  0.5235 -0.2739
 7601SOL    HW234263   3.758   3.896  12.889 -2.5110 -0.6193  1.0607
 7602SOL     OW34264   2.064   2.658   2.618  0.2255  0.2069 -0.2682
 7602SOL    HW134265   2.070   2.741   2.665  1.7427 -0.5300  0.8778
 7602SOL    HW234266   2.102   2.599   2.684 -0.4884  1.2621  1.0979
 7603SOL     OW34267   2.250   1.264   5.879 -0.4520 -0.1832 -0.3760
 7603SOL    HW134268   2.189   1.208   5.831  0.4944 -1.1007 -0.5017
 7603SOL    HW234269   2.200   1.289   5.956  0.1477  3.1521 -1.0490
 7604SOL     OW34270   3.233   0.623   7.904 -1.4320 -0.2082  0.1398
 7604SOL    HW134271   3.313   0.579   7.934 -1.8427 -1.0822 -0.0436
 7604SOL    HW234272   3.188   0.543   7.878 -1.0438 -0.0732 -0.9518
 7605SOL     OW34273   4.258   4.705   3.518  0.0880 -0.2525 -0.0440
 7605SOL    HW134274   4.216   0.029   3.447 -1.0171 -0.7516  0.2676
 7605SOL    HW234275   4.201   0.011   3.589  0.8035  0.8133  0.0655
 7606SOL     OW34276   3.966   1.434   3.161  0.1461 -0.5709 -0.0582
 7606SOL    HW134277   3.911   1.394   3.093 -1.0746  0.1895  0.4926
 7606SOL    HW234278   4.055   1.446   3.126 -0.2972 -2.5130 -1.8659
 7607SOL     OW34279   2.191   0.460   6.371  0.7059  0.5049  0.1069
 7607SOL    HW134280   2.166   0.446   6.462  0.9648  1.8980  0.4006
 7607SOL    HW234281   2.103   0.463   6.334 -0.3647  0.5362  2.6447
 7608SOL     OW34282   2.949   2.768   2.407  0.4540  0.3593 -0.6351
 7608SOL    HW134283   2.996   2.789   2.488 -0.9850 -2.0117  0.8203
 7608SOL    HW234284   2.989   2.830   2.346 -1.1948  0.2964 -1.7654
 7609SOL     OW34285   3.395   2.868   7.236 -0.2167 -0.2668 -0.0940
 7609SOL    HW134286   3.410   2.805   7.165  0.3875  0.0173 -0.2158
 7609SOL    HW234287   3.470   2.928   7.239 -2.2056  2.2767 -1.0093
 7610SOL     OW34288   4.186   1.843   0.571  0.2147 -0.4583 -0.4711
 7610SOL    HW134289   4.128   1.909   0.533  0.5524 -0.0593 -0.3069
 7610SOL    HW234290   4.272   1.883   0.554  0.2682  0.6628  2.3478
 7611SOL     OW34291   1.807   3.685   6.193 -0.5072  0.4106  0.0345
 7611SOL    HW134292   1.810   3.779   6.178 -0.8167  0.5467  0.8359
 7611SOL    HW234293   1.895   3.656   6.214 -1.5409 -0.7300  2.8053
 7612SOL     OW34294   3.264   0.574   4.975 -0.0087  0.0487 -0.0308
 7612SOL    HW134295   3.330   0.547   4.911 -1.4731 -1.9125 -0.7032
 7612SOL    HW234296   3.285   0.513   5.045  0.8696 -0.0751 -0.4001
 7613SOL     OW34297   0.191   3.787   3.682 -0.0043 -0.5808 -0.2593
 7613SOL    HW134298   0.152   3.757   3.765 -1.9826  0.8647 -0.6802
 7613SOL    HW234299   0.142   3.736   3.617  1.5914  1.6954 -3.2288
 7614SOL     OW34300   0.114   1.683   4.476  0.3691 -0.2073 -0.0927
 7614SOL    HW134301   0.158   1.745   4.534  2.1174 -0.2815 -1.3617
 7614SOL    HW234302   0.027   1.707   4.511 -0.0110 -2.6605  0.5998
 7615SOL     OW34303   0.364   0.738   0.786  0.4348  0.2107  0.3636
 7615SOL    HW134304   0.343   0.830   0.798  0.1971 -0.0536  2.0679
 7615SOL    HW234305   0.286   0.699   0.747  1.4415  0.3326 -1.7780
 7616SOL     OW34306   3.075   4.100   3.661 -0.2384  0.5014  0.0988
 7616SOL    HW134307   3.108   4.134   3.745 -4.2460 -0.8034  2.1956
 7616SOL    HW234308   2.983   4.127   3.666 -0.2938  0.1820  0.8875
 7617SOL     OW34309   4.328   2.877   4.562 -0.1118 -0.3057 -0.1794
 7617SOL    HW134310   4.266   2.851   4.631  1.5601 -0.9199  1.1198
 7617SOL    HW234311   4.274   2.865   4.485 -1.4249 -1.0083  0.8410
 7618SOL     OW34312   1.740   3.158   8.573  0.3038 -0.1974 -0.0340
 7618SOL    HW134313   1.834   3.141   8.573  0.1140 -1.2741 -0.5599
 7618SOL    HW234314   1.728   3.225   8.640  0.7712  0.8454 -1.0027
 7619SOL     OW34315   3.859   0.760   9.035  0.4665  0.1213  0.3948
 7619SOL    HW134316   3.888   0.848   9.055 -0.2246  0.4039  0.1589
 7619SOL    HW234317   3.906   0.738   8.954 -0.4978 -0.6162  0.0291
 7620SOL     OW34318   0.616   1.934   6.041 -0.0386  0.5902 -0.1628
 7620SOL    HW134319   0.575   2.020   6.030 -1.3261 -0.0944 -0.7327
 7620SOL    HW234320   0.659   1.909   5.959  2.8132 -0.3808  1.6404
 7621SOL     OW34321   2.570   1.902   7.041  0.2238  0.0417  0.3174
 7621SOL    HW134322   2.477   1.886   7.057  0.4304 -0.4807  0.9967
 7621SOL    HW234323   2.580   1.995   7.024 -0.8786  0.5260  2.2956
 7622SOL     OW34324   2.056   0.785  16.020 -0.4196  0.4808  0.3617
 7622SOL    HW134325   2.086   0.694  16.021 -1.6008  0.1036  0.9170
 7622SOL    HW234326   2.130   0.828  15.976  0.1110 -0.0953  0.6874
 7623SOL     OW34327   3.835   4.103   0.626 -0.6088  0.4323  0.2657
 7623SOL    HW134328   3.821   4.047   0.702  1.5594 -1.1982 -0.5656
 7623SOL    HW234329   3.765   4.169   0.623 -1.6030 -0.5563  1.8167
 7624SOL     OW34330   2.639   0.405   9.191 -0.2101 -0.3301  0.0733
 7624SOL    HW134331   2.677   0.463   9.258 -0.7119  1.2375 -0.9945
 7624SOL    HW234332   2.583   0.344   9.239 -1.1113  0.3611 -0.1023
 7625SOL     OW34333   2.309   2.740  16.318 -0.0184 -0.1275 -0.1461
 7625SOL    HW134334   2.324   2.761  16.410 -1.1852 -0.0976  0.0346
 7625SOL    HW234335   2.300   2.646  16.336 -0.3034  0.1394  1.0850
 7626SOL     OW34336   0.190   3.411  10.377 -0.1570 -0.0882  0.6158
 7626SOL    HW134337   0.214   3.501  10.355 -2.0420  0.2252 -0.1815
 7626SOL    HW234338   0.274   3.365  10.386 -0.9794 -1.9426 -1.2047
 7627SOL     OW34339   1.106   0.208  13.577 -0.7689  0.1004 -0.1192
 7627SOL    HW134340   1.179   0.271  13.581 -1.3190  0.7016  0.4280
 7627SOL    HW234341   1.150   0.135  13.621  0.5228  0.0915 -1.4260
 7628SOL     OW34342   4.549   1.987   3.554  0.8177 -0.5183  0.3384
 7628SOL    HW134343   4.484   1.920   3.531  1.4686 -0.5248 -1.5056
 7628SOL    HW234344   4.595   2.009   3.473  0.0307 -0.8858 -0.2117
 7629SOL     OW34345   4.422   1.924   1.316 -0.8821 -0.3733 -0.2944
 7629SOL    HW134346   4.330   1.907   1.295 -1.2923  1.1863  0.1972
 7629SOL    HW234347   4.418   1.923   1.411 -1.3927 -0.6791 -0.3220
 7630SOL     OW34348   1.468   0.185   1.832  0.1844  0.3239  0.2304
 7630SOL    HW134349   1.413   0.247   1.784  0.4911  1.2545  1.0878
 7630SOL    HW234350   1.539   0.241   1.864  0.2333  0.1028  0.5069
 7631SOL     OW34351   1.468   3.583   1.849 -0.0873 -0.7290  0.0562
 7631SOL    HW134352   1.415   3.572   1.770  0.5612  2.9477 -0.9047
 7631SOL    HW234353   1.431   3.667   1.878 -1.6896 -1.4101  0.0281
 7632SOL     OW34354   3.176   0.692   3.955  0.3885 -0.5215 -0.1767
 7632SOL    HW134355   3.090   0.663   3.925 -0.6423 -0.2550  2.5400
 7632SOL    HW234356   3.228   0.707   3.875  0.5915  1.6352  0.3636
 7633SOL     OW34357   1.322   4.298   5.222  0.2170 -0.3623  0.4746
 7633SOL    HW134358   1.416   4.310   5.226  0.5018 -2.6303  0.3821
 7633SOL    HW234359   1.297   4.363   5.156  1.2210  0.1386  0.5876
 7634SOL     OW34360   0.822   3.507   8.474  0.0042 -0.9502 -0.1441
 7634SOL    HW134361   0.750   3.488   8.535  1.5113 -0.8802  1.6566
 7634SOL    HW234362   0.897   3.531   8.528  0.1902 -1.4756 -0.1663
 7635SOL     OW34363   0.730   2.732   4.107 -0.4625  0.5744 -0.0324
 7635SOL    HW134364   0.699   2.749   4.018  3.0194  1.4536 -1.0859
 7635SOL    HW234365   0.822   2.707   4.092 -1.0071 -1.9229  0.8062
 7636SOL     OW34366   3.206   3.870   2.802 -0.2067 -0.1310 -0.0228
 7636SOL    HW134367   3.269   3.826   2.745  2.4048  0.3545  2.5312
 7636SOL    HW234368   3.262   3.936   2.842 -0.7133  1.5928 -2.1496
 7637SOL     OW34369   2.494   0.258   6.339 -0.1222  0.3022 -0.1343
 7637SOL    HW134370   2.460   0.262   6.250 -0.3031  0.4449 -0.0595
 7637SOL    HW234371   2.477   0.166   6.357  1.7725  0.2261  1.3063
 7638SOL     OW34372   0.028   2.480   4.959  0.4065 -0.2102  0.0224
 7638SOL    HW134373   4.700   2.401   4.948 -0.8673  0.6168  0.1546
 7638SOL    HW234374   0.025   2.516   4.870 -2.6292 -2.3417 -0.7427
 7639SOL     OW34375   3.230   0.059   7.418 -0.0786  0.3880 -0.0603
 7639SOL    HW134376   3.255   4.692   7.429 -0.1628  0.5476  1.4838
 7639SOL    HW234377   3.199   0.069   7.508 -0.7925  1.3384 -0.4056
 7640SOL     OW34378   2.162   1.664   9.331 -0.1649  0.0423 -0.0946
 7640SOL    HW134379   2.066   1.667   9.331 -0.1574  0.2719 -0.4310
 7640SOL    HW234380   2.180   1.740   9.386  1.6286  1.0005 -2.0216
 7641SOL     OW34381   4.421   1.864   3.349  0.6577  0.0363  0.2754
 7641SOL    HW134382   4.372   1.782   3.358 -0.2472  0.6661  1.0384
 7641SOL    HW234383   4.451   1.862   3.258 -1.3237  1.9607 -0.4204
 7642SOL     OW34384   1.857   2.466   2.571 -0.0304  0.5591  0.0861
 7642SOL    HW134385   1.859   2.497   2.480 -0.3540  2.2854  0.6549
 7642SOL    HW234386   1.916   2.531   2.611  0.8203 -0.1000 -0.1072
 7643SOL     OW34387   2.772   1.577   2.021  0.3664  0.2543  0.1093
 7643SOL    HW134388   2.861   1.605   2.041  0.1422  0.9211  0.1823
 7643SOL    HW234389   2.778   1.560   1.927 -1.1257  1.7872 -0.2809
 7644SOL     OW34390   0.433   0.512  15.672  0.1573  0.5319  0.0325
 7644SOL    HW134391   0.394   0.538  15.756 -2.1198 -0.8806 -0.5862
 7644SOL    HW234392   0.356   0.476  15.628 -0.0092 -0.4910  1.1334
 7645SOL     OW34393   3.303   4.373  15.438  0.0443 -0.2266 -0.2184
 7645SOL    HW134394   3.258   4.430  15.377  2.5190  0.7686 -1.0932
 7645SOL    HW234395   3.373   4.349  15.378  0.3766  0.9094 -0.2684
 7646SOL     OW34396   3.691   2.555   5.229  0.6637  0.3131 -0.1673
 7646SOL    HW134397   3.755   2.613   5.270  0.4432  1.3264 -1.2577
 7646SOL    HW234398   3.709   2.578   5.138  1.9442  0.2996  0.0948
 7647SOL     OW34399   0.853   1.656   0.117 -0.1371  0.0739 -0.4323
 7647SOL    HW134400   0.903   1.590   0.165  1.1881  1.1988 -0.2486
 7647SOL    HW234401   0.786   1.594   0.089  1.6650 -2.1652  0.2124
 7648SOL     OW34402   4.416   4.268  14.097 -0.5253  0.0608  0.1381
 7648SOL    HW134403   4.429   4.361  14.077  2.1113 -0.2611  0.3779
 7648SOL    HW234404   4.471   4.224  14.033  1.1951  0.0140  1.6554
 7649SOL     OW34405   3.653   1.470  14.308 -0.1922  0.0237 -0.2103
 7649SOL    HW134406   3.655   1.379  14.340  0.9758  0.2718  0.4185
 7649SOL    HW234407   3.735   1.476  14.259 -0.0206  1.5257  0.2602
 7650SOL     OW34408   2.611   4.278  17.670 -0.2026 -0.0594  0.3562
 7650SOL    HW134409   2.583   4.224  17.595 -0.4123 -2.0420  1.8662
 7650SOL    HW234410   2.587   4.368  17.648 -0.1673 -0.0392  0.4017
 7651SOL     OW34411   3.598   1.511   8.163  0.1352 -0.2932  0.7836
 7651SOL    HW134412   3.643   1.507   8.247  0.1941  0.1266  0.7734
 7651SOL    HW234413   3.534   1.579   8.185  1.1657  0.3411  1.8384
 7652SOL     OW34414   3.659   0.182   7.019  0.7132  0.0212  0.3567
 7652SOL    HW134415   3.601   0.217   6.951 -1.8962 -1.2735  1.9012
 7652SOL    HW234416   3.712   0.255   7.051  1.9299 -1.0311  0.7510
 7653SOL     OW34417   2.337   2.777   7.175  0.8265 -0.1859  0.2341
 7653SOL    HW134418   2.407   2.774   7.241  0.5752 -0.3104  0.4954
 7653SOL    HW234419   2.373   2.851   7.126  0.3965 -1.1289 -1.4795
 7654SOL     OW34420   0.290   2.707   1.731 -0.4205 -0.1910  0.2364
 7654SOL    HW134421   0.214   2.663   1.693 -0.8060  1.6710 -1.1213
 7654SOL    HW234422   0.282   2.784   1.676  0.3232  0.3062  0.8205
 7655SOL     OW34423   3.655   0.227   6.205  0.4063  0.4435 -0.3847
 7655SOL    HW134424   3.650   0.144   6.253  0.5983  0.8049  0.2684
 7655SOL    HW234425   3.565   0.259   6.198  0.1632  0.2134  1.5675
 7656SOL     OW34426   2.183   2.739   1.855 -0.2835  0.2417 -0.2800
 7656SOL    HW134427   2.265   2.784   1.873  0.4310 -1.1648  0.0207
 7656SOL    HW234428   2.166   2.759   1.763 -0.2159  1.2682 -0.0693
 7657SOL     OW34429   4.020   1.730   3.723 -0.2936  0.0349 -0.3807
 7657SOL    HW134430   4.083   1.796   3.752 -0.5923  0.1435  0.0172
 7657SOL    HW234431   4.078   1.667   3.680 -0.0924 -1.0404  1.4571
 7658SOL     OW34432   1.682   2.995   5.660 -0.3355  0.3010 -0.0215
 7658SOL    HW134433   1.707   2.933   5.592 -1.1326 -1.0186  0.8885
 7658SOL    HW234434   1.587   3.000   5.646 -0.3871 -1.2398 -0.1517
 7659SOL     OW34435   2.404   3.348  16.879  0.1855  0.8966 -0.6723
 7659SOL    HW134436   2.462   3.273  16.894  1.0642  1.2300 -2.4139
 7659SOL    HW234437   2.353   3.345  16.959 -0.4226  0.1943 -1.0901
 7660SOL     OW34438   1.291   3.680   3.379  0.0649 -0.1553 -0.1703
 7660SOL    HW134439   1.347   3.746   3.337  0.6304  0.2091  1.1567
 7660SOL    HW234440   1.231   3.660   3.307  1.6318  0.8662 -1.7576
 7661SOL     OW34441   2.543   1.300  17.430  0.0895  0.6150 -0.0106
 7661SOL    HW134442   2.526   1.383  17.476 -0.1927  0.3509  0.3633
 7661SOL    HW234443   2.461   1.283  17.384 -0.6110 -0.4274  1.6024
 7662SOL     OW34444   4.405   0.917  15.974  0.0830  0.1283 -0.2747
 7662SOL    HW134445   4.433   0.924  15.882 -0.5747 -2.6240 -0.6735
 7662SOL    HW234446   4.372   1.007  15.982 -1.4621 -0.2690 -2.0448
 7663SOL     OW34447   1.652   1.651   6.359  0.2309 -0.1530 -0.6823
 7663SOL    HW134448   1.636   1.592   6.285  1.0660 -0.9500 -0.2208
 7663SOL    HW234449   1.604   1.603   6.426 -0.3959  0.5987 -0.5950
 7664SOL     OW34450   4.277   2.172   4.432 -0.1978  0.0313  0.4293
 7664SOL    HW134451   4.190   2.135   4.422  0.1717 -0.6416 -0.2826
 7664SOL    HW234452   4.303   2.169   4.340 -1.1706  1.0849  0.1111
 7665SOL     OW34453   4.320   0.830   8.590 -0.0871 -0.2332  0.0582
 7665SOL    HW134454   4.260   0.756   8.580 -0.7485 -0.0933  2.8056
 7665SOL    HW234455   4.401   0.806   8.546 -0.1626  0.4438 -0.4665
 7666SOL     OW34456   0.956   0.144   0.270 -0.2749 -0.3736 -0.4751
 7666SOL    HW134457   1.033   0.201   0.281  1.4625 -2.5385 -1.2766
 7666SOL    HW234458   0.928   0.158   0.360 -0.4147 -1.8475 -0.2958
 7667SOL     OW34459   0.384   1.905   6.457  0.1976 -0.1054 -0.0082
 7667SOL    HW134460   0.343   1.980   6.501  0.8730  1.3665 -1.8666
 7667SOL    HW234461   0.444   1.956   6.403 -1.0498 -0.0415 -1.3542
 7668SOL     OW34462   4.355   0.440   7.781 -0.0887  0.4891  0.0466
 7668SOL    HW134463   4.332   0.365   7.726 -1.0427  0.9004 -0.1067
 7668SOL    HW234464   4.412   0.488   7.721  3.3155 -1.8475  1.3658
 7669SOL     OW34465   3.941   1.623   6.436 -0.2220  0.0485  0.3118
 7669SOL    HW134466   3.994   1.656   6.509  0.9503 -0.9601 -0.0760
 7669SOL    HW234467   3.860   1.673   6.444  1.1484  2.4582 -0.8114
 7670SOL     OW34468   3.780   1.823   8.309 -0.3351 -0.3254 -0.2973
 7670SOL    HW134469   3.788   1.919   8.304 -0.1203 -0.3031  0.5909
 7670SOL    HW234470   3.817   1.802   8.394  0.8907  2.4706 -0.1232
 7671SOL     OW34471   4.357   4.370   7.661 -1.0692 -0.2717 -0.3619
 7671SOL    HW134472   4.440   4.331   7.637 -0.4606  2.0658 -2.0629
 7671SOL    HW234473   4.352   4.360   7.756 -0.5739  0.3353 -0.2706
 7672SOL     OW34474   0.495   2.774   8.865  0.4650 -0.7858 -0.3792
 7672SOL    HW134475   0.475   2.720   8.789 -1.0326 -2.2941  1.0698
 7672SOL    HW234476   0.432   2.736   8.927 -3.6649  2.4842 -2.5951
 7673SOL     OW34477   3.845   3.668   2.887 -0.0634  0.3535 -0.0303
 7673SOL    HW134478   3.859   3.573   2.892 -0.7819  0.3032  1.1139
 7673SOL    HW234479   3.764   3.683   2.837 -1.0588 -0.9275  1.1930
 7674SOL     OW34480   0.676   4.183  12.681 -0.2949  0.4840 -0.0185
 7674SOL    HW134481   0.721   4.148  12.605 -0.4917 -0.6915  0.4050
 7674SOL    HW234482   0.754   4.210  12.729  0.5020 -1.8972  0.0236
 7675SOL     OW34483   0.049   4.385   2.840  0.1918 -0.2535 -0.1837
 7675SOL    HW134484   0.027   4.326   2.768 -0.1945 -1.2415  0.7678
 7675SOL    HW234485   0.023   4.465   2.794 -1.5668  0.1132  1.4738
 7676SOL     OW34486   1.977   4.085   8.301 -0.1602  0.0541 -0.2277
 7676SOL    HW134487   1.979   4.056   8.209  1.7271  0.6059 -0.3582
 7676SOL    HW234488   1.884   4.101   8.317 -0.0363  0.0147  0.5030
 7677SOL     OW34489   0.221   2.087   6.587 -0.4260 -0.0076 -0.2880
 7677SOL    HW134490   0.249   2.121   6.672  0.1195 -1.4075  0.0965
 7677SOL    HW234491   0.127   2.098   6.602 -0.7463 -4.2253  0.8166
 7678SOL     OW34492   0.456   2.744   4.228  0.3726  0.4761 -0.2564
 7678SOL    HW134493   0.451   2.837   4.207  0.2226  0.8578  1.4509
 7678SOL    HW234494   0.550   2.726   4.240 -0.1341 -1.4418  0.6685
 7679SOL     OW34495   2.808   2.637   4.252 -0.7983 -0.9996 -0.0600
 7679SOL    HW134496   2.885   2.646   4.196 -1.2781  2.4323 -0.1660
 7679SOL    HW234497   2.749   2.610   4.181 -2.7770  0.7608  0.9198
 7680SOL     OW34498   0.421   1.890   1.153  0.2747 -0.4173 -0.2518
 7680SOL    HW134499   0.422   1.971   1.101  2.0903  0.1888  0.7427
 7680SOL    HW234500   0.474   1.919   1.227  3.0145 -2.4447 -1.4042
 7681SOL     OW34501   0.042   4.515   2.426  0.5226 -0.3352  0.1384
 7681SOL    HW134502   4.686   4.470   2.454  1.5011 -2.0584  0.1849
 7681SOL    HW234503   0.057   4.474   2.341  0.2788  0.7205 -0.4098
 7682SOL     OW34504   1.292   2.065   7.499 -0.8092  0.1958  0.0897
 7682SOL    HW134505   1.320   1.974   7.489  1.5634  0.6677  2.5624
 7682SOL    HW234506   1.335   2.107   7.424 -1.0301 -1.2247 -0.8316
 7683SOL     OW34507   1.223   1.940   0.920  0.1707  0.6086 -0.1860
 7683SOL    HW134508   1.232   1.845   0.932  1.6991  0.6603 -0.9835
 7683SOL    HW234509   1.297   1.982   0.965  0.0167 -1.5367  2.0729
 7684SOL     OW34510   0.514   1.973   3.541  0.5468 -0.1943 -0.5570
 7684SOL    HW134511   0.539   2.063   3.562  0.9396  0.0687 -2.2151
 7684SOL    HW234512   0.593   1.930   3.575  0.7134  1.5863  1.3366
 7685SOL     OW34513   1.209   4.334  10.218 -0.0209 -0.3973 -0.1287
 7685SOL    HW134514   1.294   4.370  10.190 -0.8410 -0.5935 -2.9554
 7685SOL    HW234515   1.201   4.252  10.170  1.5012 -0.6169 -0.0010
 7686SOL     OW34516   3.397   1.545   3.348  0.1143 -0.1351  0.0706
 7686SOL    HW134517   3.351   1.541   3.432  0.4755  0.1330  0.2815
 7686SOL    HW234518   3.487   1.524   3.372  0.0404 -1.2900 -0.6800
 7687SOL     OW34519   4.311   1.246   8.817  0.5245  0.2378  0.1555
 7687SOL    HW134520   4.324   1.332   8.856  1.0229  0.3161 -0.1831
 7687SOL    HW234521   4.355   1.261   8.733 -2.3071  0.0500 -1.3621
 7688SOL     OW34522   1.632   0.754   4.514  0.3141  0.3092 -0.0400
 7688SOL    HW134523   1.656   0.812   4.587  1.2684  0.3327 -0.3704
 7688SOL    HW234524   1.663   0.794   4.433  1.4882 -0.6436 -0.0573
 7689SOL     OW34525   3.474   3.792   5.946  0.7345  0.1134  0.4459
 7689SOL    HW134526   3.545   3.795   5.882 -1.8779 -0.1455 -2.4903
 7689SOL    HW234527   3.527   3.805   6.024  1.2442  1.6626 -0.1616
 7690SOL     OW34528   2.217   4.157   5.581 -0.1166 -0.0955  0.4715
 7690SOL    HW134529   2.229   4.155   5.486  0.7362  1.1453  0.5538
 7690SOL    HW234530   2.296   4.110   5.607 -0.4691 -0.3378  1.1027
 7691SOL     OW34531   0.174   0.246   8.850  1.2043  0.4811  0.6940
 7691SOL    HW134532   0.264   0.277   8.853  1.3125  0.2058  0.2730
 7691SOL    HW234533   0.176   0.152   8.869  0.3689  0.6963  1.8621
 7692SOL     OW34534   1.062   2.284   3.220 -0.1119  0.3321 -0.6027
 7692SOL    HW134535   1.157   2.284   3.233  0.0160 -1.9744 -1.6418
 7692SOL    HW234536   1.034   2.207   3.269 -0.8608  1.8140  1.3230
 7693SOL     OW34537   1.352   0.797  11.239 -0.8718  0.2264  0.3648
 7693SOL    HW134538   1.308   0.881  11.252  0.3992  1.2238 -1.9153
 7693SOL    HW234539   1.387   0.774  11.325  2.6101 -0.7652 -1.3255
 7694SOL     OW34540   1.336   0.230   0.516 -0.0779  0.6412  0.1399
 7694SOL    HW134541   1.397   0.176   0.466 -1.1300 -0.3569 -0.0715
 7694SOL    HW234542   1.349   0.202   0.607 -0.0744  0.4386  0.0763
 7695SOL     OW34543   4.202   0.895   4.690  0.2276 -0.4914 -0.1423
 7695SOL    HW134544   4.274   0.917   4.750 -0.5123  0.1865  0.5028
 7695SOL    HW234545   4.133   0.860   4.747  0.9220  1.6753  2.0708
 7696SOL     OW34546   3.085   3.226  13.899 -0.2435 -0.0835  0.1599
 7696SOL    HW134547   3.088   3.134  13.872 -1.8063  0.8873 -3.3427
 7696SOL    HW234548   3.118   3.265  13.818 -3.2342 -1.0620 -1.5308
 7697SOL     OW34549   2.614   3.388   6.929 -0.0666  0.2456 -0.5328
 7697SOL    HW134550   2.584   3.303   6.963 -2.9207  1.1548 -0.7582
 7697SOL    HW234551   2.612   3.440   7.009 -0.6602 -0.2909 -0.1984
 7698SOL     OW34552   2.062   0.737   3.411  0.3226  0.1925  0.0778
 7698SOL    HW134553   2.082   0.826   3.442  0.2756  0.6741 -1.2634
 7698SOL    HW234554   2.110   0.676   3.467 -1.9540 -1.7063 -0.0805
 7699SOL     OW34555   4.379   3.679  12.117  0.5512 -0.3639 -0.0649
 7699SOL    HW134556   4.292   3.642  12.102  1.3004 -2.0645 -0.2017
 7699SOL    HW234557   4.412   3.693  12.028  1.2900 -1.6854  0.0133
 7700SOL     OW34558   1.980   0.471   0.167 -0.2339  0.0078  0.1154
 7700SOL    HW134559   1.977   0.544   0.230  1.5229 -1.7448  2.2250
 7700SOL    HW234560   2.071   0.476   0.139 -0.4616 -0.3801 -0.6958
 7701SOL     OW34561   2.804   3.963   2.884 -0.0824 -0.1602  0.0084
 7701SOL    HW134562   2.889   3.985   2.845 -0.4983 -3.4499 -2.7747
 7701SOL    HW234563   2.804   4.006   2.969 -0.6499 -0.7815  0.3196
 7702SOL     OW34564   4.159   0.974   7.816 -0.3899 -0.0036 -0.4409
 7702SOL    HW134565   4.087   0.943   7.761 -2.0051  1.5882  0.7564
 7702SOL    HW234566   4.212   0.895   7.820  0.6509  0.8394  2.4739
 7703SOL     OW34567   1.490   2.861  12.894  0.1861  0.1351  0.5442
 7703SOL    HW134568   1.443   2.940  12.868  1.8709  1.5310  1.8267
 7703SOL    HW234569   1.429   2.792  12.922  0.9336 -0.5528  0.4573
 7704SOL     OW34570   3.415   1.018   9.429  0.2796 -0.1904  0.0840
 7704SOL    HW134571   3.377   0.933   9.452 -0.3091  0.9794  3.5327
 7704SOL    HW234572   3.485   1.028   9.494 -0.0869 -0.0160  0.4528
 7705SOL     OW34573   2.425   4.003   7.495  0.0698  0.2599  0.1797
 7705SOL    HW134574   2.419   4.060   7.572 -1.7938 -2.0374  1.7236
 7705SOL    HW234575   2.406   3.917   7.531  0.2949 -0.5075 -1.5520
 7706SOL     OW34576   3.197   3.257   6.292  0.1730  0.8384 -0.1551
 7706SOL    HW134577   3.108   3.236   6.263  0.3187  0.0692 -0.0416
 7706SOL    HW234578   3.195   3.257   6.388 -1.1206 -0.1745 -0.1724
 7707SOL     OW34579   0.637   0.462   3.738 -0.2142 -0.0298 -0.3342
 7707SOL    HW134580   0.700   0.394   3.715  1.8077  1.6495  0.2673
 7707SOL    HW234581   0.667   0.543   3.697 -0.9677 -0.4034 -1.6212
 7708SOL     OW34582   4.026   2.890   2.313  0.1939 -0.0521 -0.0149
 7708SOL    HW134583   4.035   2.819   2.376  0.6347 -0.2969 -0.3582
 7708SOL    HW234584   4.060   2.857   2.230  0.2771 -0.9467  0.3735
 7709SOL     OW34585   0.448   4.143   7.603 -0.3119 -0.4638 -0.0632
 7709SOL    HW134586   0.511   4.214   7.610 -1.2069  0.3566 -0.2468
 7709SOL    HW234587   0.477   4.097   7.524 -2.5573 -2.8039  0.4542
 7710SOL     OW34588   1.526   0.280   9.847 -0.1909 -0.5626 -0.1887
 7710SOL    HW134589   1.434   0.305   9.843 -0.1169 -0.4656 -1.4359
 7710SOL    HW234590   1.518   0.186   9.831  0.8091 -0.6132 -0.3953
 7711SOL     OW34591   1.437   2.105  15.879 -0.2289 -0.0082 -0.1045
 7711SOL    HW134592   1.444   2.188  15.833  1.1173  0.2448  0.5496
 7711SOL    HW234593   1.403   2.058  15.803 -1.9234  1.6301 -0.3522
 7712SOL     OW34594   3.548   2.663  11.941 -0.2605  0.1788 -0.4921
 7712SOL    HW134595   3.459   2.682  11.970  0.9269 -0.2139  3.4330
 7712SOL    HW234596   3.566   2.584  11.993  0.9257  0.6845 -0.1333
 7713SOL     OW34597   0.313   4.678   8.746  0.5245 -0.3025 -0.0102
 7713SOL    HW134598   0.347   4.599   8.703  0.1188 -0.6117  0.2248
 7713SOL    HW234599   0.367   0.020   8.703 -0.2818 -1.8040 -3.3956
 7714SOL     OW34600   3.590   1.824   5.991 -0.0869 -0.1222  0.2938
 7714SOL    HW134601   3.553   1.743   5.955  2.6937 -1.2596 -0.0268
 7714SOL    HW234602   3.590   1.809   6.086 -1.4837 -0.2225  0.2760
 7715SOL     OW34603   3.242   3.593   8.116  0.9658  0.3819 -0.4794
 7715SOL    HW134604   3.300   3.616   8.044  0.9098 -0.1286 -0.6878
 7715SOL    HW234605   3.212   3.507   8.085  1.4530  0.2880 -0.6904
 7716SOL     OW34606   4.220   3.205   8.103 -0.7819 -0.2787 -0.9094
 7716SOL    HW134607   4.152   3.153   8.147  0.6911 -0.3597  1.2749
 7716SOL    HW234608   4.170   3.252   8.037  0.3324 -2.0735 -3.0249
 7717SOL     OW34609   0.088   2.327   8.994 -0.3125  0.0014  0.1923
 7717SOL    HW134610   0.171   2.330   9.041 -0.7518 -4.1906  1.2329
 7717SOL    HW234611   0.128   2.331   8.907 -0.9042  0.7441 -0.0452
 7718SOL     OW34612   3.317   0.998  13.629 -0.8484  0.8151 -0.5080
 7718SOL    HW134613   3.377   1.045  13.571 -2.8386  3.7996 -0.1318
 7718SOL    HW234614   3.351   1.012  13.717  0.2434  0.1360 -0.8139
 7719SOL     OW34615   1.512   1.345   4.022  0.0578 -0.2903 -0.5319
 7719SOL    HW134616   1.535   1.372   3.933  1.1737  1.0140  0.1455
 7719SOL    HW234617   1.588   1.293   4.049 -0.5101 -0.6473  0.3952
 7720SOL     OW34618   2.841   2.608   3.664 -0.0688  0.1905  0.3951
 7720SOL    HW134619   2.847   2.538   3.599 -1.7843 -0.8384  1.3657
 7720SOL    HW234620   2.847   2.691   3.616 -1.4490 -0.6789 -1.2489
 7721SOL     OW34621   4.080   3.073   0.767 -0.5530  0.0629 -0.4870
 7721SOL    HW134622   4.134   3.057   0.844 -1.7952 -0.2754  0.3318
 7721SOL    HW234623   4.019   3.000   0.778  1.3965 -2.0732 -3.8652
 7722SOL     OW34624   3.646   4.573   9.551  0.4787  0.0416 -0.3299
 7722SOL    HW134625   3.735   4.589   9.522  1.4377 -2.4016  1.2685
 7722SOL    HW234626   3.670   4.589   9.642  1.5907 -2.0649 -0.2463
 7723SOL     OW34627   3.540   2.067   4.930  0.5769 -0.4313  0.4416
 7723SOL    HW134628   3.520   2.052   4.837  1.2367 -1.5288  0.4760
 7723SOL    HW234629   3.598   1.992   4.946 -0.0752 -0.9867  0.1779
 7724SOL     OW34630   3.016   0.175   2.245  0.5558 -0.8430 -1.0669
 7724SOL    HW134631   2.983   0.094   2.285  1.5211 -1.2883 -1.1674
 7724SOL    HW234632   3.105   0.140   2.233  1.5144  1.5354 -0.8136
 7725SOL     OW34633   0.934   4.508   4.156  0.1210  0.4752  0.0972
 7725SOL    HW134634   0.906   4.515   4.247 -4.8324 -0.4459 -1.3900
 7725SOL    HW234635   1.010   4.565   4.171  1.2863 -1.0998  0.2040
 7726SOL     OW34636   1.301   0.036   4.591  0.1293  0.7899 -0.0103
 7726SOL    HW134637   1.393   0.040   4.566 -0.3682  0.6610 -1.8850
 7726SOL    HW234638   1.278   4.669   4.606 -5.1071  2.0816 -0.0329
 7727SOL     OW34639   3.238   1.980   7.102  0.4435  0.4181  0.3128
 7727SOL    HW134640   3.284   1.931   7.169 -0.4084 -0.4762  0.2430
 7727SOL    HW234641   3.207   1.916   7.038 -0.7123  1.0893  0.2138
 7728SOL     OW34642   0.602   2.383   2.421  0.6314 -0.0476 -0.2622
 7728SOL    HW134643   0.660   2.401   2.348  2.3887 -2.3014  0.5523
 7728SOL    HW234644   0.517   2.407   2.384  1.2042  0.7787 -1.0394
 7729SOL     OW34645   3.664   3.935   2.095  0.7815 -0.0758  0.1439
 7729SOL    HW134646   3.668   3.866   2.161 -0.0743 -0.5874 -0.3357
 7729SOL    HW234647   3.750   3.917   2.058 -0.5456 -0.8261 -2.5579
 7730SOL     OW34648   0.556   3.338   5.016  0.0070  0.4275  0.0679
 7730SOL    HW134649   0.481   3.354   5.073 -0.4307 -2.4288  0.2727
 7730SOL    HW234650   0.520   3.364   4.930 -0.9589  0.5822  0.5188
 7731SOL     OW34651   4.698   2.254   1.369  0.2075 -0.0607 -0.0489
 7731SOL    HW134652   4.650   2.335   1.352  1.2058  0.6201  0.3403
 7731SOL    HW234653   4.632   2.191   1.341  0.1165  0.2944 -0.6376
 7732SOL     OW34654   1.435   2.606   3.971  0.5328 -0.7163  0.0920
 7732SOL    HW134655   1.404   2.691   4.001 -1.6731 -1.7419  0.7189
 7732SOL    HW234656   1.369   2.578   3.907 -2.0009  3.0002  1.0741
 7733SOL     OW34657   3.566   0.820   4.774 -0.1835 -0.0091  0.2737
 7733SOL    HW134658   3.555   0.740   4.723  0.8845 -0.3052  0.4928
 7733SOL    HW234659   3.475   0.847   4.783 -0.0474  1.3783 -2.4103
 7734SOL     OW34660   0.758   0.853   2.415  0.8592 -0.2535 -0.6579
 7734SOL    HW134661   0.708   0.917   2.466  0.5300  0.8067 -2.3334
 7734SOL    HW234662   0.709   0.843   2.334  1.2440 -0.0140 -0.9181
 7735SOL     OW34663   0.348   3.047   8.818  0.4416 -0.5303 -0.2212
 7735SOL    HW134664   0.401   2.973   8.848  1.0439 -0.0422 -0.0775
 7735SOL    HW234665   0.355   3.101   8.897 -1.4022  2.8872 -2.3981
 7736SOL     OW34666   4.549   3.493   1.403  0.1682 -0.1238  0.6430
 7736SOL    HW134667   4.539   3.410   1.357 -0.3330 -0.0298  0.5771
 7736SOL    HW234668   4.504   3.470   1.485  0.3630 -0.5107  0.6372
 7737SOL     OW34669   4.047   0.117   8.480 -0.0883  0.6256  0.2703
 7737SOL    HW134670   4.039   0.159   8.394 -0.0554  1.3488  0.6242
 7737SOL    HW234671   4.004   0.175   8.541 -2.3854  0.7129 -1.4163
 7738SOL     OW34672   0.043   3.156   6.776 -0.2603 -0.5079  0.3760
 7738SOL    HW134673   0.081   3.243   6.765  1.1571 -1.3040 -0.9978
 7738SOL    HW234674   0.078   3.134   6.862  1.6959 -1.5094 -0.6572
 7739SOL     OW34675   2.842   1.048   4.025 -0.2696  0.3160 -0.2263
 7739SOL    HW134676   2.920   1.081   4.070  0.2154  0.3058 -1.0640
 7739SOL    HW234677   2.777   1.105   4.067  0.2469 -0.1349  1.1963
 7740SOL     OW34678   3.465   3.510  12.196 -0.3461  0.2483  0.2059
 7740SOL    HW134679   3.508   3.429  12.169 -2.2585 -0.9984  0.8712
 7740SOL    HW234680   3.461   3.553  12.111  0.9693 -1.3897 -0.6791
 7741SOL     OW34681   1.571   2.758   7.427  0.0921 -0.0075 -0.3091
 7741SOL    HW134682   1.599   2.684   7.374 -0.3941 -1.3607  1.3035
 7741SOL    HW234683   1.659   2.794   7.434  0.3768 -0.3944 -1.9867
 7742SOL     OW34684   1.986   3.760   4.970 -0.4410  0.3593  0.1330
 7742SOL    HW134685   1.980   3.674   5.011  1.7803  0.2712  0.3254
 7742SOL    HW234686   1.979   3.739   4.877  0.6687 -1.0802  0.3757
 7743SOL     OW34687   0.001   4.679   7.005  0.4346 -0.2663 -0.0572
 7743SOL    HW134688   4.651   4.721   6.962 -0.1745 -1.8787 -0.6106
 7743SOL    HW234689   0.047   0.028   7.044  1.2377 -0.1704 -1.2066
 7744SOL     OW34690   3.481   3.418  14.407 -0.0050  1.0531  0.1623
 7744SOL    HW134691   3.554   3.357  14.397 -0.7132  0.3567 -0.8737
 7744SOL    HW234692   3.476   3.424  14.502 -3.2325  0.0801  0.0485
 7745SOL     OW34693   2.978   2.290  16.516 -0.4925  0.5480 -0.0059
 7745SOL    HW134694   2.938   2.228  16.576 -0.2566 -2.2012 -2.6392
 7745SOL    HW234695   2.984   2.369  16.569 -1.5144  1.7797 -1.7274
 7746SOL     OW34696   1.762   3.093  15.960 -0.4484  0.2360  0.1182
 7746SOL    HW134697   1.769   3.110  15.866  0.1654 -1.0264 -0.0579
 7746SOL    HW234698   1.853   3.075  15.982  0.0867 -0.1157 -2.4839
 7747SOL     OW34699   0.686   3.267   5.707 -0.5516  0.1528 -0.3571
 7747SOL    HW134700   0.739   3.196   5.672  1.0320  2.4628 -2.6768
 7747SOL    HW234701   0.714   3.346   5.661 -0.7091 -0.2332 -1.1039
 7748SOL     OW34702   4.119   1.858   7.088  0.2165 -0.2959 -0.4121
 7748SOL    HW134703   4.050   1.911   7.047 -0.0771  0.1321  0.6493
 7748SOL    HW234704   4.174   1.927   7.124 -0.6089 -0.2514  0.7412
 7749SOL     OW34705   1.533   4.445   3.714 -0.4364  0.2660  0.2231
 7749SOL    HW134706   1.572   4.530   3.736 -1.1505  0.3117  1.3064
 7749SOL    HW234707   1.555   4.399   3.795 -0.7460  0.4292  0.3945
 7750SOL     OW34708   3.563   0.728  14.552 -0.2750 -0.4823  0.1426
 7750SOL    HW134709   3.496   0.793  14.531 -0.0824 -0.9509 -1.9309
 7750SOL    HW234710   3.619   0.739  14.475 -1.7941  0.3056 -0.8396
 7751SOL     OW34711   3.963   1.184   0.331  0.4501  0.8305  0.2183
 7751SOL    HW134712   4.046   1.138   0.323  0.3863  0.2762  2.5162
 7751SOL    HW234713   3.970   1.265   0.280 -0.7350  1.9658  1.8328
 7752SOL     OW34714   3.812   2.594   2.663 -0.3682  0.2508 -0.5198
 7752SOL    HW134715   3.882   2.534   2.688  0.0401  1.9610  2.4480
 7752SOL    HW234716   3.737   2.536   2.652  1.1585 -1.8800  0.1756
 7753SOL     OW34717   3.601   0.374   7.529 -0.3618 -0.3461  0.2146
 7753SOL    HW134718   3.678   0.426   7.505 -0.1646 -0.1494  1.2734
 7753SOL    HW234719   3.576   0.319   7.455 -0.3004 -0.2519  0.1234
 7754SOL     OW34720   1.924   4.206   6.226  0.3158  0.0673  0.5549
 7754SOL    HW134721   1.939   4.113   6.238 -1.3807 -0.1873  0.6156
 7754SOL    HW234722   1.950   4.201   6.134 -0.6097  0.7451  0.2542
 7755SOL     OW34723   3.098   0.880   8.460 -0.2062 -0.0300 -0.4182
 7755SOL    HW134724   3.170   0.938   8.434  0.6324 -0.1411  1.5988
 7755SOL    HW234725   3.025   0.941   8.452 -0.3904 -0.1821  0.1112
 7756SOL     OW34726   2.412   0.791  11.037 -0.7705 -0.3378  0.7635
 7756SOL    HW134727   2.430   0.829  10.951 -0.6382  0.4929  1.1579
 7756SOL    HW234728   2.373   0.864  11.084 -0.3539  1.6399 -1.9407
 7757SOL     OW34729   0.984   3.671   5.211 -0.5097 -0.5073 -0.5410
 7757SOL    HW134730   1.024   3.643   5.294 -1.0987 -0.8883 -0.3841
 7757SOL    HW234731   1.059   3.710   5.167  0.0713 -1.0814 -0.0526
 7758SOL     OW34732   3.498   2.435   8.597  0.4483 -0.0807  0.1460
 7758SOL    HW134733   3.481   2.465   8.508 -3.1176 -1.1201  0.4533
 7758SOL    HW234734   3.413   2.392   8.612  0.8033 -0.1815  1.8778
 7759SOL     OW34735   4.290   1.056   3.589 -0.1565  0.2163 -0.0246
 7759SOL    HW134736   4.349   1.084   3.520  0.3703  0.1026  0.3753
 7759SOL    HW234737   4.279   1.134   3.643  0.3991  0.3563 -0.1173
 7760SOL     OW34738   2.152   4.623  16.491 -0.2736 -0.4558  0.1705
 7760SOL    HW134739   2.221   4.603  16.429 -1.5306 -1.1210 -1.0157
 7760SOL    HW234740   2.088   4.562  16.454  0.2334 -1.9762  1.8243
 7761SOL     OW34741   0.648   3.753   1.399 -0.0826  0.0803  0.0552
 7761SOL    HW134742   0.634   3.674   1.452 -1.4979  1.2803  1.4420
 7761SOL    HW234743   0.586   3.735   1.328 -0.1840  0.7173 -0.0149
 7762SOL     OW34744   3.353   1.144  15.326 -0.2149  0.9144  0.5354
 7762SOL    HW134745   3.369   1.222  15.380  1.0972  0.2717  1.0801
 7762SOL    HW234746   3.296   1.185  15.261  0.5400  2.1254  0.6296
 7763SOL     OW34747   1.263   3.743   1.247  0.4128  0.4344 -0.2190
 7763SOL    HW134748   1.358   3.733   1.257  0.3180 -1.0840 -0.9229
 7763SOL    HW234749   1.243   3.823   1.297 -0.2833 -0.3260  0.7212
 7764SOL     OW34750   0.316   4.635   3.916 -0.6012  0.2285  0.6050
 7764SOL    HW134751   0.351   4.724   3.921 -0.1084 -0.0529  2.1227
 7764SOL    HW234752   0.398   4.598   3.882 -0.9469  0.1109 -0.1048
 7765SOL     OW34753   4.678   0.617  13.381  0.2166  0.3361  0.1737
 7765SOL    HW134754   0.028   0.617  13.321  0.7325 -1.3134  0.8166
 7765SOL    HW234755   4.661   0.711  13.385 -1.3768  0.0993 -0.9389
 7766SOL     OW34756   1.413   1.851  13.296 -0.2668 -0.4207  0.7027
 7766SOL    HW134757   1.470   1.918  13.260 -0.8683 -0.0307  0.4816
 7766SOL    HW234758   1.440   1.778  13.240 -0.6551  0.7655 -1.0271
 7767SOL     OW34759   0.990   3.516  10.505  0.2991  0.6547 -0.3248
 7767SOL    HW134760   0.969   3.606  10.530 -1.7839  0.4588 -1.4283
 7767SOL    HW234761   1.083   3.508  10.527  0.3261  2.6320  0.2400
 7768SOL     OW34762   2.015   3.301  16.974  0.4333  0.1317  0.1206
 7768SOL    HW134763   2.100   3.346  16.979  0.1758  0.2177  3.3052
 7768SOL    HW234764   2.043   3.211  16.989  1.5869  0.3809 -0.4522
 7769SOL     OW34765   3.253   0.154  14.831  0.3596  0.3294  0.2497
 7769SOL    HW134766   3.231   0.243  14.804 -2.8510  0.1227  2.3131
 7769SOL    HW234767   3.319   0.134  14.764  1.3181  0.0446  1.2622
 7770SOL     OW34768   3.691   1.245   0.595 -0.0444 -0.3947 -0.4881
 7770SOL    HW134769   3.754   1.280   0.658  0.9350  0.3669 -1.8801
 7770SOL    HW234770   3.615   1.296   0.621 -0.6959 -0.9485 -1.3105
 7771SOL     OW34771   2.343   3.780   7.626 -0.1503 -0.1977  0.0920
 7771SOL    HW134772   2.342   3.685   7.620  0.4992 -0.2720  1.1201
 7771SOL    HW234773   2.359   3.793   7.720 -0.0772  0.6129 -0.0315
 7772SOL     OW34774   0.649   0.236   2.625 -0.2352  0.4527 -0.2364
 7772SOL    HW134775   0.616   0.171   2.688  1.3927 -0.6543 -0.5107
 7772SOL    HW234776   0.673   0.304   2.688 -2.5650  0.7110  0.3589
 7773SOL     OW34777   0.488   3.644   1.206  0.5396 -0.9610  0.0063
 7773SOL    HW134778   0.540   3.576   1.162  0.3693 -0.6969 -0.5943
 7773SOL    HW234779   0.451   3.684   1.127 -0.3449 -0.0935  0.8701
 7774SOL     OW34780   4.088   1.798   6.637 -0.5198 -0.1086 -0.5054
 7774SOL    HW134781   4.159   1.773   6.697 -0.2042  0.0805 -0.8002
 7774SOL    HW234782   4.014   1.814   6.696 -0.8440  0.1541 -0.9798
 7775SOL     OW34783   4.345   4.139   3.162 -0.3403  0.3442  0.5931
 7775SOL    HW134784   4.261   4.094   3.170 -1.1272  1.6140 -0.4733
 7775SOL    HW234785   4.365   4.153   3.254  0.3780 -1.8070  0.7483
 7776SOL     OW34786   2.275   0.248  15.651  0.0915  0.7269  0.7370
 7776SOL    HW134787   2.273   0.331  15.603 -0.3386  0.4466  0.2695
 7776SOL    HW234788   2.181   0.239  15.666  0.1376  2.2414  1.9554
 7777SOL     OW34789   2.881   1.249   1.412  0.2921  0.1469 -0.3544
 7777SOL    HW134790   2.896   1.308   1.486  1.1978 -0.7589  0.1820
 7777SOL    HW234791   2.814   1.188   1.444 -0.7169  1.3467 -0.1978
 7778SOL     OW34792   2.478   0.173   3.928 -0.1073 -0.2814 -0.1540
 7778SOL    HW134793   2.485   0.179   3.833  1.0394  0.4006 -0.0289
 7778SOL    HW234794   2.562   0.208   3.959  0.6644 -1.8710 -0.4491
 7779SOL     OW34795   3.827   3.070   1.057 -0.5333 -0.7367 -0.5125
 7779SOL    HW134796   3.762   3.073   0.987 -0.5122  0.6994 -0.4775
 7779SOL    HW234797   3.842   2.975   1.054  2.6501 -0.3098  2.0575
 7780SOL     OW34798   4.599   3.873  16.214 -0.0380 -0.2230  0.2145
 7780SOL    HW134799   4.566   3.952  16.256  0.4005  1.1387 -1.9961
 7780SOL    HW234800   4.651   3.838  16.286  0.0952 -0.3319  0.0642
 7781SOL     OW34801   3.482   3.907   2.691  0.6306  0.0273 -0.0074
 7781SOL    HW134802   3.556   3.873   2.640  0.3560 -1.3056  0.4823
 7781SOL    HW234803   3.445   3.965   2.625  2.0853  1.2164  0.2162
 7782SOL     OW34804   1.011   3.160  15.341  0.1286 -0.0073 -0.2594
 7782SOL    HW134805   1.071   3.232  15.358 -0.5534  1.0611 -2.4404
 7782SOL    HW234806   0.938   3.188  15.396  1.0980 -0.5565  1.3053
 7783SOL     OW34807   2.880   2.791  10.393  1.0001 -0.5208 -0.6845
 7783SOL    HW134808   2.836   2.868  10.429  0.9585 -1.3381  1.0082
 7783SOL    HW234809   2.893   2.745  10.476  0.8640  1.8203  0.6284
 7784SOL     OW34810   0.792   0.512   8.342 -0.1471 -0.4109 -0.1835
 7784SOL    HW134811   0.758   0.537   8.428  1.4691 -0.6450  0.5251
 7784SOL    HW234812   0.873   0.464   8.353 -0.7397 -0.8595  2.2943
 7785SOL     OW34813   0.722   0.145   3.882 -0.1932  0.0290 -0.4827
 7785SOL    HW134814   0.698   0.123   3.972  1.0532  0.7089  0.0228
 7785SOL    HW234815   0.818   0.141   3.883 -0.2016  0.2779  1.4837
 7786SOL     OW34816   3.519   4.225   4.805  0.2332 -0.2697  0.0277
 7786SOL    HW134817   3.599   4.196   4.760  0.1129  0.2588 -0.5258
 7786SOL    HW234818   3.463   4.149   4.786 -1.6842  0.8249  1.4536
 7787SOL     OW34819   4.548   4.514   6.336 -0.7532  0.1457  0.4841
 7787SOL    HW134820   4.640   4.488   6.325 -0.6168  0.9045 -0.2014
 7787SOL    HW234821   4.545   4.582   6.269  1.5018  1.1332  1.3499
 7788SOL     OW34822   3.867   1.046  12.086 -0.3810  0.1935 -0.1172
 7788SOL    HW134823   3.916   1.128  12.081  0.0144 -0.1018 -1.0305
 7788SOL    HW234824   3.909   1.003  12.012  0.7295  1.8893 -0.4677
 7789SOL     OW34825   3.936   1.020   3.066  0.5422 -0.3630  0.3524
 7789SOL    HW134826   4.027   0.998   3.089  0.6736  1.3373  1.4278
 7789SOL    HW234827   3.898   1.038   3.152  0.8879 -1.0206  0.6439
 7790SOL     OW34828   1.832   3.708   9.885 -0.2025  0.1509 -0.5530
 7790SOL    HW134829   1.786   3.661   9.816 -0.0041  0.6146 -0.9929
 7790SOL    HW234830   1.775   3.680   9.957 -2.1772  1.4538 -1.6233
 7791SOL     OW34831   4.267   3.332   3.167 -0.0603  0.0620  0.3907
 7791SOL    HW134832   4.240   3.319   3.257 -1.0906  0.9752  0.2055
 7791SOL    HW234833   4.361   3.323   3.183  0.3210  0.4405 -1.6124
 7792SOL     OW34834   3.034   4.028  10.282 -0.0647 -0.1210  0.1833
 7792SOL    HW134835   3.092   4.020  10.206  0.2673 -1.5900  0.5890
 7792SOL    HW234836   3.038   4.119  10.312 -0.5115  0.1214 -0.4913
 7793SOL     OW34837   1.461   3.421   6.437  0.1689 -0.6083  0.0651
 7793SOL    HW134838   1.520   3.494   6.420  2.3385 -2.4246 -0.2789
 7793SOL    HW234839   1.374   3.460   6.428 -0.6210 -2.4609 -0.2310
 7794SOL     OW34840   2.501   3.535   1.945 -0.3079 -0.1562  0.7106
 7794SOL    HW134841   2.429   3.496   1.894  0.3576  0.1476 -0.4509
 7794SOL    HW234842   2.511   3.621   1.906 -1.3601 -0.7324 -0.8556
 7795SOL     OW34843   3.929   0.077   3.947  0.3407  0.1653  0.1219
 7795SOL    HW134844   3.941   0.155   4.000 -1.3309  0.9133 -0.5924
 7795SOL    HW234845   3.933   0.003   4.008 -1.5030 -0.4315 -0.4604
 7796SOL     OW34846   3.548   1.744   3.582  0.5202  0.3105 -0.1958
 7796SOL    HW134847   3.630   1.700   3.605  0.8411  0.8144 -0.3819
 7796SOL    HW234848   3.546   1.760   3.488  0.0234 -0.2927 -0.2869
 7797SOL     OW34849   1.334   3.191   0.559  0.5378  0.9624  0.1504
 7797SOL    HW134850   1.377   3.222   0.638  1.5571 -1.1820  0.4370
 7797SOL    HW234851   1.295   3.273   0.528 -1.2293 -0.2118 -0.7036
 7798SOL     OW34852   1.210   2.965   2.101  0.1929 -0.0301  0.2246
 7798SOL    HW134853   1.195   2.955   2.195 -1.2447  1.9515  0.1989
 7798SOL    HW234854   1.246   2.878   2.083  0.1971  0.0150  0.0161
 7799SOL     OW34855   0.396   2.598   2.045 -0.1537  0.0531 -0.0894
 7799SOL    HW134856   0.415   2.627   2.134 -1.1365 -0.1966  0.2038
 7799SOL    HW234857   0.434   2.510   2.045  0.7417  0.4253 -1.7334
 7800SOL     OW34858   2.214   2.025   8.521 -0.4808  0.4395  0.7109
 7800SOL    HW134859   2.289   2.055   8.470 -0.9966  0.6644  0.0778
 7800SOL    HW234860   2.187   1.945   8.477 -0.2456 -0.2939  1.9180
 7801SOL     OW34861   4.087   2.940   8.848  0.4697  0.3864 -0.5369
 7801SOL    HW134862   4.109   2.856   8.887 -1.4745  0.4197  0.6510
 7801SOL    HW234863   4.102   3.002   8.919 -2.6521 -0.2278  0.6881
 7802SOL     OW34864   1.874   0.755  15.560  0.5710 -0.3471  0.5308
 7802SOL    HW134865   1.868   0.796  15.647  2.1854 -1.6063  1.2345
 7802SOL    HW234866   1.967   0.734  15.553  1.0820  1.9184  0.4181
 7803SOL     OW34867   0.910   1.547  14.162  0.0463  0.0485  0.0682
 7803SOL    HW134868   0.956   1.567  14.243 -0.4618  1.5492 -0.0143
 7803SOL    HW234869   0.831   1.600  14.172 -0.5842 -0.7361 -0.7094
 7804SOL     OW34870   1.933   4.467  15.796  0.2880 -0.7707 -0.1748
 7804SOL    HW134871   1.943   4.532  15.726  1.9113 -0.2675  0.5281
 7804SOL    HW234872   1.956   4.386  15.751  0.2592 -0.7186 -0.2835
 7805SOL     OW34873   2.371   4.371   7.866  0.1605  0.2334  0.3640
 7805SOL    HW134874   2.384   4.464   7.850  0.0942  0.3216  0.8267
 7805SOL    HW234875   2.328   4.367   7.951  0.8409 -2.1709  0.6046
 7806SOL     OW34876   1.996   1.276  13.222  0.1488  0.2561  0.1432
 7806SOL    HW134877   1.980   1.235  13.307  0.9438  0.6411  0.4765
 7806SOL    HW234878   2.085   1.311  13.224 -0.4203  1.6147  1.0223
 7807SOL     OW34879   3.595   0.065   4.155  0.2270 -0.5057 -0.0395
 7807SOL    HW134880   3.508   0.095   4.180  0.6873  1.4296 -0.7163
 7807SOL    HW234881   3.616   0.018   4.235  1.1357  0.1203  0.0959
 7808SOL     OW34882   2.557   0.282   5.834 -0.5182  0.1715  0.9943
 7808SOL    HW134883   2.637   0.238   5.807 -0.5321  0.7573 -0.0083
 7808SOL    HW234884   2.488   0.216   5.825 -1.7430  1.4773  0.7397
 7809SOL     OW34885   3.472   3.945   4.184  0.0009 -0.0948 -0.5642
 7809SOL    HW134886   3.447   3.995   4.261  1.9978  0.0591 -0.0116
 7809SOL    HW234887   3.562   3.928   4.212 -0.8145 -1.2073  1.3310
 7810SOL     OW34888   1.423   2.017  16.449 -0.0688  0.5375 -0.3020
 7810SOL    HW134889   1.401   2.018  16.542  2.8593  2.4381  0.3610
 7810SOL    HW234890   1.420   1.923  16.430 -1.4821  0.4783  0.2360
 7811SOL     OW34891   0.489   3.137  16.057  0.1475  0.2758  0.3549
 7811SOL    HW134892   0.518   3.216  16.104  3.6496  0.9370 -2.9182
 7811SOL    HW234893   0.416   3.169  16.004 -0.2647 -2.3081 -0.6020
 7812SOL     OW34894   2.924   1.113   4.382  0.0558 -0.1410  0.0346
 7812SOL    HW134895   2.980   1.131   4.306 -0.6005 -0.5247 -0.5439
 7812SOL    HW234896   2.954   1.027   4.411 -0.6498  0.3677  2.2775
 7813SOL     OW34897   2.595   2.513  10.560 -0.5100  0.1454  0.6268
 7813SOL    HW134898   2.679   2.479  10.528 -0.7334  0.9448 -0.8011
 7813SOL    HW234899   2.547   2.431  10.570  0.9660 -0.6728  1.0735
 7814SOL     OW34900   4.666   2.328  14.255 -0.2018 -0.2264 -0.1737
 7814SOL    HW134901   0.005   2.279  14.204  1.4210  0.0673  1.5628
 7814SOL    HW234902   4.626   2.263  14.312  0.5219  1.7057  2.5414
 7815SOL     OW34903   3.880   1.170   1.276  0.2244  0.0615  0.2136
 7815SOL    HW134904   3.883   1.133   1.364 -1.3789  2.6160  1.3183
 7815SOL    HW234905   3.790   1.202   1.266  0.7441  1.1995 -0.7268
 7816SOL     OW34906   2.959   0.300   8.533  0.1774 -0.2345  0.4728
 7816SOL    HW134907   2.933   0.321   8.443  2.1568 -1.4233 -0.4051
 7816SOL    HW234908   2.928   0.209   8.541 -0.3184  0.0859  2.1652
 7817SOL     OW34909   3.885   2.693   6.416 -0.2003  0.2613  0.0163
 7817SOL    HW134910   3.894   2.784   6.386  1.1345  0.1622  0.1078
 7817SOL    HW234911   3.815   2.713   6.478  1.4207  0.9824  1.6017
 7818SOL     OW34912   1.908   2.335  17.082  0.1773  0.6204  0.6148
 7818SOL    HW134913   1.954   2.253  17.098 -0.7650  0.0705  0.4546
 7818SOL    HW234914   1.860   2.319  17.001 -0.5986 -0.5050  1.3038
 7819SOL     OW34915   0.636   1.740   2.232 -0.2117  0.2062 -0.2830
 7819SOL    HW134916   0.649   1.766   2.141 -0.0830 -0.8463 -0.5659
 7819SOL    HW234917   0.570   1.671   2.224  0.9916 -0.8915 -0.7899
 7820SOL     OW34918   2.556   3.496   6.466  0.1767  0.3084 -0.4910
 7820SOL    HW134919   2.647   3.469   6.451  0.8380  0.9765  2.2325
 7820SOL    HW234920   2.513   3.509   6.382  0.4735  3.2392 -0.1633
 7821SOL     OW34921   0.398   1.781   6.813 -0.0089 -0.1206  0.0381
 7821SOL    HW134922   0.437   1.868   6.821  1.6041 -0.6933 -1.5989
 7821SOL    HW234923   0.314   1.790   6.859  0.1386 -0.4469  0.3766
 7822SOL     OW34924   2.729   4.689   8.882 -0.2663  0.1925  0.3224
 7822SOL    HW134925   2.707   4.621   8.947 -1.1048  1.4661  1.3660
 7822SOL    HW234926   2.694   0.043   8.925 -2.6300  0.0756 -1.4154
 7823SOL     OW34927   1.118   4.160   6.387 -0.0596  0.0836 -0.0693
 7823SOL    HW134928   1.060   4.235   6.377  0.7358  0.8981  1.2961
 7823SOL    HW234929   1.078   4.116   6.462  0.3593 -0.2450 -0.0372
 7824SOL     OW34930   2.178   0.658   9.140 -0.1699  0.1627 -0.6275
 7824SOL    HW134931   2.122   0.671   9.063  0.9106 -0.6102 -1.5537
 7824SOL    HW234932   2.144   0.721   9.203  1.9258 -1.2562  1.9024
 7825SOL     OW34933   0.562   1.395   6.529 -0.0701  0.2857  0.1986
 7825SOL    HW134934   0.513   1.423   6.606  0.2279 -0.5146  0.6842
 7825SOL    HW234935   0.582   1.481   6.494  1.2844  0.3536  1.1622
 7826SOL     OW34936   0.869   0.930  15.326 -0.1868 -0.6031  0.4327
 7826SOL    HW134937   0.927   0.951  15.399  1.5956 -4.5391  0.1738
 7826SOL    HW234938   0.932   0.892  15.264  1.2911 -0.4988  1.8507
 7827SOL     OW34939   4.102   1.541   7.418  0.2448  0.0326  0.4078
 7827SOL    HW134940   4.090   1.561   7.511  0.4039 -0.8477  0.6228
 7827SOL    HW234941   4.190   1.573   7.397 -0.6430  2.7629  0.9813
 7828SOL     OW34942   3.641   2.738   8.207 -0.3191  0.1167 -0.7250
 7828SOL    HW134943   3.633   2.702   8.119  1.2809 -0.9467 -0.4408
 7828SOL    HW234944   3.620   2.830   8.192 -0.9472  0.3808  1.7156
 7829SOL     OW34945   2.137   2.690   4.588  0.4868  0.4568  0.3494
 7829SOL    HW134946   2.074   2.760   4.600  0.1292  0.4417 -1.3457
 7829SOL    HW234947   2.109   2.655   4.503  0.7994 -0.4874  0.6283
 7830SOL     OW34948   1.361   1.197   6.796  0.6309  0.0240  0.2960
 7830SOL    HW134949   1.323   1.117   6.831  2.1131 -0.5971  0.4541
 7830SOL    HW234950   1.443   1.160   6.763  0.1730  0.2937 -1.1181
 7831SOL     OW34951   3.817   1.327  13.631 -0.0648 -0.9725  0.1351
 7831SOL    HW134952   3.852   1.395  13.688 -1.4126 -0.0026 -0.2052
 7831SOL    HW234953   3.853   1.363  13.550  2.3999  1.0027  2.1014
 7832SOL     OW34954   4.716   1.214  14.162  0.0056 -0.1785  0.1878
 7832SOL    HW134955   0.071   1.166  14.181 -0.2381 -0.8356 -0.4300
 7832SOL    HW234956   4.662   1.197  14.239  1.5325 -2.5686  0.7248
 7833SOL     OW34957   2.439   1.880  16.786 -0.0265  0.1059 -0.2335
 7833SOL    HW134958   2.520   1.924  16.762  0.4202 -0.3208  0.4802
 7833SOL    HW234959   2.461   1.890  16.879  2.0745  1.2366 -0.8610
 7834SOL     OW34960   4.650   2.403  11.668  0.0461  0.2021 -0.1693
 7834SOL    HW134961   4.597   2.426  11.592 -3.4903 -0.2985  2.1831
 7834SOL    HW234962   4.682   2.489  11.695 -0.7098  0.8654 -1.4031
 7835SOL     OW34963   1.381   0.875  14.648 -0.0339  0.5265  0.2593
 7835SOL    HW134964   1.427   0.837  14.573 -0.0932  2.5751 -0.8258
 7835SOL    HW234965   1.365   0.962  14.612  0.1773  0.1597 -0.7284
 7836SOL     OW34966   1.026   1.983   7.667 -0.2235 -0.1033 -0.1397
 7836SOL    HW134967   1.122   1.979   7.666 -0.4096 -4.2291 -1.8053
 7836SOL    HW234968   1.001   2.033   7.745 -0.0879 -0.4478  0.1293
 7837SOL     OW34969   0.257   4.460   9.008 -0.1418  0.7362  0.1494
 7837SOL    HW134970   0.310   4.521   8.957 -1.2443  0.1461 -1.6956
 7837SOL    HW234971   0.321   4.424   9.070  0.1676 -0.8323 -1.0790
 7838SOL     OW34972   3.145   3.129   7.617 -0.0193 -0.5340  0.0734
 7838SOL    HW134973   3.120   3.203   7.562 -3.4277 -0.9422  1.0887
 7838SOL    HW234974   3.187   3.064   7.561  1.4846  0.3308  0.1937
 7839SOL     OW34975   0.492   2.876   0.971  0.9178 -0.0535 -0.6677
 7839SOL    HW134976   0.559   2.853   1.035 -0.1251 -0.9085  0.1097
 7839SOL    HW234977   0.435   2.801   0.987  1.0945 -0.8628 -3.8976
 7840SOL     OW34978   1.759   3.798   2.887  0.1348 -0.2743 -0.1935
 7840SOL    HW134979   1.737   3.765   2.800  0.2443  0.2436 -0.4158
 7840SOL    HW234980   1.802   3.722   2.924 -0.4422 -1.4794 -1.9919
 7841SOL     OW34981   0.135   3.002   4.268  0.0881  0.0978 -0.0257
 7841SOL    HW134982   0.108   3.069   4.331 -1.0639 -0.4449  0.0596
 7841SOL    HW234983   0.072   2.931   4.278  1.2012 -0.8259  0.4021
 7842SOL     OW34984   4.632   1.387  13.367  0.6884 -0.2015 -0.3779
 7842SOL    HW134985   4.700   1.422  13.310 -2.5489  3.8330 -1.7901
 7842SOL    HW234986   4.584   1.466  13.394  0.6180 -0.0529 -0.9523
 7843SOL     OW34987   3.616   3.458  13.164  0.0140  0.2756 -0.0778
 7843SOL    HW134988   3.548   3.521  13.191 -1.0019 -0.9156  0.1241
 7843SOL    HW234989   3.664   3.508  13.098  0.3055 -1.0261 -0.8400
 7844SOL     OW34990   1.744   1.165   4.022 -0.0063  0.4460  0.2636
 7844SOL    HW134991   1.812   1.186   3.958 -0.7328 -0.8482 -0.9395
 7844SOL    HW234992   1.698   1.091   3.983  0.4346  1.5505 -2.3315
 7845SOL     OW34993   3.225   2.321   6.865 -0.6356  0.1474  0.8277
 7845SOL    HW134994   3.267   2.315   6.951 -1.7813  3.0346  1.5931
 7845SOL    HW234995   3.263   2.405   6.839  1.2291 -0.2699  2.2051
 7846SOL     OW34996   3.161   2.996   2.205  0.2096  0.0784 -0.4993
 7846SOL    HW134997   3.212   3.066   2.164 -0.8267  1.5412  0.6648
 7846SOL    HW234998   3.074   3.035   2.199 -0.3858 -0.5325  3.8884
 7847SOL     OW34999   2.410   0.926   8.512  0.2365 -0.5126  0.6562
 7847SOL    HW135000   2.458   0.934   8.595  0.6651  1.4359  0.2108
 7847SOL    HW235001   2.476   0.886   8.455 -0.5302 -1.2688  0.3004
 7848SOL     OW35002   0.535   2.093   6.316  0.2183  0.5355  0.4321
 7848SOL    HW135003   0.481   2.165   6.350 -0.5338 -0.9272  2.3122
 7848SOL    HW235004   0.617   2.142   6.310 -0.3290  1.6434  2.1046
 7849SOL     OW35005   1.100   0.421  17.052 -0.3034 -0.1413  0.1541
 7849SOL    HW135006   1.147   0.414  16.969 -0.5763 -0.5843  0.0359
 7849SOL    HW235007   1.126   0.340  17.094 -1.9714  0.5890  2.5784
 7850SOL     OW35008   3.043   1.026  14.532  0.2810 -0.4857 -0.3566
 7850SOL    HW135009   2.974   1.037  14.466  0.5320 -2.3493 -0.9256
 7850SOL    HW235010   3.116   1.065  14.483  1.8384 -1.5858  1.0986
 7851SOL     OW35011   3.064   2.829   3.256  0.4314  0.3543 -0.2824
 7851SOL    HW135012   3.150   2.862   3.279  0.3727  0.1711  0.1850
 7851SOL    HW235013   3.013   2.844   3.335 -0.8378 -3.5363 -0.3839
 7852SOL     OW35014   3.210   3.327   8.013 -0.3287 -0.0420 -0.1843
 7852SOL    HW135015   3.305   3.315   8.018 -0.1058  1.3770 -1.0425
 7852SOL    HW235016   3.193   3.246   8.061  1.9757 -0.0173  0.6903
 7853SOL     OW35017   4.007   1.848  13.799 -0.2705 -0.4306 -0.3513
 7853SOL    HW135018   4.032   1.842  13.707  1.1197 -0.7974  0.0565
 7853SOL    HW235019   3.948   1.923  13.795 -0.8850 -0.8604  0.6626
 7854SOL     OW35020   0.615   2.978   8.964  0.4942  0.5890  0.4286
 7854SOL    HW135021   0.629   2.965   9.058 -0.3757  0.0182  0.4820
 7854SOL    HW235022   0.569   2.896   8.945  0.3767  0.5656  0.8030
 7855SOL     OW35023   2.658   3.563   0.053  0.5171  0.2633 -0.0712
 7855SOL    HW135024   2.724   3.519  17.698  1.0764 -0.7911  1.4328
 7855SOL    HW235025   2.683   3.527   0.138 -0.1066 -3.4318 -1.4537
 7856SOL     OW35026   0.091   3.985   6.848  0.0003 -0.2989  0.7464
 7856SOL    HW135027   0.034   3.952   6.917 -0.9619  2.1234  1.0854
 7856SOL    HW235028   0.042   4.051   6.800 -0.6579 -0.8926  0.6001
 7857SOL     OW35029   0.074   3.970  15.929 -0.0708 -0.6189  0.5685
 7857SOL    HW135030   0.018   3.984  15.853  2.1438  2.3012 -0.5309
 7857SOL    HW235031   0.041   4.030  15.996  0.9435 -1.1756  1.5587
 7858SOL     OW35032   3.723   4.443  15.142  0.2790 -0.0588  0.2182
 7858SOL    HW135033   3.813   4.444  15.176  0.3017 -1.6140  0.2105
 7858SOL    HW235034   3.743   4.445  15.048 -0.3185 -0.7394  0.0723
 7859SOL     OW35035   3.632   0.998   7.180 -0.2182  0.7020  0.2261
 7859SOL    HW135036   3.584   0.995   7.262  0.2946 -2.1331  0.4134
 7859SOL    HW235037   3.581   0.957   7.110  2.0456 -1.6429 -0.0126
 7860SOL     OW35038   3.918   0.353   2.775  0.8367  0.2105  0.1330
 7860SOL    HW135039   3.859   0.365   2.700  1.8527 -1.7958 -0.9889
 7860SOL    HW235040   3.940   0.443   2.798  1.3643  0.3216 -0.8529
 7861SOL     OW35041   2.567   3.545  16.754 -0.0136  0.2654 -0.1759
 7861SOL    HW135042   2.489   3.494  16.772  1.1262 -1.4936 -0.2537
 7861SOL    HW235043   2.530   3.604  16.687  1.1214 -0.0917 -1.1215
 7862SOL     OW35044   4.561   0.769   3.225  0.2818  0.0130  0.4717
 7862SOL    HW135045   4.618   0.743   3.297  0.2918 -1.1133  0.0617
 7862SOL    HW235046   4.615   0.825   3.168  1.0396 -1.5826 -0.3790
 7863SOL     OW35047   0.519   0.115   8.648 -0.0136  0.6694 -0.4866
 7863SOL    HW135048   0.563   0.170   8.583  1.0057 -0.2157 -0.5615
 7863SOL    HW235049   0.596   0.058   8.657  0.3958  1.5260  1.5550
 7864SOL     OW35050   0.209   3.243   2.411 -0.4084 -0.3866 -0.1791
 7864SOL    HW135051   0.289   3.214   2.367  0.5073  1.2563  0.3936
 7864SOL    HW235052   0.234   3.317   2.466 -1.6471  0.8648 -1.2724
 7865SOL     OW35053   0.537   2.613   8.424 -0.3551 -0.2937 -0.2674
 7865SOL    HW135054   0.628   2.584   8.410  0.0459  0.7289  0.2453
 7865SOL    HW235055   0.538   2.708   8.412 -0.5191 -0.4053 -1.2079
 7866SOL     OW35056   1.204   2.801   0.350 -0.0414  0.1648  0.0187
 7866SOL    HW135057   1.113   2.832   0.345 -0.4860 -1.1588 -0.1071
 7866SOL    HW235058   1.223   2.763   0.265 -1.8005  0.9467 -0.7190
 7867SOL     OW35059   3.840   3.003   8.497  0.4124 -0.1307  0.2470
 7867SOL    HW135060   3.873   2.942   8.562  1.1545  1.3401  1.2316
 7867SOL    HW235061   3.920   3.001   8.444  1.6915  0.2020  2.1857
 7868SOL     OW35062   3.367   0.738   1.974  0.0736 -0.3416 -0.4268
 7868SOL    HW135063   3.451   0.691   1.970 -0.0255 -0.6816  1.4044
 7868SOL    HW235064   3.373   0.789   2.055  0.0591  0.5651 -1.0003
 7869SOL     OW35065   2.131   3.734   1.982 -0.1974  0.2423  0.2140
 7869SOL    HW135066   2.113   3.701   2.070  1.3957 -1.0329  0.0674
 7869SOL    HW235067   2.041   3.724   1.950 -0.9011  3.1435  1.2336
 7870SOL     OW35068   4.289   0.404  11.070  0.4625 -0.7610 -0.6411
 7870SOL    HW135069   4.373   0.442  11.096  1.3408 -1.8991 -1.7796
 7870SOL    HW235070   4.298   0.325  11.123 -0.6625 -0.8094 -0.5284
 7871SOL     OW35071   3.585   3.231   7.078 -0.2977 -0.0828 -0.0212
 7871SOL    HW135072   3.675   3.259   7.091  0.2867 -0.3794 -3.5422
 7871SOL    HW235073   3.589   3.137   7.064  0.0696  0.4798 -3.5324
 7872SOL     OW35074   4.104   4.083  15.564  0.1626  0.6703 -0.3020
 7872SOL    HW135075   4.172   4.132  15.517 -0.1181  0.0745 -1.3337
 7872SOL    HW235076   4.172   4.027  15.602  0.2978  0.4530 -0.8612
 7873SOL     OW35077   1.950   3.506  16.284  0.6210 -0.5154  0.1053
 7873SOL    HW135078   1.875   3.460  16.246 -0.7334  1.9759 -0.2202
 7873SOL    HW235079   1.900   3.588  16.285  2.1056  0.4135 -1.4788
 7874SOL     OW35080   3.023   0.005   9.114 -0.3818  0.1775  0.2285
 7874SOL    HW135081   2.957   0.073   9.100  0.5063  0.4061 -2.8808
 7874SOL    HW235082   3.099   0.063   9.111 -1.2369  1.4546  3.1585
 7875SOL     OW35083   4.509   0.615   4.688 -0.3673 -0.2663  0.2914
 7875SOL    HW135084   4.501   0.535   4.636 -0.8773 -1.0647  1.6058
 7875SOL    HW235085   4.488   0.684   4.625 -2.3802 -0.5202  0.6567
 7876SOL     OW35086   0.805   1.647  11.996 -0.1821  0.6554  0.4034
 7876SOL    HW135087   0.884   1.595  11.984 -0.9324 -0.6516  1.1586
 7876SOL    HW235088   0.789   1.667  11.903  0.5576 -2.7410 -0.4488
 7877SOL     OW35089   3.261   3.722   7.155 -0.4539 -0.2269 -0.1202
 7877SOL    HW135090   3.187   3.736   7.215  0.0413  0.5918  0.2988
 7877SOL    HW235091   3.263   3.626   7.148  0.9992 -0.2879  1.2483
 7878SOL     OW35092   3.290   3.710  16.519 -0.7256  0.2497 -0.2898
 7878SOL    HW135093   3.306   3.758  16.438 -0.4145 -0.1955 -0.4921
 7878SOL    HW235094   3.265   3.778  16.581  2.9581  0.1176  1.3071
 7879SOL     OW35095   0.261   1.449   6.150  0.0389 -0.3167 -0.1363
 7879SOL    HW135096   0.194   1.381   6.135  0.0885 -0.1730 -0.9931
 7879SOL    HW235097   0.296   1.452   6.062 -0.1367  0.6703 -0.1701
 7880SOL     OW35098   2.861   1.389   0.806 -0.5175 -0.2907 -0.5158
 7880SOL    HW135099   2.909   1.307   0.815  2.0583  1.0227 -2.3938
 7880SOL    HW235100   2.838   1.400   0.898  1.9332  1.8906 -0.1598
 7881SOL     OW35101   2.214   2.905   8.000  0.1695 -0.0781  0.3615
 7881SOL    HW135102   2.138   2.961   8.017  2.1236  2.4005  1.0455
 7881SOL    HW235103   2.195   2.846   7.927  1.2285  1.4979 -1.2001
 7882SOL     OW35104   3.426   0.885   5.806 -0.7779 -0.3662  0.1367
 7882SOL    HW135105   3.518   0.869   5.785  0.4147  1.9933  3.5604
 7882SOL    HW235106   3.433   0.875   5.901 -0.7859  1.4852  0.3353
 7883SOL     OW35107   4.590   0.870   2.648 -0.3912 -0.4771 -0.0168
 7883SOL    HW135108   4.650   0.902   2.715  0.4218  4.2334 -2.9686
 7883SOL    HW235109   4.631   0.907   2.569  2.1884 -0.4108  1.3511
 7884SOL     OW35110   0.539   4.417   9.069 -0.3223  0.4931 -0.3137
 7884SOL    HW135111   0.508   4.508   9.077 -1.3867 -0.2130  3.5333
 7884SOL    HW235112   0.603   4.438   9.001  1.1187 -1.0337  0.5825
 7885SOL     OW35113   2.944   2.531  16.629 -0.1684  0.3460  0.0209
 7885SOL    HW135114   2.984   2.565  16.709  0.0993  0.4527 -0.1607
 7885SOL    HW235115   2.982   2.593  16.567 -0.2932 -0.1562 -0.5636
 7886SOL     OW35116   4.239   1.926  14.950 -0.2376  0.8645  0.4090
 7886SOL    HW135117   4.254   1.840  14.991  1.1168  1.4437  1.1381
 7886SOL    HW235118   4.192   1.902  14.870 -0.9281 -0.7857  1.3091
 7887SOL     OW35119   1.464   3.882   6.317  0.2516  0.0925  0.5982
 7887SOL    HW135120   1.382   3.854   6.358 -1.0437  0.8875 -1.4874
 7887SOL    HW235121   1.481   3.966   6.360 -0.9669 -0.1417  1.5677
 7888SOL     OW35122   2.046   0.157  11.724 -0.9769  0.0281 -0.5221
 7888SOL    HW135123   2.019   0.247  11.703  0.5558  0.8567  1.0629
 7888SOL    HW235124   2.136   0.180  11.749 -1.0234 -3.1163  2.3838
 7889SOL     OW35125   1.237   0.635   7.320 -0.6600  0.5406 -0.4059
 7889SOL    HW135126   1.144   0.631   7.342 -0.3837  2.1285  0.9996
 7889SOL    HW235127   1.256   0.542   7.329 -1.0997  0.2528 -2.3693
 7890SOL     OW35128   4.102   4.563  14.917  0.5678 -0.1759 -0.0383
 7890SOL    HW135129   4.167   4.526  14.858 -0.5200 -0.6742 -0.9209
 7890SOL    HW235130   4.143   4.575  15.003  0.4776 -2.1971  0.2973
 7891SOL     OW35131   0.093   3.560   8.293 -0.2578  0.0928 -0.5295
 7891SOL    HW135132   0.044   3.478   8.300 -1.4352  0.8236 -0.2006
 7891SOL    HW235133   0.101   3.576   8.387 -2.4809 -0.4937 -0.2556
 7892SOL     OW35134   3.908   2.087   7.027  0.7181 -0.7619  0.2730
 7892SOL    HW135135   3.870   2.003   7.050 -1.3666 -0.0245 -0.4099
 7892SOL    HW235136   3.831   2.141   7.006  1.6173  0.5897  0.4391
 7893SOL     OW35137   2.474   2.393   8.727  0.3374  0.1018  0.0879
 7893SOL    HW135138   2.419   2.413   8.651  1.1435  0.1399 -0.4913
 7893SOL    HW235139   2.443   2.307   8.755  2.4797 -1.1430 -1.3590
 7894SOL     OW35140   2.981   3.819   9.392  0.0390  0.0840  0.3645
 7894SOL    HW135141   3.024   3.831   9.307  0.5365 -0.9072  0.4851
 7894SOL    HW235142   2.892   3.809   9.358  0.4984 -1.8997 -0.2504
 7895SOL     OW35143   2.469   0.371   2.922  0.2312  0.3188  0.3038
 7895SOL    HW135144   2.560   0.357   2.947  0.6657  0.2124 -1.2835
 7895SOL    HW235145   2.456   0.310   2.849  1.7460 -0.9129  1.0715
 7896SOL     OW35146   2.215   3.859   3.447 -0.1853  0.0007 -0.1632
 7896SOL    HW135147   2.281   3.880   3.513  1.1338  3.0577 -2.4675
 7896SOL    HW235148   2.267   3.841   3.369  0.8337 -1.9850  0.9809
 7897SOL     OW35149   1.094   1.182  15.760 -0.3782  0.1801  0.1233
 7897SOL    HW135150   1.070   1.151  15.847  0.0262  1.0427  0.5436
 7897SOL    HW235151   1.182   1.210  15.783  0.0393 -0.3201 -0.8867
 7898SOL     OW35152   1.904   1.284  10.270  0.3337 -0.7653 -0.0299
 7898SOL    HW135153   1.958   1.338  10.212  0.1070  1.6077  1.9653
 7898SOL    HW235154   1.924   1.200  10.228 -0.2985 -0.6248 -0.6031
 7899SOL     OW35155   0.976   2.538   0.705 -0.1542 -0.4588 -0.6997
 7899SOL    HW135156   1.069   2.560   0.708 -0.4846  0.9605 -0.7164
 7899SOL    HW235157   0.938   2.607   0.651 -1.3706  1.3109  2.3796
 7900SOL     OW35158   1.340   4.167   1.378 -0.6318 -0.0332  0.7288
 7900SOL    HW135159   1.379   4.182   1.291 -0.7251 -0.1022  0.6749
 7900SOL    HW235160   1.340   4.256   1.413  1.3699  1.2769 -2.6072
 7901SOL     OW35161   4.673   1.111   8.791  0.4826 -0.1816 -0.1805
 7901SOL    HW135162   4.636   1.030   8.759 -1.0253 -0.0072  1.1218
 7901SOL    HW235163   4.610   1.171   8.751 -1.1382 -2.5342 -1.1058
 7902SOL     OW35164   4.099   2.113   1.723 -0.5067 -0.1994 -0.2576
 7902SOL    HW135165   4.087   2.207   1.709  0.6882 -0.2053 -1.2387
 7902SOL    HW235166   4.022   2.072   1.683 -0.3277  1.0338 -1.8473
 7903SOL     OW35167   4.679   0.138   5.093 -0.0157  0.1612  0.2747
 7903SOL    HW135168   4.670   0.128   5.188 -1.0194 -2.8186 -0.1388
 7903SOL    HW235169   4.663   0.049   5.063  1.1452 -0.4681  1.5359
 7904SOL     OW35170   3.430   1.992   2.943 -0.4740  0.0495  0.2964
 7904SOL    HW135171   3.427   1.908   2.988 -0.3719  0.5167  1.1856
 7904SOL    HW235172   3.447   1.964   2.854 -0.5040  0.4471  0.1653
 7905SOL     OW35173   1.814   1.073   6.739  0.0826 -0.2469  0.3533
 7905SOL    HW135174   1.756   1.110   6.673  0.0323  2.0844  1.7158
 7905SOL    HW235175   1.891   1.125   6.716  1.0259 -0.8704  2.0486
 7906SOL     OW35176   1.913   3.261   6.747 -0.4876 -0.1329  0.3112
 7906SOL    HW135177   1.861   3.279   6.825  0.8587  1.5555  0.8026
 7906SOL    HW235178   1.983   3.325   6.759 -1.2588  0.7431  0.1113
 7907SOL     OW35179   1.698   2.597   1.708  0.1509 -0.0173  0.0473
 7907SOL    HW135180   1.755   2.673   1.722 -0.3115  0.2523  0.4547
 7907SOL    HW235181   1.617   2.645   1.727 -0.1547 -0.1017 -1.0344
 7908SOL     OW35182   0.687   2.853   5.619  0.0544 -0.0973  0.7223
 7908SOL    HW135183   0.621   2.785   5.632 -2.0909  1.5074 -1.5613
 7908SOL    HW235184   0.759   2.800   5.584 -0.1201  0.1291  0.0117
 7909SOL     OW35185   2.172   1.813   8.067 -0.2544  0.7367  0.9052
 7909SOL    HW135186   2.102   1.876   8.088 -0.3734  0.3722  1.5831
 7909SOL    HW235187   2.215   1.807   8.152  0.4541 -0.3631  0.4572
 7910SOL     OW35188   1.645   0.796  13.612  0.1677 -0.9446 -0.5615
 7910SOL    HW135189   1.690   0.862  13.666 -1.5907 -0.9039  0.8559
 7910SOL    HW235190   1.659   0.835  13.526  1.1766  2.4128  1.0960
 7911SOL     OW35191   0.210   1.601  10.448 -0.0352 -0.3736  0.0973
 7911SOL    HW135192   0.238   1.634  10.533  1.6252 -0.4409 -0.4137
 7911SOL    HW235193   0.292   1.574  10.405  1.2088  1.5479  1.2293
 7912SOL     OW35194   2.907   4.020  10.599 -0.8975  0.3581  0.0588
 7912SOL    HW135195   2.915   4.092  10.662  1.5240 -1.8078  2.2067
 7912SOL    HW235196   2.969   4.047  10.531  2.5464 -0.3978  2.9058
 7913SOL     OW35197   4.345   2.672   1.997  0.4381  0.5475  0.0971
 7913SOL    HW135198   4.360   2.606   1.929 -0.4426  1.2663 -0.7928
 7913SOL    HW235199   4.395   2.624   2.064  0.0743  0.8606  0.5894
 7914SOL     OW35200   4.031   0.661  15.592 -0.4386  0.5921 -0.2980
 7914SOL    HW135201   4.034   0.590  15.656  1.2764  1.5876  0.7250
 7914SOL    HW235202   4.014   0.609  15.514 -3.6801 -0.2627  0.9368
 7915SOL     OW35203   4.163   0.156   9.132  0.1528 -0.3124 -0.6138
 7915SOL    HW135204   4.246   0.182   9.171 -1.1554 -0.4259  2.2387
 7915SOL    HW235205   4.193   0.075   9.091  0.3140 -0.1269 -0.8608
 7916SOL     OW35206   2.847   4.395  13.485  0.6228 -0.0660 -0.0230
 7916SOL    HW135207   2.780   4.344  13.531  0.8213  1.9242  2.4583
 7916SOL    HW235208   2.856   4.346  13.404 -1.7828  0.0500 -0.3704
 7917SOL     OW35209   1.149   2.161   8.232 -0.0501  0.2497 -0.1272
 7917SOL    HW135210   1.236   2.121   8.234  0.6123  1.7772  1.4192
 7917SOL    HW235211   1.131   2.183   8.324  2.5787 -0.6808  0.5956
 7918SOL     OW35212   1.000   2.987  15.139  0.4044 -0.1710  0.2064
 7918SOL    HW135213   0.974   3.068  15.184 -1.4475 -0.0331 -1.1041
 7918SOL    HW235214   1.030   3.011  15.051 -1.3277  1.8336  0.1539
 7919SOL     OW35215   3.188   4.270   4.258  0.0972 -0.2111 -0.2464
 7919SOL    HW135216   3.146   4.204   4.204  0.6962  0.1885 -1.1995
 7919SOL    HW235217   3.266   4.298   4.209 -0.4452  0.4726 -0.7114
 7920SOL     OW35218   2.879   1.913   7.504 -0.0770 -0.0990  0.4677
 7920SOL    HW135219   2.850   1.918   7.413  0.8885 -0.1393  0.1478
 7920SOL    HW235220   2.973   1.930   7.493 -0.6323  1.7247 -1.5539
 7921SOL     OW35221   4.538   2.445   3.176 -0.3053  0.1253 -0.2353
 7921SOL    HW135222   4.443   2.456   3.168  0.0404  3.7740  0.7936
 7921SOL    HW235223   4.556   2.518   3.236  0.4622 -1.1554  1.0893
 7922SOL     OW35224   3.584   3.318   1.724  0.2140  0.2745  0.2523
 7922SOL    HW135225   3.522   3.318   1.796  1.8067 -3.3397  1.6196
 7922SOL    HW235226   3.631   3.398   1.750 -1.5392  1.6898 -0.8984
 7923SOL     OW35227   0.473   3.276   3.501  0.2343  0.8078  0.4022
 7923SOL    HW135228   0.438   3.188   3.515 -1.6466  1.2687 -1.3998
 7923SOL    HW235229   0.563   3.258   3.472 -0.0520  0.7325 -0.4256
 7924SOL     OW35230   4.677   0.594   8.782 -0.1500 -0.1550  0.6131
 7924SOL    HW135231   0.021   0.653   8.813  0.4241  0.0491 -1.0051
 7924SOL    HW235232   4.604   0.603   8.843  0.8710 -0.7523  1.8972
 7925SOL     OW35233   3.622   2.460   4.397 -0.4038 -0.1962  0.7435
 7925SOL    HW135234   3.552   2.517   4.429 -1.0243 -1.6738  2.0085
 7925SOL    HW235235   3.570   2.382   4.374  0.9434 -0.3288 -1.9215
 7926SOL     OW35236   1.868   3.008   2.959 -0.1061  0.2873  0.0714
 7926SOL    HW135237   1.813   3.068   3.010  0.6445  2.4686 -1.7567
 7926SOL    HW235238   1.864   2.929   3.013 -0.5160 -0.3431 -0.8858
 7927SOL     OW35239   0.779   0.028   7.094  0.2325  0.4713 -0.4007
 7927SOL    HW135240   0.694   4.712   7.112 -0.3314  1.6498 -0.4480
 7927SOL    HW235241   0.830   4.690   7.145 -1.7639 -0.0991  0.9034
 7928SOL     OW35242   0.254   3.399   7.263  0.4406 -0.3173 -0.1456
 7928SOL    HW135243   0.249   3.312   7.301 -2.9864  0.7249  1.7292
 7928SOL    HW235244   0.334   3.443   7.293  0.7449 -0.9053 -0.1071
 7929SOL     OW35245   1.294   3.506  12.849 -0.3772 -0.9847 -0.3397
 7929SOL    HW135246   1.291   3.584  12.793 -0.6263 -1.1484 -0.5554
 7929SOL    HW235247   1.201   3.485  12.850 -0.6642  0.3438  0.5983
 7930SOL     OW35248   0.301   2.973   1.587  0.9755 -0.1798  0.3755
 7930SOL    HW135249   0.359   3.049   1.593 -1.3640  1.6223  0.4051
 7930SOL    HW235250   0.230   3.016   1.538  1.8408  0.5976 -0.2124
 7931SOL     OW35251   1.035   2.454   2.253 -0.0082  0.0144  0.4474
 7931SOL    HW135252   1.081   2.482   2.174 -1.9267  1.5697 -0.1029
 7931SOL    HW235253   0.958   2.415   2.211 -0.0423  0.7788 -0.2093
 7932SOL     OW35254   2.378   4.178   8.187  0.1208 -0.0367  0.5188
 7932SOL    HW135255   2.470   4.198   8.205 -0.0861  1.9003 -0.4846
 7932SOL    HW235256   2.348   4.144   8.271  1.3590  1.3260  1.5097
 7933SOL     OW35257   3.962   2.850   5.681  0.0582 -0.2322  0.3149
 7933SOL    HW135258   3.868   2.864   5.665 -0.0891 -0.5518  0.8579
 7933SOL    HW235259   4.003   2.903   5.614 -0.4333  1.2995  1.2255
 7934SOL     OW35260   1.034   4.645  16.820  0.0730 -0.1481 -0.1507
 7934SOL    HW135261   0.998   0.009  16.822 -2.3049 -1.1593  2.1006
 7934SOL    HW235262   0.960   4.598  16.858 -0.9452  0.1155 -1.8469
 7935SOL     OW35263   2.514   3.659   7.287 -0.1605  0.6321  0.0987
 7935SOL    HW135264   2.430   3.620   7.262  0.5690 -1.1061  0.3987
 7935SOL    HW235265   2.573   3.594   7.248 -0.1005  1.4963 -1.2689
 7936SOL     OW35266   1.252   4.276  13.454  0.5718  0.4180  0.5191
 7936SOL    HW135267   1.197   4.349  13.424 -0.4887 -0.2647  0.7865
 7936SOL    HW235268   1.182   4.212  13.465 -0.0837  1.2664  1.3525
 7937SOL     OW35269   3.295   0.036  15.118  0.2150  0.1597 -0.7220
 7937SOL    HW135270   3.268   0.123  15.148  0.1675 -0.7993  1.9880
 7937SOL    HW235271   3.291   0.059  15.025  2.2461  0.7099 -0.6651
 7938SOL     OW35272   4.093   0.195  17.519  0.6349  0.6288 -0.2770
 7938SOL    HW135273   4.051   0.262  17.466 -1.1510 -0.5646 -0.3755
 7938SOL    HW235274   4.030   0.196  17.590  1.4703 -0.8436  0.4954
 7939SOL     OW35275   2.337   3.720   6.526  0.1099  0.2749 -0.4791
 7939SOL    HW135276   2.302   3.640   6.565 -1.2740  0.3585 -1.5511
 7939SOL    HW235277   2.342   3.702   6.433 -3.2327  1.5932 -0.9294
 7940SOL     OW35278   4.297   1.917   1.848 -0.0667 -0.0031 -0.0781
 7940SOL    HW135279   4.227   1.973   1.815  0.3263  0.6811  0.2360
 7940SOL    HW235280   4.258   1.874   1.923  1.0539 -0.2068  0.3919
 7941SOL     OW35281   0.572   2.530   0.956 -0.1343  0.2768  0.1471
 7941SOL    HW135282   0.660   2.567   0.949  0.6873 -1.8164 -0.7676
 7941SOL    HW235283   0.540   2.516   0.866 -1.4979  0.8918  0.5508
 7942SOL     OW35284   4.030   1.914   5.478 -0.0994 -0.2622  0.0722
 7942SOL    HW135285   3.953   1.904   5.421 -0.1611 -0.0513  0.1177
 7942SOL    HW235286   4.018   1.984   5.542 -1.6039  0.3159 -0.8318
 7943SOL     OW35287   1.251   1.570   6.917 -0.2947 -0.2722 -0.2112
 7943SOL    HW135288   1.249   1.635   6.847 -0.8618 -1.3698 -1.2107
 7943SOL    HW235289   1.158   1.550   6.907 -0.2119  0.0856 -1.8030
 7944SOL     OW35290   4.361   0.457   5.042  0.6068 -0.1088  0.5920
 7944SOL    HW135291   4.303   0.514   4.991  2.3106 -0.3480 -1.6050
 7944SOL    HW235292   4.290   0.409   5.086  0.3855 -1.3451 -1.0934
 7945SOL     OW35293   1.391   2.112  12.603 -0.2889 -0.1829 -0.2886
 7945SOL    HW135294   1.472   2.106  12.553 -1.2756  0.9660 -2.0424
 7945SOL    HW235295   1.327   2.157  12.547 -0.1698  1.0525  0.5581
 7946SOL     OW35296   1.321   3.312   3.728 -0.0902  1.1193  0.3980
 7946SOL    HW135297   1.241   3.361   3.746 -0.4664  1.6333 -2.7516
 7946SOL    HW235298   1.381   3.357   3.788  2.1001 -0.5083 -0.5583
 7947SOL     OW35299   3.406   2.691   7.021 -0.2740  0.8244  0.2759
 7947SOL    HW135300   3.488   2.703   6.973  0.6681  1.8495  2.1733
 7947SOL    HW235301   3.426   2.615   7.075 -0.2002  1.2005  0.7776
 7948SOL     OW35302   3.308   0.432   4.455  0.0605  0.6764 -0.2877
 7948SOL    HW135303   3.214   0.449   4.459  0.0488  0.1725  1.2423
 7948SOL    HW235304   3.337   0.512   4.498  0.2097  0.5048 -0.0761
 7949SOL     OW35305   0.090   3.029   7.703 -0.2032 -0.0766 -0.7588
 7949SOL    HW135306   0.125   2.955   7.753  3.7796  0.5358 -2.6108
 7949SOL    HW235307   0.166   3.088   7.700 -2.3955  2.8814  1.6261
 7950SOL     OW35308   0.366   2.933   8.209  0.1028 -0.7755 -0.5952
 7950SOL    HW135309   0.361   2.998   8.139  2.7141 -1.1125 -1.1036
 7950SOL    HW235310   0.365   2.849   8.164  0.4444 -0.8849 -0.3962
 7951SOL     OW35311   2.449   1.451   1.777  0.0806 -0.2640  0.1008
 7951SOL    HW135312   2.445   1.542   1.747  0.6061  0.3189  1.7916
 7951SOL    HW235313   2.363   1.436   1.815 -1.1559 -0.5083 -2.8148
 7952SOL     OW35314   1.796   4.670  12.628  0.1381 -0.0495  0.3215
 7952SOL    HW135315   1.773   0.032  12.595  1.2365  0.5969  1.2714
 7952SOL    HW235316   1.753   4.621  12.557 -0.4887 -0.2841  0.8626
 7953SOL     OW35317   1.635   2.459   3.872 -0.4329 -0.3311 -0.0895
 7953SOL    HW135318   1.579   2.420   3.805 -1.1953  1.6805 -0.6217
 7953SOL    HW235319   1.577   2.512   3.926  1.8113  2.3701 -0.3379
 7954SOL     OW35320   1.769   1.087  10.992 -0.0169  0.0031 -0.2292
 7954SOL    HW135321   1.758   1.150  10.920 -1.5345  0.4951  0.4388
 7954SOL    HW235322   1.864   1.075  10.999 -0.2110 -0.5536  1.5720
 7955SOL     OW35323   2.027   1.476   7.619 -0.0162 -0.5247  0.0167
 7955SOL    HW135324   2.106   1.487   7.566 -0.1310 -0.7412 -0.1953
 7955SOL    HW235325   1.983   1.408   7.569 -1.0039  0.7707 -0.8695
 7956SOL     OW35326   1.123   0.999   3.889 -0.2607 -0.2635  0.2387
 7956SOL    HW135327   1.073   0.927   3.851 -1.0319 -0.2257  1.2100
 7956SOL    HW235328   1.196   0.993   3.827 -0.9162 -0.6165 -0.4995
 7957SOL     OW35329   0.763   2.807   1.829 -0.2466  0.0927  0.5504
 7957SOL    HW135330   0.792   2.868   1.896 -0.9481  0.4332  0.5507
 7957SOL    HW235331   0.671   2.830   1.818 -0.0282  0.8393  0.2584
 7958SOL     OW35332   4.100   0.329   2.223 -0.1625 -0.4695  0.6405
 7958SOL    HW135333   4.133   0.243   2.198 -1.1375 -0.4308 -0.7487
 7958SOL    HW235334   4.063   0.301   2.307  2.0573 -2.3941  0.9921
 7959SOL     OW35335   3.442   2.460   4.059 -0.4223 -0.0442  0.6399
 7959SOL    HW135336   3.425   2.367   4.042  1.8296 -0.5921  1.4667
 7959SOL    HW235337   3.380   2.488   4.125 -2.6728 -2.5364 -0.3795
 7960SOL     OW35338   0.300   3.952   3.044  0.4368  0.1736 -0.1688
 7960SOL    HW135339   0.290   4.043   3.017  1.0215  0.7878  1.6856
 7960SOL    HW235340   0.249   3.947   3.125  1.3231 -2.4166  0.2329
 7961SOL     OW35341   2.660   1.405  10.857 -0.4467  0.3420  0.0001
 7961SOL    HW135342   2.581   1.445  10.821 -0.0208  0.4518 -0.8138
 7961SOL    HW235343   2.670   1.327  10.802 -1.4374 -0.2099  0.6112
 7962SOL     OW35344   1.377   0.490   6.212 -0.2368  0.1972 -0.0096
 7962SOL    HW135345   1.467   0.505   6.241 -1.0269  5.4316 -0.3582
 7962SOL    HW235346   1.347   0.418   6.268 -2.3336 -0.6759 -2.2296
 7963SOL     OW35347   3.859   3.982   7.172  0.5155  0.0764  0.3537
 7963SOL    HW135348   3.848   4.043   7.245 -0.8068 -0.5916  0.7010
 7963SOL    HW235349   3.781   3.929   7.180  0.1085  0.5173 -0.7694
 7964SOL     OW35350   4.104   0.720  11.429  0.4106  0.3197  0.3730
 7964SOL    HW135351   4.066   0.782  11.366  0.2368 -2.6176 -2.3896
 7964SOL    HW235352   4.082   0.639  11.383  0.5728 -0.4707  1.6871
 7965SOL     OW35353   3.835   2.607   1.678 -0.3195  0.1706  0.0911
 7965SOL    HW135354   3.898   2.667   1.719 -0.2136 -0.4005  0.7522
 7965SOL    HW235355   3.819   2.544   1.748  1.1182  0.4735  0.6907
 7966SOL     OW35356   2.351   3.910   2.211 -1.0279 -0.2811  0.0327
 7966SOL    HW135357   2.272   3.899   2.264  0.6518 -2.4951  2.0790
 7966SOL    HW235358   2.320   3.868   2.130  2.1161 -2.3980 -0.0484
 7967SOL     OW35359   4.697   1.804   8.827  0.3315 -0.9109  0.4339
 7967SOL    HW135360   4.624   1.861   8.853 -1.6983 -1.4342 -4.0566
 7967SOL    HW235361   0.020   1.872   8.779 -0.7183 -0.4047  0.0982
 7968SOL     OW35362   2.282   3.538   8.557  0.7929  0.0130  0.1759
 7968SOL    HW135363   2.245   3.466   8.506 -0.1342  0.3863  0.3131
 7968SOL    HW235364   2.357   3.566   8.504  0.2483  2.2084  0.5379
 7969SOL     OW35365   1.083   1.522   2.700 -0.3716  0.1240  1.2345
 7969SOL    HW135366   1.086   1.447   2.640 -3.2766  1.1219 -0.1853
 7969SOL    HW235367   1.095   1.598   2.642 -0.8049  0.5982  1.7641
 7970SOL     OW35368   4.098   4.608  17.637 -0.2143  0.2030 -0.0189
 7970SOL    HW135369   4.008   4.600  17.606 -0.6405  0.1251  1.2133
 7970SOL    HW235370   4.123   4.527  17.593 -0.5329  0.3028 -0.3853
 7971SOL     OW35371   3.287   4.540   7.562  0.1421  0.2060  0.3199
 7971SOL    HW135372   3.200   4.507   7.581  0.4736 -0.3070  0.9484
 7971SOL    HW235373   3.324   4.530   7.650 -0.3696 -2.1512  0.2502
 7972SOL     OW35374   4.281   1.516  17.039  0.4715  0.6099  0.0370
 7972SOL    HW135375   4.340   1.445  17.063 -0.1717  0.2897  0.6823
 7972SOL    HW235376   4.241   1.528  17.125 -0.7796  2.5898 -0.8039
 7973SOL     OW35377   4.352   4.306   2.741 -0.4785 -0.5964  0.0583
 7973SOL    HW135378   4.326   4.234   2.684  1.0752 -0.0012 -1.3865
 7973SOL    HW235379   4.400   4.269   2.816 -0.3425  0.8829  0.7005
 7974SOL     OW35380   0.206   0.195   5.213 -0.5313  0.3646  0.3092
 7974SOL    HW135381   0.158   0.263   5.260 -0.8943  0.0590  0.3800
 7974SOL    HW235382   0.183   0.214   5.122 -0.3707  1.3324  0.4735
 7975SOL     OW35383   4.647   2.211  13.367 -0.1000 -0.5937  0.3716
 7975SOL    HW135384   4.695   2.172  13.441  1.7756  1.5233  0.2479
 7975SOL    HW235385   4.576   2.147  13.374 -0.3660 -0.5191 -1.7428
 7976SOL     OW35386   4.621   2.409   7.318 -0.2181 -0.8240  0.0209
 7976SOL    HW135387   4.546   2.379   7.370 -1.2277 -0.6259 -1.3071
 7976SOL    HW235388   4.685   2.408   7.388  1.3723 -1.0115 -1.4269
 7977SOL     OW35389   1.144   4.223  16.636  0.0882 -0.2433 -0.3280
 7977SOL    HW135390   1.087   4.194  16.707 -1.0667  1.5672 -0.5092
 7977SOL    HW235391   1.218   4.164  16.653  0.9260  1.1963  1.0062
 7978SOL     OW35392   0.052   0.462   3.127  0.0075  0.4246  0.3299
 7978SOL    HW135393   0.086   0.420   3.206  2.2939 -0.5795 -1.2047
 7978SOL    HW235394   0.117   0.421   3.071 -1.3691 -1.9696  0.4850
 7979SOL     OW35395   3.914   0.273   6.675  0.1315 -0.5479  0.2475
 7979SOL    HW135396   3.989   0.257   6.733  1.2075  1.4012 -0.6050
 7979SOL    HW235397   3.900   0.182   6.650  0.1666 -0.2873 -0.7270
 7980SOL     OW35398   1.398   3.303  10.043  0.0691  0.5738  0.1121
 7980SOL    HW135399   1.403   3.281  10.136 -0.9894 -0.8407 -0.1564
 7980SOL    HW235400   1.479   3.266  10.010 -0.6035  0.2193 -1.1316
 7981SOL     OW35401   3.153   2.368   3.542  0.1172 -0.0922 -0.4799
 7981SOL    HW135402   3.107   2.295   3.500 -1.0961 -0.2630  1.1512
 7981SOL    HW235403   3.096   2.444   3.534  0.1618 -0.1684 -1.5129
 7982SOL     OW35404   3.495   0.129   8.122 -0.4104 -0.5472  0.0124
 7982SOL    HW135405   3.451   0.063   8.175 -2.5741  0.3221 -0.6989
 7982SOL    HW235406   3.424   0.149   8.061  0.8543 -1.5164 -1.7780
 7983SOL     OW35407   4.092   0.856   9.217 -0.1924 -0.3239 -0.6894
 7983SOL    HW135408   4.094   0.762   9.236  0.4372  0.0450  1.0950
 7983SOL    HW235409   4.163   0.869   9.153 -2.1024  1.5290 -2.4239
 7984SOL     OW35410   0.861   3.949  16.287 -0.0688 -0.2995 -0.2090
 7984SOL    HW135411   0.889   3.932  16.197  0.8761 -1.7648  0.3792
 7984SOL    HW235412   0.815   4.033  16.273  1.3240  0.6647  1.0230
 7985SOL     OW35413   0.423   3.515   5.772 -0.1661  0.6808  0.1261
 7985SOL    HW135414   0.428   3.462   5.852 -1.0039  0.0188 -0.2586
 7985SOL    HW235415   0.399   3.452   5.705 -2.1815  1.3398  0.2326
 7986SOL     OW35416   1.159   2.756   4.838  0.3725  0.1237 -0.5640
 7986SOL    HW135417   1.095   2.823   4.815 -1.0569 -1.1980 -0.3936
 7986SOL    HW235418   1.113   2.680   4.804 -1.2857  1.2664 -0.8875
 7987SOL     OW35419   2.135   0.407  14.263 -0.1007  0.1430 -0.2715
 7987SOL    HW135420   2.157   0.356  14.184 -0.9686  1.1853 -1.1747
 7987SOL    HW235421   2.187   0.485  14.246  2.2087 -0.8658  2.1394
 7988SOL     OW35422   2.096   3.644   3.206  0.6833  0.0566 -0.3738
 7988SOL    HW135423   2.035   3.598   3.264  0.2852 -0.1438 -0.9572
 7988SOL    HW235424   2.057   3.731   3.200 -1.8607 -1.2432 -2.3234
 7989SOL     OW35425   3.974   0.246  10.840  0.4298 -0.1587  0.0468
 7989SOL    HW135426   3.933   0.328  10.815 -0.8094 -0.3579  1.3814
 7989SOL    HW235427   3.937   0.183  10.779 -1.7055  1.9380 -0.7997
 7990SOL     OW35428   1.026   0.167  12.757  0.0521  0.3525 -0.0388
 7990SOL    HW135429   1.111   0.180  12.799  0.3669  1.7688 -1.0794
 7990SOL    HW235430   0.982   0.245  12.791  0.8286  1.3716 -1.3167
 7991SOL     OW35431   2.437   0.972   7.524  0.0259 -0.4562 -0.4406
 7991SOL    HW135432   2.436   0.878   7.507  0.0157 -0.5060 -0.1641
 7991SOL    HW235433   2.343   0.988   7.530 -0.1850 -1.3040 -1.5767
 7992SOL     OW35434   4.619   0.465   5.100  0.3114 -0.7196  0.1525
 7992SOL    HW135435   4.658   0.478   5.014 -0.9090  1.9871 -0.0021
 7992SOL    HW235436   4.525   0.485   5.093  0.5029 -0.4329 -1.5060
 7993SOL     OW35437   3.474   0.187  13.557  0.3505 -0.2529 -0.1642
 7993SOL    HW135438   3.487   0.276  13.524  2.3314 -0.8857 -1.1027
 7993SOL    HW235439   3.388   0.196  13.598  0.7502  0.9372  0.4086
 7994SOL     OW35440   1.075   0.039   8.695 -0.0454 -0.1267  0.1764
 7994SOL    HW135441   1.122   4.724   8.768  0.2413  0.9511  0.5725
 7994SOL    HW235442   1.050   0.125   8.726 -0.6634  0.8392 -2.9894
 7995SOL     OW35443   1.686   3.077   3.161 -0.7479 -0.1099 -0.3190
 7995SOL    HW135444   1.698   3.057   3.254  0.2697 -2.1600 -0.8790
 7995SOL    HW235445   1.598   3.113   3.161 -0.8802 -0.4192 -2.1040
 7996SOL     OW35446   3.734   0.205   5.509 -0.0016  0.7009  0.6898
 7996SOL    HW135447   3.692   0.216   5.423  0.0859 -1.6012  0.3508
 7996SOL    HW235448   3.753   0.112   5.498  1.2520  0.8738  1.4892
 7997SOL     OW35449   2.856   3.575  12.223  0.0505 -0.7688 -0.0692
 7997SOL    HW135450   2.881   3.623  12.302 -1.7441  2.2016 -1.3137
 7997SOL    HW235451   2.864   3.648  12.161 -0.9930 -0.7464 -0.1740
 7998SOL     OW35452   2.159   0.622   2.014  0.6871 -0.1737 -0.5020
 7998SOL    HW135453   2.236   0.597   1.963  0.2860 -0.3078 -1.0473
 7998SOL    HW235454   2.119   0.696   1.967 -2.0936 -1.6172 -0.4160
 7999SOL     OW35455   0.841   2.482   6.983 -0.4899  0.0990 -0.0004
 7999SOL    HW135456   0.917   2.514   7.031 -0.0543  0.9177 -1.2306
 7999SOL    HW235457   0.773   2.501   7.047  0.6725 -3.5272  2.2809
 8000SOL     OW35458   3.395   4.017   2.019 -0.0438 -0.2229  0.1361
 8000SOL    HW135459   3.487   4.022   2.047 -0.5470 -0.9060  1.9392
 8000SOL    HW235460   3.413   3.963   1.942  3.6347  0.5958  0.3885
 8001SOL     OW35461   3.886   0.501   2.176 -0.6296 -0.0558  0.2843
 8001SOL    HW135462   3.886   0.547   2.092 -0.9010 -1.2066 -0.3516
 8001SOL    HW235463   3.973   0.462   2.182 -0.1387  1.1054  0.8032
 8002SOL     OW35464   1.153   0.589   3.970  0.3112  0.4776 -0.3596
 8002SOL    HW135465   1.176   0.609   4.060  2.1162 -1.1451 -0.4595
 8002SOL    HW235466   1.236   0.560   3.933 -0.0884  0.0780 -0.9462
 8003SOL     OW35467   4.451   3.043  13.472  0.3010 -0.2030  0.2648
 8003SOL    HW135468   4.523   2.984  13.450 -0.7342 -0.7751 -1.6820
 8003SOL    HW235469   4.467   3.060  13.564  1.2781  0.8733 -0.1000
 8004SOL     OW35470   0.426   0.673   4.483  0.0379 -0.4216  0.3508
 8004SOL    HW135471   0.495   0.610   4.502 -1.5593 -2.6434 -1.2832
 8004SOL    HW235472   0.378   0.634   4.410  2.0149 -1.7659 -0.2360
 8005SOL     OW35473   2.306   1.371   0.922 -0.2856 -0.7330  0.6679
 8005SOL    HW135474   2.249   1.317   0.976 -0.1527 -1.6721 -0.1370
 8005SOL    HW235475   2.396   1.339   0.927 -0.1879 -0.9029 -2.1429
 8006SOL     OW35476   1.868   1.766   3.050 -0.5932  0.2753 -0.1385
 8006SOL    HW135477   1.798   1.807   3.102 -0.9394  0.6415 -0.8997
 8006SOL    HW235478   1.893   1.834   2.987  2.4852  0.2918  1.0738
 8007SOL     OW35479   1.265   0.621   4.251  0.5213  0.4713 -0.0323
 8007SOL    HW135480   1.185   0.576   4.278 -0.7868  1.8326 -1.6663
 8007SOL    HW235481   1.303   0.562   4.185 -0.2037  0.2387 -0.2367
 8008SOL     OW35482   0.659   2.859   7.990 -0.3060  0.0050 -0.4932
 8008SOL    HW135483   0.674   2.951   8.011 -2.2285  0.1623  0.1823
 8008SOL    HW235484   0.700   2.817   8.066 -2.8821 -0.6923  0.5272
 8009SOL     OW35485   0.798   0.823  16.228 -0.0570  0.0954 -0.8724
 8009SOL    HW135486   0.860   0.824  16.156  0.5127  0.4469 -0.3749
 8009SOL    HW235487   0.863   0.808  16.297 -0.5733 -2.5806 -0.9535
 8010SOL     OW35488   2.845   4.448   4.802  0.2481  0.3728  0.0439
 8010SOL    HW135489   2.852   4.418   4.892 -0.1739 -0.0364 -0.0640
 8010SOL    HW235490   2.877   4.538   4.808 -0.9134  0.9119 -1.9222
 8011SOL     OW35491   4.624   0.263   7.059  0.0365 -0.3721 -0.0071
 8011SOL    HW135492   4.714   0.269   7.028 -0.1497 -0.0421 -0.4751
 8011SOL    HW235493   4.596   0.354   7.058  2.1803  0.2992  2.7312
 8012SOL     OW35494   2.704   3.500   7.190  0.1379 -0.8567  0.0431
 8012SOL    HW135495   2.771   3.445   7.231 -0.1338 -2.8946 -2.2049
 8012SOL    HW235496   2.759   3.565   7.146 -0.0932  0.0898  1.1685
 8013SOL     OW35497   4.021   2.076  12.778  0.1462 -0.5474  0.0431
 8013SOL    HW135498   3.951   2.025  12.738 -0.5536  0.6268 -0.2522
 8013SOL    HW235499   4.049   2.123  12.699  1.1940 -1.2993 -0.0273
 8014SOL     OW35500   2.191   4.043   2.008 -0.6206 -0.0267  0.1654
 8014SOL    HW135501   2.177   4.111   1.943  0.3096  0.6457  0.6558
 8014SOL    HW235502   2.108   4.017   2.047 -0.8653  2.5116  1.3340
 8015SOL     OW35503   3.782   0.733   6.586 -0.1966  0.0164 -0.1804
 8015SOL    HW135504   3.835   0.658   6.613 -1.2430 -0.8998 -0.7190
 8015SOL    HW235505   3.709   0.737   6.648 -0.4080 -2.9216 -0.2469
 8016SOL     OW35506   3.478   1.015  13.859  0.1615 -0.4664 -0.0826
 8016SOL    HW135507   3.473   1.103  13.896  2.6253 -0.5602  0.5063
 8016SOL    HW235508   3.546   0.973  13.913  1.8036 -0.2646 -2.0128
 8017SOL     OW35509   1.456   3.332   1.439  0.0097 -0.0945 -0.0152
 8017SOL    HW135510   1.459   3.345   1.345  2.2568 -0.4938  0.0071
 8017SOL    HW235511   1.435   3.238   1.445 -2.7166  0.4295 -1.4261
 8018SOL     OW35512   4.077   1.606   9.065  0.0687  0.2604 -0.2264
 8018SOL    HW135513   4.142   1.596   9.134 -0.1341  2.3376  0.2612
 8018SOL    HW235514   4.020   1.529   9.075 -0.1898  0.4185 -0.4678
 8019SOL     OW35515   3.056   3.228   3.900  0.2639  0.0785 -0.1501
 8019SOL    HW135516   3.127   3.290   3.879 -0.1241  0.3802 -0.5682
 8019SOL    HW235517   3.009   3.277   3.967  0.6882 -0.4812  0.5523
 8020SOL     OW35518   2.459   1.765   2.306 -0.2616 -0.2636 -0.3100
 8020SOL    HW135519   2.388   1.829   2.312  0.1908  0.1126  1.0682
 8020SOL    HW235520   2.440   1.742   2.215  0.0640 -0.1886 -0.3951
 8021SOL     OW35521   1.676   2.804  13.220 -0.3124  0.0869  0.0067
 8021SOL    HW135522   1.676   2.886  13.268 -1.7420  0.6579 -0.9799
 8021SOL    HW235523   1.727   2.755  13.285 -0.0113 -0.6452 -0.7811
 8022SOL     OW35524   3.362   4.227  14.149 -0.5180 -0.3465  0.0941
 8022SOL    HW135525   3.351   4.132  14.146  1.9733 -0.5846 -1.5906
 8022SOL    HW235526   3.455   4.230  14.173 -0.7531 -3.3348  1.4178
 8023SOL     OW35527   4.370   1.629  17.536  0.1261 -0.4364 -0.3358
 8023SOL    HW135528   4.387   1.536  17.544 -2.3285 -0.7665  1.2003
 8023SOL    HW235529   4.444   1.661  17.484  0.4288  0.4494  0.6401
 8024SOL     OW35530   4.506   4.288  15.078  0.1589  0.5546 -0.1088
 8024SOL    HW135531   4.498   4.303  14.984  0.0194  0.0437 -0.1773
 8024SOL    HW235532   4.468   4.200  15.082 -2.0649  1.5595  0.5718
 8025SOL     OW35533   0.678   4.607  11.908  0.6835 -0.5224  0.0865
 8025SOL    HW135534   0.734   4.535  11.879  1.7886  1.1518 -1.9226
 8025SOL    HW235535   0.699   4.664  11.834  2.3652  0.4503  1.3128
 8026SOL     OW35536   1.811   4.474   5.603  0.4381 -0.2426  0.3157
 8026SOL    HW135537   1.726   4.497   5.564  0.4524  0.7846  0.8918
 8026SOL    HW235538   1.789   4.492   5.695 -1.0891  2.2836 -0.5441
 8027SOL     OW35539   0.522   1.536   7.386 -0.5906 -0.2467  0.1651
 8027SOL    HW135540   0.548   1.599   7.453  0.6274 -0.0579 -0.4835
 8027SOL    HW235541   0.460   1.577   7.327 -0.8185  0.2011  0.7169
 8028SOL     OW35542   2.900   0.777   4.871  0.5156  0.2809  0.1240
 8028SOL    HW135543   2.842   0.775   4.947 -2.3080 -1.4736 -2.0883
 8028SOL    HW235544   2.835   0.794   4.803 -1.3694  1.3171  2.1700
 8029SOL     OW35545   3.821   0.599   5.996 -0.1696 -0.0143  0.0052
 8029SOL    HW135546   3.800   0.538   6.067 -0.0995  1.6748  1.4719
 8029SOL    HW235547   3.866   0.660   6.055 -0.1212 -1.1885  1.1766
 8030SOL     OW35548   3.863   1.639   3.955 -0.2816  0.2023 -0.5768
 8030SOL    HW135549   3.910   1.694   3.891  0.2536 -1.6374 -1.7628
 8030SOL    HW235550   3.865   1.554   3.911 -0.9789  0.6031 -1.3875
 8031SOL     OW35551   1.226   3.915   6.089  0.3961 -0.4171 -0.1036
 8031SOL    HW135552   1.148   3.966   6.069 -0.5274 -0.6872  2.7640
 8031SOL    HW235553   1.235   3.911   6.184  0.0588  0.6801 -0.0301
 8032SOL     OW35554   3.774   0.938   0.506  0.0638  0.2257  0.2270
 8032SOL    HW135555   3.770   0.912   0.598  0.1545  1.3461  0.5403
 8032SOL    HW235556   3.858   0.896   0.490  0.0196 -0.1518  0.9517
 8033SOL     OW35557   3.171   0.085   3.262  0.1394  0.0308  0.3920
 8033SOL    HW135558   3.166   0.025   3.188 -1.8234  1.2440 -0.4452
 8033SOL    HW235559   3.204   0.025   3.329  1.5409 -0.6788 -0.9292
 8034SOL     OW35560   2.332   3.050   4.834 -0.3417 -0.0536  0.5961
 8034SOL    HW135561   2.243   3.078   4.812  0.0216  1.1958  0.6833
 8034SOL    HW235562   2.363   3.011   4.752 -3.1042  1.7893 -1.3466
 8035SOL     OW35563   1.418   1.037   2.699 -0.1717 -0.5262  0.3342
 8035SOL    HW135564   1.410   1.100   2.627 -2.4808 -1.5606 -0.2992
 8035SOL    HW235565   1.494   0.985   2.672 -1.7434 -1.9884 -1.2292
 8036SOL     OW35566   1.719   1.301  10.737 -0.1709 -0.1632 -0.3329
 8036SOL    HW135567   1.715   1.222  10.684  1.2837  0.1487 -0.9044
 8036SOL    HW235568   1.757   1.358  10.670 -0.9447 -1.1068 -1.5872
 8037SOL     OW35569   3.425   1.259   2.798 -0.3470  0.7431  0.0936
 8037SOL    HW135570   3.499   1.316   2.820 -0.4815  0.3852  1.4545
 8037SOL    HW235571   3.363   1.312   2.849 -0.3554  1.2482 -0.4391
 8038SOL     OW35572   2.860   0.624   8.529  0.2186 -0.1278  0.1652
 8038SOL    HW135573   2.927   0.639   8.595  0.1192  0.6050  0.1052
 8038SOL    HW235574   2.785   0.614   8.588 -0.7282  0.0708 -1.0097
 8039SOL     OW35575   1.563   1.809  10.542  0.2577 -0.4254  0.7150
 8039SOL    HW135576   1.470   1.828  10.528 -0.2726 -1.9193  2.1548
 8039SOL    HW235577   1.596   1.870  10.477 -0.0515 -2.1248 -1.0244
 8040SOL     OW35578   2.763   4.179  17.048 -0.1514  0.3356  0.5753
 8040SOL    HW135579   2.826   4.249  17.034 -1.5856  1.3938 -0.6054
 8040SOL    HW235580   2.799   4.104  17.001 -1.2275  0.5599 -0.5991
 8041SOL     OW35581   0.242   1.313  14.896  0.9664  0.4896 -0.7182
 8041SOL    HW135582   0.208   1.345  14.813  1.0890 -1.6430 -1.5921
 8041SOL    HW235583   0.335   1.324  14.877  0.4258  2.1033 -2.3565
 8042SOL     OW35584   4.703   1.544   8.933  0.6001  0.5920  0.0224
 8042SOL    HW135585   4.715   1.629   8.892 -0.0984  1.7073  2.1161
 8042SOL    HW235586   0.025   1.490   8.870 -2.3874 -2.1711  0.1527
 8043SOL     OW35587   2.121   0.337  10.127  0.2230  0.3664  0.0260
 8043SOL    HW135588   2.041   0.292  10.156  0.4404  0.4427  0.7338
 8043SOL    HW235589   2.142   0.391  10.202  0.1300  1.1382 -0.5078
 8044SOL     OW35590   3.336   2.051   8.843  0.3738 -0.3483  0.1821
 8044SOL    HW135591   3.406   1.987   8.857  0.1825 -1.1354 -2.5848
 8044SOL    HW235592   3.325   2.028   8.751 -0.5000 -0.4632  0.3191
 8045SOL     OW35593   0.486   3.410   9.292  0.3302 -0.0637 -0.3449
 8045SOL    HW135594   0.521   3.472   9.228 -0.6836  1.3466  0.4523
 8045SOL    HW235595   0.454   3.470   9.359  0.0779 -0.9390  0.3193
 8046SOL     OW35596   3.454   2.178  13.670 -0.1005  0.0338  0.4009
 8046SOL    HW135597   3.408   2.111  13.721  0.8332 -0.3100  0.7730
 8046SOL    HW235598   3.537   2.136  13.646  0.3986  0.6394  1.0891
 8047SOL     OW35599   4.574   0.453   1.389 -0.1504  0.3282 -0.1575
 8047SOL    HW135600   4.509   0.383   1.387  0.0020  0.1648  0.4068
 8047SOL    HW235601   4.658   0.407   1.400 -1.5779 -2.7135 -1.8123
 8048SOL     OW35602   0.855   2.159   3.915 -0.2651 -0.0352 -0.0603
 8048SOL    HW135603   0.790   2.222   3.946 -0.0818 -0.2440  0.7453
 8048SOL    HW235604   0.906   2.134   3.992  0.6940  0.9042 -0.3852
 8049SOL     OW35605   2.034   1.913   8.882 -0.2634  0.8568 -0.4234
 8049SOL    HW135606   2.039   1.828   8.927 -1.4365  0.5246 -0.9234
 8049SOL    HW235607   2.124   1.938   8.900  0.6730 -2.7455 -0.0435
 8050SOL     OW35608   2.324   2.178   3.517  0.4653 -0.0997 -0.1920
 8050SOL    HW135609   2.291   2.238   3.583  0.2694  0.1137 -0.4820
 8050SOL    HW235610   2.335   2.102   3.574 -0.1507 -0.1322 -0.1163
 8051SOL     OW35611   2.551   4.003   4.818  0.1766  0.6989 -0.3538
 8051SOL    HW135612   2.482   4.051   4.864  0.3134  0.9333 -0.3942
 8051SOL    HW235613   2.620   4.033   4.878 -0.4152  0.7029  0.3243
 8052SOL     OW35614   0.794   1.589   7.588 -0.2103  0.2879 -0.2759
 8052SOL    HW135615   0.857   1.610   7.519 -0.2626 -1.0765 -0.7195
 8052SOL    HW235616   0.805   1.494   7.593 -1.4899  0.2049  0.8625
 8053SOL     OW35617   1.242   1.966  13.461  0.0281  0.6605 -0.0148
 8053SOL    HW135618   1.312   1.938  13.402 -0.4084  0.5358 -0.4682
 8053SOL    HW235619   1.167   1.973  13.403 -1.2172 -1.2747  1.3645
 8054SOL     OW35620   3.718   4.139  11.500 -0.8649  0.1069 -0.1493
 8054SOL    HW135621   3.745   4.176  11.584  0.5589 -0.6168 -0.2988
 8054SOL    HW235622   3.783   4.074  11.475 -1.6089  0.1379 -2.1281
 8055SOL     OW35623   4.664   4.071   8.201 -0.4731  0.0808 -0.3578
 8055SOL    HW135624   0.010   4.135   8.214  0.2205 -0.4727 -1.3505
 8055SOL    HW235625   4.633   4.059   8.291  1.7990 -3.2714 -0.0440
 8056SOL     OW35626   4.194   1.120  15.064  0.2133  0.0943 -0.0552
 8056SOL    HW135627   4.251   1.083  15.132  1.5645 -1.3046 -1.9401
 8056SOL    HW235628   4.121   1.058  15.064  0.2813  0.0170  0.5283
 8057SOL     OW35629   2.454   0.415   0.622  0.5492  0.1814  0.3612
 8057SOL    HW135630   2.549   0.402   0.612  0.3610  0.1722 -1.3791
 8057SOL    HW235631   2.461   0.425   0.717  1.2636 -3.7044  0.7384
 8058SOL     OW35632   3.048   3.390   5.969  0.9137 -0.0069  0.2865
 8058SOL    HW135633   3.015   3.321   6.026  0.1327  0.8601  0.8781
 8058SOL    HW235634   2.999   3.470   5.988  0.0850 -0.1078 -1.3873
 8059SOL     OW35635   1.336   1.463   0.670  0.2634 -0.0169 -0.2088
 8059SOL    HW135636   1.365   1.419   0.750 -0.4604 -0.7228 -0.3282
 8059SOL    HW235637   1.244   1.484   0.683  0.2546 -1.4702  2.1203
 8060SOL     OW35638   1.641   3.003   9.511 -0.5482  0.3219 -0.3791
 8060SOL    HW135639   1.687   3.038   9.435  0.3721 -1.5134 -0.6704
 8060SOL    HW235640   1.716   2.959   9.552 -0.2529  2.6316  1.5381
 8061SOL     OW35641   1.861   1.587   7.841  0.1021 -0.0069  0.1565
 8061SOL    HW135642   1.952   1.562   7.854 -0.4826 -1.2527  1.8760
 8061SOL    HW235643   1.832   1.518   7.781  1.3371 -0.2257 -0.1772
 8062SOL     OW35644   3.461   1.575   6.616 -0.1212 -0.3052 -0.0579
 8062SOL    HW135645   3.498   1.654   6.655 -0.3386 -0.8727  1.3289
 8062SOL    HW235646   3.367   1.589   6.609 -0.0249 -0.4277 -1.4088
 8063SOL     OW35647   4.061   3.479   1.424  0.4124  0.0317  0.1748
 8063SOL    HW135648   4.058   3.532   1.345  1.1721  1.4590  1.1143
 8063SOL    HW235649   4.120   3.409   1.394 -0.1434 -0.6205  0.6018
 8064SOL     OW35650   2.777   4.454   5.435 -0.1292  0.3071 -0.2046
 8064SOL    HW135651   2.717   4.528   5.429 -1.4310 -0.7704 -0.4102
 8064SOL    HW235652   2.841   4.481   5.369 -1.9521  0.4269 -1.9139
 8065SOL     OW35653   4.604   4.232   5.293  1.0180  0.2583 -0.4933
 8065SOL    HW135654   4.577   4.311   5.247  1.6822 -0.6825 -2.4748
 8065SOL    HW235655   4.563   4.255   5.377  0.0506  2.0368 -1.4459
 8066SOL     OW35656   2.082   2.219   6.758  0.0418 -0.3486  0.2582
 8066SOL    HW135657   2.124   2.273   6.690  0.1013 -0.0369  0.5429
 8066SOL    HW235658   2.147   2.155   6.784 -0.2767 -0.5714  0.4957
 8067SOL     OW35659   3.688   2.872   5.643  0.5405  0.4816  0.2728
 8067SOL    HW135660   3.614   2.866   5.703  1.2390 -2.1698  0.8784
 8067SOL    HW235661   3.656   2.941   5.584  0.5164 -0.4425 -0.8017
 8068SOL     OW35662   4.354   0.081   8.865 -0.5905 -0.6312 -0.3695
 8068SOL    HW135663   4.339   0.004   8.809  0.2147 -0.7136 -0.4766
 8068SOL    HW235664   4.351   0.041   8.952  0.8778  0.0579 -0.0075
 8069SOL     OW35665   2.282   3.087   4.468  0.4514 -0.0388 -0.3961
 8069SOL    HW135666   2.237   3.034   4.402 -0.9804  1.5709 -0.7025
 8069SOL    HW235667   2.356   3.123   4.419 -0.4778  0.8805 -1.1383
 8070SOL     OW35668   3.445   3.527   4.855  0.0607  0.4522  0.2502
 8070SOL    HW135669   3.428   3.551   4.946  0.4896  0.0994  0.4203
 8070SOL    HW235670   3.481   3.612   4.828  2.0376 -0.4221  0.1762
 8071SOL     OW35671   3.314   1.011   4.151  0.0548  0.3582  0.3330
 8071SOL    HW135672   3.326   1.062   4.231  2.0477  1.5987 -0.7615
 8071SOL    HW235673   3.243   0.956   4.185  1.0403 -0.5294  0.9594
 8072SOL     OW35674   0.034   3.522   6.479  0.0379 -0.1005  0.3014
 8072SOL    HW135675   0.081   3.585   6.424 -0.3347 -0.8288 -0.8608
 8072SOL    HW235676   0.079   3.525   6.564  2.2778 -0.8793 -0.8390
 8073SOL     OW35677   4.505   1.697  16.259  0.2696 -0.2076 -0.0441
 8073SOL    HW135678   4.550   1.654  16.332  1.5971 -4.1925 -3.2243
 8073SOL    HW235679   4.461   1.768  16.307  0.7053  0.7961 -1.1224
 8074SOL     OW35680   0.521   1.582   4.961 -0.2865 -0.4683 -0.6728
 8074SOL    HW135681   0.587   1.648   4.941 -0.9994  0.7536  0.9587
 8074SOL    HW235682   0.474   1.588   4.877 -1.6336 -1.3005  0.0200
 8075SOL     OW35683   2.806   4.213   3.703  0.3484 -0.2856 -0.2912
 8075SOL    HW135684   2.763   4.189   3.785  2.0562  0.8118  0.9388
 8075SOL    HW235685   2.798   4.307   3.716  1.6603  0.0869 -2.1537
 8076SOL     OW35686   0.110   0.711  16.193  0.2587 -0.1275 -0.0664
 8076SOL    HW135687   0.039   0.775  16.186  0.5140 -0.0871 -2.1283
 8076SOL    HW235688   0.187   0.756  16.157 -0.9548  2.4118  0.4663
 8077SOL     OW35689   4.122   3.806   8.616  0.1194  0.7783 -0.5765
 8077SOL    HW135690   4.055   3.870   8.592 -0.8442  0.6787  1.8445
 8077SOL    HW235691   4.196   3.858   8.585 -0.5752  1.7594 -0.5937
 8078SOL     OW35692   3.647   4.693  12.382  0.0042 -0.2664 -0.3663
 8078SOL    HW135693   3.606   4.724  12.301 -1.1908 -2.3302 -0.5596
 8078SOL    HW235694   3.707   4.628  12.344 -1.8890 -2.7740  0.9610
 8079SOL     OW35695   2.112   3.359   6.460  0.0554 -0.3985  0.4993
 8079SOL    HW135696   2.158   3.283   6.423 -0.8690  0.3113 -2.1648
 8079SOL    HW235697   2.041   3.371   6.396 -0.6796  0.8905  1.5733
 8080SOL     OW35698   1.751   1.387   3.749 -0.9065  0.1550  0.2013
 8080SOL    HW135699   1.793   1.469   3.776  2.9923 -1.6039 -0.5746
 8080SOL    HW235700   1.746   1.409   3.656  1.3886 -0.9998 -0.1789
 8081SOL     OW35701   2.704   2.647   2.346  0.1490  0.1585 -0.7718
 8081SOL    HW135702   2.690   2.728   2.297  0.5098  0.6336 -0.1052
 8081SOL    HW235703   2.780   2.671   2.400 -0.3085  0.9733 -0.4869
 8082SOL     OW35704   1.737   0.868   3.803  0.0065 -0.3405  0.3431
 8082SOL    HW135705   1.737   0.811   3.726 -0.2174 -1.5759  1.2380
 8082SOL    HW235706   1.721   0.956   3.772 -1.8824 -1.0281 -0.6122
 8083SOL     OW35707   1.812   0.509   4.997  0.0776  0.1282  0.0496
 8083SOL    HW135708   1.877   0.556   5.048  1.4155 -0.4608 -1.1163
 8083SOL    HW235709   1.825   0.424   5.037 -0.8891  0.1301  0.3691
 8084SOL     OW35710   0.701   2.553   8.987  0.3515  0.1813 -0.0775
 8084SOL    HW135711   0.649   2.619   8.942 -1.1430  0.9880  2.8569
 8084SOL    HW235712   0.641   2.500   9.039  0.0571  0.4209 -0.1771
 8085SOL     OW35713   1.422   1.773   8.202  0.2230 -0.0612  1.0073
 8085SOL    HW135714   1.385   1.706   8.259 -2.2313 -0.1150 -0.6695
 8085SOL    HW235715   1.385   1.852   8.241 -0.4433 -0.4617  1.1768
 8086SOL     OW35716   2.596   3.257   2.871  0.0083 -0.1783  0.2023
 8086SOL    HW135717   2.628   3.276   2.783 -4.7354 -0.7903 -1.6805
 8086SOL    HW235718   2.503   3.280   2.860  0.1940  0.6383  0.3112
 8087SOL     OW35719   2.069   1.654   7.154  0.4539 -0.2705  0.4690
 8087SOL    HW135720   2.030   1.570   7.178  1.1195 -0.3469  1.2850
 8087SOL    HW235721   2.043   1.670   7.064  1.1445  0.5311  0.4097
 8088SOL     OW35722   3.290   1.481   2.867  0.1530  0.6488 -0.2151
 8088SOL    HW135723   3.237   1.547   2.823 -0.7335 -0.2192 -0.4506
 8088SOL    HW235724   3.268   1.511   2.956  2.4612 -2.3809  1.3771
 8089SOL     OW35725   2.725   3.355  12.627 -0.3529 -0.3078 -0.5080
 8089SOL    HW135726   2.730   3.371  12.721 -1.9435 -1.7909 -0.1473
 8089SOL    HW235727   2.691   3.265  12.627 -1.0145 -0.0502 -1.7411
 8090SOL     OW35728   1.876   2.439   9.176  1.1484 -0.1401  0.4019
 8090SOL    HW135729   1.791   2.482   9.185  1.5431  1.2942 -2.8151
 8090SOL    HW235730   1.889   2.371   9.242 -1.5467 -0.0016  1.0763
 8091SOL     OW35731   3.041   0.514  15.722  0.1753 -0.1576 -0.0865
 8091SOL    HW135732   3.059   0.450  15.792 -0.9026  0.8736  1.1312
 8091SOL    HW235733   2.958   0.551  15.751  0.3681 -2.3168  3.2746
 8092SOL     OW35734   3.434   0.256  17.545  0.6194 -0.0139  0.6620
 8092SOL    HW135735   3.519   0.228  17.514  1.7239  3.3890  0.5502
 8092SOL    HW235736   3.389   0.179  17.578  0.9539 -0.3438  0.3404
 8093SOL     OW35737   2.113   2.412  15.023 -0.3930 -0.0287 -0.2808
 8093SOL    HW135738   2.145   2.418  15.113 -0.1365 -2.0834 -0.2235
 8093SOL    HW235739   2.058   2.333  15.026  0.0554 -0.3445 -0.4364
 8094SOL     OW35740   1.047   4.198   2.896  0.4418  0.1941 -0.2815
 8094SOL    HW135741   1.059   4.246   2.814 -1.1253  1.0035 -0.0437
 8094SOL    HW235742   0.958   4.171   2.872  0.3949 -0.4390  0.6020
 8095SOL     OW35743   2.903   0.330   4.619 -0.0689 -0.1196 -0.3294
 8095SOL    HW135744   2.957   0.255   4.593 -1.0983 -1.4790  1.4341
 8095SOL    HW235745   2.823   0.279   4.630 -2.0539  3.4893  1.9111
 8096SOL     OW35746   3.579   0.946   4.119  0.7496 -0.4207 -0.2175
 8096SOL    HW135747   3.488   0.975   4.109  1.1725  1.0879  0.2969
 8096SOL    HW235748   3.617   1.029   4.149  0.4174 -0.6494  0.8640
 8097SOL     OW35749   2.537   4.166  14.724 -0.4281 -0.3095 -0.0314
 8097SOL    HW135750   2.550   4.094  14.662 -0.9014 -0.6119  0.2152
 8097SOL    HW235751   2.616   4.217  14.707  0.7874 -1.3671  2.5220
 8098SOL     OW35752   2.977   4.182  14.420 -0.2650  0.5148  0.0086
 8098SOL    HW135753   3.014   4.236  14.351  0.7066  3.2110  2.6613
 8098SOL    HW235754   3.012   4.098  14.387 -0.7152  1.0283 -1.7762
 8099SOL     OW35755   1.277   1.054  10.732  0.4931 -0.5252  0.0318
 8099SOL    HW135756   1.306   1.082  10.819 -1.9001  0.0281  0.6579
 8099SOL    HW235757   1.309   1.130  10.683  0.2621  0.3359  1.1989
 8100SOL     OW35758   3.858   3.838   3.776  0.2331  0.5272 -0.2755
 8100SOL    HW135759   3.769   3.813   3.799  0.1841  1.7579  0.9262
 8100SOL    HW235760   3.847   3.879   3.690 -1.4262 -1.0797 -0.8220
 8101SOL     OW35761   4.620   1.143  17.378  0.3329  0.0285  0.1772
 8101SOL    HW135762   4.554   1.202  17.412 -0.9633 -1.3485  0.0436
 8101SOL    HW235763   4.671   1.114  17.454 -2.0069 -2.0165  0.9869
 8102SOL     OW35764   1.826   2.364   1.313  0.0185  0.0123  0.1560
 8102SOL    HW135765   1.882   2.290   1.287 -0.5778  0.8537 -3.5032
 8102SOL    HW235766   1.793   2.335   1.398 -1.4415  0.8291 -0.1539
 8103SOL     OW35767   1.834   0.057   6.620  0.4366 -0.1272 -0.1729
 8103SOL    HW135768   1.869   0.043   6.708  1.7402  0.6019 -0.5845
 8103SOL    HW235769   1.901   0.024   6.562 -1.2107 -0.7603 -1.7075
 8104SOL     OW35770   0.370   2.284   6.444 -0.3046 -0.6831 -0.4384
 8104SOL    HW135771   0.293   2.233   6.468 -2.2423  2.0415 -0.8432
 8104SOL    HW235772   0.410   2.304   6.529 -1.2956  2.9143 -0.8091
 8105SOL     OW35773   4.630   4.101   7.930 -0.2696  0.2040  0.0431
 8105SOL    HW135774   4.705   4.061   7.887 -0.4897  2.4947 -2.4810
 8105SOL    HW235775   4.650   4.074   8.020  2.6314  2.0882 -0.0451
 8106SOL     OW35776   1.815   2.811   7.188 -0.0455 -0.1469 -0.1691
 8106SOL    HW135777   1.843   2.792   7.277 -1.6501  1.0895  0.5874
 8106SOL    HW235778   1.818   2.724   7.148 -0.4835 -0.4075  0.3740
 8107SOL     OW35779   3.861   1.436   1.143  0.2220 -0.2909 -0.5076
 8107SOL    HW135780   3.848   1.514   1.196  0.8859 -0.5281 -0.0074
 8107SOL    HW235781   3.867   1.363   1.204  1.2965 -0.4528 -0.8137
 8108SOL     OW35782   0.706   2.019   3.719  0.1686 -0.4301 -0.0651
 8108SOL    HW135783   0.760   1.941   3.732  2.2271  0.6024 -2.3209
 8108SOL    HW235784   0.749   2.076   3.784  1.4390 -0.5660 -0.7850
 8109SOL     OW35785   0.748   2.352   0.700  0.1453  0.6215  0.2546
 8109SOL    HW135786   0.686   2.414   0.661 -1.4164 -0.8075  0.4527
 8109SOL    HW235787   0.829   2.403   0.706 -0.2184  1.4999 -2.1434
 8110SOL     OW35788   1.202   0.567  10.500 -0.1182  0.3898 -0.4956
 8110SOL    HW135789   1.275   0.583  10.440 -0.8436  2.6393 -0.7662
 8110SOL    HW235790   1.123   0.584  10.449  1.3442 -0.5735 -3.0952
 8111SOL     OW35791   1.141   0.924   5.702 -0.1339  0.1540  0.0330
 8111SOL    HW135792   1.173   0.956   5.787 -0.0695 -0.2165  0.1480
 8111SOL    HW235793   1.212   0.876   5.659 -0.3963  1.1780 -1.5384
 8112SOL     OW35794   3.223   1.932   5.930 -0.2178 -0.0967  0.0411
 8112SOL    HW135795   3.129   1.917   5.928 -0.3033  0.5063 -0.3498
 8112SOL    HW235796   3.249   1.869   5.997  0.1874 -0.0680 -0.0855
 8113SOL     OW35797   1.663   0.354   1.958 -0.8274  0.1930 -0.0805
 8113SOL    HW135798   1.613   0.429   1.925  0.4827  1.4603  0.8298
 8113SOL    HW235799   1.691   0.383   2.045 -0.3364  1.5796 -0.6895
 8114SOL     OW35800   2.381   1.358   6.701 -0.4301 -0.1518  0.1984
 8114SOL    HW135801   2.461   1.402   6.671 -1.1710  0.6266 -0.6657
 8114SOL    HW235802   2.368   1.286   6.639  0.0992 -0.2011  0.1410
 8115SOL     OW35803   3.538   3.245  17.619  0.1351  0.0401 -0.3106
 8115SOL    HW135804   3.522   3.286  17.534 -0.0953  0.6444  0.0234
 8115SOL    HW235805   3.498   3.300  17.688 -0.8943 -1.3004  0.1646
 8116SOL     OW35806   2.397   0.455   3.738 -0.2381  0.2048  0.3864
 8116SOL    HW135807   2.383   0.467   3.832 -0.6514  0.6360  0.2683
 8116SOL    HW235808   2.451   0.532   3.718  0.7135 -0.4818  0.3000
 8117SOL     OW35809   0.792   0.670   3.613 -0.3994 -0.2969  0.1213
 8117SOL    HW135810   0.817   0.592   3.562 -1.8070 -0.8922  0.3310
 8117SOL    HW235811   0.757   0.719   3.538 -0.0882  0.4742  0.4839
 8118SOL     OW35812   3.672   0.385   5.686 -0.3591 -0.0137  0.0614
 8118SOL    HW135813   3.692   0.333   5.764  0.5972  3.1507  1.9283
 8118SOL    HW235814   3.689   0.325   5.614  0.1952  0.0103  0.1722
 8119SOL     OW35815   3.174   4.263   3.144  0.2039  0.3168  0.0558
 8119SOL    HW135816   3.239   4.239   3.209 -0.8673 -1.1252  0.5863
 8119SOL    HW235817   3.158   4.350   3.181  1.4019 -0.5694  2.6737
 8120SOL     OW35818   3.498   4.302   8.918 -0.0736  0.6424  0.7768
 8120SOL    HW135819   3.528   4.219   8.882  1.9955  0.5911  2.6599
 8120SOL    HW235820   3.425   4.321   8.858  1.9706  0.0463 -1.9230
 8121SOL     OW35821   0.635   2.783   0.453  0.2403  0.1854 -0.4766
 8121SOL    HW135822   0.636   2.833   0.535  1.3732  0.4894 -0.6616
 8121SOL    HW235823   0.624   2.855   0.390  2.2871  0.1925 -0.8563
 8122SOL     OW35824   4.347   4.374   7.928 -0.4558 -0.0625 -0.6033
 8122SOL    HW135825   4.291   4.448   7.953  1.3678  1.9169 -2.3541
 8122SOL    HW235826   4.279   4.306   7.922  0.0391 -0.6532  0.5688
 8123SOL     OW35827   2.634   2.196   4.464 -0.5165  0.1888 -0.7507
 8123SOL    HW135828   2.558   2.177   4.409 -1.5034 -1.0776  1.0799
 8123SOL    HW235829   2.696   2.231   4.400  1.5838 -1.2806  0.4882
 8124SOL     OW35830   0.188   1.184   7.285  0.2569  0.0879 -0.0712
 8124SOL    HW135831   0.168   1.218   7.198  2.4397 -0.7572 -0.9227
 8124SOL    HW235832   0.138   1.102   7.290 -0.7501  0.6674 -0.6335
 8125SOL     OW35833   0.121   0.742   5.017 -0.0415  0.6433  0.1373
 8125SOL    HW135834   0.051   0.763   5.078 -1.4259 -0.4817 -1.0517
 8125SOL    HW235835   0.174   0.681   5.068 -2.0229  0.9371  2.5553
 8126SOL     OW35836   2.428   1.230   3.903 -0.1245  0.1997 -0.2444
 8126SOL    HW135837   2.350   1.239   3.848 -0.2701  2.4123  0.3326
 8126SOL    HW235838   2.499   1.254   3.843 -0.5164 -0.3660 -0.9368
 8127SOL     OW35839   2.747   3.139  17.642  0.0431 -0.1442 -0.6675
 8127SOL    HW135840   2.811   3.091  17.590  1.7045  0.4668  0.8175
 8127SOL    HW235841   2.774   3.221  17.601 -3.6093  0.6335 -1.5255
 8128SOL     OW35842   1.419   3.226  15.540 -0.2360 -0.5493 -0.0820
 8128SOL    HW135843   1.406   3.156  15.476  0.0986 -0.4563 -0.2531
 8128SOL    HW235844   1.429   3.175  15.621  0.6024  0.7194  0.6225
 8129SOL     OW35845   3.023   4.099   1.624 -0.4017  0.2124  0.3181
 8129SOL    HW135846   3.020   4.003   1.625 -0.1129  0.1978  0.0519
 8129SOL    HW235847   3.057   4.119   1.711 -0.2846 -0.4400  0.4263
 8130SOL     OW35848   2.812   0.155   9.493 -0.6558 -0.2076  0.2360
 8130SOL    HW135849   2.771   0.241   9.479 -0.0407 -0.4094 -2.9329
 8130SOL    HW235850   2.808   0.152   9.588  1.6268  0.2504  0.3527
 8131SOL     OW35851   2.878   0.755   9.022 -0.2672 -0.1433  0.0410
 8131SOL    HW135852   2.939   0.800   8.964 -0.0880  1.1170  1.2068
 8131SOL    HW235853   2.911   0.669   8.996 -0.4946  0.1161 -1.1058
 8132SOL     OW35854   3.981   1.750   6.074  0.1370 -0.6342 -0.5933
 8132SOL    HW135855   4.036   1.784   6.003 -0.2529  0.7735 -0.2384
 8132SOL    HW235856   4.038   1.760   6.150  0.8832  2.9250 -1.5829
 8133SOL     OW35857   1.715   1.489   4.149  0.2937  0.6054 -0.1138
 8133SOL    HW135858   1.791   1.466   4.095 -0.8034  0.0606 -1.4317
 8133SOL    HW235859   1.648   1.528   4.093 -1.0268  0.1892  1.1587
 8134SOL     OW35860   2.099   1.556   0.874  0.8499 -0.1412 -0.0127
 8134SOL    HW135861   2.109   1.573   0.780 -1.5160  1.1386 -0.0366
 8134SOL    HW235862   2.176   1.502   0.887  3.0447  2.9714 -0.0731
 8135SOL     OW35863   4.174   4.580   6.345  0.2040 -0.4687  0.6352
 8135SOL    HW135864   4.189   4.487   6.330 -2.0277 -0.8114  0.4908
 8135SOL    HW235865   4.213   4.624   6.270 -1.4617 -0.7580 -0.4149
 8136SOL     OW35866   4.684   1.331   5.907 -0.3097 -0.1706  0.5837
 8136SOL    HW135867   4.628   1.269   5.859 -2.0148  2.7503 -1.1771
 8136SOL    HW235868   4.665   1.415   5.867  1.7520 -0.0529 -0.1265
 8137SOL     OW35869   3.965   3.619   3.449 -0.3409 -0.4658  0.5511
 8137SOL    HW135870   3.932   3.701   3.413 -1.5060  0.0770  2.8403
 8137SOL    HW235871   3.980   3.579   3.363  0.0587 -0.6001  0.6830
 8138SOL     OW35872   1.376   1.872  17.179 -0.1240 -0.3751  0.0353
 8138SOL    HW135873   1.428   1.930  17.234 -1.3474  0.3594  0.4090
 8138SOL    HW235874   1.445   1.807  17.163 -0.2836 -0.6704  0.5341
 8139SOL     OW35875   2.801   2.967   6.200  0.4578  0.5054 -0.3479
 8139SOL    HW135876   2.729   3.026   6.222 -0.1014 -1.2543  2.4552
 8139SOL    HW235877   2.763   2.893   6.153  1.6823 -0.8777  0.8423
 8140SOL     OW35878   0.795   4.381   5.088  1.1125 -0.3526  0.1683
 8140SOL    HW135879   0.793   4.420   5.175 -0.1185 -0.4886  0.1963
 8140SOL    HW235880   0.743   4.448   5.044  0.0882 -0.6388  0.9366
 8141SOL     OW35881   0.300   3.438   6.448  1.0500 -0.2711  0.4048
 8141SOL    HW135882   0.289   3.367   6.385  0.0269 -0.0859  0.3787
 8141SOL    HW235883   0.215   3.431   6.492  1.6264  0.9891  1.7252
 8142SOL     OW35884   2.020   1.227   3.897 -0.6383 -0.5011  0.1536
 8142SOL    HW135885   2.057   1.307   3.860  0.1414 -0.4422  1.0634
 8142SOL    HW235886   2.062   1.164   3.838  0.0156  0.5510 -0.4852
 8143SOL     OW35887   1.564   2.153   8.485 -0.0655  0.6037 -0.4228
 8143SOL    HW135888   1.604   2.239   8.477  1.6636 -0.2571 -1.0345
 8143SOL    HW235889   1.611   2.113   8.558  0.5528  2.3867  0.1566
 8144SOL     OW35890   1.435   0.117   8.511 -0.6260  0.0136  0.0068
 8144SOL    HW135891   1.401   0.107   8.600 -0.1265 -3.7840 -0.2289
 8144SOL    HW235892   1.442   0.212   8.517  1.1819 -0.2423  2.0286
 8145SOL     OW35893   0.645   2.944   9.231 -0.4964  0.1778  0.3592
 8145SOL    HW135894   0.702   2.867   9.237  1.0608  1.3103  0.1437
 8145SOL    HW235895   0.607   2.961   9.317  0.0463  1.3107  0.3736
 8146SOL     OW35896   0.851   4.253   2.396  0.2901 -0.4383  0.0853
 8146SOL    HW135897   0.769   4.300   2.413  0.7310  0.5024 -0.4300
 8146SOL    HW235898   0.838   4.244   2.302 -2.1253 -1.4256  0.5141
 8147SOL     OW35899   1.859   4.547   4.757 -0.2755  0.1679  0.0384
 8147SOL    HW135900   1.813   4.536   4.840 -1.3251  0.0706 -0.5521
 8147SOL    HW235901   1.799   4.516   4.689 -0.2814  0.5894 -0.1491
 8148SOL     OW35902   0.441   0.408  16.747  0.1482 -0.0811  0.1188
 8148SOL    HW135903   0.401   0.410  16.660  1.2279 -3.2967 -0.4565
 8148SOL    HW235904   0.515   0.348  16.738 -0.0647 -0.4125  0.6109
 8149SOL     OW35905   2.666   2.570   4.029  0.3164 -0.9438  0.0613
 8149SOL    HW135906   2.619   2.633   3.974  1.2094  0.5194  0.9403
 8149SOL    HW235907   2.684   2.509   3.959 -0.8432  0.9085 -1.8484
 8150SOL     OW35908   1.111   4.512  13.737 -0.1929  0.0887  0.2658
 8150SOL    HW135909   1.138   4.457  13.810  3.6252  0.2209 -1.0348
 8150SOL    HW235910   1.026   4.475  13.714 -1.1032  2.5614 -0.3998
 8151SOL     OW35911   0.784   3.078   0.659  0.9390  0.3537  0.2360
 8151SOL    HW135912   0.847   3.006   0.662  0.5074 -0.0826 -1.0529
 8151SOL    HW235913   0.783   3.088   0.564  1.9800 -1.1370  0.0697
 8152SOL     OW35914   2.206   3.869  14.581 -0.1547  0.1265  0.0735
 8152SOL    HW135915   2.118   3.906  14.585  0.3823  1.2986  0.9468
 8152SOL    HW235916   2.244   3.929  14.645  2.0439  0.9180 -2.0139
 8153SOL     OW35917   4.255   1.533   6.324  1.0946 -0.0332 -0.0866
 8153SOL    HW135918   4.193   1.461   6.316  2.1700 -1.3448  3.6713
 8153SOL    HW235919   4.226   1.570   6.407  1.3859 -0.2833  0.1283
 8154SOL     OW35920   0.389   0.685   2.182  0.5978 -0.2310 -0.2562
 8154SOL    HW135921   0.366   0.653   2.270 -1.1444  0.8390 -0.3282
 8154SOL    HW235922   0.326   0.629   2.136  0.2769  0.0184 -0.1211
 8155SOL     OW35923   1.714   3.628   4.801 -0.0411  0.2981 -0.1748
 8155SOL    HW135924   1.783   3.586   4.854  0.2483  0.6751 -0.2529
 8155SOL    HW235925   1.760   3.711   4.796  1.9897 -0.7921  0.1274
 8156SOL     OW35926   0.691   1.905  12.439 -0.1966 -0.0739 -0.0947
 8156SOL    HW135927   0.772   1.870  12.475  0.3989  2.0996  0.6766
 8156SOL    HW235928   0.724   1.967  12.374  2.3241 -1.2120  0.1191
 8157SOL     OW35929   3.853   4.002   6.455  0.2992 -0.0023 -0.1522
 8157SOL    HW135930   3.788   3.953   6.405  0.7745  0.8098 -1.5839
 8157SOL    HW235931   3.796   4.071   6.487 -0.7032 -1.8337  2.0129
 8158SOL     OW35932   2.266   0.925  15.889  0.8881  0.0790  0.3214
 8158SOL    HW135933   2.361   0.928  15.879  0.9115 -0.8459  0.2199
 8158SOL    HW235934   2.246   0.884  15.805  0.7731  0.4802  0.1560
 8159SOL     OW35935   3.139   1.860   4.631 -0.2804 -0.0261 -0.2420
 8159SOL    HW135936   3.135   1.766   4.613  0.0079 -0.0098 -0.3889
 8159SOL    HW235937   3.051   1.876   4.597 -1.1956 -0.8693  1.7099
 8160SOL     OW35938   2.384   3.798  14.108 -0.5232  0.2044  0.4010
 8160SOL    HW135939   2.368   3.783  14.201 -0.9142 -1.1354  0.1179
 8160SOL    HW235940   2.448   3.728  14.096 -0.4025  0.7688 -2.4192
 8161SOL     OW35941   0.727   3.505   1.085 -0.4227  0.0912 -0.0796
 8161SOL    HW135942   0.799   3.442   1.081 -0.4512  0.1884 -1.9577
 8161SOL    HW235943   0.654   3.466   1.039  0.4453  0.4618 -1.7824
 8162SOL     OW35944   0.718   0.089  11.341  0.5463 -0.0479 -0.4962
 8162SOL    HW135945   0.792   0.035  11.313 -0.0091 -1.5620  0.9306
 8162SOL    HW235946   0.670   0.011  11.370  1.5997 -0.3197  0.5053
 8163SOL     OW35947   0.438   2.369   6.199  0.5444 -0.6953  0.0537
 8163SOL    HW135948   0.454   2.458   6.230 -0.0929 -0.1981 -1.0384
 8163SOL    HW235949   0.394   2.321   6.270 -2.1771  0.6029 -0.7443
 8164SOL     OW35950   3.431   1.069   0.640 -0.1831 -0.0276  0.1865
 8164SOL    HW135951   3.341   1.094   0.662 -0.3239  0.7531 -1.2475
 8164SOL    HW235952   3.478   1.121   0.705 -0.3137  1.6761 -1.0714
 8165SOL     OW35953   2.267   3.262   3.770  0.5658  1.0140  0.2143
 8165SOL    HW135954   2.231   3.217   3.693  1.6564  0.9350 -0.2443
 8165SOL    HW235955   2.270   3.351   3.734 -0.8596  1.5743  1.4879
 8166SOL     OW35956   4.425   0.582  15.936  0.6833 -0.1341 -0.6467
 8166SOL    HW135957   4.378   0.590  15.853 -1.0324  0.0503  0.3429
 8166SOL    HW235958   4.509   0.599  15.894 -1.3951 -0.0951 -4.7991
 8167SOL     OW35959   2.774   1.732  11.655 -0.1293 -0.3899 -0.3074
 8167SOL    HW135960   2.870   1.738  11.655 -0.2014  1.0629  0.9271
 8167SOL    HW235961   2.746   1.754  11.744  1.2197  0.2705 -0.0339
 8168SOL     OW35962   2.888   2.837   3.534  0.1311  0.3233  0.2414
 8168SOL    HW135963   2.814   2.879   3.491 -0.1313  1.4521  1.8420
 8168SOL    HW235964   2.916   2.910   3.588  0.0919 -0.4167  1.2522
 8169SOL     OW35965   0.329   3.404   2.755 -0.0211 -0.4310 -0.2137
 8169SOL    HW135966   0.330   3.499   2.760 -0.1675 -0.5225  1.5391
 8169SOL    HW235967   0.395   3.393   2.687 -0.0672 -1.1820 -0.1450
 8170SOL     OW35968   1.929   0.428   2.826 -0.4029 -0.1764  0.2285
 8170SOL    HW135969   1.969   0.439   2.912  0.3000 -0.6949 -0.0254
 8170SOL    HW235970   1.880   0.346   2.829 -1.1412  0.2416 -0.4549
 8171SOL     OW35971   2.120   2.013   9.879  0.2314 -0.7943  0.5008
 8171SOL    HW135972   2.125   2.103   9.849  0.2956 -1.9975 -3.0779
 8171SOL    HW235973   2.092   1.967   9.800  1.5795 -0.6248 -0.0659
 8172SOL     OW35974   1.079   3.584  13.766  0.0613  0.1574 -0.6909
 8172SOL    HW135975   1.006   3.615  13.713  1.2584 -0.7551 -2.8631
 8172SOL    HW235976   1.130   3.537  13.699 -0.9406 -0.1717 -1.2140
 8173SOL     OW35977   2.015   3.056   9.273  0.2902 -0.6367  0.0625
 8173SOL    HW135978   2.018   3.038   9.367 -1.5151 -3.0005 -0.3265
 8173SOL    HW235979   2.034   2.967   9.245 -2.0643 -1.0689 -0.1090
 8174SOL     OW35980   1.683   1.677  16.851 -0.2619 -0.3890 -0.2068
 8174SOL    HW135981   1.712   1.768  16.847 -1.3325  0.0296  1.4558
 8174SOL    HW235982   1.653   1.680  16.942 -1.4352 -0.0750 -0.6143
 8175SOL     OW35983   2.534   4.026   5.874 -0.8877 -0.0010  0.1538
 8175SOL    HW135984   2.551   4.118   5.896  1.9804 -0.3964 -0.4004
 8175SOL    HW235985   2.593   3.982   5.934  2.2617  3.8857 -0.1392
 8176SOL     OW35986   0.593   1.122   8.349 -0.2752  0.3680  0.6347
 8176SOL    HW135987   0.629   1.209   8.332 -2.5058  0.7610 -2.2554
 8176SOL    HW235988   0.667   1.089   8.399 -0.1354  0.7075  0.6529
 8177SOL     OW35989   2.716   0.054   3.060 -0.4570 -0.1112 -0.2965
 8177SOL    HW135990   2.676   0.110   2.994 -0.9786 -1.5972 -1.2380
 8177SOL    HW235991   2.752   0.119   3.120 -1.6493 -0.7538  1.1100
 8178SOL     OW35992   0.880   4.149   4.270  0.1116 -0.0144  0.2231
 8178SOL    HW135993   0.883   4.056   4.291  0.9251  0.2101  1.0780
 8178SOL    HW235994   0.798   4.136   4.222  0.8701  1.2225 -1.4120
 8179SOL     OW35995   3.538   1.321   9.049 -0.4012 -0.0607 -0.5997
 8179SOL    HW135996   3.583   1.276   8.978 -1.3309 -2.2024  0.2002
 8179SOL    HW235997   3.513   1.245   9.100  4.5712 -2.4329 -1.6871
 8180SOL     OW35998   2.699   1.519  16.172 -0.0863 -0.1038  0.0651
 8180SOL    HW135999   2.635   1.449  16.156  0.5404 -0.7408  0.3505
 8180SOL    HW236000   2.649   1.597  16.197 -0.2560 -0.2850  0.3041
 8181SOL     OW36001   2.420   1.711  15.818  0.4826  0.1030 -0.3408
 8181SOL    HW136002   2.433   1.635  15.762 -0.1744  2.1790 -3.2889
 8181SOL    HW236003   2.440   1.784  15.759 -0.8500  0.9222  0.2095
 8182SOL     OW36004   3.006   1.097   6.977  0.2968  0.1112  0.2329
 8182SOL    HW136005   2.979   1.173   6.925 -0.3343 -0.1739  0.1484
 8182SOL    HW236006   2.926   1.078   7.026 -0.8562  0.0621 -1.6717
 8183SOL     OW36007   1.974   0.522   6.244 -0.2553  0.7891  0.4864
 8183SOL    HW136008   1.973   0.575   6.164 -2.1753 -0.1681 -0.1347
 8183SOL    HW236009   1.959   0.596   6.303  0.2543  0.1973  1.3485
 8184SOL     OW36010   4.199   0.372  10.763 -0.4294 -0.3494  0.4242
 8184SOL    HW136011   4.237   0.375  10.851 -2.2159  2.7630  1.0829
 8184SOL    HW236012   4.118   0.322  10.776 -1.0357  0.5332  0.0565
 8185SOL     OW36013   2.206   3.909  13.848 -0.7819 -0.2414 -0.2286
 8185SOL    HW136014   2.167   3.869  13.770  0.0802 -2.9523  0.7192
 8185SOL    HW236015   2.175   3.856  13.921 -1.2634  1.4806  0.8301
 8186SOL     OW36016   0.592   1.388   2.387 -0.2656  0.2256  0.6298
 8186SOL    HW136017   0.588   1.404   2.293  1.9046 -1.1294  0.3192
 8186SOL    HW236018   0.498   1.371   2.400 -0.2052 -0.5087  0.0848
 8187SOL     OW36019   1.027   3.210   2.325 -0.2137 -0.1859 -0.3872
 8187SOL    HW136020   1.085   3.136   2.341  1.2013  0.9417 -0.3737
 8187SOL    HW236021   0.974   3.212   2.405 -1.0882  1.4897 -1.0149
 8188SOL     OW36022   2.550   3.650   4.336  0.6206 -0.0162  0.2855
 8188SOL    HW136023   2.485   3.595   4.379  0.3658 -0.4789 -0.6866
 8188SOL    HW236024   2.609   3.654   4.411  2.6904  0.3013 -1.3700
 8189SOL     OW36025   2.652   3.654   7.569 -0.1825 -0.1060 -0.2042
 8189SOL    HW136026   2.593   3.625   7.499 -1.1476 -0.5207  0.7801
 8189SOL    HW236027   2.689   3.737   7.539  0.7730 -0.6653 -0.5675
 8190SOL     OW36028   3.569   4.141  11.068 -0.3153  0.3338 -0.2901
 8190SOL    HW136029   3.521   4.059  11.055 -2.0525  1.1683  0.9579
 8190SOL    HW236030   3.570   4.154  11.162  0.9015  1.8740 -0.5070
 8191SOL     OW36031   1.239   1.517   7.452  0.0645  0.0175 -0.2794
 8191SOL    HW136032   1.225   1.483   7.364  1.9828 -1.0304 -0.1861
 8191SOL    HW236033   1.201   1.451   7.510  0.9071 -0.2935 -0.0784
 8192SOL     OW36034   1.495   0.086   6.466  0.1846  0.2574  0.2255
 8192SOL    HW136035   1.475   4.717   6.478 -1.4169  0.5334 -0.3484
 8192SOL    HW236036   1.493   0.079   6.371 -0.3734 -0.8472  0.3073
 8193SOL     OW36037   3.347   4.589   9.348  0.0086  0.6872  0.3828
 8193SOL    HW136038   3.311   4.677   9.341  0.6390  0.7658 -1.9299
 8193SOL    HW236039   3.352   4.558   9.258  0.4680  0.6334  0.4260
 8194SOL     OW36040   0.182   3.953   2.133  0.1170 -0.5663 -0.3889
 8194SOL    HW136041   0.139   3.870   2.157 -1.8502  0.8856  1.0499
 8194SOL    HW236042   0.229   3.937   2.051  1.2387  1.4015 -0.1180
 8195SOL     OW36043   1.315   3.721   5.504 -0.4685  0.2865  0.1900
 8195SOL    HW136044   1.357   3.684   5.581 -0.1681 -0.2829 -0.2483
 8195SOL    HW236045   1.233   3.672   5.498  1.0433 -2.0107 -1.4148
 8196SOL     OW36046   3.920   1.222   2.252 -0.2195 -0.1906 -0.0674
 8196SOL    HW136047   3.893   1.231   2.344  2.4383  2.1576  0.4928
 8196SOL    HW236048   3.986   1.152   2.249  0.0310  0.1313 -2.0287
 8197SOL     OW36049   4.073   0.059   3.717  0.3379 -0.1367 -0.4598
 8197SOL    HW136050   4.034   0.056   3.804 -3.5708 -1.5825 -2.2451
 8197SOL    HW236051   4.018   0.126   3.676  2.5935  2.6070  0.9883
 8198SOL     OW36052   1.883   3.617   6.803  0.0385 -0.1786 -0.0769
 8198SOL    HW136053   1.875   3.580   6.891 -1.0594  0.6518  0.1822
 8198SOL    HW236054   1.959   3.577   6.761 -0.8699 -1.2790 -0.6751
 8199SOL     OW36055   3.131   3.761   3.817 -0.7195 -0.3399 -0.6309
 8199SOL    HW136056   3.177   3.808   3.886  0.9351 -0.3014 -1.7793
 8199SOL    HW236057   3.040   3.791   3.813 -1.6221 -3.0496 -0.6716
 8200SOL     OW36058   4.595   4.659   3.255 -0.0000 -0.0626 -0.6016
 8200SOL    HW136059   4.554   0.020   3.270  1.2145  0.2004  1.2160
 8200SOL    HW236060   4.519   4.601   3.262 -0.7611  0.5891 -3.7437
 8201SOL     OW36061   4.311   3.839   1.564 -0.3861 -0.6617 -0.1819
 8201SOL    HW136062   4.230   3.809   1.606 -2.6157  2.8680 -1.9675
 8201SOL    HW236063   4.276   3.869   1.480  2.0833  0.2086 -0.8826
 8202SOL     OW36064   4.452   2.089   5.806  0.3823  0.4364 -0.2749
 8202SOL    HW136065   4.520   2.063   5.744  0.8367  0.5992  0.1607
 8202SOL    HW236066   4.402   2.008   5.795 -1.9026  2.1636 -2.7062
 8203SOL     OW36067   3.442   2.842  14.717  0.9339 -0.3842 -0.1329
 8203SOL    HW136068   3.462   2.899  14.643 -1.9724 -1.8546 -2.0642
 8203SOL    HW236069   3.462   2.763  14.667  2.2923 -1.1601  1.6301
 8204SOL     OW36070   1.156   4.413   9.072 -0.2777  0.7350  0.0047
 8204SOL    HW136071   1.132   4.324   9.099 -0.8834  0.3404 -1.8318
 8204SOL    HW236072   1.153   4.465   9.152  1.1823  0.1869  0.4210
 8205SOL     OW36073   1.535   1.474   5.425 -0.0135  0.1121  0.5047
 8205SOL    HW136074   1.589   1.462   5.503 -0.9923  1.4594  1.3954
 8205SOL    HW236075   1.452   1.483   5.472 -1.3746 -0.9576 -1.6861
 8206SOL     OW36076   3.079   1.929   3.504  0.1139 -0.5383  0.5608
 8206SOL    HW136077   3.167   1.928   3.542  0.0787 -1.0817  0.6277
 8206SOL    HW236078   3.028   1.877   3.567 -1.2063  0.7128  0.5098
 8207SOL     OW36079   1.526   4.500  11.136 -0.6016  0.2082  0.1276
 8207SOL    HW136080   1.464   4.429  11.118 -0.6001  0.5162 -1.0728
 8207SOL    HW236081   1.468   4.573  11.115  0.5260  1.5272  1.6415
 8208SOL     OW36082   0.431   0.761  11.219 -0.3904 -0.1982  0.4655
 8208SOL    HW136083   0.519   0.788  11.244  0.4158 -2.2711 -0.1656
 8208SOL    HW236084   0.411   0.680  11.266  1.1083 -1.3245 -0.8380
 8209SOL     OW36085   4.255   2.457   3.151  0.0803 -0.1971  0.3603
 8209SOL    HW136086   4.200   2.512   3.205 -1.3623  0.7893 -2.1045
 8209SOL    HW236087   4.226   2.368   3.172 -1.7177 -0.0376 -1.4533
 8210SOL     OW36088   0.989   3.006  12.832 -0.2758  0.1751 -0.3390
 8210SOL    HW136089   1.019   3.054  12.754  0.9863  1.3137  0.8316
 8210SOL    HW236090   0.993   3.067  12.906 -0.9579  0.6440 -0.6903
 8211SOL     OW36091   1.953   3.865  16.034 -0.2043 -0.0766  0.2611
 8211SOL    HW136092   2.007   3.793  16.002  0.0630 -0.1687  0.9284
 8211SOL    HW236093   1.915   3.827  16.113  1.2139 -2.2912 -0.1315
 8212SOL     OW36094   3.641   4.711  14.479 -0.2360 -0.8381 -0.3663
 8212SOL    HW136095   3.677   4.704  14.568 -1.5705  1.5985  0.3771
 8212SOL    HW236096   3.562   0.037  14.497  0.1973 -0.3598  0.2144
 8213SOL     OW36097   1.377   4.499   8.682 -0.0552  0.9878  0.3828
 8213SOL    HW136098   1.456   4.541   8.647  0.0835  0.5010  0.1069
 8213SOL    HW236099   1.400   4.487   8.774  0.5381  0.2226  0.1292
 8214SOL     OW36100   1.326   0.884   6.482 -0.0728  0.2049 -0.0754
 8214SOL    HW136101   1.373   0.860   6.562  1.8734 -0.0232 -1.2878
 8214SOL    HW236102   1.302   0.975   6.495  0.9545  0.2657  1.3134
 8215SOL     OW36103   2.990   0.556  10.052  0.4394 -0.2907 -0.1328
 8215SOL    HW136104   3.057   0.573   9.986  0.6420  1.6900  0.5771
 8215SOL    HW236105   2.919   0.562   9.988 -0.2206 -1.6051  0.4866
 8216SOL     OW36106   2.595   0.491   7.251  0.2894 -0.5350  0.6206
 8216SOL    HW136107   2.591   0.406   7.293 -3.7188 -1.1956 -1.0550
 8216SOL    HW236108   2.606   0.475   7.157  0.0504 -3.5179  1.1003
 8217SOL     OW36109   3.830   0.494   3.111  0.3258 -0.1497 -0.3395
 8217SOL    HW136110   3.746   0.496   3.064 -0.5988 -1.5478  1.2431
 8217SOL    HW236111   3.891   0.542   3.055  2.2828 -0.0732  1.8621
 8218SOL     OW36112   2.374   4.038   0.879 -0.2653 -0.4680 -0.3612
 8218SOL    HW136113   2.407   4.107   0.821  0.3060 -0.6963 -0.3108
 8218SOL    HW236114   2.308   4.096   0.917 -1.6309 -0.0377 -3.3939
 8219SOL     OW36115   1.549   0.044   5.764 -0.3628 -0.2540  0.1125
 8219SOL    HW136116   1.617   0.109   5.784  1.2522 -1.6844 -0.7959
 8219SOL    HW236117   1.491   0.079   5.831 -1.2345 -0.7063 -0.4157
 8220SOL     OW36118   2.582   1.550  17.266  0.3532  0.1676 -0.1204
 8220SOL    HW136119   2.560   1.540  17.359  1.2677 -1.7592 -0.1242
 8220SOL    HW236120   2.507   1.520  17.215  0.9491  0.3813 -1.1270
 8221SOL     OW36121   0.545   4.093   9.498 -0.1382 -0.2915 -0.2464
 8221SOL    HW136122   0.606   4.021   9.512  1.0351  1.3247  2.8804
 8221SOL    HW236123   0.584   4.155   9.559  1.0285  0.4036 -1.7020
 8222SOL     OW36124   2.251   0.785   3.714  1.0834 -0.6387 -0.2399
 8222SOL    HW136125   2.306   0.827   3.648  1.2567 -2.4616 -1.2689
 8222SOL    HW236126   2.191   0.851   3.747 -0.4696 -2.6384  0.9059
 8223SOL     OW36127   0.915   4.489   1.935  0.0615 -0.3496  0.3408
 8223SOL    HW136128   0.915   4.530   2.022  0.8292 -1.0234  0.6617
 8223SOL    HW236129   0.948   4.400   1.952 -2.0121 -1.1505  0.2374
 8224SOL     OW36130   4.524   2.801   8.104  0.1664 -0.0608 -0.2866
 8224SOL    HW136131   4.551   2.769   8.190 -1.1291 -2.6738 -0.8351
 8224SOL    HW236132   4.437   2.762   8.099 -0.4075  1.1685  0.1162
 8225SOL     OW36133   3.103   3.407   1.936 -0.5858 -0.4352  0.1414
 8225SOL    HW136134   3.178   3.463   1.916 -0.0829 -1.7855 -1.8141
 8225SOL    HW236135   3.037   3.473   1.913  0.4262 -0.0017 -1.5104
 8226SOL     OW36136   3.633   4.460  11.326  0.1067 -0.0449  0.3397
 8226SOL    HW136137   3.722   4.425  11.326 -0.1430 -0.6604  2.2406
 8226SOL    HW236138   3.652   4.529  11.262 -0.2880  0.5101  0.8264
 8227SOL     OW36139   3.114   3.197   0.839 -0.0394 -0.1494 -0.1425
 8227SOL    HW136140   3.163   3.276   0.814 -0.5229  0.0254 -0.5503
 8227SOL    HW236141   3.181   3.152   0.889 -0.3592  1.3075  1.5949
 8228SOL     OW36142   3.428   2.954   6.023  0.3253 -0.0477 -0.0713
 8228SOL    HW136143   3.334   2.961   6.009  0.2172 -1.6789 -0.1796
 8228SOL    HW236144   3.435   3.003   6.105  1.9257 -0.4118  0.0066
 8229SOL     OW36145   0.372   4.210   8.640  0.5958 -0.2932  0.1202
 8229SOL    HW136146   0.392   4.302   8.622 -1.5624  0.1977  0.1286
 8229SOL    HW236147   0.416   4.177   8.562  0.9224  1.5157 -0.4658
 8230SOL     OW36148   1.395   0.917   1.045 -0.4781  0.1280 -0.3795
 8230SOL    HW136149   1.303   0.900   1.065 -0.4518  0.9581  0.4735
 8230SOL    HW236150   1.426   0.982   1.108 -1.2651  0.1338 -0.0010
 8231SOL     OW36151   3.794   1.318  10.517  0.3990 -0.1728  0.4697
 8231SOL    HW136152   3.883   1.334  10.486  0.9085  1.3433  2.7006
 8231SOL    HW236153   3.756   1.275  10.441 -3.9531 -1.0367  3.1468
 8232SOL     OW36154   0.529   4.125   5.888  0.0052 -0.0830 -0.4394
 8232SOL    HW136155   0.624   4.137   5.884 -0.1073  0.4314 -1.3656
 8232SOL    HW236156   0.510   4.163   5.975 -0.2743  0.2502 -0.6456
 8233SOL     OW36157   4.246   4.118  15.179 -0.2464  0.3515  0.1006
 8233SOL    HW136158   4.219   4.142  15.090  0.8720 -0.5027 -0.4548
 8233SOL    HW236159   4.281   4.032  15.158 -0.4175  0.8835 -2.3775
 8234SOL     OW36160   2.531   4.656   1.106 -0.2683  0.0552  0.1823
 8234SOL    HW136161   2.592   4.586   1.083 -0.5784  0.1857 -1.0712
 8234SOL    HW236162   2.588   0.005   1.084  0.5475 -0.5340  0.3353
 8235SOL     OW36163   1.204   0.069   9.836  0.9530  0.4974 -0.1186
 8235SOL    HW136164   1.165   0.153   9.811 -1.2921 -0.2606  0.9052
 8235SOL    HW236165   1.179   0.018   9.759  0.0894  0.4876  0.1766
 8236SOL     OW36166   3.387   0.687  17.499  0.6303 -0.3863 -0.0820
 8236SOL    HW136167   3.293   0.686  17.518  0.4617 -1.8929 -1.0095
 8236SOL    HW236168   3.403   0.603  17.456  0.2434 -0.1263 -0.7359
 8237SOL     OW36169   3.300   1.036   8.935  0.9308  0.6497 -0.8424
 8237SOL    HW136170   3.374   1.049   8.993  0.0691 -1.4697  0.7171
 8237SOL    HW236171   3.316   0.944   8.914  0.0939 -0.3441  2.8755
 8238SOL     OW36172   1.070   2.874   2.800 -0.0223 -0.4214 -0.0968
 8238SOL    HW136173   1.066   2.966   2.776  0.9939 -0.3606 -0.0474
 8238SOL    HW236174   1.126   2.876   2.878  1.4715  0.9741 -1.2010
 8239SOL     OW36175   4.101   4.000   1.787 -0.0106  1.2476 -0.1592
 8239SOL    HW136176   4.040   4.062   1.827 -1.4180 -0.4006  0.2715
 8239SOL    HW236177   4.064   3.999   1.698 -0.6980  0.4386  0.1281
 8240SOL     OW36178   1.945   1.660   3.627 -0.9767  0.1493  0.0882
 8240SOL    HW136179   2.014   1.599   3.600 -0.6574  0.1594  0.8913
 8240SOL    HW236180   1.869   1.605   3.607 -0.0166 -0.2627 -2.4354
 8241SOL     OW36181   4.131   1.291  10.623 -0.0293  0.2077 -0.0944
 8241SOL    HW136182   4.149   1.307  10.715  0.4333  1.6482 -0.4305
 8241SOL    HW236183   4.071   1.217  10.620 -1.8142  1.5502  2.8101
 8242SOL     OW36184   4.163   2.687   0.005  0.1795  0.0693  0.3557
 8242SOL    HW136185   4.167   2.738  17.624  1.5764 -1.2491 -0.4109
 8242SOL    HW236186   4.096   2.729   0.059  1.4754  1.4236  0.9038
 8243SOL     OW36187   0.197   3.732  12.944 -0.7638  0.5374 -0.1363
 8243SOL    HW136188   0.233   3.811  12.984 -0.0015 -0.1335  0.5172
 8243SOL    HW236189   0.255   3.741  12.869  1.9311  0.9203  2.0135
 8244SOL     OW36190   3.700   2.681   1.451  0.4533 -0.4166  0.2434
 8244SOL    HW136191   3.791   2.674   1.425  0.1413 -0.8036 -0.7209
 8244SOL    HW236192   3.714   2.676   1.546  0.5849 -1.6541  0.1538
 8245SOL     OW36193   3.935   2.958   4.069  0.0531 -0.3648 -0.0833
 8245SOL    HW136194   3.899   2.903   4.138  0.1052 -0.1207  0.1357
 8245SOL    HW236195   3.865   3.019   4.044  0.1355 -0.5925 -0.8877
 8246SOL     OW36196   1.817   3.832   3.723  0.9514  0.2797  0.1102
 8246SOL    HW136197   1.730   3.837   3.682  0.5931  1.6104  1.0273
 8246SOL    HW236198   1.854   3.747   3.702  1.9201  0.7971 -0.2488
 8247SOL     OW36199   4.609   4.033   1.311  0.5972  0.0846 -0.4169
 8247SOL    HW136200   4.577   4.048   1.222  1.3345  2.6560 -0.2380
 8247SOL    HW236201   4.573   3.945   1.325  0.5745 -0.5632 -4.4958
 8248SOL     OW36202   3.862   1.532   2.511 -0.3329  0.1046  0.2767
 8248SOL    HW136203   3.830   1.610   2.555 -2.0988 -1.7472  2.2509
 8248SOL    HW236204   3.775   1.495   2.493 -0.2505  0.1728 -0.2864
 8249SOL     OW36205   3.109   1.243   8.011 -0.4401 -0.0392  0.6305
 8249SOL    HW136206   3.103   1.151   8.036 -1.0344  0.1030  1.0334
 8249SOL    HW236207   3.189   1.267   8.058 -1.3378 -0.2544  2.3037
 8250SOL     OW36208   4.456   3.460   8.932  0.1553 -0.1070 -0.2560
 8250SOL    HW136209   4.536   3.486   8.887  1.5525 -0.1058  2.2664
 8250SOL    HW236210   4.422   3.549   8.944  2.4498  0.3268  2.9319
 8251SOL     OW36211   0.777   3.825   2.953  0.3125  0.3367  0.3056
 8251SOL    HW136212   0.837   3.855   2.884 -0.2124  1.9346  0.5292
 8251SOL    HW236213   0.813   3.875   3.027 -0.8243  1.8471 -0.1522
 8252SOL     OW36214   4.095   4.608  15.967  0.0480  0.5906  0.1751
 8252SOL    HW136215   4.132   4.695  15.979  0.5775  0.1523  1.7813
 8252SOL    HW236216   4.007   4.613  16.004  0.2415 -1.4029  0.9390
 8253SOL     OW36217   4.670   1.017  14.751  0.0499 -0.4216 -0.2407
 8253SOL    HW136218   4.604   1.069  14.797  1.2813 -0.1200  1.1958
 8253SOL    HW236219   4.687   1.076  14.677 -0.7680 -1.9869 -1.6901
 8254SOL     OW36220   2.780   0.528  15.839  0.5374  0.2118  0.2031
 8254SOL    HW136221   2.764   0.435  15.855  0.6906  0.1189 -0.1769
 8254SOL    HW236222   2.707   0.541  15.778 -0.1674  0.8934  1.2085
 8255SOL     OW36223   3.390   0.428   9.160 -0.1319 -0.0666  0.5981
 8255SOL    HW136224   3.374   0.509   9.111  0.1731 -0.0853  0.4670
 8255SOL    HW236225   3.439   0.448   9.240  0.4406 -0.2625  0.2959
 8256SOL     OW36226   3.477   0.568   5.579  0.5832  0.0731 -0.3407
 8256SOL    HW136227   3.542   0.506   5.613  1.5084  1.0998 -0.2256
 8256SOL    HW236228   3.476   0.555   5.484  0.4245  1.8217 -0.5751
 8257SOL     OW36229   1.702   3.655   5.915  0.3878 -0.7373  0.1774
 8257SOL    HW136230   1.725   3.670   6.007  1.1772  0.5140 -0.2383
 8257SOL    HW236231   1.658   3.735   5.887 -1.1716 -1.4125  0.6292
 8258SOL     OW36232   4.360   3.495   9.283  0.4875 -0.5132  0.2761
 8258SOL    HW136233   4.390   3.446   9.206  0.5050  0.4407 -0.3208
 8258SOL    HW236234   4.331   3.576   9.240  0.1011  0.2817  2.0653
 8259SOL     OW36235   4.205   2.236   2.095 -0.0517 -0.1848  0.0192
 8259SOL    HW136236   4.262   2.274   2.162 -0.3204  0.5479 -0.1657
 8259SOL    HW236237   4.168   2.321   2.072  0.1720  0.4510  2.0063
 8260SOL     OW36238   4.630   0.757   6.210  0.2190  0.1006  0.2960
 8260SOL    HW136239   4.591   0.694   6.269  0.5515  1.0712  1.5521
 8260SOL    HW236240   4.634   0.834   6.267 -0.9821 -1.0639  1.9145
 8261SOL     OW36241   1.018   2.015  13.325  0.2316  0.2969  0.5971
 8261SOL    HW136242   0.999   1.959  13.250  2.1784  1.3404 -0.6808
 8261SOL    HW236243   0.944   1.997  13.383 -0.6567  0.2021 -0.5713
 8262SOL     OW36244   0.510   1.348  14.819 -0.2820 -0.1675  0.2257
 8262SOL    HW136245   0.525   1.437  14.849 -0.2423  0.2906 -1.1507
 8262SOL    HW236246   0.590   1.323  14.773 -1.2952  0.2695 -1.7854
 8263SOL     OW36247   3.153   2.482  10.027  0.2281  0.0142  0.0868
 8263SOL    HW136248   3.114   2.501   9.941 -1.4304  0.6392  0.9696
 8263SOL    HW236249   3.244   2.477   9.996 -0.1115 -0.4425 -0.8549
 8264SOL     OW36250   1.917   2.976   3.349 -0.4025 -0.0939  0.4553
 8264SOL    HW136251   1.917   2.908   3.415 -0.3098  0.8602  1.4453
 8264SOL    HW236252   1.944   2.937   3.266  1.6702  2.6876 -0.2007
 8265SOL     OW36253   4.556   3.198  11.269  0.5738  0.7036 -0.4006
 8265SOL    HW136254   4.561   3.270  11.332  1.5463  1.1227 -0.9546
 8265SOL    HW236255   4.631   3.150  11.302 -0.2353  1.4056  2.4780
 8266SOL     OW36256   2.749   4.126   2.213  0.7160 -0.2488  0.1598
 8266SOL    HW136257   2.683   4.136   2.144  1.9956 -1.3657 -1.2136
 8266SOL    HW236258   2.770   4.033   2.208  0.7243 -0.2447  0.1223
 8267SOL     OW36259   0.715   2.081   9.501 -0.3584  0.4308 -0.2804
 8267SOL    HW136260   0.682   2.062   9.589  0.7907  0.4140  0.1537
 8267SOL    HW236261   0.809   2.079   9.519 -0.2486 -3.6751 -1.1420
 8268SOL     OW36262   0.736   3.821  17.048  0.0665 -0.0690  0.1176
 8268SOL    HW136263   0.700   3.907  17.027 -1.5014 -1.2743 -2.0689
 8268SOL    HW236264   0.685   3.788  17.121  0.5553 -1.4794 -0.1676
 8269SOL     OW36265   2.869   3.837   3.845  0.0925 -0.0911  0.6029
 8269SOL    HW136266   2.835   3.924   3.865 -0.0301  0.1310 -0.5750
 8269SOL    HW236267   2.867   3.795   3.931 -1.9530  1.5742  1.3678
 8270SOL     OW36268   4.480   2.293   5.604  0.2863  0.5759  0.0171
 8270SOL    HW136269   4.454   2.210   5.645  1.6545 -0.1553 -0.6084
 8270SOL    HW236270   4.398   2.336   5.580 -1.2403 -1.1292  2.1349
 8271SOL     OW36271   0.346   0.999   8.802  0.3121 -0.5871  0.2394
 8271SOL    HW136272   0.389   1.082   8.784 -0.0770 -0.1522  1.2817
 8271SOL    HW236273   0.415   0.945   8.842  0.5576  0.3418  1.0915
 8272SOL     OW36274   3.915   3.740   7.902  0.1359 -0.2139 -0.7216
 8272SOL    HW136275   3.994   3.739   7.848  0.0922 -4.6240 -0.6638
 8272SOL    HW236276   3.943   3.742   7.994 -1.8181 -0.3921 -0.1313
 8273SOL     OW36277   4.642   1.756   0.762  0.0080  0.0521 -0.6764
 8273SOL    HW136278   0.010   1.733   0.755 -0.0495 -0.5197  0.4296
 8273SOL    HW236279   4.656   1.837   0.713  2.2734  0.0434 -0.0057
 8274SOL     OW36280   2.721   2.719  17.012  0.1805 -0.1681  0.2674
 8274SOL    HW136281   2.672   2.799  16.992 -0.0769 -0.1922  0.8214
 8274SOL    HW236282   2.657   2.648  17.011 -1.4372  1.2789  1.7754
 8275SOL     OW36283   3.736   1.438   4.302 -0.2899  0.3525  0.0896
 8275SOL    HW136284   3.799   1.404   4.365 -2.2607 -2.1260  0.7532
 8275SOL    HW236285   3.766   1.523   4.271  0.3416 -0.3538 -1.2347
 8276SOL     OW36286   0.757   1.963   4.745  0.4062  0.4211  0.1399
 8276SOL    HW136287   0.848   1.991   4.758  0.6287 -0.3683  0.2979
 8276SOL    HW236288   0.722   2.041   4.704 -1.4643  0.5732  2.0104
 8277SOL     OW36289   0.089   0.155   5.557  0.6084  0.3797  0.4774
 8277SOL    HW136290   0.081   0.150   5.462  1.9680  1.6896  0.2991
 8277SOL    HW236291   0.061   0.246   5.570  0.2438  0.7949 -3.2742
 8278SOL     OW36292   2.934   2.954  15.479 -0.0510 -0.0811  0.0757
 8278SOL    HW136293   2.847   2.994  15.471  1.4255  2.9073 -0.9556
 8278SOL    HW236294   2.927   2.887  15.410 -2.2657  2.3430 -2.0454
 8279SOL     OW36295   2.938   2.672  15.899  0.4131  0.2303  0.1351
 8279SOL    HW136296   2.897   2.737  15.841  2.4957  1.1080 -0.3445
 8279SOL    HW236297   2.867   2.636  15.953  0.6210 -0.9907 -0.4058
 8280SOL     OW36298   4.499   1.971   8.896 -0.1998 -0.1810 -0.0228
 8280SOL    HW136299   4.461   1.963   8.984  1.7314  0.9483  0.9187
 8280SOL    HW236300   4.499   2.062   8.865 -0.9987 -0.1569  0.0370
 8281SOL     OW36301   0.026   3.537  12.993  0.2057  0.4566  0.7799
 8281SOL    HW136302   0.069   3.620  12.973 -0.6300  0.5671 -0.5190
 8281SOL    HW236303   0.079   3.516  13.070  2.7098  1.7724 -0.6187
 8282SOL     OW36304   1.891   4.445  16.412 -0.5754 -0.0331  0.2267
 8282SOL    HW136305   1.900   4.418  16.503  1.3950  1.9505  0.6318
 8282SOL    HW236306   1.800   4.474  16.406 -0.0614  1.7169  0.8327
 8283SOL     OW36307   4.229   4.149  16.181 -0.0724  0.1213 -0.6211
 8283SOL    HW136308   4.149   4.175  16.135 -2.9368 -0.8655  3.7598
 8283SOL    HW236309   4.187   4.092  16.246  0.8096 -0.3625 -0.4716
 8284SOL     OW36310   3.988   2.288   6.557  0.1514  0.1578  0.4253
 8284SOL    HW136311   3.995   2.238   6.638  0.0998 -1.2990 -0.4827
 8284SOL    HW236312   3.912   2.239   6.526 -1.5745  1.5425  2.4497
 8285SOL     OW36313   3.385   0.136   2.443 -0.2577 -0.0290 -0.2474
 8285SOL    HW136314   3.437   0.056   2.441 -0.7884 -0.3812 -0.0627
 8285SOL    HW236315   3.340   0.134   2.358 -1.3723  1.2455  0.3057
 8286SOL     OW36316   1.355   4.004  16.745  0.0346 -0.1065  0.1470
 8286SOL    HW136317   1.263   3.978  16.751 -0.5125  1.8348  0.1848
 8286SOL    HW236318   1.357   4.084  16.798 -1.4877 -0.0741  0.1549
 8287SOL     OW36319   3.265   1.202   6.974  0.0423  0.1113  0.2605
 8287SOL    HW136320   3.251   1.199   6.880 -1.6890 -3.8002  0.6411
 8287SOL    HW236321   3.176   1.173   6.996  0.1941  1.2627  2.3892
 8288SOL     OW36322   0.366   2.762   0.072  0.8471 -0.0167  0.1311
 8288SOL    HW136323   0.405   2.675   0.070  0.6522 -0.1119  0.4745
 8288SOL    HW236324   0.391   2.805  17.690  0.4905 -1.1307 -0.5518
 8289SOL     OW36325   3.861   0.675   5.439 -0.1404 -0.1049  0.1248
 8289SOL    HW136326   3.796   0.660   5.507  0.5505 -1.5832  0.4600
 8289SOL    HW236327   3.940   0.667   5.493  0.4585  1.6350 -0.4722
 8290SOL     OW36328   4.630   2.345   1.039 -0.3321  0.7528  0.0837
 8290SOL    HW136329   4.622   2.251   1.049  0.2807  0.9164  2.3110
 8290SOL    HW236330   4.705   2.352   0.981  0.0111  2.1017  0.6780
 8291SOL     OW36331   1.535   3.103   2.704 -0.0935  0.1390 -0.1204
 8291SOL    HW136332   1.537   3.106   2.800 -2.3089  0.5775 -0.0756
 8291SOL    HW236333   1.442   3.112   2.683 -0.2043 -2.1987 -0.6142
 8292SOL     OW36334   3.443   2.703   5.300 -0.2718  0.5798  0.2920
 8292SOL    HW136335   3.460   2.793   5.271 -3.6464  0.8472 -0.9155
 8292SOL    HW236336   3.527   2.658   5.288 -1.0311 -1.1201  1.3518
 8293SOL     OW36337   1.703   0.512   7.156  0.2615 -0.0562 -0.0764
 8293SOL    HW136338   1.753   0.568   7.097  0.9423  0.8561  1.3568
 8293SOL    HW236339   1.647   0.466   7.094  0.1415  0.1285 -0.1039
 8294SOL     OW36340   2.806   1.388  16.411 -0.1873  0.0495 -0.7818
 8294SOL    HW136341   2.722   1.406  16.453 -0.0622  0.4027 -0.6813
 8294SOL    HW236342   2.784   1.440  16.334 -1.1972  0.3094 -0.3097
 8295SOL     OW36343   0.417   3.723   7.815 -0.4964  0.3571 -0.4029
 8295SOL    HW136344   0.456   3.656   7.758  0.6900  0.3461  0.4176
 8295SOL    HW236345   0.438   3.689   7.902 -0.6495  0.4978 -0.3130
 8296SOL     OW36346   2.333   2.424   8.173  0.8623  0.0443 -0.2096
 8296SOL    HW136347   2.375   2.364   8.111 -0.3087 -0.4544 -0.5154
 8296SOL    HW236348   2.397   2.496   8.168 -0.6262  1.3276 -0.9701
 8297SOL     OW36349   1.203   2.313   3.561 -0.7836 -0.7502 -0.4948
 8297SOL    HW136350   1.132   2.334   3.501  0.3162  2.7009 -0.6116
 8297SOL    HW236351   1.259   2.390   3.553 -1.7161  0.0151  0.4284
 8298SOL     OW36352   3.520   0.360  14.888  0.4336 -0.1922 -0.5118
 8298SOL    HW136353   3.468   0.369  14.967 -1.2383 -0.8220 -1.5535
 8298SOL    HW236354   3.581   0.288  14.908 -0.7718 -0.6110  1.6112
 8299SOL     OW36355   1.099   1.796   4.478 -0.2004  0.0359 -0.4886
 8299SOL    HW136356   1.184   1.808   4.521 -1.0892 -0.9768  1.5643
 8299SOL    HW236357   1.114   1.738   4.404  0.9411 -0.0856 -0.1569
 8300SOL     OW36358   1.598   4.636   1.373 -0.1852  0.2333  0.3649
 8300SOL    HW136359   1.617   4.688   1.295 -0.1737 -0.7166 -0.2731
 8300SOL    HW236360   1.604   4.695   1.448 -0.8869  2.2518 -1.1633
 8301SOL     OW36361   2.509   2.455   2.415  0.1755  0.2630  0.2557
 8301SOL    HW136362   2.438   2.511   2.447  2.0303  2.0244  1.3220
 8301SOL    HW236363   2.561   2.526   2.377 -1.2639  0.9758 -0.3755
 8302SOL     OW36364   3.702   4.169   4.261 -0.1193 -0.4070 -0.2965
 8302SOL    HW136365   3.779   4.143   4.311  2.1290  3.2413 -1.8821
 8302SOL    HW236366   3.737   4.144   4.176 -1.1855 -0.4829 -0.7055
 8303SOL     OW36367   0.889   1.744   8.819 -0.0071  0.0838  0.6859
 8303SOL    HW136368   0.826   1.721   8.887  3.0452 -0.9270  3.1812
 8303SOL    HW236369   0.955   1.675   8.826  1.2551  1.3027  0.8800
 8304SOL     OW36370   3.438   0.683   7.112 -0.3151 -0.5146 -0.2498
 8304SOL    HW136371   3.430   0.768   7.068  0.1292 -1.7907 -2.7805
 8304SOL    HW236372   3.459   0.706   7.202  0.7708  0.3056 -0.7101
 8305SOL     OW36373   3.611   1.706   7.239  0.8541 -0.7841 -0.3219
 8305SOL    HW136374   3.694   1.659   7.244 -0.2086 -2.7647 -1.1136
 8305SOL    HW236375   3.626   1.775   7.304 -0.3586 -2.0368  1.2841
 8306SOL     OW36376   2.212   4.622   6.306 -0.3007 -0.0309  0.7448
 8306SOL    HW136377   2.179   4.532   6.304 -0.3627  0.0126 -0.1538
 8306SOL    HW236378   2.148   4.679   6.263  0.8425  1.5046  1.0855
 8307SOL     OW36379   2.678   2.652   6.330  0.3675  0.0479  0.0403
 8307SOL    HW136380   2.697   2.686   6.243  0.4408 -0.3287 -0.0916
 8307SOL    HW236381   2.648   2.735   6.367  1.5128  1.1824 -1.6183
 8308SOL     OW36382   1.317   3.970   5.814  0.0104 -0.2116  0.0727
 8308SOL    HW136383   1.234   3.931   5.844 -0.2901 -0.7491 -1.4639
 8308SOL    HW236384   1.296   3.990   5.723  0.4646  0.1827  0.0568
 8309SOL     OW36385   4.418   3.213   6.096  0.4235  0.1390 -0.2197
 8309SOL    HW136386   4.431   3.204   6.190 -0.5890 -1.3008 -0.2249
 8309SOL    HW236387   4.326   3.185   6.096 -0.0564  1.7263  2.3711
 8310SOL     OW36388   2.411   4.162   7.724 -0.1368 -0.0004 -0.4675
 8310SOL    HW136389   2.366   4.138   7.805 -0.5670  2.0719 -0.1119
 8310SOL    HW236390   2.420   4.252   7.753 -1.7581 -0.1263  0.3919
 8311SOL     OW36391   4.521   2.717   2.467 -0.2344  0.2885  0.1414
 8311SOL    HW136392   4.548   2.719   2.558 -0.0039  0.3046  0.0716
 8311SOL    HW236393   4.441   2.665   2.474 -0.0905  0.4958  3.1512
 8312SOL     OW36394   2.087   0.505  16.052  0.1294 -0.4826 -0.0555
 8312SOL    HW136395   2.062   0.419  16.017  0.1397 -1.8171  3.2780
 8312SOL    HW236396   2.065   0.494  16.144  0.8752  0.5543  0.2422
 8313SOL     OW36397   1.315   0.885   6.201 -0.3240  0.1209  0.4533
 8313SOL    HW136398   1.237   0.830   6.198 -0.4206  0.2955 -0.3869
 8313SOL    HW236399   1.307   0.910   6.293 -0.8513  0.0606  0.4221
 8314SOL     OW36400   1.513   4.501   4.724 -0.0682  0.3334 -0.3871
 8314SOL    HW136401   1.554   4.499   4.811  1.8791 -0.6504 -1.3210
 8314SOL    HW236402   1.550   4.418   4.693 -0.3838 -0.1879  0.6457
 8315SOL     OW36403   3.555   1.822  13.746  0.2735  0.3353  0.0176
 8315SOL    HW136404   3.490   1.755  13.766 -0.3648  1.1224  0.5563
 8315SOL    HW236405   3.603   1.778  13.675  1.0192 -0.0542  0.7725
 8316SOL     OW36406   0.348   4.404  15.304 -0.0058  0.2652  0.5511
 8316SOL    HW136407   0.304   4.346  15.242 -1.9004  2.0427  0.2313
 8316SOL    HW236408   0.422   4.431  15.249 -0.3256 -1.8127 -0.8799
 8317SOL     OW36409   0.433   0.953   4.447  0.7950  0.2995  0.2098
 8317SOL    HW136410   0.353   0.940   4.498  1.0978  0.1425  0.6426
 8317SOL    HW236411   0.480   0.873   4.473  0.3209 -0.0014  0.1381
 8318SOL     OW36412   0.254   1.213   3.614 -0.0609 -0.0585  0.2712
 8318SOL    HW136413   0.337   1.236   3.572  0.3058 -0.4152  0.7969
 8318SOL    HW236414   0.205   1.187   3.535  1.6896  0.9049 -1.1362
 8319SOL     OW36415   1.545   2.618   7.682  0.1450  0.1501  0.1702
 8319SOL    HW136416   1.482   2.672   7.730  2.5884  2.5495  0.7397
 8319SOL    HW236417   1.547   2.664   7.598 -0.6384  0.8150  0.5184
 8320SOL     OW36418   2.417   3.285   8.716 -0.1242  0.1798 -0.0345
 8320SOL    HW136419   2.359   3.361   8.721 -1.6239 -0.9382 -0.2127
 8320SOL    HW236420   2.458   3.286   8.803  1.9222 -1.4751 -0.9745
 8321SOL     OW36421   2.650   2.021   8.045 -0.6718 -0.1572  0.2555
 8321SOL    HW136422   2.709   2.028   8.120 -0.1140  1.3941 -0.3269
 8321SOL    HW236423   2.593   2.091   8.077 -1.9562  0.4246 -3.3424
 8322SOL     OW36424   0.784   3.224   4.883 -0.2917  0.3341 -0.2475
 8322SOL    HW136425   0.716   3.274   4.928  0.3065 -0.0910  1.1216
 8322SOL    HW236426   0.861   3.225   4.940 -0.5710 -3.0289  0.1453
 8323SOL     OW36427   3.882   0.322   0.638 -0.8056 -0.1783  0.1635
 8323SOL    HW136428   3.845   0.382   0.573  1.7958  1.1136 -0.1253
 8323SOL    HW236429   3.918   0.241   0.603 -0.2167 -0.2102  0.8467
 8324SOL     OW36430   4.708   3.767   2.207  0.2840 -0.0011 -0.6234
 8324SOL    HW136431   4.692   3.819   2.285  2.1436 -0.9431  0.3896
 8324SOL    HW236432   4.651   3.816   2.148 -0.5405  1.6899  1.5920
 8325SOL     OW36433   3.871   1.260   2.953  0.1591  0.4137 -0.2552
 8325SOL    HW136434   3.908   1.259   2.865 -1.1989  0.7283 -0.8160
 8325SOL    HW236435   3.898   1.178   2.995 -1.5582  0.2291  0.5003
 8326SOL     OW36436   2.025   3.297  12.324  0.4742 -0.1479 -0.4417
 8326SOL    HW136437   2.004   3.379  12.369  2.0772 -1.4811  2.6723
 8326SOL    HW236438   2.082   3.332  12.255  1.0266  0.3827  0.2856
 8327SOL     OW36439   2.159   1.621   1.705 -0.8521 -0.1300 -0.3136
 8327SOL    HW136440   2.067   1.594   1.701 -1.0855  0.7909 -1.2548
 8327SOL    HW236441   2.174   1.682   1.633  1.9826 -1.0611 -0.4899
 8328SOL     OW36442   3.988   2.969   3.790  0.3507  0.2015 -0.0714
 8328SOL    HW136443   3.989   2.944   3.883  0.2181 -0.9877 -0.3979
 8328SOL    HW236444   4.002   3.064   3.792  1.9804 -0.0553  1.0578
 8329SOL     OW36445   2.259   1.777   9.929 -0.0121 -0.2230  0.0241
 8329SOL    HW136446   2.172   1.761   9.893 -0.0784  0.4869 -0.1480
 8329SOL    HW236447   2.232   1.829  10.005  0.6968 -0.3227  0.3475
 8330SOL     OW36448   2.046   0.002  12.712  0.0842  0.1465  0.5884
 8330SOL    HW136449   2.024   0.086  12.751 -1.6593 -0.9278  1.9319
 8330SOL    HW236450   1.959   4.708  12.676  0.1840  0.3712  0.2210
 8331SOL     OW36451   0.586   1.396  14.334  0.2144  0.1745  0.1928
 8331SOL    HW136452   0.591   1.359  14.246 -0.8510 -0.8256  0.5519
 8331SOL    HW236453   0.514   1.354  14.382 -0.0192  1.4714  0.9855
 8332SOL     OW36454   1.819   0.251   1.735 -0.3674  0.0799  0.0771
 8332SOL    HW136455   1.785   0.306   1.806  0.3787  1.1646 -0.3970
 8332SOL    HW236456   1.907   0.242   1.772 -0.8844 -1.5074  0.9173
 8333SOL     OW36457   1.938   3.027   8.320  0.9100  0.0981 -0.0589
 8333SOL    HW136458   1.945   2.932   8.327  1.8669  0.3220  1.9856
 8333SOL    HW236459   1.946   3.030   8.225 -0.2269 -0.9590 -0.1859
 8334SOL     OW36460   0.309   1.603   5.139 -0.4611 -0.3020  0.7242
 8334SOL    HW136461   0.359   1.551   5.076  0.0041  1.3359 -0.2521
 8334SOL    HW236462   0.292   1.683   5.089  0.1364 -2.2453 -2.5863
 8335SOL     OW36463   0.771   3.296  15.457  0.2824  0.1069 -0.2392
 8335SOL    HW136464   0.722   3.274  15.377  2.4019  1.9183 -2.0482
 8335SOL    HW236465   0.762   3.390  15.470 -0.8427 -0.0197 -0.1575
 8336SOL     OW36466   2.776   4.378  14.926 -0.0189 -0.8002  0.2996
 8336SOL    HW136467   2.753   4.467  14.900 -2.2013 -0.9514  1.7284
 8336SOL    HW236468   2.838   4.397  14.997 -2.0795  1.1622  1.5580
 8337SOL     OW36469   1.592   1.812  14.806 -0.2755 -0.0900  0.2953
 8337SOL    HW136470   1.599   1.789  14.899  2.4311  1.2758  0.4484
 8337SOL    HW236471   1.661   1.753  14.775  0.6052  2.5492 -2.7838
 8338SOL     OW36472   1.637   1.148   7.435  0.2536 -0.0864  0.0199
 8338SOL    HW136473   1.664   1.234   7.402  1.8956 -0.0080  1.5307
 8338SOL    HW236474   1.679   1.140   7.521  1.1162  1.7105 -0.2342
 8339SOL     OW36475   3.830   0.949   8.609  1.1276 -0.1478  0.1648
 8339SOL    HW136476   3.808   0.865   8.649  1.0177 -0.4972 -0.6243
 8339SOL    HW236477   3.921   0.965   8.636  1.1499 -1.4501  0.8596
 8340SOL     OW36478   0.300   3.363   6.999  0.2319  0.2657 -0.0598
 8340SOL    HW136479   0.367   3.295   7.007  0.1071  0.1948  0.4070
 8340SOL    HW236480   0.288   3.383   7.092 -0.0434  2.1784 -0.5240
 8341SOL     OW36481   0.576   0.487  17.059  0.3779  0.1837  0.8674
 8341SOL    HW136482   0.529   0.554  17.108  1.3929  1.2769  0.3460
 8341SOL    HW236483   0.509   0.418  17.059  0.6613 -0.1048 -0.3109
 8342SOL     OW36484   4.551   1.188   2.778 -0.7559 -0.3260 -1.0628
 8342SOL    HW136485   4.507   1.230   2.705 -3.4877  0.2148  0.8756
 8342SOL    HW236486   4.602   1.253   2.827  0.1105 -1.3125 -0.6465
 8343SOL     OW36487   2.511   0.919   7.977  0.6441 -0.2797  0.0406
 8343SOL    HW136488   2.573   0.942   7.907 -0.8941  1.3717 -0.7831
 8343SOL    HW236489   2.481   1.005   8.004 -2.9470 -2.3998  2.7843
 8344SOL     OW36490   2.164   0.779   1.746 -0.1580 -0.4677 -0.5008
 8344SOL    HW136491   2.199   0.691   1.759 -0.8837 -0.7027 -0.1240
 8344SOL    HW236492   2.220   0.811   1.676 -1.3013  2.5803 -0.0449
 8345SOL     OW36493   4.155   3.376  15.854  0.3306  0.4074 -0.0849
 8345SOL    HW136494   4.101   3.452  15.877 -1.0220 -0.6307  0.1682
 8345SOL    HW236495   4.205   3.404  15.778 -0.5235  2.3431  0.0491
 8346SOL     OW36496   3.412   3.094   3.266 -0.3809  0.1496 -0.3015
 8346SOL    HW136497   3.419   3.010   3.313  0.9746 -0.6375 -1.8985
 8346SOL    HW236498   3.348   3.148   3.312  1.6758  2.1572  0.2100
 8347SOL     OW36499   4.054   1.569  11.084 -0.8819  0.3933 -0.1786
 8347SOL    HW136500   4.135   1.617  11.101 -0.9464  0.0907  1.0017
 8347SOL    HW236501   4.011   1.577  11.169 -0.6874  0.6258 -0.1021
 8348SOL     OW36502   3.452   2.383   3.556  0.8790  1.0411  0.3176
 8348SOL    HW136503   3.437   2.441   3.630  0.7243 -1.4636  2.2384
 8348SOL    HW236504   3.360   2.369   3.536  1.4501 -0.9631 -0.8774
 8349SOL     OW36505   0.751   3.644   3.561 -0.3512 -0.5471 -0.4980
 8349SOL    HW136506   0.668   3.682   3.533 -1.3036  0.2962  3.4550
 8349SOL    HW236507   0.714   3.588   3.629 -1.7615  1.0108  0.0250
 8350SOL     OW36508   3.633   2.740   2.189  0.4673 -0.3576  0.6070
 8350SOL    HW136509   3.561   2.723   2.250  1.9927 -2.3383  1.8549
 8350SOL    HW236510   3.684   2.799   2.245 -0.7311  0.8948  0.3768
 8351SOL     OW36511   0.114   3.853   4.139 -0.6211 -0.2560 -0.1984
 8351SOL    HW136512   0.122   3.869   4.233  0.2130  1.3045 -0.5315
 8351SOL    HW236513   0.027   3.815   4.124  0.9377 -2.7191 -3.1476
 8352SOL     OW36514   3.573   3.737   6.676  0.5357  0.2141  0.1904
 8352SOL    HW136515   3.607   3.825   6.695 -0.7089  0.7767 -0.1694
 8352SOL    HW236516   3.647   3.699   6.628 -0.6477 -2.7962  0.8116
 8353SOL     OW36517   3.839   3.808   1.709  0.0422 -0.0777  0.0521
 8353SOL    HW136518   3.921   3.768   1.680 -0.1856  0.1953 -0.9901
 8353SOL    HW236519   3.831   3.881   1.648  1.1547  0.9503  1.1287
 8354SOL     OW36520   0.721   4.364   1.723  0.8328  0.3303 -0.6531
 8354SOL    HW136521   0.802   4.400   1.761 -0.9965  2.8710  0.8194
 8354SOL    HW236522   0.744   4.323   1.639  1.0451  2.5242 -1.6756
 8355SOL     OW36523   0.588   3.180   7.156 -0.4592 -0.1969  0.1474
 8355SOL    HW136524   0.660   3.142   7.105  0.1682  1.6121 -0.2964
 8355SOL    HW236525   0.525   3.116   7.123 -1.1362  0.6169 -0.1357
 8356SOL     OW36526   1.908   1.910   6.705  0.4753 -0.4021  0.0320
 8356SOL    HW136527   1.983   1.866   6.664  0.0944 -0.2912 -0.7802
 8356SOL    HW236528   1.832   1.872   6.661 -0.0482 -1.1005  1.5175
 8357SOL     OW36529   2.803   3.034   3.048 -0.0617 -0.2828 -0.0720
 8357SOL    HW136530   2.856   3.075   2.980  1.2825 -1.5558  0.2234
 8357SOL    HW236531   2.755   2.967   3.000  0.3551 -1.3999  1.0646
 8358SOL     OW36532   2.519   1.797   7.995 -0.3850 -0.1961  0.4695
 8358SOL    HW136533   2.462   1.828   7.924  0.1791  2.9551  1.4352
 8358SOL    HW236534   2.569   1.876   8.011 -0.1539  0.4699 -3.4923
 8359SOL     OW36535   3.183   3.224   8.737  0.0037 -0.3860 -0.0759
 8359SOL    HW136536   3.207   3.282   8.664  1.3497  1.5561  1.8739
 8359SOL    HW236537   3.251   3.157   8.736  1.7588  1.3540  0.6383
 8360SOL     OW36538   2.540   3.235   9.866 -0.6009  0.0903  0.0574
 8360SOL    HW136539   2.489   3.292   9.924  0.1083 -0.0511  0.8169
 8360SOL    HW236540   2.623   3.219   9.911  0.0161  0.5906 -0.9049
 8361SOL     OW36541   2.830   0.035  16.806 -0.1532  0.1263 -0.0262
 8361SOL    HW136542   2.872   4.697  16.865  1.6471 -0.1916 -1.6306
 8361SOL    HW236543   2.892   0.039  16.733  0.0182 -1.1928  0.0499
 8362SOL     OW36544   4.463   2.648   3.535 -0.2095  0.1250 -0.4649
 8362SOL    HW136545   4.557   2.663   3.525  0.1967 -2.8313 -1.1687
 8362SOL    HW236546   4.425   2.728   3.498 -1.1006  0.3235  0.8768
 8363SOL     OW36547   0.422   3.307   1.368  0.0519 -0.0118 -0.3972
 8363SOL    HW136548   0.480   3.248   1.320  1.6203 -0.9508  2.6891
 8363SOL    HW236549   0.419   3.254   1.448 -0.0356 -0.1242 -0.4742
 8364SOL     OW36550   2.527   2.014   3.077 -0.3222 -0.2149 -0.0397
 8364SOL    HW136551   2.497   1.979   2.993 -2.0752 -2.3501  1.4415
 8364SOL    HW236552   2.621   1.999   3.066 -0.8850 -1.0573 -3.6536
 8365SOL     OW36553   2.718   3.853  15.674 -0.2383  0.3215  0.4782
 8365SOL    HW136554   2.761   3.825  15.755 -0.4549  2.2005  1.2601
 8365SOL    HW236555   2.631   3.857  15.714 -0.9503 -1.1996 -0.9370
 8366SOL     OW36556   0.014   0.366   5.331  0.0370  0.4264 -0.4806
 8366SOL    HW136557   4.692   0.390   5.251 -0.9555  1.3337  0.3667
 8366SOL    HW236558   4.717   0.441   5.387  0.0310  1.1508 -1.4463
 8367SOL     OW36559   0.989   4.083   8.180  1.0290  0.0035 -0.1365
 8367SOL    HW136560   0.954   4.005   8.138 -1.3932  0.7781  0.4807
 8367SOL    HW236561   0.916   4.144   8.182 -0.8700 -2.2817 -0.5247
 8368SOL     OW36562   0.019   0.980   7.213 -0.0607 -0.4625 -0.7685
 8368SOL    HW136563   4.709   0.909   7.265 -0.5257  1.2496  1.2566
 8368SOL    HW236564   0.048   0.929   7.137 -0.2201  1.3779 -2.0733
 8369SOL     OW36565   1.415   0.968   4.772 -0.1115  0.2829 -0.0954
 8369SOL    HW136566   1.350   0.924   4.826  0.8694 -0.4634  0.4830
 8369SOL    HW236567   1.390   0.936   4.686 -3.4105  0.5131  0.7808
 8370SOL     OW36568   2.099   1.441   8.348 -0.1346 -0.4654  0.7135
 8370SOL    HW136569   2.187   1.452   8.311 -1.3262 -1.7341 -2.5663
 8370SOL    HW236570   2.117   1.414   8.438  0.9241 -0.9613  0.3566
 8371SOL     OW36571   2.535   0.012  16.825  0.4670  0.2537 -0.3203
 8371SOL    HW136572   2.496   4.650  16.830 -0.1004  0.5485  0.4042
 8371SOL    HW236573   2.628   4.718  16.812  1.0950  0.9657  3.1108
 8372SOL     OW36574   0.612   1.962   4.269 -0.6271  0.0971 -0.2192
 8372SOL    HW136575   0.680   1.965   4.336 -2.1068 -0.2988  1.2909
 8372SOL    HW236576   0.604   1.867   4.256 -1.0229  0.2212 -0.8920
 8373SOL     OW36577   3.033   0.499   4.420  0.1635  0.2046 -0.2660
 8373SOL    HW136578   2.960   0.439   4.428 -0.2812  0.4747 -2.3754
 8373SOL    HW236579   3.016   0.557   4.495  1.1412  2.1749 -1.5437
 8374SOL     OW36580   2.288   0.053  10.091  0.1345 -0.2836 -0.1991
 8374SOL    HW136581   2.222   4.723  10.134 -0.8620 -0.4712 -1.9210
 8374SOL    HW236582   2.247   0.138  10.100  1.1168  0.0971  0.6204
 8375SOL     OW36583   4.189   4.155   7.886 -0.4105  0.2246 -0.1546
 8375SOL    HW136584   4.124   4.110   7.832  2.2398 -3.1885 -0.4876
 8375SOL    HW236585   4.264   4.124   7.834 -1.1005 -1.2452 -0.2786
 8376SOL     OW36586   1.107   3.304  12.270 -0.0982  0.2802  0.4240
 8376SOL    HW136587   1.094   3.221  12.224  0.0005 -0.4563  1.7033
 8376SOL    HW236588   1.150   3.350  12.198  1.1292  0.4316  1.2528
 8377SOL     OW36589   2.853   2.945   8.186 -0.2303  0.2498 -0.1275
 8377SOL    HW136590   2.847   2.998   8.106  0.4343 -0.9336 -0.9674
 8377SOL    HW236591   2.917   3.003   8.227  1.1579  0.5690 -2.7532
 8378SOL     OW36592   2.357   0.116   2.429  0.1170 -0.3357 -0.1562
 8378SOL    HW136593   2.314   0.189   2.385  2.9941  1.0110 -0.6983
 8378SOL    HW236594   2.414   0.071   2.366 -0.3228 -0.4413 -0.4800
 8379SOL     OW36595   2.832   2.306   4.281  0.3144 -0.6748  0.2446
 8379SOL    HW136596   2.904   2.266   4.329 -0.0299  1.4216  2.5135
 8379SOL    HW236597   2.862   2.309   4.191  2.2355 -0.3069  0.9024
 8380SOL     OW36598   2.898   0.514   7.950  0.5688 -0.0294  0.6233
 8380SOL    HW136599   2.858   0.469   7.876  1.9953 -0.5747  0.1745
 8380SOL    HW236600   2.966   0.452   7.979  1.4763  0.0606 -1.3323
 8381SOL     OW36601   1.862   2.161   5.513 -0.3036 -0.3031  0.2231
 8381SOL    HW136602   1.826   2.249   5.506  1.6013  0.3113 -1.7448
 8381SOL    HW236603   1.956   2.179   5.518  0.7359 -4.8641 -2.3257
 8382SOL     OW36604   1.429   4.267   8.273  0.2438 -0.2416  0.0543
 8382SOL    HW136605   1.387   4.265   8.187 -2.0491 -0.3156  1.1851
 8382SOL    HW236606   1.368   4.204   8.313 -1.4854  2.5849  1.8439
 8383SOL     OW36607   2.927   3.969   8.963  0.1439  0.4270 -0.7449
 8383SOL    HW136608   2.960   4.046   8.916  2.8398 -1.1067 -1.3825
 8383SOL    HW236609   2.957   3.893   8.913  1.6273 -0.8489  2.0497
 8384SOL     OW36610   0.167   2.681   1.303  0.0377  0.0661 -0.1431
 8384SOL    HW136611   0.171   2.653   1.394  0.0063 -0.3561 -0.2729
 8384SOL    HW236612   0.084   2.727   1.312 -0.5612 -1.4029  1.7298
 8385SOL     OW36613   1.427   2.186   3.491  0.7661  0.2311 -0.0632
 8385SOL    HW136614   1.344   2.225   3.518  0.4280  1.1391 -2.4008
 8385SOL    HW236615   1.389   2.109   3.447  1.5817 -0.8557  1.1191
 8386SOL     OW36616   1.485   1.847   6.867 -0.1713 -0.1495 -0.3010
 8386SOL    HW136617   1.426   1.808   6.931  0.0052 -1.3648 -0.8899
 8386SOL    HW236618   1.463   1.805   6.784 -1.1049 -1.3968  0.5942
 8387SOL     OW36619   3.641   1.367   2.512  0.0035 -0.2829 -1.1773
 8387SOL    HW136620   3.565   1.425   2.504 -1.4196 -1.9489  0.6062
 8387SOL    HW236621   3.599   1.284   2.492  2.0153 -1.1147 -1.9793
 8388SOL     OW36622   4.427   2.196   1.302  0.3424 -0.1083  0.3236
 8388SOL    HW136623   4.333   2.204   1.320  0.4808  1.2690  0.4288
 8388SOL    HW236624   4.436   2.101   1.289  1.6898  0.3287 -1.7743
 8389SOL     OW36625   1.297   1.109   0.082  0.1316  0.5357  0.1821
 8389SOL    HW136626   1.233   1.163   0.127 -0.4505  1.0634 -1.3050
 8389SOL    HW236627   1.381   1.154   0.074  0.3647  0.2417  0.9940
 8390SOL     OW36628   3.150   3.462  11.979  0.3432 -0.7608  0.0128
 8390SOL    HW136629   3.152   3.408  12.058 -0.1854 -2.1321 -0.8913
 8390SOL    HW236630   3.183   3.537  12.027 -1.1950  1.3168 -2.1784
 8391SOL     OW36631   0.334   1.856   8.845 -0.1456  0.3431 -0.3398
 8391SOL    HW136632   0.299   1.796   8.912  1.4764 -1.5223 -1.1548
 8391SOL    HW236633   0.253   1.890   8.808 -1.1284 -1.1136  0.4444
 8392SOL     OW36634   1.654   1.908   0.566 -0.0311  0.3087 -0.2834
 8392SOL    HW136635   1.681   1.862   0.646  4.7136 -0.4570 -2.3328
 8392SOL    HW236636   1.587   1.848   0.534 -1.8791  1.8050  0.7577
 8393SOL     OW36637   4.489   2.167   9.280 -0.0905  0.2592 -0.2067
 8393SOL    HW136638   4.522   2.109   9.211  0.6176  1.4808 -0.8923
 8393SOL    HW236639   4.536   2.129   9.355  0.8543  1.3600 -0.2309
 8394SOL     OW36640   2.177   2.410   2.291  0.2188  0.2985  0.5190
 8394SOL    HW136641   2.148   2.465   2.218 -1.4790  1.2542  1.9037
 8394SOL    HW236642   2.200   2.470   2.362  0.3102  1.8704 -0.8310
 8395SOL     OW36643   3.017   0.034  16.583 -0.3600  0.5244  0.4098
 8395SOL    HW136644   2.963   0.070  16.512 -2.5403 -1.0002  1.3176
 8395SOL    HW236645   3.106   0.059  16.559 -0.8389 -0.0004 -1.9595
 8396SOL     OW36646   0.316   1.052   0.996 -0.5738  0.0674 -0.0875
 8396SOL    HW136647   0.245   0.990   1.009  0.1268 -0.5398  0.8064
 8396SOL    HW236648   0.291   1.111   0.924  1.2362  0.0188 -0.7692
 8397SOL     OW36649   3.675   1.824   4.766  0.5890 -0.5278 -0.0721
 8397SOL    HW136650   3.764   1.814   4.800  1.0787 -0.6735 -1.4354
 8397SOL    HW236651   3.694   1.841   4.674 -2.7479 -0.6165 -0.7978
 8398SOL     OW36652   4.079   4.051   5.806 -0.4195 -0.0678 -0.0878
 8398SOL    HW136653   4.121   4.018   5.885 -0.0752  0.8318  0.1048
 8398SOL    HW236654   3.988   4.023   5.816 -0.2035 -0.9418 -0.5809
 8399SOL     OW36655   2.541   1.312   6.206  0.2722  0.4522  0.1257
 8399SOL    HW136656   2.612   1.289   6.266  0.8240  0.0669 -0.6658
 8399SOL    HW236657   2.588   1.335   6.125  1.5481 -0.2107  0.6783
 8400SOL     OW36658   3.869   3.458   0.165  0.1837  0.7586  0.0664
 8400SOL    HW136659   3.932   3.400   0.208  2.7329  3.5442  0.1220
 8400SOL    HW236660   3.791   3.405   0.154  0.5740  0.3093 -0.5715
 8401SOL     OW36661   0.481   2.403   5.597  0.6425  0.1599 -0.6732
 8401SOL    HW136662   0.434   2.413   5.514  0.5126  0.3575 -0.5743
 8401SOL    HW236663   0.407   2.383   5.655 -0.2432 -0.6935 -2.0822
 8402SOL     OW36664   3.669   2.806   4.287 -0.0049 -0.6609 -0.5725
 8402SOL    HW136665   3.607   2.734   4.298  0.9685 -1.3347  0.4953
 8402SOL    HW236666   3.741   2.750   4.258  1.4079  0.5755  0.5539
 8403SOL     OW36667   4.091   3.077   3.005  0.0878 -0.0980 -0.4872
 8403SOL    HW136668   4.074   3.047   3.094  1.6210  0.2243 -0.0860
 8403SOL    HW236669   4.184   3.056   3.002  0.0893 -0.1614  0.1221
 8404SOL     OW36670   2.688   2.329  16.862 -0.2881  0.2335 -0.4179
 8404SOL    HW136671   2.774   2.364  16.884  0.4643 -0.8125 -1.6832
 8404SOL    HW236672   2.702   2.298  16.772 -0.8629 -1.3056  0.0347
 8405SOL     OW36673   3.308   0.745   7.654  0.6336 -0.0980  0.0168
 8405SOL    HW136674   3.292   0.744   7.749  0.4767  2.6491  0.0167
 8405SOL    HW236675   3.396   0.707   7.652  1.1079  1.1174 -1.7657
 8406SOL     OW36676   0.217   3.475   4.486 -0.0842  0.1318  0.2532
 8406SOL    HW136677   0.302   3.504   4.520 -1.9428  1.1165  3.9857
 8406SOL    HW236678   0.177   3.561   4.471 -1.5147 -0.3497  1.3195
 8407SOL     OW36679   1.834   4.503   6.442  0.1934 -0.0571 -0.2083
 8407SOL    HW136680   1.751   4.507   6.489  1.2832  2.1025  1.5073
 8407SOL    HW236681   1.881   4.439   6.495 -0.2092  0.5533  0.8868
 8408SOL     OW36682   2.374   1.777  10.686 -0.4387  0.6835 -0.3411
 8408SOL    HW136683   2.417   1.845  10.737  1.4580 -0.3178 -0.5963
 8408SOL    HW236684   2.367   1.820  10.600 -2.4335  0.2556 -0.3948
 8409SOL     OW36685   0.460   1.103  16.051  0.0270  0.1057 -0.5265
 8409SOL    HW136686   0.544   1.135  16.020 -1.2080  3.5421 -0.4071
 8409SOL    HW236687   0.432   1.180  16.102 -1.9538 -0.3553 -0.9228
 8410SOL     OW36688   3.817   1.787   1.905  0.2142  0.0101 -0.2786
 8410SOL    HW136689   3.828   1.756   1.995  1.6001 -0.2590 -0.5429
 8410SOL    HW236690   3.798   1.880   1.918  2.1105  0.5784 -1.5766
 8411SOL     OW36691   2.454   4.125   8.929 -0.6270 -0.0400 -0.0170
 8411SOL    HW136692   2.514   4.129   9.003 -0.0722 -1.2905 -0.3878
 8411SOL    HW236693   2.429   4.034   8.946 -0.3436 -0.3236 -1.1099
 8412SOL     OW36694   3.324   1.896   3.683 -0.3744 -0.2943 -0.0036
 8412SOL    HW136695   3.355   1.983   3.660 -0.5469 -0.7416 -1.9864
 8412SOL    HW236696   3.394   1.839   3.652  1.0304 -0.3830  3.4265
 8413SOL     OW36697   1.824   4.666   0.887  0.3018  0.3598 -0.1774
 8413SOL    HW136698   1.829   4.661   0.983 -1.8608 -1.0861 -0.1371
 8413SOL    HW236699   1.879   0.019   0.876  2.5798 -0.9288  2.0972
 8414SOL     OW36700   3.155   3.977   2.452  0.5491 -0.3443 -0.4022
 8414SOL    HW136701   3.141   3.960   2.359 -0.1657  3.9833 -1.1071
 8414SOL    HW236702   3.246   4.008   2.454  0.2278  0.4838  1.3700
 8415SOL     OW36703   0.708   4.279   3.610  0.0756  0.6034 -0.4211
 8415SOL    HW136704   0.755   4.219   3.552 -1.2548 -1.8373  1.0276
 8415SOL    HW236705   0.719   4.361   3.561  0.7449  1.8722  1.8560
 8416SOL     OW36706   3.177   1.603   6.659  0.3355 -0.2611  0.1167
 8416SOL    HW136707   3.151   1.684   6.617 -1.3781 -0.5891  0.5344
 8416SOL    HW236708   3.092   1.566   6.683 -0.2077  0.3476 -0.9153
 8417SOL     OW36709   0.589   4.096   8.845 -0.0277  0.3584  0.6321
 8417SOL    HW136710   0.674   4.104   8.801 -1.0523 -0.1353 -1.4292
 8417SOL    HW236711   0.534   4.108   8.768  0.7498 -0.0761  0.0036
 8418SOL     OW36712   0.716   0.894   4.590 -0.3562  0.3529 -0.1639
 8418SOL    HW136713   0.735   0.800   4.589 -0.3641  0.3583 -0.6346
 8418SOL    HW236714   0.647   0.913   4.653 -0.6783  3.2434 -1.3979
 8419SOL     OW36715   2.342   0.851   5.538 -0.0144 -0.4309 -0.0668
 8419SOL    HW136716   2.438   0.846   5.537  0.0014 -0.0276 -0.2289
 8419SOL    HW236717   2.330   0.877   5.630  0.2131  4.6346 -1.4902
 8420SOL     OW36718   1.042   0.980  15.562 -0.2977 -0.0491 -0.1681
 8420SOL    HW136719   1.086   1.054  15.604  1.6156 -1.2420 -0.0693
 8420SOL    HW236720   1.110   0.914  15.553  1.4436  2.1458 -3.0634
 8421SOL     OW36721   3.698   0.433   6.597 -0.0745  0.2682  0.2579
 8421SOL    HW136722   3.771   0.372   6.596 -0.6370 -0.3689 -2.1896
 8421SOL    HW236723   3.721   0.471   6.682 -0.8162  3.0684 -0.7911
 8422SOL     OW36724   4.456   3.689  15.764  0.0122 -0.7254 -0.0850
 8422SOL    HW136725   4.495   3.735  15.839 -0.7496  0.3908 -0.3680
 8422SOL    HW236726   4.481   3.600  15.789  1.8549 -0.4874 -1.0765
 8423SOL     OW36727   4.720   0.497  16.550  0.4828 -0.6319  0.3904
 8423SOL    HW136728   4.697   0.409  16.580 -0.8997 -1.2856 -2.5950
 8423SOL    HW236729   4.652   0.515  16.486 -0.2949 -1.5861  0.9478
 8424SOL     OW36730   2.378   0.611  14.242  0.3399  0.0695  0.7706
 8424SOL    HW136731   2.460   0.660  14.250 -0.6996  1.7688  0.9218
 8424SOL    HW236732   2.348   0.626  14.332  1.0983  0.8713  0.8861
 8425SOL     OW36733   0.638   3.192   2.706  0.6361 -0.4849 -0.3707
 8425SOL    HW136734   0.680   3.108   2.725 -0.0533 -0.1517  2.6314
 8425SOL    HW236735   0.572   3.193   2.775  1.5281  1.3414  0.4831
 8426SOL     OW36736   4.094   3.340   7.061 -0.2352 -0.3721  0.3266
 8426SOL    HW136737   4.165   3.319   7.122 -0.6709  0.6102  1.1695
 8426SOL    HW236738   4.132   3.373   6.980 -0.2155  2.4722  1.4930
 8427SOL     OW36739   1.502   3.104  12.279 -0.1190  0.2464 -0.4947
 8427SOL    HW136740   1.560   3.089  12.353 -0.4131 -0.6148 -0.4339
 8427SOL    HW236741   1.535   3.187  12.246  1.2012  0.6131  1.7489
 8428SOL     OW36742   1.543   2.785  14.225 -0.4433 -0.2045 -0.4877
 8428SOL    HW136743   1.630   2.789  14.183 -0.0501  1.2940  0.4510
 8428SOL    HW236744   1.535   2.693  14.198 -0.5012  0.1371 -1.6665
 8429SOL     OW36745   2.854   1.318   7.658 -0.4670  0.1320 -0.2552
 8429SOL    HW136746   2.764   1.288   7.664 -0.7272  0.7515 -1.0591
 8429SOL    HW236747   2.849   1.409   7.629 -1.7503 -0.1726 -0.9914
 8430SOL     OW36748   2.156   3.342   7.929  0.5017  0.2478  0.3059
 8430SOL    HW136749   2.065   3.314   7.924  0.4594  0.7234 -1.6670
 8430SOL    HW236750   2.188   3.305   7.846 -1.5989 -1.2279  0.1555
 8431SOL     OW36751   4.101   0.716   2.388  0.0451  0.1031  0.3113
 8431SOL    HW136752   4.089   0.682   2.299  0.2542  1.3019 -0.1778
 8431SOL    HW236753   4.179   0.664   2.406 -0.5543 -1.4218 -1.5588
 8432SOL     OW36754   4.087   2.670   3.679  0.1672  0.1586 -0.3391
 8432SOL    HW136755   4.142   2.740   3.715  1.5122  0.1579 -2.3817
 8432SOL    HW236756   4.001   2.705   3.655  0.8537  2.3278  0.3559
 8433SOL     OW36757   3.023   0.434   4.864 -0.5750 -0.2442 -0.2790
 8433SOL    HW136758   2.960   0.414   4.794  0.4416  2.7213 -2.0200
 8433SOL    HW236759   3.093   0.378   4.830 -0.3915  0.0621 -0.4024
 8434SOL     OW36760   1.805   3.004   9.854 -0.2373 -0.3949 -0.5113
 8434SOL    HW136761   1.778   2.917   9.881 -0.7115 -0.4606 -1.1951
 8434SOL    HW236762   1.878   2.990   9.793  0.0263 -0.6317 -0.1348
 8435SOL     OW36763   4.699   0.617  15.852 -0.2514 -0.3000  0.2119
 8435SOL    HW136764   4.717   0.711  15.863 -1.4250 -0.1215  0.5809
 8435SOL    HW236765   0.064   0.585  15.866  0.9420  2.2962 -1.4179
 8436SOL     OW36766   3.466   1.063   9.148  0.4780 -0.4775 -0.0398
 8436SOL    HW136767   3.453   1.061   9.243 -1.1855  2.6829 -0.1970
 8436SOL    HW236768   3.560   1.068   9.131  0.6673  0.0319  1.1485
 8437SOL     OW36769   3.012   2.312   7.824  0.2666  0.0272 -0.0399
 8437SOL    HW136770   3.054   2.228   7.841  0.0752 -0.8775 -3.9828
 8437SOL    HW236771   2.994   2.339   7.913  0.2434  0.7412 -0.2640
 8438SOL     OW36772   1.470   0.469   8.143 -0.2176  0.5561 -0.0732
 8438SOL    HW136773   1.542   0.486   8.083 -1.0624  1.5283 -0.8136
 8438SOL    HW236774   1.433   0.556   8.128 -0.9348  0.5517  1.6745
 8439SOL     OW36775   4.383   2.972  12.033  0.4002  0.1947 -0.0718
 8439SOL    HW136776   4.459   3.023  12.004  1.0926 -0.5092  0.5035
 8439SOL    HW236777   4.349   2.936  11.951 -3.7285  2.3237  0.7397
 8440SOL     OW36778   1.278   1.021  12.731  0.1680  0.2134 -0.3455
 8440SOL    HW136779   1.364   1.030  12.773  0.9213  1.8152 -2.1981
 8440SOL    HW236780   1.300   0.934  12.696  3.7003  1.5991 -1.6068
 8441SOL     OW36781   2.057   0.244   1.862  0.3079 -0.3188 -0.0758
 8441SOL    HW136782   2.083   0.165   1.911 -1.0430 -0.9610 -0.4079
 8441SOL    HW236783   2.053   0.294   1.944  1.6170 -0.5174  0.1239
 8442SOL     OW36784   3.884   0.868   2.157 -0.1665  0.6287  0.1929
 8442SOL    HW136785   3.793   0.895   2.145 -0.0057  0.4487 -1.4428
 8442SOL    HW236786   3.883   0.781   2.118 -2.3203  0.6248  0.2577
 8443SOL     OW36787   2.320   1.928   4.848  0.6614  0.1857  0.1311
 8443SOL    HW136788   2.231   1.962   4.852 -0.2939 -2.3022 -0.2382
 8443SOL    HW236789   2.362   1.997   4.900 -1.3546  1.7894 -0.3965
 8444SOL     OW36790   4.435   3.265   3.691  0.1338  0.0489 -0.0284
 8444SOL    HW136791   4.385   3.190   3.724 -0.9763  0.8816  0.2006
 8444SOL    HW236792   4.525   3.241   3.712  0.5457 -0.2787 -2.1578
 8445SOL     OW36793   0.310   1.928   2.585  0.0339 -0.3867  0.1184
 8445SOL    HW136794   0.395   1.952   2.548  0.1633 -0.5051  0.3427
 8445SOL    HW236795   0.336   1.897   2.671  2.5564 -0.0484 -0.5308
 8446SOL     OW36796   0.519   2.273  11.174  0.2964  0.8646  0.5523
 8446SOL    HW136797   0.428   2.285  11.201  0.7160  1.4023  1.7273
 8446SOL    HW236798   0.496   2.208  11.108  0.7859  1.5092 -0.2502
 8447SOL     OW36799   0.234   0.323   2.981  0.2121 -0.7654  0.2847
 8447SOL    HW136800   0.288   0.306   2.903  0.9399  0.7714  0.4394
 8447SOL    HW236801   0.298   0.327   3.052  0.9423 -2.5445 -0.2601
 8448SOL     OW36802   0.736   0.244  12.601 -0.7666 -0.2622 -0.4695
 8448SOL    HW136803   0.663   0.283  12.649  1.0728  2.2652  0.3005
 8448SOL    HW236804   0.709   0.225  12.511  0.1199 -1.1639 -0.5486
 8449SOL     OW36805   0.244   1.192   7.984 -0.4793  0.3857  0.1745
 8449SOL    HW136806   0.310   1.259   7.965 -0.1596  0.9918  3.3170
 8449SOL    HW236807   0.191   1.194   7.905 -0.6370  0.2721  0.2775
 8450SOL     OW36808   2.563   4.243   0.275  0.2610  0.0652 -0.1382
 8450SOL    HW136809   2.608   4.327   0.263  0.9347 -0.3002 -0.2029
 8450SOL    HW236810   2.569   4.209   0.185 -0.1644 -0.4164  0.0174
 8451SOL     OW36811   0.628   2.610   9.859 -0.5149  1.1989 -0.1083
 8451SOL    HW136812   0.626   2.569   9.946 -1.1516  1.7986  0.1611
 8451SOL    HW236813   0.560   2.677   9.859  0.2063  1.9213 -0.6065
 8452SOL     OW36814   0.373   0.195   4.476  0.2705 -0.1075  0.1344
 8452SOL    HW136815   0.466   0.184   4.459  0.0123 -0.8523 -0.8505
 8452SOL    HW236816   0.343   0.194   4.384  1.8588  3.2288 -0.4042
 8453SOL     OW36817   3.949   4.176  12.952  0.3259 -0.5567 -0.2960
 8453SOL    HW136818   3.965   4.238  13.023  0.3696 -2.2304  1.1444
 8453SOL    HW236819   3.920   4.106  13.011 -0.1471  0.3366  0.5211
 8454SOL     OW36820   2.583   0.114   9.060  0.2741  0.3982 -0.3874
 8454SOL    HW136821   2.491   0.092   9.044  0.4439  0.3324 -1.2694
 8454SOL    HW236822   2.587   0.105   9.155 -0.3472 -1.2957 -0.5233
 8455SOL     OW36823   2.344   3.871  11.430  0.2179  0.6367 -0.3965
 8455SOL    HW136824   2.298   3.932  11.487  1.0021  1.0150 -0.1599
 8455SOL    HW236825   2.424   3.920  11.407 -0.6633  2.0608 -0.3955
 8456SOL     OW36826   1.489   0.671  14.979  0.0916  0.4066 -0.2481
 8456SOL    HW136827   1.489   0.652  15.073 -1.3391 -1.5889 -0.6603
 8456SOL    HW236828   1.576   0.636  14.958 -0.3422 -1.0577  0.3949
 8457SOL     OW36829   3.949   3.819   1.332  0.2387  0.6040  0.3766
 8457SOL    HW136830   3.926   3.838   1.241 -0.0285  0.5275  0.4267
 8457SOL    HW236831   4.041   3.813   1.308  0.0094  2.6339 -0.9723
 8458SOL     OW36832   3.737   1.855   4.495  0.6437  0.1577 -0.6107
 8458SOL    HW136833   3.648   1.847   4.462 -0.8595  3.1368  2.7023
 8458SOL    HW236834   3.781   1.890   4.418  0.7253  1.6456  0.1082
 8459SOL     OW36835   1.130   1.136   7.821 -0.7426  0.5518  0.2516
 8459SOL    HW136836   1.116   1.041   7.824 -0.2074  0.3757 -2.5764
 8459SOL    HW236837   1.051   1.176   7.858 -0.5445  0.6592  0.5522
 8460SOL     OW36838   3.751   1.968   6.533  0.6867  0.5321  0.1350
 8460SOL    HW136839   3.840   1.967   6.496  0.8227  0.8820  0.4463
 8460SOL    HW236840   3.712   2.034   6.475 -1.4730 -1.4195 -0.6158
 8461SOL     OW36841   3.138   4.379  12.041  0.4429  0.2565  0.3835
 8461SOL    HW136842   3.089   4.300  12.065  0.3900  0.1551 -0.0496
 8461SOL    HW236843   3.172   4.350  11.956  2.2289  1.2901  0.7573
 8462SOL     OW36844   4.591   0.680  17.371  0.1233 -0.0201  0.2247
 8462SOL    HW136845   4.506   0.720  17.353 -0.5218 -2.0031 -1.1167
 8462SOL    HW236846   4.566   0.594  17.406 -1.4297  0.1873 -0.3456
 8463SOL     OW36847   0.318   0.060   1.562  0.2302  0.1078 -0.4359
 8463SOL    HW136848   0.317   0.106   1.478 -0.8779  1.0546  0.1004
 8463SOL    HW236849   0.401   0.012   1.560  0.1513 -0.1029  1.3192
 8464SOL     OW36850   4.717   1.983   7.022  0.1539 -0.2696 -0.3302
 8464SOL    HW136851   4.680   2.067   7.049 -0.8882 -1.3067  1.4945
 8464SOL    HW236852   0.009   1.943   7.108  3.4453  1.9826  0.0759
 8465SOL     OW36853   1.909   1.599   2.265 -0.4508 -0.0404 -0.4602
 8465SOL    HW136854   1.939   1.509   2.251  3.8385  1.1227  1.2943
 8465SOL    HW236855   1.876   1.618   2.177 -0.4725 -2.3070 -0.9451
 8466SOL     OW36856   0.804   0.976   8.719  0.0674  0.4788  0.2369
 8466SOL    HW136857   0.758   0.947   8.641  1.4771 -1.7391  0.2388
 8466SOL    HW236858   0.824   1.065   8.689  0.0436  0.2942 -0.3212
 8467SOL     OW36859   3.914   4.068   6.922  0.3162 -0.4206  0.2038
 8467SOL    HW136860   3.996   4.028   6.893 -0.1946  0.5440 -2.6164
 8467SOL    HW236861   3.897   4.032   7.008  1.9903  0.2836  0.8385
 8468SOL     OW36862   4.061   1.019   2.822  0.1188 -0.4774  0.0167
 8468SOL    HW136863   4.024   0.990   2.906 -1.7766  1.3435 -0.2222
 8468SOL    HW236864   4.102   0.943   2.780 -0.4078  0.1775 -1.6727
 8469SOL     OW36865   3.154   0.332   3.119 -0.4333 -0.4358  0.2585
 8469SOL    HW136866   3.176   0.252   3.166 -0.5825 -0.8351 -0.3610
 8469SOL    HW236867   3.068   0.345   3.161  0.0720 -0.0065  1.1662
 8470SOL     OW36868   4.348   3.941   1.855 -0.0579 -0.4434 -0.5272
 8470SOL    HW136869   4.406   3.925   1.780 -0.2013 -0.2361 -0.6828
 8470SOL    HW236870   4.271   3.982   1.817 -0.3324 -1.1198 -0.6954
 8471SOL     OW36871   0.082   3.146  11.421 -0.2134  0.0720  0.2192
 8471SOL    HW136872   0.074   3.237  11.391  1.5942  0.4327  0.8087
 8471SOL    HW236873   0.080   3.145  11.517  1.4918  0.0577  0.2634
 8472SOL     OW36874   1.594   0.551   6.373  0.5994 -0.1007  1.0463
 8472SOL    HW136875   1.685   0.577   6.387  0.1084  3.1257 -1.5955
 8472SOL    HW236876   1.553   0.609   6.437 -0.9814 -2.3296  2.0226
 8473SOL     OW36877   1.687   2.266   3.434 -0.0918 -0.1307  0.1366
 8473SOL    HW136878   1.653   2.301   3.352 -0.0694 -0.0721  0.1521
 8473SOL    HW236879   1.613   2.224   3.476  0.7567 -1.5927  0.1806
 8474SOL     OW36880   1.386   4.627  15.123  0.2970 -0.5677  0.0925
 8474SOL    HW136881   1.365   4.555  15.182 -1.0683  0.9626  1.4940
 8474SOL    HW236882   1.397   4.578  15.042  3.0494  1.6532 -0.8839
 8475SOL     OW36883   1.143   3.015   0.812  0.1843  0.3667 -0.5567
 8475SOL    HW136884   1.120   2.925   0.837 -0.7098  0.4511 -1.0470
 8475SOL    HW236885   1.121   3.000   0.720 -1.3348 -0.3234 -0.0843
 8476SOL     OW36886   4.041   2.897   0.513  0.2031  0.5077 -0.0025
 8476SOL    HW136887   3.990   2.949   0.451  0.2187  0.2584 -0.2262
 8476SOL    HW236888   4.001   2.930   0.594  0.7353  1.2138 -0.0255
 8477SOL     OW36889   0.505   3.657   7.535  0.1280  0.1658 -0.2196
 8477SOL    HW136890   0.466   3.676   7.450  0.5953 -1.3766 -0.7934
 8477SOL    HW236891   0.454   3.722   7.582 -2.4098 -1.7244 -0.3722
 8478SOL     OW36892   1.485   2.046  12.034  0.0965  0.4855 -0.2926
 8478SOL    HW136893   1.409   2.095  12.003 -0.6526 -0.6483 -0.2313
 8478SOL    HW236894   1.469   2.060  12.127 -1.4778  1.0925 -0.6559
 8479SOL     OW36895   0.778   2.312  11.308  0.0940  0.0185 -0.3510
 8479SOL    HW136896   0.843   2.344  11.245 -0.3391  0.5956 -0.5042
 8479SOL    HW236897   0.699   2.317  11.254 -0.2037  0.6733  0.1480
 8480SOL     OW36898   0.344   0.198   9.164  0.3338 -0.6561 -0.8321
 8480SOL    HW136899   0.323   0.290   9.150 -1.6595 -1.0279 -0.3235
 8480SOL    HW236900   0.264   0.154   9.133 -0.2562 -0.1030 -0.0869
 8481SOL     OW36901   0.298   2.628   4.418  0.3735  0.5309  0.6697
 8481SOL    HW136902   0.356   2.694   4.381 -1.8091  0.9387 -2.0138
 8481SOL    HW236903   0.236   2.685   4.464  1.2635  1.4099  0.7864
 8482SOL     OW36904   0.624   2.524   7.165 -0.2509 -0.4615  0.1414
 8482SOL    HW136905   0.570   2.488   7.235 -2.6510  1.9538 -0.4534
 8482SOL    HW236906   0.639   2.614   7.196  1.5179 -1.7540  3.0021
 8483SOL     OW36907   1.452   0.695   2.651 -0.2949  0.0408 -0.4029
 8483SOL    HW136908   1.514   0.736   2.591  0.2434  2.5959  1.8840
 8483SOL    HW236909   1.507   0.699   2.730 -1.2667 -0.7317  0.3076
 8484SOL     OW36910   3.019   4.257  14.780  0.0668 -0.0881  0.2717
 8484SOL    HW136911   2.930   4.291  14.789  0.3458  0.7028  0.0046
 8484SOL    HW236912   3.058   4.291  14.860 -0.5361  1.3127 -0.0295
 8485SOL     OW36913   1.308   2.880  16.837 -0.1202 -0.2182 -0.0905
 8485SOL    HW136914   1.346   2.873  16.749 -1.9331  1.8620 -1.0341
 8485SOL    HW236915   1.372   2.930  16.887 -0.6761  0.1960  0.2032
 8486SOL     OW36916   0.049   0.131   9.075 -0.2531  0.3955  0.6184
 8486SOL    HW136917   0.056   0.196   9.005  2.2198  0.4738  0.9450
 8486SOL    HW236918   0.020   0.053   9.029 -0.4134 -0.4103  2.0722
 8487SOL     OW36919   0.387   3.648   2.700  0.6586  0.4677  0.1294
 8487SOL    HW136920   0.431   3.716   2.749  0.8085  2.2582 -2.4955
 8487SOL    HW236921   0.369   3.693   2.617  1.6028  2.5137  1.0569
 8488SOL     OW36922   0.472   1.918  16.559  0.1365 -0.0687 -0.0621
 8488SOL    HW136923   0.408   1.973  16.513  0.9753  1.4383  0.5851
 8488SOL    HW236924   0.444   1.910  16.650  1.7353  0.7992  0.4978
 8489SOL     OW36925   1.368   0.135   9.026 -0.1278  0.4816 -1.1146
 8489SOL    HW136926   1.436   0.073   9.003  0.8999  1.7164 -1.3908
 8489SOL    HW236927   1.290   0.080   9.023 -0.4671  0.8382  1.3398
 8490SOL     OW36928   3.279   2.641   4.739  0.0158  0.3368  0.2146
 8490SOL    HW136929   3.271   2.735   4.755 -0.7545  0.0393  1.5766
 8490SOL    HW236930   3.336   2.611   4.810 -0.1657 -0.4814  0.0091
 8491SOL     OW36931   2.406   1.373   7.093 -0.0903 -0.3934 -0.0658
 8491SOL    HW136932   2.423   1.326   7.175 -1.8149 -0.5224  0.2308
 8491SOL    HW236933   2.427   1.458   7.131  0.5727 -0.8245  0.5157
 8492SOL     OW36934   2.311   2.097   1.979 -0.2163  0.1069 -0.1448
 8492SOL    HW136935   2.369   2.021   1.969  3.3234  2.8100 -0.0476
 8492SOL    HW236936   2.365   2.171   2.004  0.8926 -0.2635 -1.4153
 8493SOL     OW36937   2.240   1.739   2.939  0.0773  0.2253  0.2915
 8493SOL    HW136938   2.318   1.796   2.937  2.4267 -3.0166 -0.8824
 8493SOL    HW236939   2.221   1.736   2.846 -1.7466  0.7914  0.6479
 8494SOL     OW36940   3.877   2.112  11.218  0.3838  0.1211  0.1426
 8494SOL    HW136941   3.893   2.022  11.246  1.6784 -0.1135 -1.3261
 8494SOL    HW236942   3.938   2.122  11.145  2.9961 -0.6562  2.2347
 8495SOL     OW36943   0.411   1.407   1.416 -0.5872  0.1627  0.4945
 8495SOL    HW136944   0.498   1.404   1.456 -0.7307  1.3633  0.8934
 8495SOL    HW236945   0.397   1.312   1.411 -2.5530  0.5452 -1.4220
 8496SOL     OW36946   0.963   3.289   5.296 -0.3718 -0.0742 -0.1413
 8496SOL    HW136947   1.051   3.319   5.275 -0.4843  0.0732 -0.4049
 8496SOL    HW236948   0.962   3.320   5.387  0.7373  0.7738 -0.4216
 8497SOL     OW36949   0.120   0.682   6.038 -0.2010 -0.0980 -0.0634
 8497SOL    HW136950   0.041   0.662   6.088 -0.4751  0.9637 -0.0760
 8497SOL    HW236951   0.106   0.775   6.021 -0.3953 -0.4436 -1.7347
 8498SOL     OW36952   0.664   1.296   2.913  0.0330 -0.3526  0.5715
 8498SOL    HW136953   0.741   1.290   2.856 -0.5147 -2.3837  0.0155
 8498SOL    HW236954   0.622   1.213   2.889 -0.3637  0.5196 -1.8542
 8499SOL     OW36955   4.529   3.151   5.301  0.2530 -0.3179 -0.0153
 8499SOL    HW136956   4.601   3.112   5.251 -0.3404 -2.4642  0.7779
 8499SOL    HW236957   4.488   3.209   5.238  0.7188  2.9763  2.7113
 8500SOL     OW36958   1.760   2.207   4.363 -0.0645  0.3864 -0.5809
 8500SOL    HW136959   1.778   2.287   4.411  0.5581 -1.3674  2.0733
 8500SOL    HW236960   1.849   2.200   4.328  0.6405  0.1054  1.2857
 8501SOL     OW36961   3.202   0.205  11.940 -0.6617 -0.0708 -0.2244
 8501SOL    HW136962   3.250   0.163  11.869 -0.6917  0.9257 -0.8269
 8501SOL    HW236963   3.143   0.262  11.891  0.6330  0.8599 -0.6685
 8502SOL     OW36964   3.905   3.850   3.347 -0.0713 -0.1791  0.0465
 8502SOL    HW136965   3.857   3.902   3.412 -0.9314  0.0384 -0.7576
 8502SOL    HW236966   3.838   3.839   3.279 -1.3661  0.1586  1.2651
 8503SOL     OW36967   3.417   2.026   1.772  0.0919  0.0689 -0.2395
 8503SOL    HW136968   3.392   2.109   1.812  1.7276 -0.5925  2.1617
 8503SOL    HW236969   3.352   1.960   1.797  0.7197 -0.9063 -1.1939
 8504SOL     OW36970   3.237   3.053   8.354  0.1685  0.7851  0.1427
 8504SOL    HW136971   3.275   3.085   8.272 -0.3925  0.6585 -0.1692
 8504SOL    HW236972   3.145   3.079   8.351  0.5587  2.0937 -0.1312
 8505SOL     OW36973   2.583   1.197   6.888 -0.6105  0.0030 -0.5354
 8505SOL    HW136974   2.516   1.239   6.942  0.6082  0.8590  0.3038
 8505SOL    HW236975   2.644   1.173   6.957 -0.5093  0.1842 -0.5602
 8506SOL     OW36976   1.704   4.262   4.216  0.1407  0.3008  0.4814
 8506SOL    HW136977   1.721   4.332   4.279  1.1234  1.1542 -0.7593
 8506SOL    HW236978   1.792   4.252   4.180 -0.0095 -0.2527  0.2648
 8507SOL     OW36979   3.201   2.467   3.143  0.1168 -0.2337 -0.4343
 8507SOL    HW136980   3.210   2.381   3.185 -0.5798  0.2780  0.7762
 8507SOL    HW236981   3.292   2.489   3.124  0.4079 -0.4501  0.6632
 8508SOL     OW36982   3.297   0.603   0.364  0.0494  0.1754 -0.3995
 8508SOL    HW136983   3.282   0.592   0.270 -0.1085  1.9828 -0.5924
 8508SOL    HW236984   3.366   0.538   0.374 -1.7466 -1.4851  1.2712
 8509SOL     OW36985   3.360   2.505   1.075 -0.6937 -0.5008  0.0937
 8509SOL    HW136986   3.412   2.549   1.142 -0.0395 -1.2350  0.0640
 8509SOL    HW236987   3.435   2.466   1.030 -1.7990 -2.5240  0.0244
 8510SOL     OW36988   1.185   4.321   3.831 -0.0242 -0.4002 -0.1303
 8510SOL    HW136989   1.090   4.332   3.838 -0.1056 -1.7307  0.7491
 8510SOL    HW236990   1.213   4.339   3.921  0.9557  1.0155 -0.7087
 8511SOL     OW36991   1.755   1.581  11.805 -0.3078  0.3133 -0.3015
 8511SOL    HW136992   1.737   1.493  11.838  3.2615 -0.5624 -0.6763
 8511SOL    HW236993   1.851   1.584  11.800 -0.3333  0.8571 -0.5258
 8512SOL     OW36994   2.243   3.811  11.193 -0.3921 -0.3522  0.0974
 8512SOL    HW136995   2.266   3.846  11.279 -0.8165  0.7029 -0.2105
 8512SOL    HW236996   2.189   3.734  11.212 -1.1952 -0.3456 -2.1029
 8513SOL     OW36997   4.224   0.168   4.195  0.3881 -0.2518  0.9442
 8513SOL    HW136998   4.237   0.180   4.289  0.7364 -0.0417  0.8665
 8513SOL    HW236999   4.158   0.237   4.189 -0.8352 -1.6120 -1.2371
 8514SOL     OW37000   3.172   1.758   8.120 -0.3699  0.1047  0.5115
 8514SOL    HW137001   3.184   1.683   8.178 -0.6212  0.0636  0.5099
 8514SOL    HW237002   3.077   1.750   8.124 -0.3244 -0.2151  0.9821
 8515SOL     OW37003   0.879   0.945   5.548  0.7109 -0.3206 -0.1612
 8515SOL    HW137004   0.947   0.966   5.613 -1.6761  2.3332  1.4618
 8515SOL    HW237005   0.925   0.968   5.467  2.1204 -1.3376  0.3373
 8516SOL     OW37006   4.421   0.520   3.409 -0.6755 -0.0180 -0.3279
 8516SOL    HW137007   4.352   0.526   3.475 -1.5794 -2.8529 -0.9703
 8516SOL    HW237008   4.486   0.461   3.447  1.5770  1.3727 -2.0266
 8517SOL     OW37009   2.443   2.278  10.599 -0.1622 -0.0453  0.1401
 8517SOL    HW137010   2.426   2.242  10.512  2.7537 -1.5664  0.1741
 8517SOL    HW237011   2.361   2.264  10.645  0.2067  2.2522  1.5180
 8518SOL     OW37012   3.202   4.246   6.229  0.4688  0.2031  0.0228
 8518SOL    HW137013   3.123   4.226   6.178  0.8906  0.6118 -0.7901
 8518SOL    HW237014   3.188   4.341   6.235 -1.4071 -0.1078  0.7838
 8519SOL     OW37015   2.230   0.506   8.146 -0.3666 -0.5039  0.1080
 8519SOL    HW137016   2.153   0.540   8.192  0.5493  2.0556 -0.2240
 8519SOL    HW237017   2.238   0.592   8.106 -0.5514 -0.7604 -0.4767
 8520SOL     OW37018   1.322   0.257   8.242 -0.2430 -0.4678  0.0825
 8520SOL    HW137019   1.371   0.235   8.321  0.9668 -0.8293 -0.7701
 8520SOL    HW237020   1.384   0.323   8.212 -1.1089  0.0881 -0.4740
 8521SOL     OW37021   3.252   0.107   5.906  0.0055 -0.2969  0.1010
 8521SOL    HW137022   3.186   0.124   5.839 -1.5020  0.6408  1.8349
 8521SOL    HW237023   3.293   0.027   5.873  0.9086  0.1578  0.1312
 8522SOL     OW37024   3.219   3.901  11.138 -0.4812 -0.0013  0.0544
 8522SOL    HW137025   3.253   3.812  11.148 -0.3965 -0.0143 -0.3555
 8522SOL    HW237026   3.262   3.938  11.215 -0.3390  0.0858 -0.0669
 8523SOL     OW37027   2.990   2.047   1.252  0.1759 -0.5020 -0.3115
 8523SOL    HW137028   2.971   2.134   1.216  0.5202 -0.3357 -0.0870
 8523SOL    HW237029   2.970   1.992   1.176 -0.5065  0.2911 -0.7114
 8524SOL     OW37030   0.606   1.948   5.031 -0.5535  0.1489  0.6098
 8524SOL    HW137031   0.539   1.920   4.969  1.9213 -1.0342 -1.4783
 8524SOL    HW237032   0.589   2.042   5.024  0.1612  0.2119 -0.1583
 8525SOL     OW37033   2.683   0.431  11.058  0.3382 -0.4651  0.8305
 8525SOL    HW137034   2.610   0.437  10.997 -0.0914 -1.5387  1.2332
 8525SOL    HW237035   2.719   0.345  11.037  1.2405  0.2290 -0.4393
 8526SOL     OW37036   0.967   0.342   4.498  0.3198 -0.0467  0.1548
 8526SOL    HW137037   0.934   0.364   4.585  0.5785  0.9231  0.0129
 8526SOL    HW237038   1.014   0.262   4.521  1.3189 -0.2841 -2.7148
 8527SOL     OW37039   0.215   0.917   9.189  0.1303 -0.0928  0.3430
 8527SOL    HW137040   0.178   0.969   9.117 -1.4009 -1.0637  0.4372
 8527SOL    HW237041   0.136   0.871   9.215 -0.0313 -0.0500 -0.0750
 8528SOL     OW37042   4.224   4.127   0.685 -0.4858  0.3352  0.3063
 8528SOL    HW137043   4.227   4.115   0.780  0.3067  0.1190  0.2526
 8528SOL    HW237044   4.318   4.131   0.668 -0.5260  1.3372  0.3100
 8529SOL     OW37045   1.901   3.385   1.840  0.3278  0.6975 -0.0230
 8529SOL    HW137046   1.851   3.462   1.868  0.0071  0.4300  0.1446
 8529SOL    HW237047   1.844   3.344   1.775  0.0883 -3.2787  2.6574
 8530SOL     OW37048   4.503   2.211   7.554 -0.0921  0.8793 -0.7609
 8530SOL    HW137049   4.547   2.177   7.632  0.0877 -0.5669 -1.4963
 8530SOL    HW237050   4.496   2.128   7.506 -2.0346  0.3359  0.4578
 8531SOL     OW37051   4.370   0.858   2.014 -0.1328 -0.5572  0.4720
 8531SOL    HW137052   4.357   0.791   1.947 -0.0801 -0.2592  0.1682
 8531SOL    HW237053   4.293   0.913   1.998  0.7098  0.7047  0.8132
 8532SOL     OW37054   3.789   1.256  11.877 -0.1151  0.3171  0.1943
 8532SOL    HW137055   3.702   1.254  11.917  0.4135 -0.2044  1.3218
 8532SOL    HW237056   3.817   1.343  11.907  2.0302 -0.4287  0.3993
 8533SOL     OW37057   3.657   2.291   5.808 -0.5835 -0.0833  0.5472
 8533SOL    HW137058   3.589   2.298   5.874 -0.6291  0.9413  0.3972
 8533SOL    HW237059   3.648   2.377   5.765  1.2375 -0.0710  0.1978
 8534SOL     OW37060   2.224   0.745   5.940 -0.4184  0.2293 -0.1640
 8534SOL    HW137061   2.258   0.667   5.896 -2.8255 -0.4175 -0.8700
 8534SOL    HW237062   2.248   0.820   5.886  0.9973 -0.0271  0.1115
 8535SOL     OW37063   0.285   0.742   4.808 -0.3200  0.5125  0.2051
 8535SOL    HW137064   0.233   0.748   4.888  0.2266  0.0251  0.5988
 8535SOL    HW237065   0.264   0.655   4.774  0.1566  0.7845 -0.7920
 8536SOL     OW37066   0.539   0.016  12.890 -0.0254  0.2120  0.5586
 8536SOL    HW137067   0.445   4.723  12.893  0.0865  0.0502  3.7594
 8536SOL    HW237068   0.554   0.025  12.796  0.2848 -1.3208  0.4525
 8537SOL     OW37069   2.273   3.762   8.819 -0.4618  0.3569 -0.7872
 8537SOL    HW137070   2.233   3.844   8.848 -1.0304 -0.7223  1.4155
 8537SOL    HW237071   2.357   3.783   8.859 -1.4668  1.9755  0.4619
 8538SOL     OW37072   4.248   2.169   3.770  0.3615  0.5906  0.2657
 8538SOL    HW137073   4.220   2.259   3.790 -3.3771 -0.4797 -0.2377
 8538SOL    HW237074   4.252   2.183   3.675 -0.4435  1.4218  0.3510
 8539SOL     OW37075   2.822   2.275   8.978  0.4705  0.3807 -0.4429
 8539SOL    HW137076   2.836   2.182   8.960  0.2845  0.1958  0.3541
 8539SOL    HW237077   2.830   2.283   9.073  2.0991 -1.7939 -0.4137
 8540SOL     OW37078   1.499   1.029  16.237  0.1367 -0.1549 -0.3246
 8540SOL    HW137079   1.555   1.106  16.225  0.2077  0.1867  2.1053
 8540SOL    HW237080   1.440   1.045  16.163  1.1528 -0.3275 -1.1728
 8541SOL     OW37081   3.891   1.211   2.550 -0.6685  0.5591  0.8623
 8541SOL    HW137082   3.858   1.123   2.564  1.1124 -0.0757  1.0382
 8541SOL    HW237083   3.815   1.270   2.557 -2.4109 -1.4641 -1.0023
 8542SOL     OW37084   0.573   3.090   6.702 -0.0166 -0.1021  0.2814
 8542SOL    HW137085   0.488   3.062   6.666 -0.3600  0.6558  0.5075
 8542SOL    HW237086   0.559   3.183   6.716  0.5493  0.1141 -0.5531
 8543SOL     OW37087   3.254   3.504  16.754 -0.3567  0.1213 -0.3349
 8543SOL    HW137088   3.169   3.467  16.732 -0.4001  0.3163 -0.4970
 8543SOL    HW237089   3.268   3.567  16.684 -3.6133  0.3435 -0.7953
 8544SOL     OW37090   2.565   0.223  15.535 -0.5265  0.2953 -0.1340
 8544SOL    HW137091   2.515   0.248  15.613  0.6699  2.1700  0.0522
 8544SOL    HW237092   2.570   0.305  15.485  0.8089  0.7672  0.7447
 8545SOL     OW37093   2.958   3.404   1.581 -0.4685  0.2681  0.3890
 8545SOL    HW137094   2.876   3.359   1.600  1.3114 -2.7540  0.8929
 8545SOL    HW237095   3.016   3.369   1.649 -0.2914 -1.7300 -0.7780
 8546SOL     OW37096   3.337   3.403  14.156 -0.1545  0.4225 -0.0951
 8546SOL    HW137097   3.362   3.313  14.135 -1.7453 -0.0648  0.1155
 8546SOL    HW237098   3.379   3.422  14.240 -2.5991  0.7222  1.0730
 8547SOL     OW37099   0.536   3.901   2.761 -0.4113 -0.3724 -0.5155
 8547SOL    HW137100   0.618   3.879   2.805  0.2494  1.6340 -0.7234
 8547SOL    HW237101   0.515   3.977   2.815  1.3161 -0.9134  0.8806
 8548SOL     OW37102   1.571   0.072   0.872 -0.1448  0.1824 -0.3741
 8548SOL    HW137103   1.664   0.058   0.852  0.5729  0.1829  3.0881
 8548SOL    HW237104   1.555   4.716   0.919 -2.3012 -0.2669 -1.8462
 8549SOL     OW37105   3.488   1.156  10.774 -0.0217 -0.6002  0.2000
 8549SOL    HW137106   3.561   1.123  10.828 -0.0713 -2.1266 -0.6719
 8549SOL    HW237107   3.420   1.111  10.825 -0.4450 -1.3472 -1.0138
 8550SOL     OW37108   0.663   0.920   7.396  0.4837 -0.7315  0.1263
 8550SOL    HW137109   0.571   0.924   7.367 -0.4005 -0.3808  3.0183
 8550SOL    HW237110   0.696   0.840   7.354  1.3053 -0.0893 -0.4369
 8551SOL     OW37111   2.957   3.239   6.464 -0.0676 -0.8008 -0.2661
 8551SOL    HW137112   2.978   3.252   6.557  0.3181 -0.3159 -0.4220
 8551SOL    HW237113   3.000   3.156   6.448 -0.6697 -1.5062  1.7543
 8552SOL     OW37114   2.763   4.456   1.426  0.2289 -0.5333 -0.4818
 8552SOL    HW137115   2.808   4.382   1.467 -1.4164 -0.4443  1.4748
 8552SOL    HW237116   2.756   4.427   1.335 -1.8319 -0.9841 -0.1697
 8553SOL     OW37117   2.487   3.382   0.627  0.3016  0.1190  0.1447
 8553SOL    HW137118   2.435   3.391   0.547  2.4123 -1.4158 -1.3635
 8553SOL    HW237119   2.481   3.473   0.656 -1.0014 -0.3110  1.2386
 8554SOL     OW37120   1.141   1.269  14.770  0.0365  0.0465  0.1203
 8554SOL    HW137121   1.115   1.197  14.714 -0.8191  0.3115  0.1710
 8554SOL    HW237122   1.092   1.254  14.851 -0.3952 -0.4304 -0.2394
 8555SOL     OW37123   2.705   4.064   9.111 -0.1393  0.8814  0.3288
 8555SOL    HW137124   2.736   4.074   9.201 -0.9123  2.7945  0.3774
 8555SOL    HW237125   2.789   4.050   9.066  0.1549  0.8149  0.8994
 8556SOL     OW37126   0.984   2.305   4.859 -0.2367  0.5812 -0.5674
 8556SOL    HW137127   1.057   2.327   4.917 -0.6302  0.5338 -0.0480
 8556SOL    HW237128   0.956   2.228   4.910 -2.1447  0.2203 -2.1478
 8557SOL     OW37129   4.685   1.975   4.590 -0.1761  0.8650 -0.5563
 8557SOL    HW137130   4.590   1.971   4.595 -0.1255 -0.7446 -0.9831
 8557SOL    HW237131   4.699   1.978   4.496 -1.7941  0.4002 -0.8039
 8558SOL     OW37132   0.747   0.088   0.856 -0.1414  0.2294 -0.0572
 8558SOL    HW137133   0.676   0.030   0.828  0.4694 -1.1430  1.2221
 8558SOL    HW237134   0.691   0.164   0.869 -0.4470  0.1221 -0.7571
 8559SOL     OW37135   1.513   1.345  12.591 -0.6351 -0.3979 -0.3004
 8559SOL    HW137136   1.539   1.350  12.683 -0.0179  2.4468 -0.6320
 8559SOL    HW237137   1.427   1.386  12.598 -0.0777  0.8549 -0.7633
 8560SOL     OW37138   1.071   2.631   8.490  0.8428  0.0784  0.0105
 8560SOL    HW137139   1.105   2.670   8.410 -0.0126  0.7007 -0.0371
 8560SOL    HW237140   0.990   2.591   8.459  1.3484  0.4920 -1.8284
 8561SOL     OW37141   4.453   0.152   0.029  0.6341 -0.0302  0.2950
 8561SOL    HW137142   4.434   0.125  17.639 -3.8880  0.0945  1.2239
 8561SOL    HW237143   4.367   0.126   0.061  0.3087  0.7591  0.0579
 8562SOL     OW37144   2.516   0.432   4.376  0.3922  0.6191 -0.0399
 8562SOL    HW137145   2.528   0.426   4.281  1.2716  1.4524  0.0169
 8562SOL    HW237146   2.596   0.484   4.384  0.8161  0.1361 -1.1574
 8563SOL     OW37147   0.889   3.967   5.036  0.3445 -0.3555  0.1917
 8563SOL    HW137148   0.819   3.961   4.971  0.1466  4.8485 -0.0639
 8563SOL    HW237149   0.845   3.969   5.120 -0.3541 -2.4518 -0.1251
 8564SOL     OW37150   1.592   1.645   7.904  0.0328  0.1567 -0.3176
 8564SOL    HW137151   1.574   1.683   7.818 -0.1556  1.1603  0.1723
 8564SOL    HW237152   1.686   1.632   7.892  0.2976  0.8931  1.0255
 8565SOL     OW37153   2.312   2.169   7.813  0.2726  0.8707 -0.0742
 8565SOL    HW137154   2.290   2.077   7.804 -3.1192  1.7610 -0.6302
 8565SOL    HW237155   2.233   2.207   7.775 -1.0229 -1.0881  0.6603
 8566SOL     OW37156   1.488   3.487   3.902 -0.2931  0.5697  0.2052
 8566SOL    HW137157   1.501   3.403   3.947  2.1739  0.9336  0.1694
 8566SOL    HW237158   1.566   3.527   3.941 -0.3023 -0.4045  1.2143
 8567SOL     OW37159   3.703   0.850  10.910 -0.5206 -0.0913  0.1212
 8567SOL    HW137160   3.705   0.945  10.900 -2.1820 -0.1968 -1.0292
 8567SOL    HW237161   3.618   0.817  10.882 -1.8839  1.7060  2.1239
 8568SOL     OW37162   4.348   0.882   2.482  0.2973  0.3776  0.1500
 8568SOL    HW137163   4.279   0.830   2.524  0.5981  0.1807  0.4032
 8568SOL    HW237164   4.429   0.848   2.520 -0.9113 -0.3960  2.0548
 8569SOL     OW37165   1.279   2.067   6.796  0.1888 -0.4113 -0.3060
 8569SOL    HW137166   1.359   2.094   6.751 -0.2506  1.4803  0.0283
 8569SOL    HW237167   1.306   1.985   6.837  3.0614 -0.5001 -2.3688
 8570SOL     OW37168   2.826   2.148  11.763 -0.0248  0.2519  0.2288
 8570SOL    HW137169   2.763   2.152  11.835 -1.0461 -0.7802 -0.6012
 8570SOL    HW237170   2.776   2.099  11.698  1.3960 -1.8443  0.7397
 8571SOL     OW37171   4.608   4.539   7.789  0.0005  0.1229 -0.3062
 8571SOL    HW137172   4.672   4.469   7.787  0.0193  0.1028  1.2074
 8571SOL    HW237173   4.562   4.517   7.870  0.4591 -1.4948 -0.4843
 8572SOL     OW37174   0.176   1.020   3.822  0.5284  0.1250  0.0032
 8572SOL    HW137175   0.248   0.958   3.832  0.5810 -0.3333 -3.3030
 8572SOL    HW237176   0.208   1.091   3.768  1.2942 -0.2749 -0.0621
 8573SOL     OW37177   0.147   3.719   6.297  0.0530  0.3227  0.3156
 8573SOL    HW137178   0.240   3.728   6.273 -0.3959 -0.3046 -1.6082
 8573SOL    HW237179   0.101   3.755   6.221 -2.6299 -0.3442  1.6289
 8574SOL     OW37180   3.022   3.742   6.543 -0.0562  0.2234  0.2637
 8574SOL    HW137181   3.106   3.723   6.585 -1.5853 -0.4402  3.0299
 8574SOL    HW237182   2.963   3.748   6.618 -0.4491 -2.0356  0.1502
 8575SOL     OW37183   0.929   0.998  13.976 -0.2957 -0.4893  0.2448
 8575SOL    HW137184   0.901   0.988  13.885  0.7609  0.1606 -0.1445
 8575SOL    HW237185   0.889   0.918  14.010  1.5567 -2.1324 -1.4534
 8576SOL     OW37186   3.669   4.458  13.686 -0.2446 -0.0532  0.5481
 8576SOL    HW137187   3.729   4.452  13.760  1.4192  1.2632 -0.7154
 8576SOL    HW237188   3.696   4.540  13.645 -1.3112 -0.4939 -1.0155
 8577SOL     OW37189   2.932   4.591  11.998  0.9050 -0.2040  0.2234
 8577SOL    HW137190   2.984   4.534  12.054  1.3964 -1.0401 -1.1101
 8577SOL    HW237191   2.930   4.675  12.044  0.8958 -0.8511  1.4059
 8578SOL     OW37192   1.527   0.727   9.495 -0.0486 -0.2819 -0.1881
 8578SOL    HW137193   1.488   0.661   9.552 -0.8868  0.0868 -0.3325
 8578SOL    HW237194   1.529   0.681   9.411 -0.1014  1.9860 -1.4374
 8579SOL     OW37195   0.560   0.282   4.752  0.5874  0.0460 -0.8681
 8579SOL    HW137196   0.604   0.263   4.669  0.3611 -0.4710 -0.8657
 8579SOL    HW237197   0.621   0.248   4.818 -1.2114 -0.9203  0.2964
 8580SOL     OW37198   1.519   2.162   5.371 -0.5869 -0.5246 -0.5123
 8580SOL    HW137199   1.475   2.094   5.321  1.2250 -0.3550 -2.3585
 8580SOL    HW237200   1.588   2.194   5.312 -0.5416 -1.8641 -1.1848
 8581SOL     OW37201   1.838   2.013   2.591 -0.1911 -0.1983  0.6180
 8581SOL    HW137202   1.864   1.923   2.570  1.1569  1.0557 -2.9655
 8581SOL    HW237203   1.880   2.066   2.524  3.7437 -3.6234  0.3972
 8582SOL     OW37204   3.789   0.957   5.401 -0.2450 -0.1538 -0.0424
 8582SOL    HW137205   3.856   0.894   5.375 -1.3421 -1.7541  0.9605
 8582SOL    HW237206   3.833   0.991   5.479  0.5739 -1.1910 -0.0624
 8583SOL     OW37207   0.923   0.072   5.403  0.0917  0.4063  0.1305
 8583SOL    HW137208   0.927   0.099   5.311  1.8209 -2.5128 -0.6444
 8583SOL    HW237209   0.965   0.147   5.445  1.1346 -0.8240  1.2732
 8584SOL     OW37210   2.005   3.402   0.287  0.1097 -0.2962 -0.0283
 8584SOL    HW137211   2.038   3.350   0.360  1.2729  2.1442  1.1759
 8584SOL    HW237212   2.069   3.379   0.219  0.9718 -0.3052  0.7840
 8585SOL     OW37213   4.520   0.365   5.765  0.2008  0.4556  0.0251
 8585SOL    HW137214   4.465   0.443   5.774  0.8321  0.8483  0.5077
 8585SOL    HW237215   4.489   0.315   5.689 -0.4492  1.2678 -0.2500
 8586SOL     OW37216   4.055   0.505   4.548  0.3021 -0.1263 -0.3299
 8586SOL    HW137217   3.979   0.538   4.596 -0.3348 -0.1458 -1.3157
 8586SOL    HW237218   4.012   0.475   4.467  0.5044 -0.6491 -0.2459
 8587SOL     OW37219   1.559   3.650   2.566  0.3403  0.0586 -0.3971
 8587SOL    HW137220   1.541   3.650   2.472  4.0829 -1.9352 -1.1219
 8587SOL    HW237221   1.527   3.564   2.594  0.8228  0.4688  1.4197
 8588SOL     OW37222   0.203   2.272   3.966 -0.1195  0.0001  0.1702
 8588SOL    HW137223   0.226   2.344   4.025  1.4106 -0.7292  0.4696
 8588SOL    HW237224   0.260   2.200   3.991 -0.2835  0.8948  3.1577
 8589SOL     OW37225   1.351   0.424  15.615  0.3694 -0.2535  0.0655
 8589SOL    HW137226   1.438   0.400  15.646  0.5517  1.0392  0.5694
 8589SOL    HW237227   1.360   0.410  15.521  0.7491  1.4685 -0.1560
 8590SOL     OW37228   1.185   1.269   9.434  0.6795  0.3072 -0.3366
 8590SOL    HW137229   1.209   1.309   9.350 -1.9707  0.3868 -1.0400
 8590SOL    HW237230   1.144   1.346   9.473 -2.2433 -0.2138 -2.3915
 8591SOL     OW37231   2.790   0.221  10.027  0.0049 -0.2706  0.6833
 8591SOL    HW137232   2.761   0.300  10.072 -0.3353 -1.0775  1.9064
 8591SOL    HW237233   2.713   0.165  10.020  0.3367 -0.5633 -0.7167
 8592SOL     OW37234   1.140   4.458   6.525  0.4654 -0.1983 -0.1934
 8592SOL    HW137235   1.076   4.421   6.585 -0.2343  0.0404 -0.7915
 8592SOL    HW237236   1.193   4.379   6.515  0.0424 -0.7906  2.3052
 8593SOL     OW37237   4.325   4.663   9.104  0.0870  0.4178  0.1005
 8593SOL    HW137238   4.398   4.683   9.164  0.2125  1.0748 -0.2630
 8593SOL    HW237239   4.283   4.583   9.135 -1.9620  2.0422  1.5106
 8594SOL     OW37240   0.747   3.992   5.286  0.0683 -0.6467  0.1500
 8594SOL    HW137241   0.797   3.994   5.367  1.1688 -2.0934 -0.4888
 8594SOL    HW237242   0.721   3.901   5.303  0.7761 -0.8899 -0.0703
 8595SOL     OW37243   1.225   3.637   9.260  0.0839  0.0593 -0.0413
 8595SOL    HW137244   1.271   3.667   9.338  0.9081 -1.5261  0.0985
 8595SOL    HW237245   1.292   3.584   9.217  1.0586  0.7280  0.6694
 8596SOL     OW37246   1.445   0.582   7.747  0.4096 -0.3756 -0.2043
 8596SOL    HW137247   1.508   0.565   7.817 -0.3304 -2.3213 -0.0005
 8596SOL    HW237248   1.493   0.642   7.691  2.3860  1.2655  3.2823
 8597SOL     OW37249   0.214   0.543   7.408  0.2067 -0.0895 -0.1444
 8597SOL    HW137250   0.134   0.500   7.439 -0.8740  0.1461 -2.6562
 8597SOL    HW237251   0.275   0.515   7.476 -0.4737  2.8765  1.7504
 8598SOL     OW37252   3.892   0.038   2.097  0.1321  0.2381  0.1612
 8598SOL    HW137253   3.936   0.108   2.048 -0.0085  1.2237  1.4423
 8598SOL    HW237254   3.967   4.711   2.127  1.1821  2.4007  1.2682
 8599SOL     OW37255   3.705   3.850   8.464  0.3756  0.3674  0.7819
 8599SOL    HW137256   3.644   3.833   8.392  2.1305 -0.3712 -0.5323
 8599SOL    HW237257   3.652   3.908   8.518 -0.1751 -0.0882  0.7285
 8600SOL     OW37258   2.303   4.350   6.134 -0.2324 -0.2279 -0.4021
 8600SOL    HW137259   2.234   4.348   6.201  1.0453  0.6021  0.9365
 8600SOL    HW237260   2.257   4.378   6.055  0.8239  0.3930 -0.7957
 8601SOL     OW37261   3.917   1.547  14.613 -0.2074 -0.8157  0.0414
 8601SOL    HW137262   3.968   1.521  14.536 -0.4621 -0.9896 -0.0696
 8601SOL    HW237263   3.993   1.552  14.672  0.9051 -2.1657 -1.2701
 8602SOL     OW37264   4.512   0.283   4.306 -0.0537  0.7678  0.5927
 8602SOL    HW137265   4.513   0.278   4.211 -1.3268  1.9592  0.5261
 8602SOL    HW237266   4.562   0.202   4.318  1.0961  0.9491 -3.1654
 8603SOL     OW37267   3.618   3.200  15.704 -0.0268  0.4118 -0.6169
 8603SOL    HW137268   3.657   3.239  15.626 -0.4158 -0.8750 -1.4517
 8603SOL    HW237269   3.538   3.161  15.669 -2.1799  2.3977  2.0361
 8604SOL     OW37270   2.055   1.337   2.938 -0.1027  0.3221  0.7821
 8604SOL    HW137271   2.019   1.336   3.027 -1.1879 -0.8455  0.3288
 8604SOL    HW237272   2.140   1.374   2.961  1.0124 -1.7071 -0.1218
 8605SOL     OW37273   3.208   2.194   9.815 -0.1189 -0.0269 -0.0267
 8605SOL    HW137274   3.233   2.203   9.907  0.8546 -0.8004 -0.2103
 8605SOL    HW237275   3.179   2.102   9.815 -1.1541  0.3043 -0.5529
 8606SOL     OW37276   2.517   4.485  17.111 -0.1599  0.0751 -0.0941
 8606SOL    HW137277   2.497   4.391  17.114 -1.2815  0.3464  1.0837
 8606SOL    HW237278   2.490   4.525  17.194 -0.9922 -3.7720  1.5001
 8607SOL     OW37279   2.669   3.993   1.380  0.3742 -0.1405 -0.3099
 8607SOL    HW137280   2.658   3.997   1.475 -0.8069  2.4089 -0.5502
 8607SOL    HW237281   2.632   3.907   1.362 -2.5003  0.9666  0.3959
 8608SOL     OW37282   4.242   0.379  14.220  0.2282 -0.3770 -0.5513
 8608SOL    HW137283   4.259   0.429  14.139  1.2212  0.7246  0.3284
 8608SOL    HW237284   4.150   0.388  14.242  0.6253 -3.0309  2.1005
 8609SOL     OW37285   3.715   4.490   4.308  0.7020 -0.3297  0.3336
 8609SOL    HW137286   3.786   4.434   4.277  1.4441  0.3168  0.8504
 8609SOL    HW237287   3.754   4.537   4.382 -0.7215 -2.1199  2.2093
 8610SOL     OW37288   4.475   3.611   4.333  0.2241 -0.5588  0.4439
 8610SOL    HW137289   4.529   3.611   4.411 -0.9766  1.6870  1.2891
 8610SOL    HW237290   4.535   3.636   4.263 -2.9024 -1.3638 -2.5311
 8611SOL     OW37291   0.138   1.756   5.951 -0.1104  0.7179  0.6270
 8611SOL    HW137292   0.192   1.788   5.879  1.2450 -0.2065  1.2384
 8611SOL    HW237293   0.211   1.771   6.012 -0.6162  3.3841  0.5964
 8612SOL     OW37294   0.257   1.498   8.190 -0.9321  0.1077  0.1724
 8612SOL    HW137295   0.242   1.540   8.275 -0.2224 -1.5956  1.1284
 8612SOL    HW237296   0.219   1.411   8.204 -0.7149  0.0251  0.2466
 8613SOL     OW37297   1.669   4.170   6.828 -0.0253  0.7064  0.1819
 8613SOL    HW137298   1.644   4.086   6.791 -0.9811 -0.1479  2.7458
 8613SOL    HW237299   1.765   4.171   6.833 -0.1023  1.1758  1.6351
 8614SOL     OW37300   3.207   0.507   1.385  0.1265  0.3705 -0.2471
 8614SOL    HW137301   3.207   0.584   1.329  0.3895  1.7916  1.7185
 8614SOL    HW237302   3.138   0.529   1.448 -0.4464  0.0945 -0.7692
 8615SOL     OW37303   1.275   1.786   5.060  0.5069  0.3896  0.6373
 8615SOL    HW137304   1.291   1.702   5.103  0.2192 -0.2228 -0.4446
 8615SOL    HW237305   1.197   1.820   5.104 -0.5678 -2.6598  1.0825
 8616SOL     OW37306   0.295   2.085   8.514 -0.2923  0.4246 -0.1057
 8616SOL    HW137307   0.385   2.086   8.547 -0.2582  2.1023 -0.2627
 8616SOL    HW237308   0.305   2.014   8.450  0.4437  0.2421  0.2043
 8617SOL     OW37309   4.474   3.053  16.153  0.1180 -0.1923  0.0636
 8617SOL    HW137310   4.390   3.009  16.141 -0.1541  0.2816  0.2298
 8617SOL    HW237311   4.515   3.004  16.224 -1.6737 -1.5816  0.1401
 8618SOL     OW37312   1.575   2.063   6.640 -0.0745 -0.5126 -0.3200
 8618SOL    HW137313   1.668   2.083   6.649  0.3987 -2.5453 -0.6327
 8618SOL    HW237314   1.581   1.978   6.595  1.7965  0.2869 -1.5455
 8619SOL     OW37315   3.882   0.931   2.493 -0.6792 -0.4957  0.0669
 8619SOL    HW137316   3.819   0.968   2.431  0.8752  2.6753  0.3538
 8619SOL    HW237317   3.920   0.867   2.433  0.6805 -0.7413  1.1752
 8620SOL     OW37318   2.080   0.269   7.541 -0.6006 -0.0528  0.1067
 8620SOL    HW137319   2.039   0.338   7.593  0.9401  1.6620 -0.9715
 8620SOL    HW237320   2.048   0.190   7.585 -0.2816 -0.7673 -0.9421
 8621SOL     OW37321   4.604   2.885   2.086 -0.0348  0.2265  0.0696
 8621SOL    HW137322   4.564   2.800   2.064  0.4384 -0.4225  1.6627
 8621SOL    HW237323   4.694   2.853   2.089  0.2864  1.1223 -0.2252
 8622SOL     OW37324   4.468   1.735   9.357  0.5786  0.3320 -0.0588
 8622SOL    HW137325   4.416   1.755   9.436 -0.1068 -4.1308  0.6427
 8622SOL    HW237326   4.540   1.795   9.376  1.2513 -0.9239  1.3215
 8623SOL     OW37327   0.489   0.630   2.957  0.0118  0.2566 -0.1960
 8623SOL    HW137328   0.484   0.536   2.941  1.2821  0.0827  0.4252
 8623SOL    HW237329   0.488   0.668   2.870  1.0612  1.3453  0.2734
 8624SOL     OW37330   0.912   0.461   7.132 -0.1067  0.7427  0.3163
 8624SOL    HW137331   0.845   0.451   7.064  0.9425  1.2578 -0.7985
 8624SOL    HW237332   0.995   0.462   7.084  0.3835  0.2782  1.1552
 8625SOL     OW37333   1.943   2.213  11.175  0.1710  0.1297  0.9066
 8625SOL    HW137334   2.000   2.184  11.246  1.1652 -0.6889 -0.2243
 8625SOL    HW237335   1.890   2.267  11.234 -2.0835  0.3392 -1.3001
 8626SOL     OW37336   2.922   4.634   2.282 -0.0937  0.5023 -0.0797
 8626SOL    HW137337   2.828   4.620   2.270 -0.1835  1.9947 -1.1638
 8626SOL    HW237338   2.937   4.576   2.356  0.2443  1.0896  0.3106
 8627SOL     OW37339   4.040   2.168   6.790 -0.5583  0.3068  0.5361
 8627SOL    HW137340   4.002   2.149   6.876  0.0559  3.0578  1.4069
 8627SOL    HW237341   4.130   2.192   6.813 -0.2298 -0.5807  0.1938
 8628SOL     OW37342   0.322   2.161   1.536  0.0043 -0.5342  0.0140
 8628SOL    HW137343   0.272   2.079   1.537  0.4326 -0.7862  0.6682
 8628SOL    HW237344   0.309   2.184   1.444 -1.9382  0.4865  0.5463
 8629SOL     OW37345   2.113   2.583   4.341 -0.4553 -0.3267 -0.0819
 8629SOL    HW137346   2.022   2.610   4.333 -0.4531 -0.9186 -2.1367
 8629SOL    HW237347   2.123   2.535   4.259  0.4331 -2.2778  1.1592
 8630SOL     OW37348   1.789   2.645   6.242  0.1806 -0.2008  0.0550
 8630SOL    HW137349   1.758   2.593   6.315 -1.9422  0.3836 -0.4335
 8630SOL    HW237350   1.782   2.733   6.278 -1.2009 -0.1376 -0.3598
 8631SOL     OW37351   3.368   0.959   4.918  0.1083 -0.1549  0.0570
 8631SOL    HW137352   3.284   0.978   4.876 -1.1986 -3.5680  1.0639
 8631SOL    HW237353   3.333   0.915   4.996 -1.0096 -0.7108 -0.7508
 8632SOL     OW37354   3.473   0.833   4.340  0.1708 -0.0325  0.8148
 8632SOL    HW137355   3.527   0.860   4.266 -0.7740  0.5526  0.3459
 8632SOL    HW237356   3.402   0.787   4.294 -0.8289  2.9074 -0.5936
 8633SOL     OW37357   2.490   0.961  17.203 -0.5717  0.0506  0.0208
 8633SOL    HW137358   2.419   1.020  17.229 -1.1117 -0.8845  0.6670
 8633SOL    HW237359   2.548   0.980  17.277 -0.9005  0.2668  0.2274
 8634SOL     OW37360   2.231   0.822  15.640 -0.3902  0.4089  0.6638
 8634SOL    HW137361   2.166   0.890  15.624 -0.7657  0.4373  2.3775
 8634SOL    HW237362   2.311   0.859  15.601  2.4969 -4.2715  2.2046
 8635SOL     OW37363   4.516   2.729   9.549 -0.2902 -0.1650 -0.3542
 8635SOL    HW137364   4.461   2.696   9.478 -0.3502  0.2207 -0.4886
 8635SOL    HW237365   4.517   2.820   9.517 -1.0507 -0.3430 -0.9133
 8636SOL     OW37366   1.809   3.440   5.659 -0.6666  0.0550 -0.3138
 8636SOL    HW137367   1.890   3.470   5.618 -1.4669  1.8696 -0.5601
 8636SOL    HW237368   1.800   3.485   5.743  0.5108 -1.1744  0.4702
 8637SOL     OW37369   0.692   1.051   1.912  0.1330  0.0358  0.4136
 8637SOL    HW137370   0.693   1.146   1.901  2.3569 -0.2580 -2.0009
 8637SOL    HW237371   0.661   1.039   2.002 -1.5846  0.7706 -0.0677
 8638SOL     OW37372   3.240   3.514   8.816  0.0963 -0.0440 -0.0517
 8638SOL    HW137373   3.208   3.425   8.832  1.3456 -0.5598 -0.4864
 8638SOL    HW237374   3.297   3.521   8.892  0.2123 -1.2889 -0.0283
 8639SOL     OW37375   4.546   1.408   4.622 -0.1923 -0.6843 -0.1407
 8639SOL    HW137376   4.612   1.372   4.563 -0.0054 -1.1113  0.3263
 8639SOL    HW237377   4.563   1.364   4.705  3.1712  0.3864 -0.2256
 8640SOL     OW37378   3.424   3.603   2.462  0.8151  0.2342  0.3138
 8640SOL    HW137379   3.420   3.560   2.547  1.3054 -2.6049 -1.1123
 8640SOL    HW237380   3.347   3.659   2.470 -0.8937 -2.2714  1.1929
 8641SOL     OW37381   1.485   3.306   0.752 -0.1486 -0.2698 -0.4780
 8641SOL    HW137382   1.513   3.280   0.839  2.3960  0.5458 -1.0412
 8641SOL    HW237383   1.567   3.326   0.706 -2.4489  1.3675 -3.9226
 8642SOL     OW37384   4.101   0.366   6.374 -0.3935  0.6592  0.7681
 8642SOL    HW137385   4.182   0.350   6.422  1.0456  1.3643 -1.4282
 8642SOL    HW237386   4.050   0.403   6.446 -1.9369  3.1165 -1.5682
 8643SOL     OW37387   0.795   1.187   8.572 -0.3073  0.2683  0.0975
 8643SOL    HW137388   0.888   1.207   8.563 -1.3671  4.3320 -1.6299
 8643SOL    HW237389   0.757   1.270   8.600  0.4527  0.0099  1.9375
 8644SOL     OW37390   3.120   0.746   1.854  0.2175 -0.2519  0.7995
 8644SOL    HW137391   3.213   0.729   1.872  0.1334 -1.4750  0.0122
 8644SOL    HW237392   3.101   0.797   1.933  0.5178  1.1374 -0.0369
 8645SOL     OW37393   1.016   1.822   6.637 -0.1619 -0.1146 -0.3965
 8645SOL    HW137394   0.929   1.782   6.635  0.4133 -1.3057 -2.0030
 8645SOL    HW237395   1.014   1.900   6.581  2.0820 -0.0846 -0.4379
 8646SOL     OW37396   3.422   2.996   0.109 -0.5612  0.7939 -0.5355
 8646SOL    HW137397   3.372   3.061   0.059 -0.5893  1.5359  0.4574
 8646SOL    HW237398   3.511   3.016   0.079 -0.4973  0.9770 -0.2301
 8647SOL     OW37399   3.033   0.875   6.281  0.7077  0.1330  0.3119
 8647SOL    HW137400   3.108   0.837   6.235  1.4445  0.5063  1.2064
 8647SOL    HW237401   2.985   0.800   6.316 -0.8264  0.9933  0.0545
 8648SOL     OW37402   0.856   1.281  14.329  0.1316 -0.2400  0.1046
 8648SOL    HW137403   0.878   1.362  14.374 -1.6080  0.6268 -0.6020
 8648SOL    HW237404   0.760   1.286  14.330  0.1118 -0.5002 -0.4767
 8649SOL     OW37405   3.780   3.862   2.630  0.4085 -0.2427  0.0090
 8649SOL    HW137406   3.873   3.846   2.649  0.0176 -1.5566  0.7913
 8649SOL    HW237407   3.766   3.945   2.675 -0.0871 -1.5334  2.2766
 8650SOL     OW37408   2.263   1.500   5.306 -0.1200  0.3046 -0.7679
 8650SOL    HW137409   2.303   1.573   5.259 -0.6122  1.0284 -0.0559
 8650SOL    HW237410   2.176   1.525   5.275 -0.6211 -0.2528  0.1900
 8651SOL     OW37411   2.266   3.617   0.916  0.4938 -0.1380  0.2203
 8651SOL    HW137412   2.253   3.636   0.823 -0.6405  1.4461  0.6965
 8651SOL    HW237413   2.243   3.700   0.958  1.6256 -0.0495  0.6726
 8652SOL     OW37414   0.509   4.089   3.536  0.0819  0.6461  0.5425
 8652SOL    HW137415   0.600   4.062   3.522 -0.1626 -0.1902  0.5653
 8652SOL    HW237416   0.538   4.170   3.576  0.0459  1.0315 -0.2202
 8653SOL     OW37417   1.084   0.307   8.701 -0.1074  0.0343  0.1031
 8653SOL    HW137418   1.129   0.380   8.659 -1.2293  1.6191  1.6357
 8653SOL    HW237419   1.085   0.334   8.793 -0.6356  1.7445 -0.4046
 8654SOL     OW37420   3.443   2.002   4.656  0.1361  0.2219  0.0766
 8654SOL    HW137421   3.379   2.073   4.659  0.2310  0.3156 -0.2100
 8654SOL    HW237422   3.381   1.930   4.646  0.0103  0.6419 -2.0929
 8655SOL     OW37423   4.121   0.390   6.877 -0.2518 -0.1507  0.2927
 8655SOL    HW137424   4.092   0.315   6.930  0.8850 -1.8151 -1.4613
 8655SOL    HW237425   4.213   0.367   6.862  0.2308  1.0280  1.4432
 8656SOL     OW37426   3.719   2.920   5.129  0.1865 -0.3297 -0.0934
 8656SOL    HW137427   3.624   2.919   5.141  0.5300  0.5362  2.8871
 8656SOL    HW237428   3.750   2.937   5.218  2.7724 -1.6428 -0.7485
 8657SOL     OW37429   1.818   4.086   1.764  1.0947 -0.1388  0.0538
 8657SOL    HW137430   1.881   4.090   1.692 -0.3136 -0.6209 -1.2209
 8657SOL    HW237431   1.738   4.052   1.723  1.3816 -0.4592 -0.2462
 8658SOL     OW37432   2.878   4.425   1.788  0.2127  0.2476 -0.1318
 8658SOL    HW137433   2.928   4.346   1.766 -1.5293 -0.9574  0.1585
 8658SOL    HW237434   2.937   4.493   1.757 -0.5486  0.5632 -0.8982
 8659SOL     OW37435   4.469   0.261   3.640  0.1890 -0.0268 -0.4212
 8659SOL    HW137436   4.534   0.210   3.689 -0.5519 -0.7500 -0.1980
 8659SOL    HW237437   4.405   0.270   3.711 -1.9304 -2.0539 -2.0929
 8660SOL     OW37438   3.576   2.459   2.677 -0.4976  0.0511  0.2506
 8660SOL    HW137439   3.485   2.490   2.680 -0.3938  0.2914  0.8226
 8660SOL    HW237440   3.581   2.369   2.706 -1.1991 -0.4230 -1.0741
 8661SOL     OW37441   3.728   2.123   9.062 -0.6564  0.6078 -0.0804
 8661SOL    HW137442   3.643   2.119   9.105 -0.4307 -0.5962  0.2470
 8661SOL    HW237443   3.697   2.167   8.983 -4.0385 -0.7984  0.4819
 8662SOL     OW37444   1.231   1.779   7.491 -0.4944  0.2088 -0.0115
 8662SOL    HW137445   1.167   1.806   7.425 -0.8627 -0.3838  0.1017
 8662SOL    HW237446   1.228   1.684   7.481  1.1787  0.2334 -0.7091
 8663SOL     OW37447   3.474   0.036  16.449  0.0223  0.0258 -0.7435
 8663SOL    HW137448   3.438   4.673  16.462  1.1128 -0.2485  0.4903
 8663SOL    HW237449   3.395   0.082  16.423 -0.8092 -1.0176 -0.0598
 8664SOL     OW37450   3.919   0.957   5.909 -0.2718 -0.1952  0.1342
 8664SOL    HW137451   3.945   0.875   5.951 -1.5074 -1.9977 -2.6630
 8664SOL    HW237452   3.851   0.981   5.972 -0.1997  1.8659 -0.5624
 8665SOL     OW37453   1.453   3.826   2.065 -0.2000  0.0775 -0.1371
 8665SOL    HW137454   1.485   3.890   2.002  0.9158 -0.5309 -0.1928
 8665SOL    HW237455   1.390   3.875   2.118 -0.6630 -1.7576  1.0114
 8666SOL     OW37456   1.084   2.113   5.598  0.3194  0.4626  0.1965
 8666SOL    HW137457   1.086   2.027   5.555  1.5913  1.2088 -1.2545
 8666SOL    HW237458   1.061   2.087   5.687  2.1190  1.1591  0.8523
 8667SOL     OW37459   4.079   1.289   2.718  0.3627  0.0756 -0.0445
 8667SOL    HW137460   4.018   1.287   2.645  0.6956  0.6383 -0.3379
 8667SOL    HW237461   4.065   1.198   2.744 -1.3297 -0.5419 -3.1283
 8668SOL     OW37462   0.777   3.217   8.372 -0.1376  0.4122 -0.2945
 8668SOL    HW137463   0.844   3.212   8.441 -0.9691 -2.9751  0.2770
 8668SOL    HW237464   0.754   3.310   8.376 -1.1585  0.1271  0.6235
 8669SOL     OW37465   4.719   3.168  12.870 -0.0632  0.3356 -0.0959
 8669SOL    HW137466   0.073   3.222  12.860 -0.4407  0.8341 -0.3491
 8669SOL    HW237467   0.022   3.087  12.826  0.6924 -1.1050  3.0337
 8670SOL     OW37468   1.623   1.721   3.296 -0.0852 -0.1256  0.3378
 8670SOL    HW137469   1.535   1.738   3.263  1.0957  0.3516 -2.5643
 8670SOL    HW237470   1.673   1.787   3.247  0.3352  0.0219  0.9640
 8671SOL     OW37471   0.444   2.384   3.538  0.0933  0.5235 -0.0834
 8671SOL    HW137472   0.523   2.330   3.535  1.6713  2.7414  1.4463
 8671SOL    HW237473   0.491   2.461   3.507  0.9111 -0.4760 -1.2848
 8672SOL     OW37474   2.906   0.672  15.182 -0.0912  0.3005 -0.1016
 8672SOL    HW137475   2.902   0.767  15.171  2.2793  0.4372  0.2132
 8672SOL    HW237476   2.934   0.665  15.273  2.5760  1.2301 -0.8773
 8673SOL     OW37477   0.227   3.322   6.188  0.1789  0.0602  0.0334
 8673SOL    HW137478   0.135   3.346   6.177  0.2269  1.0118  1.7925
 8673SOL    HW237479   0.266   3.401   6.152  0.2314 -0.2169 -0.5289
 8674SOL     OW37480   3.042   2.612   6.826 -1.2592  0.1558 -0.5429
 8674SOL    HW137481   3.057   2.694   6.874  0.3206 -0.2438 -0.3657
 8674SOL    HW237482   3.128   2.611   6.784 -1.6927 -2.2939 -1.3693
 8675SOL     OW37483   1.876   1.950   1.550 -0.2425  0.1650 -0.0779
 8675SOL    HW137484   1.871   1.884   1.480 -0.5009  0.2356 -0.1250
 8675SOL    HW237485   1.963   1.989   1.541  0.0788 -0.7221 -0.8110
 8676SOL     OW37486   2.674   3.910   6.077 -0.5046  0.3662  0.4061
 8676SOL    HW137487   2.661   3.819   6.105 -1.5756  0.5685  0.5512
 8676SOL    HW237488   2.669   3.947   6.165 -0.4476 -0.0224  0.5742
 8677SOL     OW37489   3.291   4.392   8.752 -0.5535  0.1979  0.4322
 8677SOL    HW137490   3.211   4.430   8.786  0.1688  1.3985  0.7999
 8677SOL    HW237491   3.327   4.475   8.719 -1.7450  1.0649  1.3381
 8678SOL     OW37492   0.001   3.231  15.937  0.1998  0.7542  0.2529
 8678SOL    HW137493   0.091   3.261  15.926 -0.4521  3.0176  1.1720
 8678SOL    HW237494   0.007   3.206  16.029  2.7820 -0.2977 -0.2048
 8679SOL     OW37495   0.885   0.702   5.380 -0.1624 -0.0719 -0.0147
 8679SOL    HW137496   0.884   0.716   5.285 -1.4122 -1.8409 -0.2565
 8679SOL    HW237497   0.851   0.778   5.428  0.9649  0.0464  0.5920
 8680SOL     OW37498   0.066   3.284   9.064  0.4370 -0.1601  0.3520
 8680SOL    HW137499   0.062   3.377   9.042 -0.9497  0.0251  1.3715
 8680SOL    HW237500   0.102   3.270   9.151 -0.8655  1.8243  1.2151
 8681SOL     OW37501   0.086   2.156   9.624  0.6946  0.2243  0.4143
 8681SOL    HW137502   0.089   2.061   9.629  1.8059  0.1524 -1.6629
 8681SOL    HW237503   0.098   2.184   9.715  0.0076 -0.4724  0.7125
 8682SOL     OW37504   2.038   0.505   5.571  0.0878  0.1394 -0.2020
 8682SOL    HW137505   2.032   0.420   5.526  0.9848 -0.4168  0.7137
 8682SOL    HW237506   1.960   0.541   5.529  0.0380 -0.1449 -0.3571
 8683SOL     OW37507   2.626   2.174   3.629  0.0199 -0.0282  0.0466
 8683SOL    HW137508   2.655   2.243   3.689 -0.0074 -0.1708  0.2247
 8683SOL    HW237509   2.610   2.098   3.685  0.0730 -0.1442 -0.0951
 8684SOL     OW37510   3.038   0.974   3.749 -0.1594 -0.2230 -0.2472
 8684SOL    HW137511   2.989   0.959   3.830 -0.9366  3.9363  0.0487
 8684SOL    HW237512   3.093   0.898   3.730  1.0291  0.7303 -0.6010
 8685SOL     OW37513   2.656   0.319   1.023 -0.2240  0.1290 -0.0747
 8685SOL    HW137514   2.714   0.250   1.058 -3.7143 -0.4453  4.5908
 8685SOL    HW237515   2.715   0.386   0.989  0.3603 -0.0719  0.5457
 8686SOL     OW37516   3.490   3.531   6.843  0.2720 -0.3590 -0.0866
 8686SOL    HW137517   3.523   3.597   6.782  1.9830 -1.7433 -0.6650
 8686SOL    HW237518   3.547   3.459   6.817 -0.5669 -0.5051 -1.5270
 8687SOL     OW37519   2.529   0.696   3.718  0.0624 -0.1606  0.3656
 8687SOL    HW137520   2.621   0.678   3.701  0.8699  3.4060  0.9061
 8687SOL    HW237521   2.532   0.783   3.757  1.4485 -0.0202 -0.0469
 8688SOL     OW37522   4.530   0.865   7.857 -0.1589 -0.3240  0.1818
 8688SOL    HW137523   4.445   0.821   7.848 -0.9991  1.1200  0.9925
 8688SOL    HW237524   4.594   0.799   7.832 -1.9319 -1.1789 -2.1336
 8689SOL     OW37525   4.121   0.021  10.916  0.7634  0.2963 -0.2549
 8689SOL    HW137526   4.161   4.700  10.841  0.5319 -1.1851  0.5148
 8689SOL    HW237527   4.081   0.098  10.877 -1.6058 -0.0849  1.4371
 8690SOL     OW37528   3.232   3.311   2.168 -0.1801  0.0675  0.4564
 8690SOL    HW137529   3.181   3.334   2.090  1.3403  0.2032 -0.4999
 8690SOL    HW237530   3.177   3.334   2.243 -2.4894  0.6878 -1.4491
 8691SOL     OW37531   1.616   2.457   2.750  0.2784  0.3228  0.3361
 8691SOL    HW137532   1.553   2.489   2.685  1.9286  1.1941 -0.8442
 8691SOL    HW237533   1.700   2.450   2.703  0.8855  0.9243  1.3291
 8692SOL     OW37534   0.375   2.200   8.894 -0.5353 -0.6487 -0.4877
 8692SOL    HW137535   0.334   2.271   8.844  0.3608  1.1297  1.3221
 8692SOL    HW237536   0.458   2.193   8.848  0.2097 -0.7596  0.9044
 8693SOL     OW37537   0.785   1.764  10.540  0.0102  0.9396 -0.3052
 8693SOL    HW137538   0.692   1.785  10.547 -0.8580 -2.2413 -2.0600
 8693SOL    HW237539   0.791   1.705  10.615 -1.7527  0.8044 -0.2719
 8694SOL     OW37540   1.274   3.107   5.975  0.4506  0.1751 -0.3359
 8694SOL    HW137541   1.244   3.198   5.969  1.0572  0.3741 -0.3587
 8694SOL    HW237542   1.324   3.102   5.893  0.3128  0.8338 -0.4623
 8695SOL     OW37543   4.142   1.682  12.451  0.3783  0.0175 -0.2577
 8695SOL    HW137544   4.073   1.619  12.430  1.4466 -1.1644 -0.2370
 8695SOL    HW237545   4.221   1.631  12.432  2.0732  1.6297  2.4307
 8696SOL     OW37546   3.350   0.285   7.355 -0.7035 -0.7335 -0.8077
 8696SOL    HW137547   3.277   0.345   7.373  0.9724  0.6883  1.2102
 8696SOL    HW237548   3.305   0.206   7.384 -0.4635 -0.4914  0.2139
 8697SOL     OW37549   3.670   0.328   4.085  0.5730  0.4725  0.1046
 8697SOL    HW137550   3.649   0.236   4.094  2.1601 -0.0301 -1.2266
 8697SOL    HW237551   3.616   0.373   4.150 -1.3599  0.0783 -1.2537
 8698SOL     OW37552   3.001   2.341  11.247 -0.1516 -0.8087 -0.4549
 8698SOL    HW137553   3.052   2.300  11.177 -0.3082  0.4649 -1.3228
 8698SOL    HW237554   3.027   2.430  11.223 -0.5437 -1.0762 -1.9015
 8699SOL     OW37555   3.125   2.375   4.212 -0.0241 -0.2831  0.1376
 8699SOL    HW137556   3.178   2.454   4.219  0.0218 -0.3414  0.4737
 8699SOL    HW237557   3.161   2.313   4.276  0.9385  1.9951  1.8021
 8700SOL     OW37558   1.467   4.408  10.695 -0.5261 -0.0530  0.2864
 8700SOL    HW137559   1.494   4.491  10.733  0.5534 -0.1142 -0.3560
 8700SOL    HW237560   1.392   4.416  10.637 -0.0388  1.9751 -0.0294
 8701SOL     OW37561   4.646   3.828  12.237  0.2085 -0.0179 -0.2384
 8701SOL    HW137562   0.013   3.803  12.221  1.4962  2.5823  2.9486
 8701SOL    HW237563   4.628   3.878  12.157  1.2182 -0.6005 -0.8291
 8702SOL     OW37564   0.390   1.031   8.202  0.1198  0.2503 -0.6107
 8702SOL    HW137565   0.362   1.083   8.126  0.7737  2.6925  0.8426
 8702SOL    HW237566   0.463   1.077   8.242  0.0283 -1.0528  1.0510
 8703SOL     OW37567   0.602   3.478   8.150 -0.5079  0.3217  0.1421
 8703SOL    HW137568   0.545   3.402   8.163  0.6604 -0.5780 -0.0264
 8703SOL    HW237569   0.539   3.549   8.139 -0.4149  0.0723 -1.9062
 8704SOL     OW37570   1.903   2.687   2.338 -0.8796  0.0588 -0.3783
 8704SOL    HW137571   1.969   2.714   2.402  0.2940  1.1701 -2.0636
 8704SOL    HW237572   1.859   2.771   2.328  0.8301  0.7769 -1.7909
 8705SOL     OW37573   1.462   3.334  12.099 -0.0500  0.2391  0.0430
 8705SOL    HW137574   1.400   3.265  12.076 -1.7483  1.4748  0.8688
 8705SOL    HW237575   1.505   3.351  12.015  0.1870 -2.4284 -0.3652
 8706SOL     OW37576   1.509   2.437   3.633  0.6437  0.1352  0.1109
 8706SOL    HW137577   1.521   2.353   3.589 -1.5246  0.7939 -1.6898
 8706SOL    HW237578   1.569   2.486   3.577  2.7658 -2.6796 -0.1358
 8707SOL     OW37579   2.608   1.259   3.163 -0.1532  0.1862 -0.9210
 8707SOL    HW137580   2.571   1.171   3.165  0.8260 -0.1984  0.0419
 8707SOL    HW237581   2.529   1.312   3.176  0.8163  1.5318 -0.5255
 8708SOL     OW37582   1.073   0.542   2.061 -0.0887 -0.3138  0.9582
 8708SOL    HW137583   1.135   0.469   2.065  0.4073  0.0462 -0.2380
 8708SOL    HW237584   0.991   0.494   2.068 -0.1834 -0.1761  0.7842
 8709SOL     OW37585   2.523   3.530   8.238 -0.3261  0.0130 -0.0446
 8709SOL    HW137586   2.444   3.576   8.266 -1.3997 -0.5167 -2.1848
 8709SOL    HW237587   2.489   3.486   8.160  1.9736 -1.0776 -0.4469
 8710SOL     OW37588   1.159   1.951   1.262  0.7551 -0.5340 -0.4151
 8710SOL    HW137589   1.166   2.033   1.213  0.3810 -1.6860 -2.3992
 8710SOL    HW237590   1.150   1.986   1.351 -2.0472 -0.6229 -0.6816
 8711SOL     OW37591   1.059   1.496   4.026  0.4972  0.5820  0.3458
 8711SOL    HW137592   1.021   1.408   4.019 -1.7232  1.7276 -2.1016
 8711SOL    HW237593   1.154   1.492   4.016  0.3837 -0.4831 -0.4456
 8712SOL     OW37594   1.099   1.169   3.307 -0.7819  0.5122  0.2616
 8712SOL    HW137595   1.098   1.113   3.230  1.2658 -0.9065  1.2924
 8712SOL    HW237596   1.165   1.130   3.364  1.0655  0.2524 -2.0342
 8713SOL     OW37597   4.320   2.595   2.909  0.4302 -0.1198  0.1017
 8713SOL    HW137598   4.311   2.554   2.995  2.7905  0.3131  0.5668
 8713SOL    HW237599   4.237   2.641   2.901  0.6258  0.0469 -0.9250
 8714SOL     OW37600   1.528   1.548  10.596 -0.0666  0.3143 -0.6388
 8714SOL    HW137601   1.536   1.643  10.588 -1.9010  0.5813  0.8236
 8714SOL    HW237602   1.611   1.516  10.561  0.2824  0.1640  0.3509
 8715SOL     OW37603   2.607   4.031   2.513  0.8730 -0.8637 -0.5201
 8715SOL    HW137604   2.580   4.065   2.427  0.6282 -0.8781 -0.4505
 8715SOL    HW237605   2.689   3.986   2.492  1.4912  0.2262 -0.4219
 8716SOL     OW37606   0.700   0.633  10.430 -0.2563 -0.0564 -0.4678
 8716SOL    HW137607   0.623   0.584  10.402  0.7498  0.0093 -3.4256
 8716SOL    HW237608   0.779   0.586  10.402  0.4049  0.9809 -0.3619
 8717SOL     OW37609   4.613   1.267   5.268 -0.5151  0.0025 -0.7615
 8717SOL    HW137610   4.692   1.318   5.256 -0.6144  0.5609  1.0111
 8717SOL    HW237611   4.543   1.332   5.262 -0.3221  0.1890 -1.0026
 8718SOL     OW37612   0.605   3.516   1.556  0.6843 -0.5812 -0.1327
 8718SOL    HW137613   0.535   3.452   1.541  0.9417 -0.6040 -1.1831
 8718SOL    HW237614   0.686   3.466   1.561  0.8927 -0.2036  0.3218
 8719SOL     OW37615   0.853   2.465   4.504  0.4982  0.2161 -0.1256
 8719SOL    HW137616   0.820   2.380   4.476 -3.9512  2.2543 -1.1171
 8719SOL    HW237617   0.774   2.505   4.541  0.8551 -1.0456  1.9794
 8720SOL     OW37618   4.169   4.327   5.671  0.2972  0.8691 -0.2877
 8720SOL    HW137619   4.145   4.408   5.625  0.4800  0.9753 -0.1958
 8720SOL    HW237620   4.158   4.259   5.605 -1.8243  0.5811  0.3825
 8721SOL     OW37621   3.251   3.739   6.807  0.0118  0.0171  0.8076
 8721SOL    HW137622   3.224   3.815   6.858  0.5190  0.6668  0.1108
 8721SOL    HW237623   3.343   3.746   6.831  0.3260 -1.0286 -0.0677
 8722SOL     OW37624   1.530   3.475  15.626  0.4093 -0.1168 -0.6448
 8722SOL    HW137625   1.485   3.403  15.584 -1.0753 -0.9746  2.4293
 8722SOL    HW237626   1.535   3.535  15.551  2.3126 -1.1155 -1.3147
 8723SOL     OW37627   1.907   0.579  14.158  0.2921  0.2781  0.4455
 8723SOL    HW137628   1.875   0.555  14.072 -1.6025  1.2681  0.8907
 8723SOL    HW237629   1.956   0.500  14.185 -0.3858  0.0523  1.0156
 8724SOL     OW37630   1.947   4.439   1.316  0.0205  0.1786 -0.3257
 8724SOL    HW137631   1.947   4.486   1.399 -1.7478  0.4122 -0.4597
 8724SOL    HW237632   1.892   4.364   1.341  0.9922  0.1469  1.6950
 8725SOL     OW37633   2.824   2.957  12.165  0.5354 -0.4039  0.2497
 8725SOL    HW137634   2.880   2.997  12.098 -0.4759  1.2353  0.3651
 8725SOL    HW237635   2.818   3.027  12.230 -2.2530 -1.3604  1.0594
 8726SOL     OW37636   0.634   1.267  11.984 -0.5653  0.7753  0.4202
 8726SOL    HW137637   0.621   1.177  11.954 -1.0652  1.2646 -0.8089
 8726SOL    HW237638   0.542   1.291  11.986 -0.8744 -0.4939  0.7932
 8727SOL     OW37639   3.350   1.751   9.246 -0.3828 -0.7540 -0.5367
 8727SOL    HW137640   3.277   1.748   9.309 -0.9767 -0.8092 -1.2253
 8727SOL    HW237641   3.323   1.826   9.194 -0.0103  2.0394  3.2748
 8728SOL     OW37642   1.346   2.028  10.537  0.4748 -0.5089  0.3020
 8728SOL    HW137643   1.432   2.037  10.496 -0.1959 -2.5380 -1.5252
 8728SOL    HW237644   1.328   2.119  10.565  0.1653 -0.0961 -1.2670
 8729SOL     OW37645   2.715   0.081   1.268 -0.0611 -0.5636 -0.2806
 8729SOL    HW137646   2.760   0.071   1.352  2.6781 -2.3849 -1.9600
 8729SOL    HW237647   2.791   0.102   1.213 -0.7610 -0.8716 -1.3639
 8730SOL     OW37648   4.506   0.402  14.907  0.0242  0.4537  0.4954
 8730SOL    HW137649   4.572   0.391  14.839 -1.6244 -0.3961 -0.9767
 8730SOL    HW237650   4.517   0.492  14.938 -2.2186  1.1764 -0.7777
 8731SOL     OW37651   3.740   3.199   4.689  0.3635 -0.1202 -0.4947
 8731SOL    HW137652   3.737   3.131   4.755 -0.3626 -0.8959 -1.3296
 8731SOL    HW237653   3.788   3.152   4.620 -0.6141  0.4976 -1.5896
 8732SOL     OW37654   0.938   3.884   8.020 -0.7925  0.1587 -0.5756
 8732SOL    HW137655   0.995   3.810   8.041 -1.5428 -0.5023 -0.8731
 8732SOL    HW237656   0.900   3.835   7.946  0.5721 -0.8283 -0.6226
 8733SOL     OW37657   2.930   0.096   0.635  0.1142  0.2114 -0.2330
 8733SOL    HW137658   2.986   0.133   0.567  1.5101  0.5237  1.0907
 8733SOL    HW237659   2.987   0.110   0.711 -1.5649 -1.7195  1.3838
 8734SOL     OW37660   2.938   3.819  16.705 -0.4817  0.2824  0.2190
 8734SOL    HW137661   3.017   3.865  16.732  0.6107 -1.5300  0.1537
 8734SOL    HW237662   2.972   3.771  16.630 -1.5968  1.8941 -1.3024
 8735SOL     OW37663   2.490   4.714   8.659 -0.2569  0.2968 -0.5277
 8735SOL    HW137664   2.579   4.706   8.694  1.4359  1.4047 -4.5970
 8735SOL    HW237665   2.448   4.634   8.693  2.2457  0.1318  2.1585
 8736SOL     OW37666   1.209   2.740   3.268  0.4114  0.1119  0.0752
 8736SOL    HW137667   1.204   2.796   3.345  0.2244 -0.7241  0.6670
 8736SOL    HW237668   1.261   2.674   3.313 -2.1889 -2.3233 -0.5084
 8737SOL     OW37669   2.646   1.550  13.441 -0.2283 -0.6643  0.1119
 8737SOL    HW137670   2.556   1.526  13.463  0.3407 -2.1477  0.7786
 8737SOL    HW237671   2.677   1.474  13.392  0.7266 -0.6605  0.7297
 8738SOL     OW37672   1.075   3.610   5.506 -0.0329 -0.0589 -0.1804
 8738SOL    HW137673   1.027   3.646   5.580 -0.8049  1.6884 -1.5519
 8738SOL    HW237674   1.068   3.515   5.518 -2.0249 -0.0772 -1.5363
 8739SOL     OW37675   2.571   1.947   2.484 -0.1818  0.0172  0.6397
 8739SOL    HW137676   2.536   1.893   2.413  1.0854  0.2480 -0.1518
 8739SOL    HW237677   2.489   1.951   2.533  1.2645  2.6902  2.8087
 8740SOL     OW37678   2.141   3.016  13.878 -0.1276  0.2785  0.1136
 8740SOL    HW137679   2.222   2.972  13.902 -0.9331  0.5793  3.4424
 8740SOL    HW237680   2.149   3.021  13.783  0.3760 -0.6490  0.1099
 8741SOL     OW37681   0.358   2.140   4.726  0.0924  0.5287 -0.1705
 8741SOL    HW137682   0.265   2.151   4.705  0.3652  0.4145 -1.4137
 8741SOL    HW237683   0.383   2.229   4.753  1.2249 -0.2681  1.4199
 8742SOL     OW37684   3.077   0.703   8.665  0.0538  0.0590 -0.1383
 8742SOL    HW137685   3.093   0.757   8.588  0.6436 -0.7015 -0.5548
 8742SOL    HW237686   3.156   0.650   8.675  0.7848  0.9501 -1.1631
 8743SOL     OW37687   4.708   0.780   9.253  0.1406  0.2266 -0.0080
 8743SOL    HW137688   4.683   0.736   9.334 -2.1417 -0.5288 -1.1530
 8743SOL    HW237689   4.710   0.706   9.193 -0.5710 -1.0995  1.6024
 8744SOL     OW37690   1.292   1.897   5.777 -0.2745 -0.5865  0.4899
 8744SOL    HW137691   1.323   1.808   5.758  0.3794 -0.4280  0.7921
 8744SOL    HW237692   1.377   1.942   5.771  0.6669 -2.2946  0.9598
 8745SOL     OW37693   2.947   2.419   7.185  0.2903  0.2420 -0.1171
 8745SOL    HW137694   3.034   2.459   7.180  0.8119 -1.0518 -1.4792
 8745SOL    HW237695   2.959   2.325   7.198 -0.9731  0.1935  0.6968
 8746SOL     OW37696   1.128   1.844   5.577 -0.0296  0.0618  0.0090
 8746SOL    HW137697   1.197   1.880   5.632 -0.2075  0.1365  0.1826
 8746SOL    HW237698   1.061   1.824   5.643 -0.2901 -0.5516 -0.4453
 8747SOL     OW37699   2.978   2.731  16.888  0.0118  0.4975  0.1637
 8747SOL    HW137700   3.023   2.706  16.969  2.9754 -1.1068 -1.9534
 8747SOL    HW237701   2.892   2.746  16.927 -0.7181 -1.2497 -0.7847
 8748SOL     OW37702   0.454   0.730  16.542 -0.0100 -0.1305 -0.1772
 8748SOL    HW137703   0.483   0.756  16.630 -0.1055 -0.1492 -0.1409
 8748SOL    HW237704   0.361   0.752  16.544  0.0832  0.1174  1.3213
 8749SOL     OW37705   0.400   1.287  16.495  0.4293 -0.5522 -0.0001
 8749SOL    HW137706   0.482   1.291  16.545 -0.9457  1.4373  2.1475
 8749SOL    HW237707   0.364   1.374  16.516 -1.4159 -1.4204  0.4288
 8750SOL     OW37708   0.686   1.882  14.100  0.4170  0.2088 -0.2077
 8750SOL    HW137709   0.769   1.885  14.147 -0.3460 -0.8332  1.2122
 8750SOL    HW237710   0.699   1.791  14.075  0.5849  1.0097 -3.0413
 8751SOL     OW37711   0.893   0.793   7.760 -0.2653 -0.9221  0.4628
 8751SOL    HW137712   0.907   0.759   7.849  2.2367  0.3982  0.5808
 8751SOL    HW237713   0.831   0.730   7.724  1.0282 -1.6456 -0.5063
 8752SOL     OW37714   2.623   4.363   4.686 -0.3453  0.2269 -0.2096
 8752SOL    HW137715   2.713   4.360   4.719  0.3735  2.0686 -2.0238
 8752SOL    HW237716   2.603   4.456   4.697  3.9358  1.0628  0.6563
 8753SOL     OW37717   2.103   0.723   4.446 -0.3823 -0.0917  0.0619
 8753SOL    HW137718   2.143   0.804   4.476  1.0700 -0.0184 -2.1011
 8753SOL    HW237719   2.047   0.752   4.374  0.8886  2.6259  0.1721
 8754SOL     OW37720   0.614   3.628  12.571 -0.5244  0.7038 -0.1664
 8754SOL    HW137721   0.690   3.570  12.577 -0.7238  0.1710 -2.9968
 8754SOL    HW237722   0.658   3.711  12.551  0.1277  0.7947  1.6190
 8755SOL     OW37723   2.911   1.204   6.118  0.3524 -0.3441  0.1940
 8755SOL    HW137724   2.989   1.205   6.063 -0.2539 -0.9703 -0.6716
 8755SOL    HW237725   2.852   1.250   6.059  2.4945  0.1113 -1.5682
 8756SOL     OW37726   1.236   2.971  12.301 -0.0357 -0.0263  0.3603
 8756SOL    HW137727   1.223   2.978  12.396  0.4234  1.4444  0.3282
 8756SOL    HW237728   1.325   3.005  12.288  0.5192 -1.9070 -0.8069
 8757SOL     OW37729   0.030   2.653   3.484 -0.0067  0.0115 -0.0061
 8757SOL    HW137730   0.023   2.560   3.505 -1.7629  0.0139 -0.6317
 8757SOL    HW237731   0.024   2.688   3.573  2.6295  3.0166 -0.9898
 8758SOL     OW37732   2.560   1.771   0.029 -0.2551  0.1131  0.2645
 8758SOL    HW137733   2.622   1.779   0.101  0.3857  1.1545 -0.4085
 8758SOL    HW237734   2.594   1.846  17.681 -1.3048  1.5334  1.7261
 8759SOL     OW37735   1.754   0.051   0.135  0.1726 -1.0406  0.3212
 8759SOL    HW137736   1.703   0.131   0.123 -1.0568 -1.9955 -0.7021
 8759SOL    HW237737   1.824   0.096   0.183 -0.6850  0.7570 -0.1112
 8760SOL     OW37738   0.082   4.474   6.861  0.0689 -0.7188 -0.3605
 8760SOL    HW137739   0.060   4.536   6.931 -0.5043  0.7631 -1.8827
 8760SOL    HW237740   0.177   4.483   6.867 -0.0152 -1.9291  2.6873
 8761SOL     OW37741   2.115   4.636  11.878  0.1163 -0.0693 -0.0030
 8761SOL    HW137742   2.154   4.570  11.936 -2.5076 -0.3997  1.4126
 8761SOL    HW237743   2.143   4.722  11.909 -1.8089  0.8582 -0.9091
 8762SOL     OW37744   3.270   2.331  16.730  0.0186  0.5860 -0.3747
 8762SOL    HW137745   3.186   2.353  16.770  0.3097  0.4142  0.3313
 8762SOL    HW237746   3.299   2.247  16.767 -1.0601  1.2050  1.8919
 8763SOL     OW37747   3.689   2.947   9.202  0.2127 -0.1911  0.2113
 8763SOL    HW137748   3.782   2.955   9.224  0.3893 -1.6638 -0.0269
 8763SOL    HW237749   3.684   2.994   9.119 -1.4442 -2.9067 -1.2133
 8764SOL     OW37750   3.149   1.563  16.613  0.8173  0.1057 -0.2364
 8764SOL    HW137751   3.127   1.475  16.581 -2.1247  1.2330 -1.3160
 8764SOL    HW237752   3.233   1.570  16.569  0.1831  1.6864 -1.1772
 8765SOL     OW37753   1.151   1.904   9.565  0.1504 -0.2332 -0.5908
 8765SOL    HW137754   1.105   1.825   9.538 -1.8648  0.4511  0.8307
 8765SOL    HW237755   1.241   1.873   9.571  0.4265  0.4378 -1.3802
 8766SOL     OW37756   1.198   0.904   4.598 -0.3822 -0.0616  0.2821
 8766SOL    HW137757   1.146   0.979   4.627 -0.2391  0.6382 -1.2756
 8766SOL    HW237758   1.240   0.942   4.521  1.1235  0.9967  1.6112
 8767SOL     OW37759   1.908   1.059   6.265  0.1889  0.1802  0.5300
 8767SOL    HW137760   1.814   1.064   6.282  0.4622  1.4556  1.6390
 8767SOL    HW237761   1.939   1.023   6.347  0.9471 -0.0649  0.1333
 8768SOL     OW37762   4.700   0.758   7.379 -0.0399  1.0321 -0.2396
 8768SOL    HW137763   4.614   0.727   7.407 -0.0988 -0.3585 -1.9921
 8768SOL    HW237764   0.011   0.669   7.375 -1.0331  0.5373  1.8577
 8769SOL     OW37765   1.456   2.929   2.442  0.1692 -0.0361 -0.0893
 8769SOL    HW137766   1.535   2.876   2.451 -0.9205 -1.6714 -0.1286
 8769SOL    HW237767   1.473   2.963   2.354  0.9633 -2.0958 -0.7152
 8770SOL     OW37768   3.402   2.556   4.962  0.0612  0.2663  0.2975
 8770SOL    HW137769   3.479   2.500   4.970  0.0485  0.1144 -0.6138
 8770SOL    HW237770   3.408   2.612   5.039  0.5677  2.4417 -1.3090
 8771SOL     OW37771   1.092   2.288   2.755 -0.9438  0.4999 -0.1380
 8771SOL    HW137772   1.051   2.345   2.691 -1.9484  1.6375  1.4966
 8771SOL    HW237773   1.058   2.329   2.835  2.0458 -1.1769  2.0257
 8772SOL     OW37774   4.380   4.005   5.722 -0.5190  0.2147 -0.2908
 8772SOL    HW137775   4.289   4.033   5.706 -1.1053  0.8692  4.3813
 8772SOL    HW237776   4.426   4.051   5.651 -1.4421 -2.9982 -2.9944
 8773SOL     OW37777   4.105   2.607   4.062  0.8279 -0.0962 -0.1347
 8773SOL    HW137778   4.061   2.525   4.041  1.4341 -0.7864  1.2553
 8773SOL    HW237779   4.191   2.584   4.098  0.7360  3.2060  2.1786
 8774SOL     OW37780   1.489   1.088   5.386  0.2890 -0.2201 -0.1229
 8774SOL    HW137781   1.574   1.129   5.372 -0.3564  1.4060  0.7024
 8774SOL    HW237782   1.490   1.072   5.480  1.9380 -2.6023 -0.5560
 8775SOL     OW37783   4.135   1.485   3.726  0.1360 -0.0590 -0.4555
 8775SOL    HW137784   4.210   1.428   3.713 -1.1937 -1.7385 -0.7711
 8775SOL    HW237785   4.073   1.430   3.678 -0.8346  0.4539  0.1939
 8776SOL     OW37786   1.674   3.020   9.054 -0.0291  1.1711  0.7438
 8776SOL    HW137787   1.701   3.022   8.962 -2.1814  0.5871  0.1024
 8776SOL    HW237788   1.589   2.977   9.054  0.6860 -0.2545 -1.0366
 8777SOL     OW37789   4.698   3.974   5.436  0.0659  0.5340  0.6899
 8777SOL    HW137790   4.609   3.973   5.472 -0.8699 -1.8065 -1.7374
 8777SOL    HW237791   0.006   3.897   5.483  0.8339  0.6210  0.2989
 8778SOL     OW37792   3.059   1.147  13.735 -0.1500  0.3006  0.4405
 8778SOL    HW137793   3.106   1.072  13.770 -0.1783  0.3816  0.6525
 8778SOL    HW237794   2.967   1.142  13.759 -0.1452  1.8884  0.8394
 8779SOL     OW37795   3.707   3.749   8.832 -0.5424  0.9233 -0.3180
 8779SOL    HW137796   3.756   3.698   8.767 -0.9672  0.3112 -0.1653
 8779SOL    HW237797   3.772   3.747   8.902 -1.3629 -2.0158  0.3584
 8780SOL     OW37798   3.619   0.590   2.651  0.7235  0.4642  0.6421
 8780SOL    HW137799   3.527   0.581   2.675  0.7838 -1.6650  0.0241
 8780SOL    HW237800   3.633   0.520   2.588  0.8886  0.8719  0.2252
 8781SOL     OW37801   0.578   2.298   8.723 -0.0867  0.2042  0.7099
 8781SOL    HW137802   0.558   2.392   8.714  1.5385  0.1201 -4.0058
 8781SOL    HW237803   0.668   2.303   8.755 -0.3294 -2.1773  1.7011
 8782SOL     OW37804   2.172   4.601  10.253 -0.2073  0.4428  0.5720
 8782SOL    HW137805   2.112   4.642  10.316 -1.4144 -0.1348 -0.2064
 8782SOL    HW237806   2.243   4.581  10.314 -2.1870  0.0248  2.7398
 8783SOL     OW37807   0.533   1.208   2.073  0.5838  0.1814 -0.0495
 8783SOL    HW137808   0.533   1.272   2.002  2.7549 -0.4896 -0.6511
 8783SOL    HW237809   0.448   1.212   2.118  1.3070 -0.5410  1.4001
 8784SOL     OW37810   2.902   0.361   6.201  0.6768 -0.1803 -0.0786
 8784SOL    HW137811   2.836   0.409   6.151  0.7362 -0.2853 -0.2581
 8784SOL    HW237812   2.864   0.367   6.289 -2.6040  0.5203 -1.5500
 8785SOL     OW37813   1.612   0.312   1.089 -0.1141 -0.1618  1.3770
 8785SOL    HW137814   1.663   0.367   1.149 -0.3553  0.9126  0.6072
 8785SOL    HW237815   1.686   0.267   1.047 -1.0959  0.4697 -1.0428
 8786SOL     OW37816   2.124   2.341   7.351 -0.0956  1.1268 -0.0963
 8786SOL    HW137817   2.093   2.278   7.416  1.9176  0.6397  0.3759
 8786SOL    HW237818   2.106   2.290   7.271  0.3737 -0.3507  0.7337
 8787SOL     OW37819   1.958   1.257   2.519 -0.6686 -0.3530 -0.3529
 8787SOL    HW137820   1.940   1.177   2.469 -0.4536 -0.9705  0.5476
 8787SOL    HW237821   1.872   1.279   2.552 -1.6886 -1.8821 -1.9678
 8788SOL     OW37822   3.698   1.861   7.441 -0.3902 -0.1837  0.1318
 8788SOL    HW137823   3.753   1.936   7.465 -2.9333  1.6335  0.3088
 8788SOL    HW237824   3.715   1.808   7.519 -2.0316 -2.4593 -1.0550
 8789SOL     OW37825   2.770   3.663   9.014  0.0082  0.3348 -0.0420
 8789SOL    HW137826   2.855   3.675   8.971  0.6455  0.5719  1.2632
 8789SOL    HW237827   2.779   3.571   9.043 -2.7806 -0.1586 -0.8190
 8790SOL     OW37828   1.942   3.103   2.679  0.2217 -0.6471  0.1832
 8790SOL    HW137829   1.927   3.059   2.762 -2.5389 -2.0459 -1.0639
 8790SOL    HW237830   2.009   3.172   2.686 -0.6866  0.1803  0.7697
 8791SOL     OW37831   2.578   0.076  10.030 -0.4541 -0.0400  0.0223
 8791SOL    HW137832   2.600   4.710  10.007 -0.3949 -0.2938  1.0686
 8791SOL    HW237833   2.490   0.061  10.065 -0.7599  0.5732 -0.4750
 8792SOL     OW37834   1.981   3.031  12.432  0.1118  0.0470  0.2795
 8792SOL    HW137835   2.038   2.955  12.418  0.8550  0.8943 -1.4016
 8792SOL    HW237836   1.897   2.986  12.428 -0.0019  0.2246  0.6687
 8793SOL     OW37837   3.046   3.522   7.479 -0.3326  0.3833 -0.1348
 8793SOL    HW137838   2.975   3.527   7.543 -1.9410  1.1916 -1.9959
 8793SOL    HW237839   3.046   3.431   7.451  0.3031 -0.5556  2.8672
 8794SOL     OW37840   3.218   2.782   8.392 -0.2378  0.1893 -0.3023
 8794SOL    HW137841   3.219   2.773   8.488  0.9520  0.2167 -0.3232
 8794SOL    HW237842   3.229   2.875   8.374  0.5500  0.1477  0.0001
 8795SOL     OW37843   1.162   4.542   7.227 -0.0384  0.4100 -0.7986
 8795SOL    HW137844   1.222   4.489   7.279 -0.1030  0.6893 -0.4379
 8795SOL    HW237845   1.196   4.530   7.139 -1.1339 -0.4051 -1.1110
 8796SOL     OW37846   2.987   0.051  14.878 -0.0521  0.0563  0.8998
 8796SOL    HW137847   3.072   0.091  14.856 -0.2080 -0.8532 -1.2824
 8796SOL    HW237848   3.015   4.686  14.860  0.5362  0.1323  1.4318
 8797SOL     OW37849   2.836   2.081   4.642 -0.0959  0.3147 -0.6266
 8797SOL    HW137850   2.758   2.132   4.618  1.4467  0.8902 -4.3759
 8797SOL    HW237851   2.889   2.147   4.687 -0.5317  1.2086 -1.4364
 8798SOL     OW37852   4.568   0.344   8.981 -0.0831 -0.1000  0.1673
 8798SOL    HW137853   4.515   0.346   8.901 -0.8040  0.3402  0.6591
 8798SOL    HW237854   4.538   0.275   9.040 -0.5705  2.3793  2.7530
 8799SOL     OW37855   0.255   4.628   5.273  0.2379 -0.8377 -0.1562
 8799SOL    HW137856   0.259   4.724   5.277 -0.0668 -0.8121 -0.4551
 8799SOL    HW237857   0.331   4.607   5.218  1.0365  0.4120  0.4551
 8800SOL     OW37858   1.038   1.157  12.727 -0.5673 -0.3400  0.7699
 8800SOL    HW137859   1.036   1.235  12.782  0.5404  1.9038 -2.3747
 8800SOL    HW237860   1.132   1.144  12.714 -0.3990 -0.4870  2.2126
 8801SOL     OW37861   1.344   3.909   1.470 -0.2915 -0.8590 -0.6912
 8801SOL    HW137862   1.322   3.999   1.446 -0.7486 -0.4654  1.2225
 8801SOL    HW237863   1.289   3.901   1.548  0.6088 -2.7256 -0.2381
 8802SOL     OW37864   3.482   1.423  13.368 -0.3827 -0.1306  0.5034
 8802SOL    HW137865   3.474   1.470  13.285  0.0185 -0.9939 -0.0156
 8802SOL    HW237866   3.554   1.473  13.405  0.3113 -2.7655  2.6608
 8803SOL     OW37867   4.287   2.289   6.797  0.4366  0.1346 -0.6213
 8803SOL    HW137868   4.255   2.349   6.729  1.0324  1.6338  0.4297
 8803SOL    HW237869   4.324   2.350   6.861 -1.0647 -0.9894  1.3280
 8804SOL     OW37870   2.495   2.634   8.053  0.3508 -0.3482  0.4315
 8804SOL    HW137871   2.495   2.725   8.084 -2.0032 -1.0985  2.5716
 8804SOL    HW237872   2.587   2.626   8.026  0.0840 -0.0814 -0.5506
 8805SOL     OW37873   3.656   0.658   9.583  0.0918 -0.3723 -0.4881
 8805SOL    HW137874   3.696   0.720   9.643 -0.2140 -3.3145  2.7600
 8805SOL    HW237875   3.720   0.665   9.512  0.2167  1.1096 -0.2206
 8806SOL     OW37876   1.773   3.317   9.645 -0.2258  0.1865 -0.4345
 8806SOL    HW137877   1.713   3.267   9.700  2.0603 -1.7736  0.2693
 8806SOL    HW237878   1.860   3.320   9.683 -0.8585  0.0802  1.0381
 8807SOL     OW37879   4.022   3.113   4.889  0.0281 -0.0826  0.2821
 8807SOL    HW137880   4.031   3.091   4.982  0.8866 -1.8624 -0.2202
 8807SOL    HW237881   3.938   3.070   4.872 -0.8438  1.7495 -0.0172
 8808SOL     OW37882   0.928   3.622   3.994 -0.1287 -0.0830 -0.6667
 8808SOL    HW137883   0.868   3.679   3.945 -0.8139  0.6246  1.0041
 8808SOL    HW237884   0.858   3.559   4.010  0.4101 -0.6358 -0.4802
 8809SOL     OW37885   2.047   0.240   2.468  0.4533  0.8267 -0.1220
 8809SOL    HW137886   2.034   0.335   2.465 -1.8829  0.4602 -1.0038
 8809SOL    HW237887   2.100   0.237   2.548  1.3084 -2.0064 -0.8110
 8810SOL     OW37888   4.101   2.758   2.112 -0.6302  1.3932 -0.1228
 8810SOL    HW137889   4.097   2.678   2.165 -1.2220  2.6650  1.7376
 8810SOL    HW237890   4.186   2.742   2.071 -0.7963 -0.4967  0.2400
 8811SOL     OW37891   4.441   1.391   6.184 -0.7804  0.1393  0.7462
 8811SOL    HW137892   4.520   1.443   6.199 -0.4862  0.1622 -0.9668
 8811SOL    HW237893   4.374   1.447   6.223 -0.8460  1.2652 -1.0086
 8812SOL     OW37894   1.878   4.347   2.439  0.2358 -0.3422  0.0927
 8812SOL    HW137895   1.926   4.373   2.518  1.8513 -0.7819 -0.7465
 8812SOL    HW237896   1.946   4.368   2.375  0.7454 -2.1829  0.0464
 8813SOL     OW37897   3.576   0.199   3.577  0.7188  0.1147  0.3629
 8813SOL    HW137898   3.609   0.151   3.500 -1.2095  0.1342 -0.4938
 8813SOL    HW237899   3.659   0.221   3.617  1.4492  0.5705 -1.3777
 8814SOL     OW37900   1.891   4.024   1.163  0.0806 -0.5134  0.2168
 8814SOL    HW137901   1.878   3.976   1.082 -0.0590  1.3759 -0.8728
 8814SOL    HW237902   1.961   4.089   1.153  0.3937 -0.6408  1.5775
 8815SOL     OW37903   3.114   1.343  16.225 -0.2771  0.1570  0.1866
 8815SOL    HW137904   3.207   1.365  16.227 -0.4551  1.0085 -1.1305
 8815SOL    HW237905   3.074   1.424  16.193 -1.1810 -0.2506  0.2621
 8816SOL     OW37906   3.607   0.620   1.938  0.3054  0.0926 -0.4761
 8816SOL    HW137907   3.621   0.545   1.996  1.2554 -0.0853 -0.9245
 8816SOL    HW237908   3.697   0.655   1.935  0.3164  0.2581  1.5004
 8817SOL     OW37909   0.069   1.968   1.075 -0.1274  0.0230 -0.2142
 8817SOL    HW137910   0.132   1.934   1.011 -1.0373 -2.3041  0.1386
 8817SOL    HW237911   4.717   1.992   1.024  0.4792 -0.8525 -1.5388
 8818SOL     OW37912   3.166   4.368   9.106 -0.0455 -0.0819 -0.0218
 8818SOL    HW137913   3.079   4.404   9.087  0.8228  1.0460 -1.8952
 8818SOL    HW237914   3.147   4.326   9.190 -0.0482  0.5849  0.3062
 8819SOL     OW37915   1.256   3.430   1.169  0.1057 -0.0142  0.0582
 8819SOL    HW137916   1.293   3.447   1.082 -1.0253  0.6549 -0.2886
 8819SOL    HW237917   1.267   3.336   1.183  1.5879  0.3411  1.2139
 8820SOL     OW37918   1.196   3.752   3.846  0.3327  0.0916  0.3521
 8820SOL    HW137919   1.174   3.842   3.870  1.2759  0.3936  0.0888
 8820SOL    HW237920   1.171   3.707   3.927 -1.9490 -0.8052 -0.8403
 8821SOL     OW37921   1.336   1.774   7.066 -0.0015 -0.0067 -0.6907
 8821SOL    HW137922   1.384   1.753   7.146 -0.0169  0.3296 -0.5902
 8821SOL    HW237923   1.320   1.687   7.029  2.9692 -0.7555 -0.2300
 8822SOL     OW37924   3.995   0.583   6.721  0.0750 -0.2252 -0.0162
 8822SOL    HW137925   4.014   0.503   6.771 -0.7600  0.7872  1.9364
 8822SOL    HW237926   4.086   0.599   6.697  0.7495 -2.2087  1.1843
 8823SOL     OW37927   0.542   0.621   7.897 -0.6964 -0.0060  0.4383
 8823SOL    HW137928   0.554   0.640   7.990 -1.2086 -0.0568  0.5169
 8823SOL    HW237929   0.449   0.597   7.896 -0.2818 -1.5213 -0.2188
 8824SOL     OW37930   3.257   0.539   0.102  0.2561  0.2356 -0.9694
 8824SOL    HW137931   3.307   0.473   0.055  1.1528  0.5852 -0.4980
 8824SOL    HW237932   3.277   0.620   0.055  0.7596 -0.3412 -1.7458
 8825SOL     OW37933   2.831   1.946  14.593 -0.1786 -0.6043 -0.2136
 8825SOL    HW137934   2.894   1.938  14.665  1.2076  0.0099 -1.3503
 8825SOL    HW237935   2.878   1.898  14.524  0.2101  0.8280 -0.9414
 8826SOL     OW37936   2.956   4.450  13.798 -0.3989 -0.3263  0.0349
 8826SOL    HW137937   2.899   4.374  13.789  0.3984 -0.9222  0.0263
 8826SOL    HW237938   2.949   4.500  13.716 -1.2966  0.1110  0.3766
 8827SOL     OW37939   1.104   3.640   8.230  0.1679 -0.4076  0.5946
 8827SOL    HW137940   1.072   3.699   8.298 -0.1471 -0.9764  0.9431
 8827SOL    HW237941   1.017   3.610   8.202  0.1290  0.5873 -0.3306
 8828SOL     OW37942   2.318   0.661   8.525 -0.5028  0.0129 -0.5049
 8828SOL    HW137943   2.309   0.750   8.558  0.5252  0.0121 -0.2410
 8828SOL    HW237944   2.384   0.667   8.456 -2.3127 -0.0870 -2.2583
 8829SOL     OW37945   0.995   0.265   4.097 -0.0725 -0.0060 -0.0237
 8829SOL    HW137946   0.980   0.326   4.025  1.1708 -0.2956 -0.5220
 8829SOL    HW237947   1.007   0.185   4.046  0.2328 -0.6956  1.1255
 8830SOL     OW37948   1.158   4.546   5.793  0.2528 -0.1183  0.2357
 8830SOL    HW137949   1.170   4.587   5.878 -1.7246  1.5471 -0.3096
 8830SOL    HW237950   1.158   4.628   5.744  0.4041  0.5823  1.4175
 8831SOL     OW37951   0.964   1.424   3.119 -0.1996  0.9848  0.3111
 8831SOL    HW137952   0.923   1.384   3.196 -0.2397  1.0179  0.3071
 8831SOL    HW237953   1.044   1.460   3.158  0.0312  1.1784 -0.3392
 8832SOL     OW37954   3.861   3.803   9.319 -0.0584 -0.4134 -0.2275
 8832SOL    HW137955   3.772   3.813   9.352  1.3244  0.1144  3.3700
 8832SOL    HW237956   3.900   3.728   9.365  0.1018 -0.3210 -0.2135
 8833SOL     OW37957   0.399   0.673   3.225 -0.0118  0.1463 -0.1787
 8833SOL    HW137958   0.421   0.673   3.132  1.5004  2.3502  0.1852
 8833SOL    HW237959   0.420   0.583   3.250  0.1400  0.5058  0.9823
 8834SOL     OW37960   3.144   1.780   5.664 -0.6180 -0.4616 -0.5129
 8834SOL    HW137961   3.191   1.707   5.703 -0.8262 -0.3117  0.0273
 8834SOL    HW237962   3.079   1.801   5.731 -1.2628  2.0220 -1.9218
 8835SOL     OW37963   0.827   4.118   8.713 -0.2148  0.3020  0.0047
 8835SOL    HW137964   0.840   4.175   8.637 -0.9126  1.7758  1.0016
 8835SOL    HW237965   0.902   4.132   8.770  0.5390  2.2427 -1.4416
 8836SOL     OW37966   0.084   2.285   1.620  0.0325 -0.3709 -0.3031
 8836SOL    HW137967   0.178   2.269   1.630 -0.1054 -2.1245 -1.8005
 8836SOL    HW237968   0.054   2.236   1.543 -2.7074  2.1932 -0.8467
 8837SOL     OW37969   0.716   4.387   5.390  0.1240  0.4466 -0.5929
 8837SOL    HW137970   0.731   4.477   5.420  0.1167  0.2486  0.0026
 8837SOL    HW237971   0.669   4.348   5.464  1.4862  1.2291  0.6876
 8838SOL     OW37972   2.896   1.952   5.557  0.3046  0.0886  0.5183
 8838SOL    HW137973   2.977   1.920   5.597  0.1568  1.8123  2.1938
 8838SOL    HW237974   2.841   1.873   5.551 -0.3517  0.6153 -0.4012
 8839SOL     OW37975   1.492   3.936   8.801 -0.0135  0.1161  0.0147
 8839SOL    HW137976   1.558   4.004   8.808  1.6224 -1.6461  1.8794
 8839SOL    HW237977   1.408   3.982   8.793 -0.7113 -1.3680 -1.3437
 8840SOL     OW37978   4.345   0.671   1.823  0.5163 -0.0873 -0.4657
 8840SOL    HW137979   4.387   0.676   1.737  2.1116 -0.7208  0.2750
 8840SOL    HW237980   4.331   0.577   1.818 -0.5429  0.0748 -0.5178
 8841SOL     OW37981   3.292   2.815   8.686 -0.4282 -0.8251 -0.2384
 8841SOL    HW137982   3.200   2.832   8.704  0.4224 -0.5130  3.6494
 8841SOL    HW237983   3.313   2.906   8.665  0.5937 -0.5222  2.1916
 8842SOL     OW37984   1.700   0.908  11.198  0.3002  0.7283 -0.2760
 8842SOL    HW137985   1.716   0.974  11.130  0.3381 -1.4737 -2.3754
 8842SOL    HW237986   1.624   0.954  11.235  0.9425 -0.0997  2.0599
 8843SOL     OW37987   0.280   1.113   5.234 -0.0646  0.1398 -0.5559
 8843SOL    HW137988   0.215   1.073   5.293 -1.0576 -1.1087 -2.5116
 8843SOL    HW237989   0.361   1.072   5.264 -0.9068 -2.5725 -2.0125
 8844SOL     OW37990   0.311   4.653   2.119 -0.3523 -0.5313  0.0939
 8844SOL    HW137991   0.308   4.617   2.208  1.5318  0.8797  0.7416
 8844SOL    HW237992   0.235   4.711   2.116  1.0608  1.2974 -0.7137
 8845SOL     OW37993   2.722   4.652  17.379 -0.7567 -0.4436  1.0001
 8845SOL    HW137994   2.751   0.018  17.370  0.1073 -0.4939  3.4066
 8845SOL    HW237995   2.629   4.675  17.381 -0.3194  1.5190 -1.0998
 8846SOL     OW37996   1.140   4.121  11.319 -0.2568  0.8632 -0.5894
 8846SOL    HW137997   1.058   4.101  11.274  0.8367 -1.2814 -1.6304
 8846SOL    HW237998   1.120   4.178  11.393  0.2540 -1.6274  1.4677
 8847SOL     OW37999   0.050   4.640   6.655  0.3699 -0.6866 -0.1861
 8847SOL    HW138000   0.073   4.577   6.724  0.5008 -0.6491 -0.1965
 8847SOL    HW238001   0.112   4.623   6.585  1.5406 -1.5028  1.0656
 8848SOL     OW38002   0.445   2.799  12.594  0.0181  0.0924  0.6526
 8848SOL    HW138003   0.381   2.869  12.584 -1.0330 -1.1249 -1.1911
 8848SOL    HW238004   0.404   2.728  12.643  2.4990 -1.2843  0.7814
 8849SOL     OW38005   0.486   2.406   4.116  0.1039 -0.5906  0.4030
 8849SOL    HW138006   0.572   2.426   4.079 -0.5632  0.6904 -0.4400
 8849SOL    HW238007   0.488   2.311   4.108  1.5820 -0.2462 -3.1394
 8850SOL     OW38008   2.976   4.190  12.107 -0.0726 -0.7874 -0.5080
 8850SOL    HW138009   2.903   4.206  12.048 -0.4179  1.6262  0.5777
 8850SOL    HW238010   2.941   4.208  12.194  0.0311  0.1036 -0.6515
 8851SOL     OW38011   0.146   4.266   0.630  0.4720 -0.2818 -0.3077
 8851SOL    HW138012   0.235   4.295   0.607  0.5926 -1.8238 -1.7706
 8851SOL    HW238013   0.125   4.200   0.563 -3.7254  0.2008  0.5214
 8852SOL     OW38014   1.010   1.045   0.322 -0.1032 -0.4648 -0.1577
 8852SOL    HW138015   0.947   1.117   0.314  2.2893  1.6404  0.0769
 8852SOL    HW238016   1.078   1.091   0.371 -0.4890  0.8283 -0.8502
 8853SOL     OW38017   2.388   0.945   9.482  0.1119 -1.0301  0.6200
 8853SOL    HW138018   2.364   1.036   9.461  1.4251 -0.9576 -0.6010
 8853SOL    HW238019   2.316   0.904   9.530 -0.8001  0.2654  0.3573
 8854SOL     OW38020   2.680   1.035   1.476  0.2549 -0.5709  0.5536
 8854SOL    HW138021   2.636   0.951   1.465 -1.0372 -0.4441  4.6777
 8854SOL    HW238022   2.611   1.091   1.510  0.3618 -0.2911  0.3105
 8855SOL     OW38023   2.974   2.572  15.366 -0.0799  0.0950 -0.2946
 8855SOL    HW138024   2.913   2.586  15.439  0.2614 -0.4172  0.0878
 8855SOL    HW238025   2.952   2.654  15.322 -0.5642  0.6544  0.9795
 8856SOL     OW38026   1.815   1.859   7.899  0.1230  0.0749  0.1459
 8856SOL    HW138027   1.826   1.875   7.993 -3.1823  0.7217  0.4301
 8856SOL    HW238028   1.878   1.788   7.890 -0.9543 -0.7088 -1.2496
 8857SOL     OW38029   2.096   1.685   6.161 -0.1943 -0.3820  0.1016
 8857SOL    HW138030   2.092   1.663   6.068 -0.6535  1.4691 -0.3210
 8857SOL    HW238031   2.002   1.697   6.168 -0.6267 -2.8944 -1.5194
 8858SOL     OW38032   0.946   1.468   8.909 -0.9559 -0.6478  0.6600
 8858SOL    HW138033   0.941   1.424   8.994  2.7942 -2.4207 -0.0078
 8858SOL    HW238034   1.039   1.467   8.885 -0.9278  4.2174  0.5899
 8859SOL     OW38035   4.383   3.968   7.512 -0.3849 -0.0074 -1.1492
 8859SOL    HW138036   4.377   4.031   7.440  0.1117  1.6904  0.3271
 8859SOL    HW238037   4.399   4.025   7.587 -0.8161 -0.2429 -0.8771
 8860SOL     OW38038   4.020   1.331   5.521  0.2686 -0.0054  0.8936
 8860SOL    HW138039   4.013   1.363   5.431 -1.0010  1.1155  1.4024
 8860SOL    HW238040   4.020   1.414   5.568 -0.6641  0.3920  0.1983
 8861SOL     OW38041   2.094   1.872   7.320 -0.3240  0.4086 -0.2235
 8861SOL    HW138042   2.023   1.857   7.383  0.2465 -0.5368  0.1882
 8861SOL    HW238043   2.077   1.808   7.252 -0.4412 -1.4006  1.5238
 8862SOL     OW38044   1.691   2.158   7.511 -0.1931 -0.0070  0.1763
 8862SOL    HW138045   1.695   2.213   7.589  1.0280  2.6451 -1.7286
 8862SOL    HW238046   1.640   2.083   7.540 -1.3091  0.7437  0.1637
 8863SOL     OW38047   1.466   1.726   7.678 -0.2765  0.1519 -0.0629
 8863SOL    HW138048   1.402   1.735   7.608  0.2913 -0.5271 -0.6760
 8863SOL    HW238049   1.407   1.706   7.750 -0.7032 -1.0025 -0.7232
 8864SOL     OW38050   1.437   1.811   3.583  0.5685 -0.0970  0.2190
 8864SOL    HW138051   1.418   1.850   3.497 -1.0005 -1.1941  0.0676
 8864SOL    HW238052   1.366   1.858   3.628  1.1901  1.1038 -0.0412
 8865SOL     OW38053   2.971   3.096   6.876  0.0854 -0.2242  0.5276
 8865SOL    HW138054   3.034   3.052   6.818 -1.7990 -2.2309 -0.0122
 8865SOL    HW238055   2.957   3.182   6.836 -1.5105 -0.4208  0.6713
 8866SOL     OW38056   3.430   4.251  12.149  0.1559  0.5191  0.7332
 8866SOL    HW138057   3.432   4.166  12.105 -1.0451  1.4055 -1.0510
 8866SOL    HW238058   3.371   4.296  12.088 -0.7453  1.6677  2.4533
 8867SOL     OW38059   3.515   3.247   3.709 -0.1245  0.2211 -0.0694
 8867SOL    HW138060   3.488   3.251   3.617  0.9941  1.6054 -0.3371
 8867SOL    HW238061   3.495   3.329   3.752  1.5033  1.8283 -2.3441
 8868SOL     OW38062   3.833   1.457   7.725  0.2782 -0.7784  0.9792
 8868SOL    HW138063   3.920   1.490   7.704  0.0310 -0.4843  0.4433
 8868SOL    HW238064   3.814   1.519   7.795 -0.3631  1.4056 -1.1495
 8869SOL     OW38065   3.691   2.693   7.210  0.3574  0.5008  0.1087
 8869SOL    HW138066   3.656   2.608   7.238  0.7192  0.4482  0.3943
 8869SOL    HW238067   3.694   2.665   7.119  1.1267 -1.2351  0.6481
 8870SOL     OW38068   1.594   1.377   5.066 -0.1897  0.2298 -0.6315
 8870SOL    HW138069   1.532   1.334   5.006 -2.4298 -0.6467  2.3129
 8870SOL    HW238070   1.522   1.429   5.102  0.1954  0.7670 -0.6466
 8871SOL     OW38071   2.740   4.323   6.551 -0.0405  0.0781 -0.4106
 8871SOL    HW138072   2.836   4.321   6.546  0.0290  1.0440  0.4588
 8871SOL    HW238073   2.704   4.317   6.463  0.9032  1.0635 -0.8674
 8872SOL     OW38074   2.882   3.635  16.217  0.1662  0.1594  0.1856
 8872SOL    HW138075   2.960   3.669  16.173 -1.4169  1.6442 -1.4659
 8872SOL    HW238076   2.811   3.654  16.155 -0.0531 -1.0819  0.0412
 8873SOL     OW38077   3.264   0.060   5.288 -0.1429  0.4123 -0.2589
 8873SOL    HW138078   3.298   0.127   5.347 -1.6732  1.9384 -1.1122
 8873SOL    HW238079   3.241   0.105   5.207 -2.0867 -3.0040 -1.6041
 8874SOL     OW38080   1.501   3.083   1.609  0.2913 -0.0265  0.0300
 8874SOL    HW138081   1.438   3.110   1.676  1.2480  3.7225 -0.5877
 8874SOL    HW238082   1.447   3.018   1.564 -1.6826  0.9115  1.0214
 8875SOL     OW38083   1.164   1.398  10.752 -0.1951 -1.0054 -0.5097
 8875SOL    HW138084   1.118   1.364  10.829  1.3230  1.4992  1.5282
 8875SOL    HW238085   1.174   1.490  10.778  1.7277 -1.4924  0.4647
 8876SOL     OW38086   0.537   4.143   2.601  0.0886  0.1276 -0.1766
 8876SOL    HW138087   0.551   4.130   2.507  0.6725 -3.5636  0.4234
 8876SOL    HW238088   0.523   4.054   2.635 -0.1946  0.2443  0.0159
 8877SOL     OW38089   3.715   3.601  15.444 -0.4745 -0.6075  0.2243
 8877SOL    HW138090   3.751   3.513  15.456  3.8369  1.1000 -0.2322
 8877SOL    HW238091   3.794   3.655  15.454 -1.0202  0.4163 -1.0068
 8878SOL     OW38092   3.983   0.352  14.181 -0.3932 -0.8436  0.5962
 8878SOL    HW138093   3.925   0.309  14.244 -0.9102 -1.5581 -0.3691
 8878SOL    HW238094   3.972   0.298  14.103 -2.3264  2.2734 -1.2894
 8879SOL     OW38095   2.386   3.640   6.254 -0.2606 -0.1839  0.6089
 8879SOL    HW138096   2.318   3.642   6.187  2.1956 -0.4668 -1.8554
 8879SOL    HW238097   2.465   3.616   6.206 -0.7259 -0.1786 -0.1612
 8880SOL     OW38098   3.974   2.806   1.858 -0.1708  0.4673 -0.0372
 8880SOL    HW138099   3.888   2.827   1.895 -0.4567  0.2411 -0.5750
 8880SOL    HW238100   4.023   2.775   1.934  1.8316  0.7509 -1.2138
 8881SOL     OW38101   4.021   4.008  10.860  0.2885 -0.2222 -0.1649
 8881SOL    HW138102   4.038   4.010  10.766 -0.5446  0.2212 -0.3054
 8881SOL    HW238103   4.092   3.952  10.893  0.0547 -0.2921  0.2164
 8882SOL     OW38104   1.528   1.593   0.913  0.5769  0.1888  0.5165
 8882SOL    HW138105   1.506   1.500   0.913 -0.1693  0.3763 -0.6773
 8882SOL    HW238106   1.589   1.592   0.988  2.0618  0.4535 -0.6875
 8883SOL     OW38107   4.058   0.993   6.884  0.1329  0.1740  0.4659
 8883SOL    HW138108   4.148   0.991   6.851 -1.1004 -2.4114 -2.7648
 8883SOL    HW238109   4.053   1.088   6.892 -0.1081  0.3976 -2.3638
 8884SOL     OW38110   2.841   2.410   3.469  0.4940  0.0456  0.2900
 8884SOL    HW138111   2.871   2.440   3.383  1.4530  1.5822  1.1637
 8884SOL    HW238112   2.886   2.326   3.478 -1.4416 -1.0180 -0.0079
 8885SOL     OW38113   3.081   4.469   3.953  0.1326  0.6471 -0.2984
 8885SOL    HW138114   3.134   4.538   3.992  1.4315 -1.1846  1.1467
 8885SOL    HW238115   3.001   4.485   4.003 -0.0181 -0.6356 -0.1362
 8886SOL     OW38116   0.963   4.225  11.516 -0.0201  0.3700 -0.4139
 8886SOL    HW138117   0.894   4.174  11.559 -1.3044  1.4007 -1.2450
 8886SOL    HW238118   0.911   4.276  11.453 -1.0836 -1.5614 -1.1113
 8887SOL     OW38119   2.962   1.244   2.634  0.3610 -0.3676 -0.2396
 8887SOL    HW138120   3.006   1.179   2.689  1.2806  2.2803  2.1651
 8887SOL    HW238121   3.000   1.227   2.548  0.4692  0.8572 -0.4376
 8888SOL     OW38122   1.006   0.999   2.710 -0.3054 -0.2746  0.2155
 8888SOL    HW138123   1.051   1.083   2.704  0.9917 -0.5987  4.7473
 8888SOL    HW238124   0.923   1.027   2.673  0.4275 -0.8276 -1.8453
 8889SOL     OW38125   1.477   3.991   7.763  0.7876  0.0153 -0.1601
 8889SOL    HW138126   1.543   4.059   7.750 -0.4972  1.1710 -0.6378
 8889SOL    HW238127   1.519   3.929   7.703  2.7053 -0.8043  2.0407
 8890SOL     OW38128   0.196   3.180   5.033 -0.4378 -0.1946  0.2049
 8890SOL    HW138129   0.273   3.124   5.026  0.0385  0.8221 -3.0235
 8890SOL    HW238130   0.234   3.261   5.067  1.1448 -1.4089  1.2896
 8891SOL     OW38131   3.106   1.594   6.137  0.2457  0.1705 -0.2540
 8891SOL    HW138132   3.126   1.686   6.153 -0.2733  0.5409 -1.7329
 8891SOL    HW238133   3.011   1.599   6.139  0.4072  2.2203  2.0178
 8892SOL     OW38134   3.495   4.129  13.910 -0.0663 -0.1318  0.0746
 8892SOL    HW138135   3.589   4.112  13.911  0.4435  2.7263  0.6357
 8892SOL    HW238136   3.470   4.041  13.883 -0.6775  0.4175 -1.1682
 8893SOL     OW38137   3.147   4.058  16.016 -0.5402 -0.4851  0.7889
 8893SOL    HW138138   3.178   4.097  15.935  1.8459 -0.5079  1.6799
 8893SOL    HW238139   3.139   3.971  15.978 -0.8733 -0.7930  1.5540
 8894SOL     OW38140   3.000   2.810  14.974  0.1732  0.4419  0.3057
 8894SOL    HW138141   2.956   2.814  14.889  0.9693 -0.4127 -0.1417
 8894SOL    HW238142   3.088   2.840  14.953  0.2819  0.9354  1.4673
 8895SOL     OW38143   2.773   2.743   5.276  0.4204  0.1272  0.5726
 8895SOL    HW138144   2.700   2.771   5.221  1.8703 -0.5245 -1.6849
 8895SOL    HW238145   2.784   2.805   5.348  0.5053  1.7773 -0.8499
 8896SOL     OW38146   2.487   3.965   6.855  0.4588  0.1389 -0.0492
 8896SOL    HW138147   2.537   4.043   6.828 -1.9277  1.6560 -0.0747
 8896SOL    HW238148   2.551   3.894   6.849 -0.3427 -0.6555  0.8643
 8897SOL     OW38149   1.659   3.296   1.696  0.0175  0.8959 -0.1684
 8897SOL    HW138150   1.600   3.337   1.759  1.3778  2.4241  0.1396
 8897SOL    HW238151   1.610   3.223   1.659  0.8351  0.0607  0.3689
 8898SOL     OW38152   4.400   1.660   7.733  0.1935  0.0958 -0.2960
 8898SOL    HW138153   4.427   1.633   7.820  2.1014 -0.9829 -1.2028
 8898SOL    HW238154   4.380   1.575   7.695 -2.0993 -1.0991  3.5909
 8899SOL     OW38155   2.031   2.082   1.923 -0.1021 -1.0654  0.0435
 8899SOL    HW138156   2.120   2.115   1.932  0.0753 -1.5951  0.2535
 8899SOL    HW238157   2.052   1.988   1.927 -0.4043 -1.1021  0.8799
 8900SOL     OW38158   2.969   2.383  16.923  0.6744  0.3186 -0.1856
 8900SOL    HW138159   3.011   2.468  16.919  1.2597 -0.0189 -1.1602
 8900SOL    HW238160   3.006   2.354  17.007 -0.4330 -3.6584 -1.0868
 8901SOL     OW38161   3.614   2.187   8.835  0.2527  0.4967  0.0650
 8901SOL    HW138162   3.520   2.195   8.821 -0.1549 -0.8346  2.0369
 8901SOL    HW238163   3.658   2.247   8.774  1.9323 -0.6841  0.1213
 8902SOL     OW38164   1.964   2.869  15.608 -0.1959 -0.2402  0.3277
 8902SOL    HW138165   2.003   2.904  15.528  1.2870  0.5336  1.3994
 8902SOL    HW238166   1.999   2.780  15.608  0.0195 -0.1462  3.0503
 8903SOL     OW38167   3.044   1.969   1.491  0.4628  0.1754 -0.1869
 8903SOL    HW138168   3.036   1.994   1.399 -0.2190  1.0037  0.0930
 8903SOL    HW238169   2.986   2.036   1.528  0.0107 -1.1839  1.5474
 8904SOL     OW38170   1.107   4.003   3.955 -0.0161 -0.3263 -0.4819
 8904SOL    HW138171   1.146   4.050   4.029  0.3790  0.5644 -1.2662
 8904SOL    HW238172   1.080   4.075   3.899 -0.9098  0.1964  0.6107
 8905SOL     OW38173   1.260   0.164  11.000 -0.6033  0.2848 -0.8223
 8905SOL    HW138174   1.353   0.185  10.987 -0.7291  1.8817  0.8531
 8905SOL    HW238175   1.273   0.070  11.011  0.4917  0.6185  0.7659
 8906SOL     OW38176   4.032   4.530   7.697 -0.4716 -0.1636 -0.6166
 8906SOL    HW138177   4.006   4.467   7.764 -2.3351 -0.5533 -1.7247
 8906SOL    HW238178   4.096   4.487   7.641  1.1582  0.6851  0.5958
 8907SOL     OW38179   3.719   1.592   7.923  0.1662  0.2606  0.3464
 8907SOL    HW138180   3.749   1.523   7.982 -1.1221 -1.8125 -1.4231
 8907SOL    HW238181   3.746   1.662   7.983  0.9029 -0.1538  0.4999
 8908SOL     OW38182   2.541   0.003   7.808 -0.4117  1.0802  0.0125
 8908SOL    HW138183   2.447   4.709   7.818 -0.8791  2.8183 -0.9740
 8908SOL    HW238184   2.540   0.070   7.876 -0.0567  2.0265 -0.9089
 8909SOL     OW38185   2.344   0.629   2.804  0.8691  0.1742  0.1833
 8909SOL    HW138186   2.382   0.543   2.823 -0.5776  0.0218  2.4099
 8909SOL    HW238187   2.296   0.650   2.885 -1.0862  2.8797 -1.7043
 8910SOL     OW38188   1.130   0.877   4.270  0.2406 -0.1509 -0.3734
 8910SOL    HW138189   1.209   0.911   4.229  0.3101  1.0079  0.7045
 8910SOL    HW238190   1.170   0.796   4.301 -1.2431 -1.0412 -0.7925
 8911SOL     OW38191   2.820   3.468   6.332  0.4400 -0.0515  0.1984
 8911SOL    HW138192   2.873   3.422   6.397  0.0620 -0.0825  0.4854
 8911SOL    HW238193   2.846   3.560   6.342  0.9843 -0.0055 -1.7242
 8912SOL     OW38194   4.260   0.678   4.475 -0.5229 -0.3824  0.5191
 8912SOL    HW138195   4.190   0.618   4.501 -0.5877 -1.1472 -1.3602
 8912SOL    HW238196   4.220   0.757   4.512  1.4720  0.5494  0.6800
 8913SOL     OW38197   4.423   4.083  14.524  0.2410 -0.0250 -0.1675
 8913SOL    HW138198   4.491   4.126  14.473 -0.1218 -0.0871 -0.7078
 8913SOL    HW238199   4.354   4.149  14.517 -0.2574 -0.6300 -0.9238
 8914SOL     OW38200   2.968   1.961  14.842 -0.6109  0.0823  0.1512
 8914SOL    HW138201   2.975   1.888  14.904 -1.0280  0.1556  0.2868
 8914SOL    HW238202   2.932   2.035  14.891  1.1394  1.1191 -0.1261
 8915SOL     OW38203   2.635   0.245   6.660  0.4882  0.4033  0.2937
 8915SOL    HW138204   2.568   0.179   6.639 -0.6890  1.5521  0.3981
 8915SOL    HW238205   2.581   0.299   6.717 -0.1838  0.9663 -0.8844
 8916SOL     OW38206   2.796   1.450   3.104 -0.2990 -0.2018 -0.1193
 8916SOL    HW138207   2.736   1.508   3.057  0.4875  0.5627 -0.1809
 8916SOL    HW238208   2.738   1.375   3.119  0.8181 -1.3797 -1.5771
 8917SOL     OW38209   0.392   0.021   3.095  0.5792  0.1059  0.1683
 8917SOL    HW138210   0.455   4.674   3.104 -1.0992 -1.3839 -0.0602
 8917SOL    HW238211   0.311   4.716   3.135  1.2962 -0.9673  0.8089
 8918SOL     OW38212   1.554   4.045   5.150 -0.0927 -0.6844 -0.0184
 8918SOL    HW138213   1.562   4.118   5.211 -0.7337 -1.7314  1.3266
 8918SOL    HW238214   1.554   4.100   5.072  2.1814  0.6594  0.9172
 8919SOL     OW38215   3.033   1.789   7.283  0.1650  0.5709 -0.3050
 8919SOL    HW138216   3.112   1.749   7.246 -1.5062 -1.1310 -2.0707
 8919SOL    HW238217   3.077   1.871   7.306 -2.1019  0.8939  2.8298
 8920SOL     OW38218   1.389   3.072   8.215  0.7886  0.0562  0.2034
 8920SOL    HW138219   1.402   3.146   8.156 -3.3776  0.9658  0.4268
 8920SOL    HW238220   1.386   3.001   8.150 -0.0969  1.6949 -1.5486
 8921SOL     OW38221   2.957   3.199   1.782  0.1482  0.2139 -0.0585
 8921SOL    HW138222   3.009   3.257   1.837  0.4308 -0.1117  0.0220
 8921SOL    HW238223   2.888   3.177   1.845 -0.5917  0.5078 -0.7608
 8922SOL     OW38224   1.477   3.396   5.021  0.4182  0.0842 -0.3053
 8922SOL    HW138225   1.448   3.458   4.954  1.7170  1.3056  0.2592
 8922SOL    HW238226   1.551   3.351   4.979  0.7769 -1.2379  1.7892
 8923SOL     OW38227   2.296   1.576  16.321  0.4636 -0.5231  0.3635
 8923SOL    HW138228   2.311   1.640  16.390  2.4680 -0.7414  0.1280
 8923SOL    HW238229   2.311   1.631  16.244 -0.0024 -0.9519 -0.0345
 8924SOL     OW38230   1.470   0.515  11.312  0.0285  0.1714 -0.3232
 8924SOL    HW138231   1.511   0.435  11.343  0.6457  1.1927  1.5211
 8924SOL    HW238232   1.470   0.563  11.395  0.4879  2.0277 -1.3919
 8925SOL     OW38233   0.316   3.372   8.551 -0.2969  0.2809  0.5192
 8925SOL    HW138234   0.288   3.462   8.532 -1.1217 -0.5225 -2.0578
 8925SOL    HW238235   0.315   3.375   8.646  0.1158 -1.5539  0.5771
 8926SOL     OW38236   2.145   2.620   8.194  0.3551  0.7234 -0.0591
 8926SOL    HW138237   2.236   2.636   8.219  0.7703  0.5400 -1.4576
 8926SOL    HW238238   2.165   2.532   8.162 -1.5875 -0.4287  1.8966
 8927SOL     OW38239   1.232   2.299  15.137 -0.1429 -0.2104  0.2166
 8927SOL    HW138240   1.148   2.330  15.104 -0.7573 -2.7325 -0.5679
 8927SOL    HW238241   1.291   2.374  15.127 -1.1332  0.7352  1.4707
 8928SOL     OW38242   3.928   3.435  16.585 -0.0425 -0.2393  0.2520
 8928SOL    HW138243   3.888   3.432  16.672  0.2696 -1.3178  0.3501
 8928SOL    HW238244   3.939   3.348  16.546  2.8933 -0.3146  1.2621
 8929SOL     OW38245   2.229   3.445   8.897  0.4506  0.1941 -0.4891
 8929SOL    HW138246   2.163   3.380   8.923  1.6746 -0.5187  0.8575
 8929SOL    HW238247   2.303   3.403   8.940 -0.0834 -0.3531 -0.0904
 8930SOL     OW38248   0.115   3.341   9.993  0.6623  0.2204 -0.2610
 8930SOL    HW138249   0.160   3.369  10.073 -2.2733  1.5227  0.9550
 8930SOL    HW238250   0.080   3.424   9.960 -2.3731 -0.9358  0.0587
 8931SOL     OW38251   1.655   4.432   6.669 -0.2612  0.1057  0.2669
 8931SOL    HW138252   1.655   4.337   6.675  1.0135 -0.0958 -2.7811
 8931SOL    HW238253   1.562   4.445   6.652  0.1744  1.5168 -1.0933
 8932SOL     OW38254   1.039   2.874   9.027  0.2439 -0.0576  0.7855
 8932SOL    HW138255   1.041   2.883   9.122  1.0037 -0.4346  0.8124
 8932SOL    HW238256   1.027   2.780   9.021  2.6833 -0.4414  1.6856
 8933SOL     OW38257   1.351   1.352   4.978 -0.1154 -0.3926  0.5979
 8933SOL    HW138258   1.289   1.423   4.962  0.9384  0.9355  2.4818
 8933SOL    HW238259   1.316   1.326   5.063 -1.9223 -1.3382 -0.4448
 8934SOL     OW38260   1.321   2.414  12.059 -0.9741  0.0205  0.0835
 8934SOL    HW138261   1.296   2.373  12.142  0.1718 -1.1480 -0.1330
 8934SOL    HW238262   1.320   2.338  12.001 -2.6677 -0.9870  1.4519
 8935SOL     OW38263   0.552   1.278   7.117 -0.7025  0.2557  0.2500
 8935SOL    HW138264   0.517   1.311   7.200  0.3655  1.5712  0.1917
 8935SOL    HW238265   0.645   1.294   7.134 -0.4293 -0.2439 -0.8387
 8936SOL     OW38266   3.362   2.289  11.590 -0.4696  0.3657  0.2357
 8936SOL    HW138267   3.358   2.376  11.550  0.1301  0.8473  1.2137
 8936SOL    HW238268   3.281   2.260  11.550  2.3292 -2.6949 -3.1625
 8937SOL     OW38269   0.241   1.761   9.612 -0.3326 -0.2249 -0.0879
 8937SOL    HW138270   0.296   1.839   9.615 -0.2853 -0.2840  0.5887
 8937SOL    HW238271   0.236   1.747   9.517 -1.3948  0.5358 -0.1458
 8938SOL     OW38272   1.580   3.631   6.336 -0.0751 -0.9107 -0.1773
 8938SOL    HW138273   1.545   3.720   6.329 -1.7044 -1.3918  1.8332
 8938SOL    HW238274   1.656   3.647   6.280 -0.4072 -0.8713 -0.6193
 8939SOL     OW38275   3.821   3.549   8.682  0.1410 -0.1761 -0.7990
 8939SOL    HW138276   3.903   3.572   8.638  1.2020 -0.4665  1.0245
 8939SOL    HW238277   3.771   3.509   8.612  1.2510 -1.4849 -0.8387
 8940SOL     OW38278   2.236   2.540   6.955  0.0767 -0.0455 -0.1595
 8940SOL    HW138279   2.281   2.467   6.997 -0.1531 -0.6037 -0.8936
 8940SOL    HW238280   2.219   2.509   6.866 -1.4701  0.2108  0.0514
 8941SOL     OW38281   4.287   1.454   2.800 -1.2489 -0.1274  0.4127
 8941SOL    HW138282   4.210   1.403   2.776 -0.4300  0.2820 -3.0700
 8941SOL    HW238283   4.315   1.475   2.711 -0.6716  3.4059  1.4023
 8942SOL     OW38284   3.818   2.276  12.761 -0.1857  0.4482 -0.5949
 8942SOL    HW138285   3.728   2.257  12.788 -0.6965 -0.4238 -2.9205
 8942SOL    HW238286   3.867   2.240  12.835 -1.5179  0.8415  0.4689
 8943SOL     OW38287   1.103   2.510   7.106 -0.1805 -0.0895  0.1180
 8943SOL    HW138288   1.158   2.532   7.180 -0.2719 -0.9558  0.4372
 8943SOL    HW238289   1.138   2.427   7.074 -0.3947 -0.9692  2.1823
 8944SOL     OW38290   3.357   3.903  16.292  0.2249 -0.8443  0.7258
 8944SOL    HW138291   3.363   3.860  16.207 -3.7908 -0.0735  0.0850
 8944SOL    HW238292   3.303   3.972  16.255  1.9746  0.2255  0.1562
 8945SOL     OW38293   1.281   0.874   7.623  0.1805 -0.4519 -0.4316
 8945SOL    HW138294   1.313   0.947   7.569  0.9386 -0.0607  0.5591
 8945SOL    HW238295   1.353   0.865   7.685  0.9994  2.2777 -0.9677
 8946SOL     OW38296   2.171   1.616   2.080 -0.0275  0.0286 -0.0270
 8946SOL    HW138297   2.169   1.675   2.156 -1.5294  2.2039 -1.7689
 8946SOL    HW238298   2.219   1.542   2.117 -0.8906 -0.6681 -0.3008
 8947SOL     OW38299   4.452   3.311  13.358  0.1085  0.2555  0.0054
 8947SOL    HW138300   4.512   3.236  13.356 -2.1561 -1.5099 -1.0723
 8947SOL    HW238301   4.369   3.264  13.369  1.1998 -2.0665 -1.6580
 8948SOL     OW38302   3.111   0.178   8.252  0.5350 -0.6264 -0.0119
 8948SOL    HW138303   3.134   0.125   8.328 -2.7426 -2.5335 -0.3425
 8948SOL    HW238304   3.158   0.259   8.275  0.3190 -1.2847  2.7639
 8949SOL     OW38305   3.696   2.279  11.758  0.1844  0.2926  0.0060
 8949SOL    HW138306   3.746   2.356  11.730  0.8439  1.0824  3.2651
 8949SOL    HW238307   3.754   2.264  11.833 -0.5421 -1.1422  0.2657
 8950SOL     OW38308   3.343   2.023   8.579  0.4629  0.3999  0.1931
 8950SOL    HW138309   3.416   1.969   8.549  0.8882  0.5581  0.9594
 8950SOL    HW238310   3.278   1.991   8.516 -0.1783  2.9332 -0.4278
 8951SOL     OW38311   2.680   0.784   6.709  0.0885  0.9128 -0.4556
 8951SOL    HW138312   2.756   0.832   6.743  2.3424 -2.0055 -1.3026
 8951SOL    HW238313   2.731   0.702   6.702 -1.3736 -0.1025  0.7742
 8952SOL     OW38314   3.622   2.351  15.268  0.5697 -0.0181  0.2814
 8952SOL    HW138315   3.569   2.290  15.216 -1.3639  0.8212  1.2595
 8952SOL    HW238316   3.566   2.428  15.268  2.4371  1.3442  0.2994
 8953SOL     OW38317   1.236   1.242   2.207  0.1682  0.5195 -0.3140
 8953SOL    HW138318   1.182   1.164   2.195 -0.1706  0.4428  1.7622
 8953SOL    HW238319   1.171   1.308   2.185 -0.1239  0.7711  1.3371
 8954SOL     OW38320   4.119   3.155   2.395 -0.3788 -0.4120 -0.0493
 8954SOL    HW138321   4.118   3.060   2.386  0.2139 -0.5354  1.2061
 8954SOL    HW238322   4.102   3.158   2.490  0.4952 -1.9388  0.1599
 8955SOL     OW38323   3.258   4.370   3.621 -0.2439 -0.3779  0.1133
 8955SOL    HW138324   3.221   4.282   3.628  0.4646 -0.4994  2.3921
 8955SOL    HW238325   3.349   4.356   3.647 -0.2166 -0.9134 -0.2623
 8956SOL     OW38326   2.875   0.059   7.614  0.2120 -0.3998 -0.3794
 8956SOL    HW138327   2.911   0.133   7.565  0.6325 -1.0820 -1.0977
 8956SOL    HW238328   2.786   0.049   7.581  0.1397 -0.8848 -0.0451
 8957SOL     OW38329   2.928   1.096   3.415 -0.2182  0.4189 -0.0295
 8957SOL    HW138330   2.857   1.043   3.450  0.6887 -0.9669 -0.3125
 8957SOL    HW238331   2.950   1.155   3.487 -0.6484 -1.2515  1.4620
 8958SOL     OW38332   2.508   3.981   6.533  0.2651 -0.2232  0.4237
 8958SOL    HW138333   2.456   3.920   6.585 -0.6953  0.5378  0.3521
 8958SOL    HW238334   2.565   4.009   6.605  0.8648  1.0856 -0.5566
 8959SOL     OW38335   2.093   3.358  13.604  0.0897  0.0084 -0.3429
 8959SOL    HW138336   2.182   3.336  13.575 -0.8779 -0.3330 -2.9950
 8959SOL    HW238337   2.098   3.448  13.636  0.2124  0.1124 -0.6489
 8960SOL     OW38338   3.158   1.150  13.146 -0.8698 -0.5898  0.2723
 8960SOL    HW138339   3.118   1.133  13.060  1.2194 -1.7175 -0.4708
 8960SOL    HW238340   3.134   1.243  13.156 -0.6725 -0.5670  0.5175
 8961SOL     OW38341   4.060   1.193  14.337 -0.0592 -0.2440  0.9730
 8961SOL    HW138342   3.984   1.147  14.374  0.4468 -2.5729 -0.8549
 8961SOL    HW238343   4.114   1.185  14.416  0.2488  0.0181  0.7920
 8962SOL     OW38344   2.685   1.778   3.756  0.1129  0.3835 -0.2316
 8962SOL    HW138345   2.660   1.780   3.663 -0.1027 -2.0222 -0.2174
 8962SOL    HW238346   2.644   1.699   3.791  0.0121  0.3338 -0.4566
 8963SOL     OW38347   2.619   1.039  17.437  0.2017 -0.1191 -0.2726
 8963SOL    HW138348   2.597   1.131  17.425 -1.2555 -0.3351  0.6318
 8963SOL    HW238349   2.664   1.045  17.521  0.1700 -0.1430 -0.2540
 8964SOL     OW38350   4.650   2.826   1.246 -0.4142 -0.0968  0.2896
 8964SOL    HW138351   4.600   2.789   1.318  1.5459 -1.6220  0.8773
 8964SOL    HW238352   4.647   2.919   1.267 -1.3761 -0.0772  0.0674
 8965SOL     OW38353   1.711   4.652   8.739  0.4826 -0.2931  0.3323
 8965SOL    HW138354   1.742   4.562   8.751 -0.9499 -1.1952 -2.8579
 8965SOL    HW238355   1.794   4.698   8.728 -0.7252  2.5372  3.2922
 8966SOL     OW38356   3.570   0.369   2.439  0.0531 -0.0014 -0.2024
 8966SOL    HW138357   3.603   0.319   2.364  0.8212 -0.5008  0.4665
 8966SOL    HW238358   3.523   0.306   2.493 -1.2401 -0.4629 -1.8415
 8967SOL     OW38359   0.957   1.255   2.335  0.0265  0.3197  0.7178
 8967SOL    HW138360   0.965   1.187   2.268 -3.1763 -1.9446  2.6451
 8967SOL    HW238361   0.959   1.335   2.282 -0.8282 -1.3676 -1.8302
 8968SOL     OW38362   2.650   1.703   0.522 -0.3182  0.1860  0.8661
 8968SOL    HW138363   2.719   1.644   0.493  1.2463  2.1393  0.6196
 8968SOL    HW238364   2.674   1.733   0.609 -0.7926 -2.6527  1.9862
 8969SOL     OW38365   1.926   3.241   3.333  0.0299  0.4925 -0.0209
 8969SOL    HW138366   1.965   3.229   3.420  0.6983  0.2302 -0.3503
 8969SOL    HW238367   1.901   3.154   3.302  1.1039  0.2302 -0.1785
 8970SOL     OW38368   2.959   2.668  11.803  0.0248 -0.7706  0.4077
 8970SOL    HW138369   2.994   2.613  11.732  1.3765  1.6315 -0.7788
 8970SOL    HW238370   2.865   2.663  11.789 -0.1805 -2.2731  2.3384
 8971SOL     OW38371   3.936   3.879   4.486 -0.3660  0.3982 -0.5042
 8971SOL    HW138372   3.857   3.839   4.522 -0.2106  1.0397  0.5374
 8971SOL    HW238373   3.997   3.806   4.473 -0.9742 -0.1055 -0.5451
 8972SOL     OW38374   0.490   4.670   4.272  0.1975 -0.4482  0.0336
 8972SOL    HW138375   0.485   4.589   4.222  1.6960  1.6009 -3.4041
 8972SOL    HW238376   0.398   4.672   4.298 -0.5428 -1.6561 -2.4943
 8973SOL     OW38377   2.863   3.942   4.544 -0.0840 -0.2794  0.4405
 8973SOL    HW138378   2.834   4.020   4.497  0.9940 -0.1522 -0.0126
 8973SOL    HW238379   2.875   3.974   4.633 -0.5254 -1.1450  0.8030
 8974SOL     OW38380   2.407   2.153   8.848 -0.7685  0.0996 -0.3988
 8974SOL    HW138381   2.398   2.106   8.931 -0.3082  1.8501  0.6399
 8974SOL    HW238382   2.319   2.136   8.814 -0.1309 -0.4452 -1.7872
 8975SOL     OW38383   0.315   1.422   2.410  0.3532  0.4699  0.2031
 8975SOL    HW138384   0.265   1.482   2.354 -0.4340 -1.1860 -0.8702
 8975SOL    HW238385   0.307   1.479   2.486 -1.7119 -0.5101  0.7396
 8976SOL     OW38386   0.093   1.716   3.782  0.4540  0.0117  0.0896
 8976SOL    HW138387   0.121   1.630   3.751  1.2315 -0.0411  0.9573
 8976SOL    HW238388   0.003   1.687   3.799 -0.4043  2.3759 -0.5239
 8977SOL     OW38389   2.790   1.102  13.774 -0.5511  0.0464  0.1642
 8977SOL    HW138390   2.714   1.064  13.818 -0.3052  0.7466  1.2205
 8977SOL    HW238391   2.737   1.162  13.721  0.6578  1.0256  0.0578
 8978SOL     OW38392   2.165   3.168  16.176 -0.1449 -0.5915 -0.1509
 8978SOL    HW138393   2.135   3.142  16.089 -0.3987 -4.6316  1.1415
 8978SOL    HW238394   2.245   3.117  16.193 -0.7488 -1.4790  0.0369
 8979SOL     OW38395   2.665   3.384   2.621 -0.3338 -0.1190 -0.8883
 8979SOL    HW138396   2.610   3.397   2.544  0.4504  3.7986 -0.7957
 8979SOL    HW238397   2.738   3.445   2.609  1.6455 -2.3251 -0.2131
 8980SOL     OW38398   2.150   0.526   8.747 -0.3657 -0.6163  0.5744
 8980SOL    HW138399   2.113   0.605   8.785  2.1016  0.8637 -0.1212
 8980SOL    HW238400   2.227   0.562   8.703 -0.2171 -3.2390 -1.3343
 8981SOL     OW38401   4.315   0.988   6.778 -0.5083  0.2934 -0.2137
 8981SOL    HW138402   4.352   1.076   6.779  1.5277 -0.6005  2.8946
 8981SOL    HW238403   4.389   0.929   6.758  0.1971  1.2203 -0.3228
 8982SOL     OW38404   4.461   3.241   6.643 -0.2179  0.2485  0.0872
 8982SOL    HW138405   4.484   3.262   6.733  2.3704 -1.5603 -0.1400
 8982SOL    HW238406   4.366   3.232   6.652 -0.4738  1.0504 -1.6754
 8983SOL     OW38407   0.749   1.374  12.224 -0.0751  0.0790  0.3019
 8983SOL    HW138408   0.703   1.334  12.150  0.1463 -0.5200  0.4832
 8983SOL    HW238409   0.708   1.460  12.213  1.4043  0.9018  1.2654
 8984SOL     OW38410   3.795   0.091   5.044 -0.4093  0.0208 -0.2801
 8984SOL    HW138411   3.829   0.012   5.003 -1.2234 -0.4717 -0.0142
 8984SOL    HW238412   3.747   0.033   5.104  0.9858 -1.6530 -0.7669
 8985SOL     OW38413   0.190   2.635   7.601 -0.9834  0.7617  0.0750
 8985SOL    HW138414   0.264   2.683   7.565 -1.4662  0.3773 -1.4464
 8985SOL    HW238415   0.211   2.583   7.678 -1.7956 -0.0987 -0.2728
 8986SOL     OW38416   2.853   3.766   6.327 -0.3001 -0.0645  0.0256
 8986SOL    HW138417   2.925   3.770   6.390 -0.4082  3.3350 -0.0346
 8986SOL    HW238418   2.842   3.861   6.318 -1.1505 -0.0177  1.7275
 8987SOL     OW38419   3.398   0.284   6.224  0.4070 -0.5153 -0.7966
 8987SOL    HW138420   3.403   0.348   6.294  0.3578  1.5417 -2.6809
 8987SOL    HW238421   3.313   0.306   6.185  0.5252 -0.8090 -1.2155
 8988SOL     OW38422   2.164   0.829   9.601  0.0182  0.3515  0.1480
 8988SOL    HW138423   2.209   0.745   9.612  0.5038  0.6907  0.7293
 8988SOL    HW238424   2.132   0.831   9.691  0.5682  1.2843  0.3265
 8989SOL     OW38425   2.916   2.802  15.241  0.7336 -0.4816 -0.4882
 8989SOL    HW138426   2.944   2.790  15.151  0.6217 -1.0864 -0.4490
 8989SOL    HW238427   2.822   2.787  15.237 -0.0478  4.2816  0.6565
 8990SOL     OW38428   1.928   4.259   5.883 -0.3325  0.5230 -0.3311
 8990SOL    HW138429   1.918   4.350   5.911  0.6472  1.8875 -4.4169
 8990SOL    HW238430   1.837   4.232   5.872 -0.0072 -0.7732  0.0678
 8991SOL     OW38431   3.569   0.809   0.891  0.6323  0.3758 -0.4925
 8991SOL    HW138432   3.588   0.902   0.900 -1.5230  0.9563 -1.9939
 8991SOL    HW238433   3.656   0.782   0.921 -0.0490  0.6733  1.7300
 8992SOL     OW38434   1.743   0.889  10.088 -0.3491  0.4983 -0.4717
 8992SOL    HW138435   1.689   0.812  10.106 -0.1690  0.3690 -0.4867
 8992SOL    HW238436   1.673   0.949  10.062  0.9643  1.2238 -2.4032
 8993SOL     OW38437   3.812   3.401   3.079 -0.0903  0.8283  0.3792
 8993SOL    HW138438   3.809   3.387   2.984 -1.3201  0.0387  0.5371
 8993SOL    HW238439   3.722   3.380   3.104 -0.3989  1.0964 -0.4838
 8994SOL     OW38440   2.810   1.202   4.685  0.1590  0.6813 -0.6681
 8994SOL    HW138441   2.805   1.296   4.703 -2.6811  0.7961 -1.9804
 8994SOL    HW238442   2.903   1.184   4.673 -0.2448 -0.9464 -1.3821
 8995SOL     OW38443   2.739   3.182  12.295  0.2924 -0.2452 -0.3189
 8995SOL    HW138444   2.805   3.236  12.252 -1.7644  0.7984 -2.1404
 8995SOL    HW238445   2.674   3.249  12.315 -0.0519 -0.5534 -0.3945
 8996SOL     OW38446   1.392   1.263   3.342 -0.3962  0.5689 -0.1573
 8996SOL    HW138447   1.347   1.192   3.388  0.4435  0.1360  0.0061
 8996SOL    HW238448   1.429   1.209   3.272  2.9027 -0.2048  2.1615
 8997SOL     OW38449   3.436   1.088   2.016  0.0514 -0.2588 -0.2740
 8997SOL    HW138450   3.440   1.177   1.981  2.1161 -2.2129 -4.9735
 8997SOL    HW238451   3.344   1.064   2.008 -0.2479  0.0474  2.3121
 8998SOL     OW38452   2.904   4.298   2.662 -0.1408  0.3933  0.1047
 8998SOL    HW138453   2.906   4.348   2.744 -0.0100  2.3281 -1.0681
 8998SOL    HW238454   2.937   4.217   2.701  0.0502 -0.4775 -1.8670
 8999SOL     OW38455   1.489   2.890   5.143  0.1274 -0.2088  0.5139
 8999SOL    HW138456   1.414   2.831   5.132  1.1984 -1.5666  0.3941
 8999SOL    HW238457   1.561   2.861   5.086 -0.2758 -0.9029  0.3593
 9000SOL     OW38458   2.767   1.436   1.044 -0.0287  0.5261 -0.2385
 9000SOL    HW138459   2.679   1.405   1.024 -0.3668  0.3447  1.4728
 9000SOL    HW238460   2.749   1.519   1.090 -0.2101  0.9190 -1.0090
 9001SOL     OW38461   0.708   1.448   7.950 -0.1413 -0.5136 -0.5586
 9001SOL    HW138462   0.748   1.523   7.906 -2.8243 -0.1900 -2.4594
 9001SOL    HW238463   0.773   1.380   7.931 -0.4791 -1.6433  2.2979
 9002SOL     OW38464   3.817   0.692   3.632 -0.1615 -0.6427  0.5797
 9002SOL    HW138465   3.902   0.659   3.662 -0.2740  1.7164  3.4135
 9002SOL    HW238466   3.827   0.668   3.539 -2.1424  0.2657  0.1387
 9003SOL     OW38467   1.571   2.636   4.498 -0.0716  0.3712  0.2273
 9003SOL    HW138468   1.564   2.570   4.567 -0.9449  0.2851  0.0554
 9003SOL    HW238469   1.515   2.593   4.433 -1.1204 -0.6271  1.7836
 9004SOL     OW38470   4.678   3.075  12.067 -0.4795  0.0925  0.3484
 9004SOL    HW138471   0.049   3.069  12.059 -0.6384 -2.1107  0.1459
 9004SOL    HW238472   4.666   3.004  12.131 -0.5003 -0.1587  0.0673
 9005SOL     OW38473   0.412   0.805   7.567  0.0652 -0.0841  0.4226
 9005SOL    HW138474   0.353   0.838   7.635 -1.0574 -1.1862 -0.0129
 9005SOL    HW238475   0.403   0.875   7.503 -0.0151  2.5332  3.2972
 9006SOL     OW38476   3.600   4.283   5.630  0.4334  0.6004  0.3227
 9006SOL    HW138477   3.579   4.348   5.697 -2.6575  0.0651 -0.0962
 9006SOL    HW238478   3.517   4.235   5.620  0.1115  1.0623  0.7612
 9007SOL     OW38479   0.030   2.387   3.464 -0.0769 -0.6915 -0.2058
 9007SOL    HW138480   0.062   2.329   3.532  0.9100  1.1187  0.8756
 9007SOL    HW238481   4.700   2.331   3.408  0.6769 -1.5982 -0.0315
 9008SOL     OW38482   2.809   3.933   3.502  0.0974 -0.7343  0.0054
 9008SOL    HW138483   2.849   3.974   3.579 -1.9986  1.3810 -0.0121
 9008SOL    HW238484   2.732   3.897   3.545 -0.0882  0.6943  0.8722
 9009SOL     OW38485   1.968   4.723   5.733 -0.4787 -0.3485  0.6830
 9009SOL    HW138486   1.908   0.064   5.770 -1.7818 -0.6555 -0.8826
 9009SOL    HW238487   1.950   4.644   5.784  3.4558 -0.4081  1.9490
 9010SOL     OW38488   2.353   3.983   7.198 -0.2317 -0.3734  0.1303
 9010SOL    HW138489   2.265   3.950   7.179 -0.6689  0.6533  0.3585
 9010SOL    HW238490   2.364   3.967   7.292  0.7667 -0.8459 -0.0670
 9011SOL     OW38491   2.410   0.006   8.383  0.6434  0.3676  0.1712
 9011SOL    HW138492   2.487   0.062   8.378  1.1858 -0.2406  1.7662
 9011SOL    HW238493   2.411   4.719   8.478  0.3613  2.2154  0.4099
 9012SOL     OW38494   3.911   4.131   4.431 -0.1155 -0.0737 -0.2854
 9012SOL    HW138495   4.002   4.155   4.447 -1.3584  3.1833  1.8665
 9012SOL    HW238496   3.915   4.041   4.463 -0.9925  1.0240  2.9294
 9013SOL     OW38497   1.759   1.705  17.159  0.0473  0.0140  0.4472
 9013SOL    HW138498   1.786   1.615  17.174 -1.0373 -0.2837  0.6492
 9013SOL    HW238499   1.664   1.690  17.165 -0.0753  0.4208 -0.3662
 9014SOL     OW38500   0.275   0.212   4.734 -0.6644  0.2299  0.7583
 9014SOL    HW138501   0.351   0.227   4.790 -0.7848  0.0622  0.9630
 9014SOL    HW238502   0.327   0.214   4.653 -1.1302 -2.1155  0.4116
 9015SOL     OW38503   0.792   2.343   6.753  0.4064 -0.1137 -0.4035
 9015SOL    HW138504   0.779   2.371   6.843 -1.8106  1.6123 -1.2492
 9015SOL    HW238505   0.802   2.248   6.758  0.2385 -0.0342  1.4258
 9016SOL     OW38506   4.181   1.838   4.579  0.5752 -0.2287 -0.7949
 9016SOL    HW138507   4.186   1.745   4.555 -0.6743 -0.1710 -1.2677
 9016SOL    HW238508   4.183   1.833   4.675  0.1367  1.2767 -0.7164
 9017SOL     OW38509   4.597   0.218   2.026 -0.4454  0.2870 -0.4227
 9017SOL    HW138510   4.506   0.193   2.015 -1.1958  2.0945  1.7203
 9017SOL    HW238511   4.606   0.246   1.935 -2.1581  2.1187 -0.0127
 9018SOL     OW38512   4.309   1.102  16.499 -0.8642 -0.8696 -0.2504
 9018SOL    HW138513   4.312   1.013  16.464 -2.8783 -1.1838  0.3743
 9018SOL    HW238514   4.397   1.104  16.536 -1.1256  1.2977  0.2564
 9019SOL     OW38515   3.485   0.601   8.592  0.2811 -0.6056 -0.1131
 9019SOL    HW138516   3.557   0.561   8.640  0.8306 -0.6746 -0.9961
 9019SOL    HW238517   3.493   0.546   8.514 -0.2351 -1.2075  0.2556
 9020SOL     OW38518   0.645   2.298  13.967  0.4279 -0.2231  0.7972
 9020SOL    HW138519   0.696   2.359  13.914  0.4008  0.3467  1.4347
 9020SOL    HW238520   0.573   2.355  13.995 -1.5323 -1.8916 -0.7368
 9021SOL     OW38521   0.951   1.997   6.997 -0.8754  0.7866  0.4736
 9021SOL    HW138522   0.938   2.039   6.912  3.0898  0.0331 -0.5165
 9021SOL    HW238523   0.934   1.906   6.971  0.0965  0.5240  0.7494
 9022SOL     OW38524   3.067   3.689   2.107 -0.6839  0.0544  1.0298
 9022SOL    HW138525   2.989   3.639   2.082 -0.2364 -0.4914  0.7404
 9022SOL    HW238526   3.126   3.672   2.034 -0.7780  1.4376  0.6323
 9023SOL     OW38527   2.830   4.037   8.245  0.1667  0.4517  0.3464
 9023SOL    HW138528   2.857   4.119   8.203  1.5097 -0.1385  0.0727
 9023SOL    HW238529   2.744   4.024   8.206  0.2479  2.4364 -0.4872
 9024SOL     OW38530   2.355   1.136   7.258  0.4102  0.5189  0.6840
 9024SOL    HW138531   2.432   1.180   7.295  1.4541 -0.5045 -0.2674
 9024SOL    HW238532   2.319   1.087   7.332 -3.2422 -0.0782 -1.4789
 9025SOL     OW38533   0.323   3.112   6.333  0.7847  0.3006  0.2194
 9025SOL    HW138534   0.280   3.176   6.276  0.1366 -0.7355 -0.4551
 9025SOL    HW238535   0.413   3.123   6.302  1.5022 -2.4674  1.3080
 9026SOL     OW38536   1.787   2.172   7.943 -0.2082  0.4705 -0.3241
 9026SOL    HW138537   1.696   2.147   7.928 -0.5045  1.7985 -0.7044
 9026SOL    HW238538   1.811   2.205   7.857 -2.1975  1.7464 -0.3995
 9027SOL     OW38539   0.880   1.617   2.288 -0.0049  0.5004  0.1325
 9027SOL    HW138540   0.833   1.555   2.345  1.3229 -0.2259  0.4372
 9027SOL    HW238541   0.817   1.689   2.281 -0.2305  0.2951  0.0598
 9028SOL     OW38542   2.695   1.786   3.493  0.2656 -0.3489 -0.3422
 9028SOL    HW138543   2.631   1.853   3.470 -0.7673 -0.4120  2.3253
 9028SOL    HW238544   2.728   1.776   3.404  1.9565  0.5394  0.1794
 9029SOL     OW38545   0.641   3.943   4.585  0.5640 -0.2065  0.5478
 9029SOL    HW138546   0.579   3.893   4.533  1.3312 -1.1392  0.5269
 9029SOL    HW238547   0.719   3.912   4.538  0.9323  0.2629  0.8520
 9030SOL     OW38548   2.526   0.157  14.371 -0.3457 -0.0110  0.8402
 9030SOL    HW138549   2.470   0.221  14.415 -1.8231 -0.6826 -0.0649
 9030SOL    HW238550   2.591   0.214  14.329  0.2804  0.1955  2.0805
 9031SOL     OW38551   1.057   4.537   5.375 -0.1808  0.4466 -0.6954
 9031SOL    HW138552   1.081   4.544   5.283 -2.0682 -1.9500 -1.3645
 9031SOL    HW238553   1.012   4.619   5.395 -0.8733 -0.2036  0.4212
 9032SOL     OW38554   0.412   1.410   2.877 -0.5169  0.3221  0.3221
 9032SOL    HW138555   0.501   1.375   2.879 -0.7516 -0.3009 -0.1271
 9032SOL    HW238556   0.411   1.467   2.800 -0.8876 -1.3645 -0.9232
 9033SOL     OW38557   2.343   0.350   4.084 -0.0129  0.3389 -0.2738
 9033SOL    HW138558   2.343   0.278   4.021 -1.1059 -0.4540  0.6225
 9033SOL    HW238559   2.374   0.311   4.166 -1.9357  2.5287  1.5144
 9034SOL     OW38560   1.902   3.416   8.334  0.2758 -0.3465 -0.0147
 9034SOL    HW138561   1.881   3.487   8.274 -0.9561  0.8720  1.8747
 9034SOL    HW238562   1.833   3.351   8.318  0.3595 -0.8443  1.5897
 9035SOL     OW38563   1.754   4.329  14.257 -0.0992 -0.0737  0.0116
 9035SOL    HW138564   1.686   4.302  14.196  0.6282 -0.5614 -0.5819
 9035SOL    HW238565   1.767   4.418  14.226  1.1738 -0.1453  0.3260
 9036SOL     OW38566   0.009   3.194  14.231  0.6883  0.1234  1.0474
 9036SOL    HW138567   0.083   3.175  14.174  1.5771  1.9665  1.6065
 9036SOL    HW238568   0.054   3.219  14.312 -1.6973 -0.3153  2.5352
 9037SOL     OW38569   4.176   1.483   4.208 -0.0009  0.7428  0.0596
 9037SOL    HW138570   4.259   1.484   4.255 -0.3498  0.5157  0.6856
 9037SOL    HW238571   4.162   1.572   4.177 -1.6311 -0.5988 -3.0852
 9038SOL     OW38572   4.204   0.761   2.992 -0.1233 -0.3908  0.1430
 9038SOL    HW138573   4.279   0.763   2.932  0.1268  1.1812  0.5132
 9038SOL    HW238574   4.237   0.715   3.069  1.7187 -2.2715 -1.7764
 9039SOL     OW38575   4.135   0.165   7.023 -0.5038 -0.0473 -0.2894
 9039SOL    HW138576   4.123   0.095   6.958  0.5913  1.2517 -1.8833
 9039SOL    HW238577   4.083   0.148   7.102  1.1908 -3.4319  0.0899
 9040SOL     OW38578   4.132   3.707  15.672  0.2842 -0.5883  0.3186
 9040SOL    HW138579   4.104   3.679  15.758 -1.1686  0.6833  0.2502
 9040SOL    HW238580   4.177   3.789  15.690 -1.5888  0.8165 -1.3768
 9041SOL     OW38581   1.711   0.517  14.900 -0.4499 -0.2783  0.1458
 9041SOL    HW138582   1.799   0.523  14.938  0.4300  0.6009 -2.0825
 9041SOL    HW238583   1.726   0.474  14.816  0.0767 -1.5910  0.9063
 9042SOL     OW38584   1.222   3.292  13.174  0.5126 -0.0132 -0.4018
 9042SOL    HW138585   1.172   3.275  13.254 -1.7091  1.1028 -1.5604
 9042SOL    HW238586   1.273   3.211  13.165  3.3889  2.1057 -3.4224
 9043SOL     OW38587   1.193   0.434   2.937  0.5751  0.4319  0.0228
 9043SOL    HW138588   1.126   0.399   2.878 -0.6454  1.7179  0.6386
 9043SOL    HW238589   1.257   0.465   2.872 -1.0454  1.0233 -1.2877
 9044SOL     OW38590   2.494   4.377   3.701 -0.6022 -0.1139  0.0717
 9044SOL    HW138591   2.551   4.445   3.666  0.7942 -1.5086 -0.3932
 9044SOL    HW238592   2.517   4.387   3.794  1.1861  1.0142 -0.4889
 9045SOL     OW38593   2.003   3.954   6.332 -0.4809  0.1533  0.2037
 9045SOL    HW138594   2.095   3.947   6.354 -0.4059 -0.8661 -0.3971
 9045SOL    HW238595   2.004   3.865   6.295 -0.9350  0.3064 -0.1776
 9046SOL     OW38596   3.415   0.257   2.936 -0.6139 -0.8928 -0.0705
 9046SOL    HW138597   3.342   0.292   2.987 -0.1698 -2.3630  1.5501
 9046SOL    HW238598   3.401   0.164   2.953  0.2024 -1.7412 -4.0443
 9047SOL     OW38599   1.652   2.045   4.043  0.1896  0.2123 -0.4839
 9047SOL    HW138600   1.701   2.127   4.037 -0.1573  0.6279  2.3463
 9047SOL    HW238601   1.613   2.037   3.956 -0.9522 -0.5365  0.1013
 9048SOL     OW38602   4.013   1.273   5.956  0.1585 -0.0222 -0.1843
 9048SOL    HW138603   4.083   1.338   5.960  0.2359 -0.1899  1.5499
 9048SOL    HW238604   3.937   1.331   5.963  0.2913  0.3213 -1.6864
 9049SOL     OW38605   2.336   3.371  11.402 -0.5205  0.4394 -0.9726
 9049SOL    HW138606   2.245   3.402  11.402 -1.0149 -1.0077 -2.5827
 9049SOL    HW238607   2.383   3.455  11.397  0.4870 -0.1487 -1.3341
 9050SOL     OW38608   4.386   2.929   3.541  0.2860  0.4237 -0.1996
 9050SOL    HW138609   4.298   2.959   3.518  0.0406 -0.0956  0.0571
 9050SOL    HW238610   4.390   2.947   3.635 -0.1844 -1.1902  0.1305
 9051SOL     OW38611   2.811   1.456   4.406 -0.2943  0.4558 -0.2829
 9051SOL    HW138612   2.724   1.465   4.444  0.9124 -0.8006  2.7834
 9051SOL    HW238613   2.820   1.361   4.395  0.7937  0.7310 -1.8528
 9052SOL     OW38614   4.574   2.033   3.820 -0.2008  0.1563 -0.2498
 9052SOL    HW138615   4.559   2.024   3.726  1.8890 -1.4394 -0.4191
 9052SOL    HW238616   4.620   2.116   3.823  1.5245 -0.8416  1.0860
 9053SOL     OW38617   2.301   1.878   7.832 -1.0468  0.4407  0.5568
 9053SOL    HW138618   2.260   1.836   7.757 -0.2180  0.9173 -0.1634
 9053SOL    HW238619   2.238   1.861   7.902 -1.3767 -2.6859 -0.4906
 9054SOL     OW38620   2.857   1.082   6.590 -0.0659  0.3762 -0.1394
 9054SOL    HW138621   2.920   1.102   6.522 -1.1224  1.1211 -0.8957
 9054SOL    HW238622   2.902   1.024   6.651 -1.1455  0.1800  0.4714
 9055SOL     OW38623   1.381   2.058   8.326  1.0700  0.3169  0.5577
 9055SOL    HW138624   1.453   2.086   8.382  0.8380 -0.8167  1.4326
 9055SOL    HW238625   1.327   2.038   8.403  3.4621 -1.5891  1.7653
 9056SOL     OW38626   3.231   2.001  14.742  0.4634 -0.4529  0.0034
 9056SOL    HW138627   3.224   1.966  14.653  1.1914 -0.5481 -0.0146
 9056SOL    HW238628   3.151   1.972  14.786 -0.2871  1.4534 -0.1017
 9057SOL     OW38629   0.342   4.557   7.066  0.8927 -0.5156 -0.1789
 9057SOL    HW138630   0.427   4.576   7.107  0.6364 -0.2721  0.2421
 9057SOL    HW238631   0.293   4.516   7.137  1.4791 -1.2976 -0.2329
 9058SOL     OW38632   0.248   2.809   6.114  0.2430  0.2838 -0.0552
 9058SOL    HW138633   0.166   2.858   6.120  0.4552  1.0109 -3.0631
 9058SOL    HW238634   0.303   2.868   6.063  1.3179  0.2289  1.0572
 9059SOL     OW38635   3.800   4.402   5.515  0.1922  0.9367  0.1020
 9059SOL    HW138636   3.720   4.360   5.546  0.7883 -0.4876 -0.2653
 9059SOL    HW238637   3.833   4.435   5.599  0.4754  0.5552  0.1430
 9060SOL     OW38638   4.384   0.276   6.814  0.0041 -0.1186 -0.1807
 9060SOL    HW138639   4.347   0.189   6.801 -0.4582 -0.0409  0.6436
 9060SOL    HW238640   4.473   0.255   6.841 -0.6698 -1.2063  1.1581
 9061SOL     OW38641   2.221   0.991   2.295  0.4896 -0.1384  0.1780
 9061SOL    HW138642   2.151   0.927   2.302 -0.6497  0.9853 -1.1505
 9061SOL    HW238643   2.255   0.990   2.385 -0.5156  2.7502  0.5816
 9062SOL     OW38644   1.778   2.277   4.006  0.0246  0.1740 -0.2588
 9062SOL    HW138645   1.769   2.357   4.057  1.1905  0.3391 -0.2979
 9062SOL    HW238646   1.738   2.305   3.924  0.4446  2.5815  0.3699
 9063SOL     OW38647   1.451   1.814  15.432  0.5080 -0.2910  0.9563
 9063SOL    HW138648   1.522   1.756  15.459 -0.5201 -1.5224  1.0307
 9063SOL    HW238649   1.490   1.861  15.358 -2.5269  2.9044  1.3222
 9064SOL     OW38650   1.687   1.463  10.969 -0.0198 -0.3581  0.4061
 9064SOL    HW138651   1.684   1.416  10.886 -2.3525 -1.4507  1.1006
 9064SOL    HW238652   1.592   1.467  10.982 -0.3831 -4.2575 -1.0185
 9065SOL     OW38653   2.958   0.261   1.501  0.8498 -0.1206 -0.3392
 9065SOL    HW138654   2.938   0.168   1.502  3.0574 -0.5905  0.6547
 9065SOL    HW238655   3.054   0.263   1.493  0.9157 -0.2268  0.4650
 9066SOL     OW38656   0.571   0.555   8.879 -0.3025  1.1380  0.5670
 9066SOL    HW138657   0.509   0.623   8.904 -1.3676  0.4212 -0.1118
 9066SOL    HW238658   0.623   0.566   8.959  0.1412  0.6583  0.3483
 9067SOL     OW38659   0.962   4.532  14.542  0.2149 -0.3149 -0.0523
 9067SOL    HW138660   0.926   4.616  14.512 -1.0668 -0.1196  2.0481
 9067SOL    HW238661   1.030   4.505  14.481 -1.6192  0.2818 -2.3823
 9068SOL     OW38662   3.895   0.208   4.757  0.2354  0.9304 -0.2180
 9068SOL    HW138663   3.988   0.188   4.767  0.3139  1.5587  0.3416
 9068SOL    HW238664   3.883   0.173   4.669 -1.6383  2.9266 -0.7666
 9069SOL     OW38665   4.202   1.576   0.973 -0.0591 -0.0117 -0.8439
 9069SOL    HW138666   4.186   1.547   1.062  1.5033  1.8223  0.0504
 9069SOL    HW238667   4.297   1.565   0.975  0.1604  1.8196 -1.2011
 9070SOL     OW38668   4.475   2.006  13.645 -0.0633 -0.1666 -0.2927
 9070SOL    HW138669   4.408   1.945  13.676 -2.8486  3.4484  0.7741
 9070SOL    HW238670   4.547   1.949  13.616 -0.4033 -0.6046 -0.2711
 9071SOL     OW38671   0.868   2.688   2.887  0.5016 -0.5025  0.0229
 9071SOL    HW138672   0.901   2.661   2.973 -0.9184  0.0716  0.7420
 9071SOL    HW238673   0.953   2.692   2.843 -0.3595  1.6089 -1.4564
 9072SOL     OW38674   1.523   1.434   1.265  0.5093  0.5944 -0.3739
 9072SOL    HW138675   1.592   1.486   1.225  1.6505 -0.6528 -0.0037
 9072SOL    HW238676   1.561   1.347   1.253 -0.5714 -0.0446  0.9149
 9073SOL     OW38677   4.396   4.452   5.849  0.3196 -0.2921  0.3099
 9073SOL    HW138678   4.336   4.421   5.782 -0.0903  1.9562 -0.3805
 9073SOL    HW238679   4.458   4.492   5.788  1.4136  0.9431  2.2109
 9074SOL     OW38680   3.041   3.905   4.294  0.4957 -0.5147  0.0640
 9074SOL    HW138681   3.000   3.921   4.379  1.0977  0.2488  0.2120
 9074SOL    HW238682   3.132   3.899   4.324  0.4867 -0.4749  0.0985
 9075SOL     OW38683   2.169   4.217   0.940 -0.2927 -0.1264  1.1376
 9075SOL    HW138684   2.151   4.212   1.034 -1.3934  0.0198  0.9350
 9075SOL    HW238685   2.139   4.306   0.924  1.3017  0.1764 -0.1228
 9076SOL     OW38686   0.664   0.893   5.237 -0.3780 -0.3045  0.2909
 9076SOL    HW138687   0.680   0.882   5.143 -1.9936  0.5624 -0.0987
 9076SOL    HW238688   0.691   0.985   5.244 -0.2802 -0.2134 -1.2076
 9077SOL     OW38689   1.656   1.289   2.390  0.1799 -0.0692 -0.0936
 9077SOL    HW138690   1.727   1.230   2.363  0.3621  0.3586 -0.5437
 9077SOL    HW238691   1.582   1.230   2.404  0.5385 -0.2174  1.2448
 9078SOL     OW38692   1.333   0.282   9.538 -0.6677 -0.1545 -0.5897
 9078SOL    HW138693   1.282   0.268   9.618  1.7382  2.2402  1.3571
 9078SOL    HW238694   1.366   0.369   9.559 -1.7586  0.4057 -1.1866
 9079SOL     OW38695   0.642   0.505  16.593 -0.0321  0.3435 -0.6866
 9079SOL    HW138696   0.584   0.557  16.538 -1.2159 -3.1615 -2.7234
 9079SOL    HW238697   0.693   0.573  16.637 -0.0412  0.3924 -0.7520
 9080SOL     OW38698   4.669   3.672   2.509  0.7499 -0.1713  0.0827
 9080SOL    HW138699   4.615   3.593   2.511 -1.3382  1.2379  0.0955
 9080SOL    HW238700   0.017   3.650   2.568 -0.4569 -0.8803  1.3079
 9081SOL     OW38701   3.914   3.859   5.582  0.3145 -0.6150 -0.6997
 9081SOL    HW138702   3.922   3.859   5.487  0.6383 -3.5054 -0.6608
 9081SOL    HW238703   3.939   3.949   5.604  0.1360 -1.2278  2.0270
 9082SOL     OW38704   0.853   3.702  11.773  0.1752  1.1097  0.0690
 9082SOL    HW138705   0.865   3.620  11.726 -1.0765  0.3569  1.0355
 9082SOL    HW238706   0.904   3.696  11.854 -0.5541 -0.3857  0.4291
 9083SOL     OW38707   3.088   2.585   5.627 -0.0807 -0.2164 -0.1119
 9083SOL    HW138708   3.117   2.592   5.536 -0.1443 -2.7705 -0.3296
 9083SOL    HW238709   3.132   2.503   5.652 -2.3385 -0.9685  1.3250
 9084SOL     OW38710   0.940   2.064   3.336  0.4105  0.6963  0.3322
 9084SOL    HW138711   0.962   2.022   3.253  0.8994  1.5022  0.0544
 9084SOL    HW238712   0.849   2.088   3.318 -0.0744 -0.0473  1.7874
 9085SOL     OW38713   2.186   3.875   0.806 -0.0852 -0.1680  0.0932
 9085SOL    HW138714   2.107   3.929   0.813 -0.3549 -0.5066 -0.3146
 9085SOL    HW238715   2.245   3.932   0.854 -1.6424  0.7713  0.8889
 9086SOL     OW38716   2.141   1.773   4.395 -0.2558 -0.1073  0.6825
 9086SOL    HW138717   2.110   1.793   4.483 -1.3623 -0.7689  0.4361
 9086SOL    HW238718   2.074   1.712   4.365  0.1471 -0.3579  0.2822
 9087SOL     OW38719   2.287   4.707  15.552  0.4990  0.3413  0.3966
 9087SOL    HW138720   2.369   4.669  15.582  1.1692  0.3978 -1.4305
 9087SOL    HW238721   2.295   0.071  15.589  0.2683 -0.3810  2.1909
 9088SOL     OW38722   0.590   1.797   8.433 -0.4041 -0.3252  0.4724
 9088SOL    HW138723   0.637   1.881   8.430  0.0709 -0.6357 -0.7707
 9088SOL    HW238724   0.593   1.760   8.521  0.4701 -0.3293  0.4386
 9089SOL     OW38725   2.840   0.209   9.071 -0.2171 -0.1138  0.7651
 9089SOL    HW138726   2.891   0.256   9.005 -0.4188  0.5486  1.0734
 9089SOL    HW238727   2.752   0.226   9.038 -0.0112  2.7061  1.6374
 9090SOL     OW38728   4.368   4.373  16.676  0.8129  0.9943  0.4988
 9090SOL    HW138729   4.293   4.412  16.631  0.6310 -1.3054 -1.2098
 9090SOL    HW238730   4.437   4.425  16.635  1.0348  1.9892  2.1622
 9091SOL     OW38731   1.450   0.137   1.201  0.7014  0.0153 -0.0910
 9091SOL    HW138732   1.466   0.049   1.167  1.9436  1.2857 -2.7606
 9091SOL    HW238733   1.503   0.202   1.155 -0.1856  0.5850 -0.3020
 9092SOL     OW38734   2.060   0.133   1.299  0.2542  0.0722  0.6476
 9092SOL    HW138735   2.117   0.106   1.371  0.7773 -1.3769 -0.3057
 9092SOL    HW238736   1.990   0.171   1.351  0.5138 -1.0123  1.7660
 9093SOL     OW38737   0.327   1.604   4.762 -0.2274  0.2516  0.1240
 9093SOL    HW138738   0.249   1.557   4.792 -0.3150  1.1178  1.2308
 9093SOL    HW238739   0.276   1.678   4.730 -1.8281 -1.0413 -0.3290
 9094SOL     OW38740   1.659   0.663  10.415  0.0197 -0.8251  0.3232
 9094SOL    HW138741   1.714   0.741  10.402  0.3561 -0.9502  1.0112
 9094SOL    HW238742   1.571   0.681  10.381 -1.2781 -4.0017  2.0742
 9095SOL     OW38743   2.859   0.706   6.026  0.5717 -0.2412  0.3110
 9095SOL    HW138744   2.951   0.721   6.044  0.6380 -0.0514 -0.1869
 9095SOL    HW238745   2.825   0.666   6.106 -1.0164  2.4272  0.9582
 9096SOL     OW38746   2.553   0.211   0.190 -0.2068 -0.7246 -0.0091
 9096SOL    HW138747   2.588   0.128   0.158  0.5087 -0.2537 -0.4365
 9096SOL    HW238748   2.630   0.263   0.213 -1.7128  1.2803  0.4839
 9097SOL     OW38749   2.828   0.027  11.383 -0.2656  0.8529  0.8547
 9097SOL    HW138750   2.744   0.004  11.423 -1.3649  1.8017 -0.8690
 9097SOL    HW238751   2.891   4.706  11.438 -1.2034 -1.0580  0.3211
 9098SOL     OW38752   1.177   4.403  12.385  0.3346  0.8340  0.2929
 9098SOL    HW138753   1.162   4.311  12.367  2.2635  0.3352  1.1968
 9098SOL    HW238754   1.120   4.424  12.459 -3.1533 -2.3415 -1.5440
 9099SOL     OW38755   3.531   1.330  13.632 -0.1278  0.1734  0.2464
 9099SOL    HW138756   3.624   1.325  13.654  0.7219  0.3887 -3.2385
 9099SOL    HW238757   3.524   1.369  13.545 -1.5099  0.0079  0.2860
 9100SOL     OW38758   0.607   4.429   2.391 -0.3948 -0.3699  0.2584
 9100SOL    HW138759   0.626   4.505   2.338 -1.7616  0.8694  1.5259
 9100SOL    HW238760   0.545   4.378   2.338 -2.0385  2.6365 -0.6838
 9101SOL     OW38761   3.899   4.603   6.297 -0.3516 -0.5040  0.2320
 9101SOL    HW138762   3.913   4.508   6.292 -3.6748 -0.8956 -2.0049
 9101SOL    HW238763   3.983   4.625   6.337 -0.7186  0.0131  0.7152
 9102SOL     OW38764   3.838   0.435   0.343 -0.1115  0.4763  0.5903
 9102SOL    HW138765   3.825   0.350   0.302  1.5923 -0.0348  1.0923
 9102SOL    HW238766   3.934   0.440   0.346 -0.3434  4.9666  0.8649
 9103SOL     OW38767   2.135   0.239   9.864 -0.3140 -0.1153  0.3842
 9103SOL    HW138768   2.173   0.322   9.836 -1.3086  0.0773 -0.3828
 9103SOL    HW238769   2.120   0.268   9.954 -0.1442  0.9481  0.0596
 9104SOL     OW38770   1.116   1.481  10.504  0.0839  0.2551 -0.0916
 9104SOL    HW138771   1.101   1.415  10.436 -1.4298 -0.1373  0.6171
 9104SOL    HW238772   1.143   1.423  10.575 -0.2345 -1.6743 -1.5460
 9105SOL     OW38773   0.754   0.426   9.268 -0.1728 -0.2321 -0.2904
 9105SOL    HW138774   0.678   0.368   9.276  0.6734 -1.8261 -3.8429
 9105SOL    HW238775   0.818   0.357   9.278 -0.9084 -0.6306  1.5809
 9106SOL     OW38776   1.622   0.941   1.897 -0.0725 -0.0904 -0.1643
 9106SOL    HW138777   1.535   0.907   1.915  0.8097 -2.2379  0.0590
 9106SOL    HW238778   1.634   0.924   1.803 -0.1751  0.4057 -0.2690
 9107SOL     OW38779   0.973   4.174  10.135  0.3063 -0.3081  0.7404
 9107SOL    HW138780   0.987   4.163  10.041 -1.0077 -2.0546  0.7378
 9107SOL    HW238781   0.907   4.108  10.158  0.3335  0.4446  2.9484
 9108SOL     OW38782   1.766   1.758   7.208 -0.3271  0.0440 -0.1096
 9108SOL    HW138783   1.819   1.682   7.184  0.9322 -0.2140  3.4332
 9108SOL    HW238784   1.773   1.808   7.128 -0.6321 -1.0233 -0.8053
 9109SOL     OW38785   0.553   3.048  14.035  0.0130 -0.1897 -0.1217
 9109SOL    HW138786   0.527   3.126  13.986 -0.6270  1.2618  2.5244
 9109SOL    HW238787   0.510   3.061  14.119  0.6827 -0.8421  0.3209
 9110SOL     OW38788   0.057   0.112   6.224  0.2194  0.2262 -0.6180
 9110SOL    HW138789   0.078   0.053   6.152  0.7085 -1.1507  0.6421
 9110SOL    HW238790   0.050   0.196   6.179 -1.9856  0.6959  0.5814
 9111SOL     OW38791   0.283   3.107   1.885 -0.4783 -0.0059 -0.5361
 9111SOL    HW138792   0.211   3.084   1.827 -0.7195 -1.8668  0.4962
 9111SOL    HW238793   0.309   3.190   1.845 -0.6271 -0.0554 -0.7330
 9112SOL     OW38794   3.929   3.763  15.520 -0.0398  0.1196  0.1015
 9112SOL    HW138795   3.960   3.727  15.437  1.4416  0.0009  0.7247
 9112SOL    HW238796   4.003   3.761  15.579  0.1579 -1.1249 -0.1806
 9113SOL     OW38797   4.630   0.656   5.594 -0.9695 -0.2973  0.2990
 9113SOL    HW138798   4.715   0.625   5.561 -1.3160 -0.7602 -0.1496
 9113SOL    HW238799   4.578   0.642   5.515 -1.2720 -0.7130  0.5736
 9114SOL     OW38800   4.280   2.672   5.751 -0.1416  0.3389  0.0978
 9114SOL    HW138801   4.367   2.642   5.726 -0.2572 -0.1307  0.2587
 9114SOL    HW238802   4.269   2.759   5.712  1.0359  0.4193 -0.0481
 9115SOL     OW38803   0.025   2.814   9.021  0.0834 -0.0125 -0.0050
 9115SOL    HW138804   4.703   2.816   9.104  0.8248  2.1154  0.3504
 9115SOL    HW238805   4.675   2.813   8.961  1.0387 -2.3891 -1.1687
 9116SOL     OW38806   1.044   3.134   4.875  0.2230 -0.0014 -0.2655
 9116SOL    HW138807   1.129   3.124   4.918  0.2555 -1.3615 -0.6350
 9116SOL    HW238808   1.043   3.058   4.816  1.3671  1.6193 -2.3649
 9117SOL     OW38809   0.394   4.324   0.548 -0.1108 -0.0827  0.0206
 9117SOL    HW138810   0.488   4.344   0.545  0.5839 -3.0363  1.9741
 9117SOL    HW238811   0.376   4.279   0.465 -1.7125  2.2601 -0.9174
 9118SOL     OW38812   2.888   2.297   2.763  0.5799 -0.0548 -0.0691
 9118SOL    HW138813   2.939   2.366   2.805  1.0443  0.1150 -0.9066
 9118SOL    HW238814   2.951   2.242   2.717 -0.1253 -1.1630  0.3003
 9119SOL     OW38815   4.524   1.957  15.687  0.1300 -0.0539  0.2479
 9119SOL    HW138816   4.543   1.897  15.615  1.0523 -0.3088  0.6973
 9119SOL    HW238817   4.572   2.034  15.657 -0.2943  0.9498  2.1369
 9120SOL     OW38818   3.870   3.560   5.816  0.3113  0.3749 -0.4097
 9120SOL    HW138819   3.934   3.595   5.754  1.5462 -1.7103 -0.2898
 9120SOL    HW238820   3.930   3.521   5.880 -1.6634 -1.6409  0.1905
 9121SOL     OW38821   1.686   2.679   8.839  0.0083  0.0028  0.0351
 9121SOL    HW138822   1.662   2.770   8.857  2.0667  0.6226 -0.3923
 9121SOL    HW238823   1.604   2.633   8.857 -0.4502  0.4932 -0.7691
 9122SOL     OW38824   3.540   0.765   0.335 -0.1494  0.0981 -0.1610
 9122SOL    HW138825   3.454   0.806   0.332  0.3035  1.0703  0.2309
 9122SOL    HW238826   3.606   0.831   0.316 -0.2694  0.4661  0.7047
 9123SOL     OW38827   0.311   3.443   8.806 -0.4413  0.0717 -0.8465
 9123SOL    HW138828   0.291   3.376   8.872  0.1346  0.0799 -0.6621
 9123SOL    HW238829   0.368   3.499   8.859 -0.2103  1.0193 -2.1027
 9124SOL     OW38830   3.268   1.030   7.877  0.1836  0.2257  0.0167
 9124SOL    HW138831   3.319   0.951   7.894 -0.9709 -0.3258  0.9361
 9124SOL    HW238832   3.334   1.091   7.845  0.0683  0.1517 -0.3696
 9125SOL     OW38833   3.356   0.253   3.858 -0.1249  0.2955 -0.3803
 9125SOL    HW138834   3.392   0.253   3.769 -2.1879  0.8713 -1.2191
 9125SOL    HW238835   3.387   0.170   3.893 -1.3155  0.2261  0.5083
 9126SOL     OW38836   2.967   0.636  15.452 -0.3056  0.1619  0.0974
 9126SOL    HW138837   2.910   0.709  15.476 -1.5640 -1.2832  1.5029
 9126SOL    HW238838   2.999   0.612  15.539  0.0728 -2.0521 -0.6507
 9127SOL     OW38839   2.784   2.971  10.816  0.4225  0.2699  0.1681
 9127SOL    HW138840   2.721   2.960  10.887 -0.0882  1.9757  0.0018
 9127SOL    HW238841   2.768   2.890  10.767 -0.6376  0.4890  0.1435
 9128SOL     OW38842   1.894   3.576  15.623 -0.0516  0.1115  0.0205
 9128SOL    HW138843   1.901   3.562  15.717  0.0287  2.2491  0.3276
 9128SOL    HW238844   1.799   3.580  15.610 -0.0618  0.9334  0.3585
 9129SOL     OW38845   3.758   2.614   4.976 -0.2227  0.0198 -0.2915
 9129SOL    HW138846   3.694   2.656   4.918 -0.8259 -0.7927 -0.2155
 9129SOL    HW238847   3.772   2.536   4.922 -1.0423 -0.0268 -0.4346
 9130SOL     OW38848   2.249   2.297   4.911  0.4027  0.0758 -0.2440
 9130SOL    HW138849   2.328   2.255   4.945 -1.2471 -1.7755  1.2709
 9130SOL    HW238850   2.239   2.369   4.972 -2.5540 -0.5527  0.0023
 9131SOL     OW38851   3.228   2.204   3.211  0.1442 -0.1160  0.3073
 9131SOL    HW138852   3.155   2.173   3.158  0.8066  2.5416 -2.1706
 9131SOL    HW238853   3.267   2.124   3.247 -0.6901 -0.1341  1.1709
 9132SOL     OW38854   4.026   0.148   0.456 -0.6921  0.0766  0.4404
 9132SOL    HW138855   4.104   0.092   0.459 -1.7875 -1.5028 -0.4557
 9132SOL    HW238856   4.076   0.219   0.415  0.3443 -1.5110 -1.0622
 9133SOL     OW38857   2.201   3.995   2.699  0.0517  0.4566  0.2325
 9133SOL    HW138858   2.145   3.938   2.646 -1.0400  0.4804  1.3513
 9133SOL    HW238859   2.175   3.988   2.790 -0.0894  2.2275  0.3223
 9134SOL     OW38860   3.278   0.384   4.093  0.0280 -0.5745  0.0219
 9134SOL    HW138861   3.365   0.389   4.133  0.2141  2.9807 -0.7630
 9134SOL    HW238862   3.291   0.361   4.001  1.8156 -2.8871  0.8579
 9135SOL     OW38863   0.203   3.993   8.766 -0.3687  0.0013 -0.3880
 9135SOL    HW138864   0.150   4.051   8.821 -0.6113  1.1613 -1.8360
 9135SOL    HW238865   0.259   4.061   8.728  2.8133 -1.5631  1.5487
 9136SOL     OW38866   1.827   1.242  13.021 -0.4845  0.4606 -0.1948
 9136SOL    HW138867   1.895   1.281  13.076  0.7844 -1.9719 -0.0263
 9136SOL    HW238868   1.873   1.186  12.959 -3.2640 -3.3616  1.1571
 9137SOL     OW38869   0.803   2.905   5.158  0.0025  0.9196  0.0306
 9137SOL    HW138870   0.721   2.908   5.107  1.2446  1.4010 -1.9351
 9137SOL    HW238871   0.867   2.884   5.090 -1.1272 -0.4560 -0.6170
 9138SOL     OW38872   0.192   1.460   3.706 -0.0437  0.0407  0.0205
 9138SOL    HW138873   0.187   1.366   3.689  1.6932 -0.1812  0.7749
 9138SOL    HW238874   0.286   1.477   3.704  0.3930 -2.5414 -0.4967
 9139SOL     OW38875   3.662   4.302  13.367 -0.4349 -0.4578 -0.4899
 9139SOL    HW138876   3.593   4.294  13.300 -0.7892 -1.0021 -0.0608
 9139SOL    HW238877   3.682   4.395  13.359 -2.1301  0.0859  1.5001
 9140SOL     OW38878   3.344   0.239  13.280 -0.7925  0.4029  0.1255
 9140SOL    HW138879   3.319   0.286  13.359  2.6856 -0.5808  1.7908
 9140SOL    HW238880   3.262   0.234  13.231 -1.3577 -1.5869  1.3159
 9141SOL     OW38881   2.999   0.994   7.813 -0.0321  0.1314  0.1598
 9141SOL    HW138882   3.087   1.032   7.820 -0.3825  1.1313 -0.9132
 9141SOL    HW238883   3.004   0.908   7.855  0.6767 -1.6903 -3.7373
 9142SOL     OW38884   2.423   0.119   7.591 -0.1672 -0.1001  0.3436
 9142SOL    HW138885   2.481   0.094   7.663 -0.4286 -0.9908  0.2503
 9142SOL    HW238886   2.451   0.208   7.574  2.5163 -0.7247  1.4785
 9143SOL     OW38887   2.730   2.558   7.896  0.8176  1.0052  0.4432
 9143SOL    HW138888   2.767   2.614   7.827 -0.7946  0.5294 -0.8129
 9143SOL    HW238889   2.773   2.591   7.975 -0.3231  2.5178  0.4388
 9144SOL     OW38890   2.974   2.536   6.095 -0.4189  0.3419 -0.1620
 9144SOL    HW138891   3.064   2.527   6.127 -1.1500 -0.5713  1.6601
 9144SOL    HW238892   2.950   2.450   6.061  0.1371  0.4262 -0.7614
 9145SOL     OW38893   0.325   3.248   7.711  0.2556  0.4148 -0.5058
 9145SOL    HW138894   0.336   3.223   7.619  2.3461  0.7148 -0.3308
 9145SOL    HW238895   0.356   3.166   7.749 -0.8537 -0.0866 -0.6687
 9146SOL     OW38896   2.621   3.716   5.536  0.3622 -0.2001  0.4916
 9146SOL    HW138897   2.599   3.702   5.628 -0.0769 -0.9138  0.2813
 9146SOL    HW238898   2.686   3.786   5.542  0.6741 -0.3729 -0.8981
 9147SOL     OW38899   2.007   2.841   6.198  0.0540  0.0463  0.5945
 9147SOL    HW138900   1.994   2.827   6.105 -2.6745  0.4867  0.9174
 9147SOL    HW238901   1.916   2.865   6.213  0.2097  1.1375 -0.2827
 9148SOL     OW38902   2.810   3.765  15.290  0.4610  0.3053  0.1087
 9148SOL    HW138903   2.744   3.796  15.228  2.1439  2.8198 -0.4324
 9148SOL    HW238904   2.821   3.829  15.360 -1.0224  0.8845 -0.1881
 9149SOL     OW38905   3.019   4.059   5.235  0.2469  0.4965  0.0364
 9149SOL    HW138906   2.924   4.057   5.224  0.4545  0.4011 -1.6586
 9149SOL    HW238907   3.047   4.139   5.190 -1.4887  0.3765 -1.2418
 9150SOL     OW38908   3.006   3.073   3.641 -0.1978  0.2891  0.0968
 9150SOL    HW138909   3.054   3.052   3.721  1.7089  1.1235 -0.8224
 9150SOL    HW238910   2.992   3.168   3.633 -0.5637  0.2287  0.0334
 9151SOL     OW38911   2.805   2.689   8.125  0.0204  0.2227  0.3770
 9151SOL    HW138912   2.795   2.782   8.149  1.1556 -0.0234  1.8314
 9151SOL    HW238913   2.875   2.667   8.187  0.8353 -0.2590 -0.7106
 9152SOL     OW38914   4.363   2.071   4.003 -0.2004 -0.2784 -0.6978
 9152SOL    HW138915   4.305   2.092   3.929  1.5037  0.0563 -1.9383
 9152SOL    HW238916   4.439   2.062   3.946 -0.4662 -0.4753 -1.0236
 9153SOL     OW38917   0.289   1.307   7.521 -0.2018 -0.0607  0.3995
 9153SOL    HW138918   0.383   1.300   7.533  0.0185 -2.3320 -2.6038
 9153SOL    HW238919   0.270   1.271   7.434 -0.8185  1.0083  0.0964
 9154SOL     OW38920   2.694   3.697  16.485  0.1493 -0.2167 -0.3612
 9154SOL    HW138921   2.712   3.692  16.391 -0.7284 -0.8824 -0.4945
 9154SOL    HW238922   2.770   3.656  16.525 -0.7738 -3.5174 -2.0018
 9155SOL     OW38923   0.700   0.685   6.301  0.5838 -0.2608 -0.0875
 9155SOL    HW138924   0.740   0.772   6.297  0.0210  0.0005 -0.0428
 9155SOL    HW238925   0.614   0.711   6.267  0.1992  0.9829  1.8452
 9156SOL     OW38926   3.843   0.896   4.345 -0.1942 -0.3286 -0.0713
 9156SOL    HW138927   3.916   0.926   4.399 -0.7093 -1.1816  1.0857
 9156SOL    HW238928   3.776   0.903   4.413 -1.5702  1.0854 -1.5637
 9157SOL     OW38929   1.909   4.585   3.234  0.3183 -0.0836 -0.2082
 9157SOL    HW138930   1.838   4.538   3.191 -1.2250 -0.1189  2.4230
 9157SOL    HW238931   1.938   4.650   3.169  0.8335  1.3649  1.4809
 9158SOL     OW38932   4.664   4.388   1.124 -0.4446 -0.3301  0.1159
 9158SOL    HW138933   4.630   4.320   1.066  1.6846  0.5763 -2.2182
 9158SOL    HW238934   0.029   4.403   1.095 -0.6763  0.7397 -0.0527
 9159SOL     OW38935   3.249   2.523  12.157 -0.2886  0.3146  0.4000
 9159SOL    HW138936   3.340   2.496  12.165 -0.2851  0.3403  0.4492
 9159SOL    HW238937   3.244   2.557  12.067  0.6646 -0.3333  0.1039
 9160SOL     OW38938   3.691   0.714  11.153 -0.2441 -0.1482  0.1545
 9160SOL    HW138939   3.653   0.788  11.199  1.6149 -0.1888  1.7444
 9160SOL    HW238940   3.723   0.758  11.074 -1.4989 -0.2167 -0.3894
 9161SOL     OW38941   0.279   4.706  12.918  0.0025 -0.0365 -0.3356
 9161SOL    HW138942   0.221   0.014  12.850  1.4892  0.5364 -1.3268
 9161SOL    HW238943   0.225   4.661  12.983 -0.0056 -0.4334 -0.6178
 9162SOL     OW38944   1.436   0.314   2.300  0.7759 -0.2219 -0.1090
 9162SOL    HW138945   1.496   0.383   2.273 -0.7142  0.8281 -0.7310
 9162SOL    HW238946   1.494   0.239   2.304  0.8346 -0.1858 -0.3014
 9163SOL     OW38947   2.519   1.754   3.198 -0.4443  0.2871  0.2481
 9163SOL    HW138948   2.611   1.758   3.223 -0.2117  0.7251 -0.6477
 9163SOL    HW238949   2.514   1.845   3.168 -4.5698 -0.0593 -0.0683
 9164SOL     OW38950   4.072   1.903  11.322  0.1422  0.1136 -0.6959
 9164SOL    HW138951   3.991   1.852  11.328  0.1464  0.1333 -0.4981
 9164SOL    HW238952   4.105   1.874  11.237  0.1972 -0.2778 -0.5420
 9165SOL     OW38953   1.017   4.530   3.725 -0.0548  0.1632  0.5209
 9165SOL    HW138954   1.112   4.539   3.720  0.2790 -3.5502  0.7753
 9165SOL    HW238955   0.985   4.514   3.637  0.4900 -1.6900  0.6536
 9166SOL     OW38956   0.511   3.446   5.409  0.1460  0.1030  0.4939
 9166SOL    HW138957   0.565   3.497   5.469  0.3380 -0.8538  1.1136
 9166SOL    HW238958   0.575   3.387   5.370  1.2251  1.0144  0.8670
 9167SOL     OW38959   0.271   1.017  17.684  0.2635 -0.4090  0.1339
 9167SOL    HW138960   0.312   0.967  17.614 -0.1030  0.1289 -0.4684
 9167SOL    HW238961   0.299   1.106  17.661 -0.7659  0.1710  1.1362
 9168SOL     OW38962   2.329   0.325   1.344  0.4370 -0.3713 -0.1077
 9168SOL    HW138963   2.311   0.318   1.438  0.5352  0.6870 -0.0131
 9168SOL    HW238964   2.371   0.241   1.323 -1.6699 -1.3117 -0.4917
 9169SOL     OW38965   1.462   4.114   9.671  0.0441 -0.2136 -1.1809
 9169SOL    HW138966   1.444   4.084   9.760 -0.8063 -2.5619 -2.1466
 9169SOL    HW238967   1.370   4.114   9.643  0.2705 -1.1984 -1.9172
 9170SOL     OW38968   3.010   3.080   2.799 -0.6653  0.8300 -0.1820
 9170SOL    HW138969   2.943   3.074   2.730 -0.1512  1.4189 -0.7258
 9170SOL    HW238970   3.041   3.170   2.793  2.1952 -0.0008  2.4193
 9171SOL     OW38971   0.697   4.200  11.598 -0.7989  0.3136  0.6438
 9171SOL    HW138972   0.650   4.117  11.598 -1.7086  0.8486 -0.5969
 9171SOL    HW238973   0.626   4.263  11.608 -2.1029 -1.4732  2.9214
 9172SOL     OW38974   0.843   1.687   3.113 -0.2155  0.4795 -0.2429
 9172SOL    HW138975   0.899   1.614   3.089 -1.3571 -1.0068  1.6117
 9172SOL    HW238976   0.757   1.645   3.115  0.8487 -1.5784  1.4058
 9173SOL     OW38977   2.351   1.209   8.717 -0.2940  0.3666 -0.1497
 9173SOL    HW138978   2.298   1.287   8.702  0.9279  1.2505  0.1220
 9173SOL    HW238979   2.321   1.152   8.788  0.0278  0.9536  0.4617
 9174SOL     OW38980   3.426   4.028   2.444 -0.5105  0.7130  0.4509
 9174SOL    HW138981   3.432   4.107   2.390  1.3732  0.2217 -0.0695
 9174SOL    HW238982   3.494   3.965   2.421 -0.7977 -0.2377  2.1961
 9175SOL     OW38983   0.697   2.895  12.641 -0.4160 -0.1484 -0.5295
 9175SOL    HW138984   0.606   2.875  12.621  0.1469 -2.0791 -1.1266
 9175SOL    HW238985   0.690   2.960  12.711 -0.9169  0.5379 -1.2140
 9176SOL     OW38986   0.157   3.799   5.142 -0.1410 -0.4824 -0.0351
 9176SOL    HW138987   0.243   3.838   5.151 -0.5013 -0.0260  1.3305
 9176SOL    HW238988   0.095   3.872   5.147 -0.2815 -0.6188  0.2004
 9177SOL     OW38989   3.677   2.724  12.316  0.9526 -0.0208  0.3431
 9177SOL    HW138990   3.587   2.755  12.316  0.9415 -0.0512  1.0931
 9177SOL    HW238991   3.680   2.676  12.234  0.0669 -1.1563  0.9697
 9178SOL     OW38992   3.920   4.168   5.128  0.0995  0.2822 -0.6817
 9178SOL    HW138993   3.943   4.093   5.074  0.5292  0.0671 -0.2036
 9178SOL    HW238994   3.853   4.130   5.186  2.3383 -0.6506  1.2751
 9179SOL     OW38995   2.278   2.787  15.517  0.1888 -0.4408  0.2067
 9179SOL    HW138996   2.202   2.741  15.555 -1.2847 -0.3256 -2.5886
 9179SOL    HW238997   2.293   2.855  15.582  0.2747 -0.7579  0.5159
 9180SOL     OW38998   4.248   0.695   6.658  0.4041 -0.5731 -0.2485
 9180SOL    HW138999   4.275   0.753   6.729  0.3348  0.9840 -1.4957
 9180SOL    HW239000   4.215   0.755   6.591 -0.4792  0.3196  0.9854
 9181SOL     OW39001   0.759   4.456  11.250 -0.3513  0.1553  0.1687
 9181SOL    HW139002   0.739   4.382  11.192  1.6294 -1.3756  1.4408
 9181SOL    HW239003   0.682   4.510  11.232 -0.6347 -0.4717 -0.5129
 9182SOL     OW39004   2.510   2.754   8.931 -0.1695  0.3584  0.0096
 9182SOL    HW139005   2.422   2.763   8.895 -0.8882  0.5726  1.8343
 9182SOL    HW239006   2.502   2.678   8.988  1.1276 -0.0298 -0.3274
 9183SOL     OW39007   3.635   3.333  16.990 -0.7396  0.6138  0.2045
 9183SOL    HW139008   3.668   3.401  17.049  1.2038 -1.2312  1.2693
 9183SOL    HW239009   3.576   3.282  17.046  1.4404 -0.9724  1.0781
 9184SOL     OW39010   3.382   4.607  10.002 -0.4355  0.3469 -0.0681
 9184SOL    HW139011   3.466   4.605   9.957  0.3889  1.2849  1.4317
 9184SOL    HW239012   3.324   4.610   9.926 -0.5920 -0.4638  0.0219
 9185SOL     OW39013   3.343   1.816   7.791  0.3454 -0.0275 -0.1040
 9185SOL    HW139014   3.367   1.837   7.882 -2.2317 -0.0825  0.5970
 9185SOL    HW239015   3.379   1.728   7.779  0.3735 -0.2732  1.6585
 9186SOL     OW39016   3.487   2.023   0.344 -0.0663  0.0891  0.1704
 9186SOL    HW139017   3.455   2.077   0.416  2.5954  0.1030  1.3251
 9186SOL    HW239018   3.424   1.953   0.331 -1.2930  0.7098  2.9040
 9187SOL     OW39019   0.019   1.896   9.722 -0.3238 -0.3814 -0.1983
 9187SOL    HW139020   0.083   1.842   9.675 -0.5936  0.8655 -2.0348
 9187SOL    HW239021   0.008   1.834   9.794  2.1634 -1.2514 -0.5535
 9188SOL     OW39022   0.990   3.744   9.291 -0.0740 -0.3476 -0.3722
 9188SOL    HW139023   1.080   3.713   9.300  0.2272  0.6165 -0.0771
 9188SOL    HW239024   0.957   3.715   9.376  0.9866  2.9029  1.1579
 9189SOL     OW39025   4.023   0.484  11.677 -0.4333 -0.3208  0.4036
 9189SOL    HW139026   3.988   0.552  11.735 -0.8680 -0.9104  0.8330
 9189SOL    HW239027   4.077   0.533  11.615  0.9081 -2.2945  0.0315
 9190SOL     OW39028   3.784   3.285  13.296 -0.3385  0.1712 -0.1549
 9190SOL    HW139029   3.717   3.342  13.259 -0.0115  2.2173  2.3198
 9190SOL    HW239030   3.863   3.316  13.251  0.8363  0.1432  1.8775
 9191SOL     OW39031   0.101   3.552   3.895 -0.3672  0.7376 -0.5522
 9191SOL    HW139032   0.180   3.535   3.843 -0.3102  0.3355 -0.3330
 9191SOL    HW239033   0.100   3.478   3.955 -0.7224  2.6201  1.7905
 9192SOL     OW39034   0.338   3.777   8.951  0.0464 -0.7943  0.1725
 9192SOL    HW139035   0.342   3.840   8.878  1.3874 -1.0821  0.0039
 9192SOL    HW239036   0.430   3.757   8.964  0.2467 -0.0622 -0.1056
 9193SOL     OW39037   3.363   1.038   6.739  0.0954 -0.7327 -0.0470
 9193SOL    HW139038   3.426   1.106   6.712  0.9827 -1.8655 -0.8221
 9193SOL    HW239039   3.372   0.980   6.664 -1.6107 -0.6570 -0.2947
 9194SOL     OW39040   2.037   1.363   2.294 -0.3427  0.1496 -0.2455
 9194SOL    HW139041   2.008   1.316   2.372  1.1986  1.0289  0.8387
 9194SOL    HW239042   2.049   1.285   2.239  0.1010 -0.5116  0.7818
 9195SOL     OW39043   3.224   4.408   7.311 -0.4668  0.0965 -0.1859
 9195SOL    HW139044   3.267   4.323   7.316  0.9209  0.8751  1.1657
 9195SOL    HW239045   3.213   4.427   7.404 -0.4327  0.9624 -0.3650
 9196SOL     OW39046   0.700   3.808   3.964  0.2180  0.4899  0.2593
 9196SOL    HW139047   0.619   3.762   3.942 -1.2252  3.6191 -0.9726
 9196SOL    HW239048   0.670   3.861   4.038 -1.9869  0.6816 -0.7675
 9197SOL     OW39049   1.625   2.489   4.980 -0.4455 -0.0888  0.3661
 9197SOL    HW139050   1.610   2.493   5.074 -1.4855  0.0686  0.1980
 9197SOL    HW239051   1.643   2.580   4.957 -1.7845 -0.0866 -0.6426
 9198SOL     OW39052   4.512   1.660   4.675 -0.1377 -0.0896  0.1826
 9198SOL    HW139053   4.519   1.564   4.669  0.4836 -0.0009 -0.4795
 9198SOL    HW239054   4.578   1.668   4.744  0.6808 -0.7772 -0.5206
 9199SOL     OW39055   3.094   0.997   8.120  0.2636  0.0048  0.6037
 9199SOL    HW139056   3.182   0.967   8.141 -0.7895 -4.0896 -0.7719
 9199SOL    HW239057   3.059   0.920   8.074  1.7099  0.0823 -0.6457
 9200SOL     OW39058   0.855   0.372  12.846  0.1445 -0.4055 -0.0826
 9200SOL    HW139059   0.839   0.324  12.765  0.2399 -2.5442  1.1687
 9200SOL    HW239060   0.781   0.348  12.901 -0.0441 -0.5660 -0.4074
 9201SOL     OW39061   3.043   2.699   4.126  1.0874 -0.5929 -0.0511
 9201SOL    HW139062   3.107   2.651   4.179  0.5846 -0.5709  0.5689
 9201SOL    HW239063   3.039   2.777   4.181 -1.3526  0.0720 -1.1714
 9202SOL     OW39064   3.778   0.997   6.916 -0.1402 -0.7523 -0.0529
 9202SOL    HW139065   3.865   1.035   6.932  0.1360 -0.2357 -2.7937
 9202SOL    HW239066   3.739   1.015   7.001 -1.5359 -0.2843 -0.7969
 9203SOL     OW39067   3.617   1.838   9.310  0.9885  0.3697 -0.1362
 9203SOL    HW139068   3.542   1.784   9.282  0.9925 -0.2689  1.0756
 9203SOL    HW239069   3.598   1.857   9.402  1.6093  0.5698 -0.0509
 9204SOL     OW39070   1.218   3.170   8.734 -0.1591  0.6351 -0.1514
 9204SOL    HW139071   1.231   3.093   8.679  0.2801  0.9987 -0.5478
 9204SOL    HW239072   1.202   3.135   8.822 -3.7005 -0.0271 -1.0324
 9205SOL     OW39073   0.508   0.181  13.222 -0.2350  0.3962 -0.1694
 9205SOL    HW139074   0.418   0.151  13.219 -1.1183  2.9988  0.2340
 9205SOL    HW239075   0.561   0.127  13.282 -2.4549 -0.5932  0.8843
 9206SOL     OW39076   3.730   4.228   7.942 -0.2088  0.1370 -0.3215
 9206SOL    HW139077   3.713   4.207   8.034  1.5989  0.4318  0.0778
 9206SOL    HW239078   3.647   4.196   7.906 -0.3628 -2.4077  2.2886
 9207SOL     OW39079   0.773   4.698   6.144 -0.3032 -0.2574 -0.6905
 9207SOL    HW139080   0.777   4.620   6.090 -0.9418  0.6372 -2.0228
 9207SOL    HW239081   0.752   0.042   6.081 -1.0310  0.6418  0.5177
 9208SOL     OW39082   0.455   3.419  13.189 -0.7422 -0.0451 -0.3696
 9208SOL    HW139083   0.504   3.424  13.107 -1.3999 -0.0875 -0.7634
 9208SOL    HW239084   0.490   3.340  13.229  1.1459  0.6168 -0.6873
 9209SOL     OW39085   4.095   0.446   0.406 -0.2337  0.3132 -0.0003
 9209SOL    HW139086   4.174   0.464   0.354 -0.5446  1.0054 -0.2320
 9209SOL    HW239087   4.130   0.409   0.487  0.9191 -0.5353 -0.8749
 9210SOL     OW39088   3.982   4.311   3.189  0.3958 -0.3432  0.8338
 9210SOL    HW139089   3.931   4.249   3.136  1.0193  0.3719 -0.5834
 9210SOL    HW239090   4.051   4.324   3.125 -0.8701 -2.0907 -0.9054
 9211SOL     OW39091   3.312   4.061  11.368 -0.1347 -0.3254  0.0434
 9211SOL    HW139092   3.396   4.106  11.363 -1.2959  1.7989 -0.7890
 9211SOL    HW239093   3.251   4.120  11.322 -0.6199 -0.7248  0.1684
 9212SOL     OW39094   1.241   1.355   1.091  0.0779  0.1305 -0.2383
 9212SOL    HW139095   1.283   1.404   1.162 -0.0776 -0.2010  0.0828
 9212SOL    HW239096   1.168   1.308   1.132  1.0266 -0.8440  0.3252
 9213SOL     OW39097   2.614   0.146   0.499  0.4067  0.6044  0.1336
 9213SOL    HW139098   2.590   0.226   0.454  2.0960  1.2024  0.2887
 9213SOL    HW239099   2.661   0.184   0.573  1.0040 -2.6133  1.4438
 9214SOL     OW39100   4.129   1.642   1.579 -0.1166 -0.0329  0.5650
 9214SOL    HW139101   4.041   1.609   1.598 -1.1973  1.1054 -2.5314
 9214SOL    HW239102   4.161   1.610   1.664 -2.7312 -2.3218  0.6581
 9215SOL     OW39103   3.424   3.616  14.769  0.0853 -0.0202  0.3140
 9215SOL    HW139104   3.346   3.664  14.742  0.8779  0.5519 -0.9639
 9215SOL    HW239105   3.469   3.684  14.818  1.3248 -1.8336  1.7177
 9216SOL     OW39106   3.602   2.183   2.478 -0.5938  1.0850  0.5090
 9216SOL    HW139107   3.552   2.102   2.465 -3.0112  2.3942  1.7898
 9216SOL    HW239108   3.645   2.161   2.560 -2.5443  1.3915  1.6024
 9217SOL     OW39109   2.864   0.344  12.213  0.0294  0.2806 -0.2643
 9217SOL    HW139110   2.886   0.258  12.249 -0.2066  0.4290  0.2335
 9217SOL    HW239111   2.860   0.402  12.290  2.5523 -3.3103  2.5838
 9218SOL     OW39112   0.093   2.612   2.157 -0.2754 -0.1730  0.5065
 9218SOL    HW139113   0.135   2.551   2.218  0.2123 -0.4788 -0.1346
 9218SOL    HW239114   0.060   2.679   2.218  0.7760 -0.0537  0.9474
 9219SOL     OW39115   2.134   1.827   0.376 -0.3784  0.1689 -0.3415
 9219SOL    HW139116   2.169   1.887   0.442  0.8217 -1.6865  0.7245
 9219SOL    HW239117   2.040   1.840   0.382 -0.4419  0.2660 -1.4310
 9220SOL     OW39118   0.011   1.307   2.455 -0.1266  0.7508  0.0882
 9220SOL    HW139119   0.008   1.395   2.418  0.6347 -0.7709 -3.5800
 9220SOL    HW239120   4.679   1.328   2.529 -0.8711 -1.1833  0.0729
 9221SOL     OW39121   3.071   1.407   5.140  0.1961  0.6370 -0.0137
 9221SOL    HW139122   3.033   1.330   5.099  1.1785  1.7223 -2.9684
 9221SOL    HW239123   3.052   1.482   5.083 -0.3252  1.1812  0.8602
 9222SOL     OW39124   2.239   1.554   5.555  0.1664 -0.3367  0.1356
 9222SOL    HW139125   2.257   1.535   5.463  0.2402 -0.4651  0.1772
 9222SOL    HW239126   2.145   1.548   5.569  0.1456  1.9438  0.9951
 9223SOL     OW39127   4.319   2.318   5.865 -0.9071 -0.0601  0.1243
 9223SOL    HW139128   4.275   2.321   5.780 -1.8546 -1.3847  0.5664
 9223SOL    HW239129   4.374   2.240   5.860 -2.5882 -1.2552  0.0821
 9224SOL     OW39130   3.574   0.617  10.411  0.1184  0.3853 -0.2683
 9224SOL    HW139131   3.591   0.539  10.463  0.0341  1.5430  1.4817
 9224SOL    HW239132   3.488   0.640  10.447  0.1284  0.0974 -0.0568
 9225SOL     OW39133   1.675   1.898   1.843 -0.0944 -0.3135  0.4534
 9225SOL    HW139134   1.687   1.806   1.817 -0.8232  0.5471 -2.9572
 9225SOL    HW239135   1.647   1.937   1.760 -1.6014 -2.0654  0.1194
 9226SOL     OW39136   3.733   4.507   8.479  0.6380 -0.0991 -0.5084
 9226SOL    HW139137   3.735   4.448   8.555 -2.2983 -1.1476 -1.2148
 9226SOL    HW239138   3.645   4.487   8.446 -0.4651  2.3051  1.0320
 9227SOL     OW39139   3.864   3.327   6.677 -0.3349 -1.0076 -0.4477
 9227SOL    HW139140   3.850   3.375   6.595 -1.2536 -1.7949 -0.7541
 9227SOL    HW239141   3.773   3.310   6.700 -0.1345 -0.6459  0.5993
 9228SOL     OW39142   1.108   3.618   1.456 -0.3936 -0.1785 -0.1925
 9228SOL    HW139143   1.155   3.559   1.515 -0.4897  0.3120  0.3744
 9228SOL    HW239144   1.038   3.646   1.515  0.9416  1.7803  0.4531
 9229SOL     OW39145   1.973   0.977   8.623 -0.1182 -0.6338 -0.6934
 9229SOL    HW139146   2.012   1.042   8.565 -1.7047  0.7481 -0.2210
 9229SOL    HW239147   2.021   0.995   8.704 -2.1839 -0.7363  0.5707
 9230SOL     OW39148   2.666   4.151   3.919 -0.2276 -0.5196  0.5984
 9230SOL    HW139149   2.597   4.087   3.936 -1.0657 -0.1749 -1.5442
 9230SOL    HW239150   2.691   4.161   4.011  0.5622  1.1234  0.2127
 9231SOL     OW39151   3.113   0.825  13.661  0.2884 -0.2121  0.4287
 9231SOL    HW139152   3.141   0.843  13.751 -0.4562  0.2786  0.5659
 9231SOL    HW239153   3.170   0.877  13.605  0.7099  0.0080  1.0585
 9232SOL     OW39154   2.116   3.412   5.189  0.6469  1.0150  0.0788
 9232SOL    HW139155   2.124   3.478   5.259  0.1646 -0.6422  1.7056
 9232SOL    HW239156   2.204   3.374   5.181  0.8440  1.3659  0.5255
 9233SOL     OW39157   0.689   0.605   6.559  0.5576 -0.0424  0.2064
 9233SOL    HW139158   0.723   0.678   6.506  1.8879 -0.5659  0.3398
 9233SOL    HW239159   0.697   0.525   6.507 -0.2151 -0.4118  0.6548
 9234SOL     OW39160   3.729   2.415   5.495  0.4207 -0.2188 -0.4880
 9234SOL    HW139161   3.668   2.485   5.473  0.7106 -0.2684 -1.4579
 9234SOL    HW239162   3.674   2.338   5.483  0.5888 -0.5526  0.9379
 9235SOL     OW39163   3.240   2.355   8.682 -0.3273  0.2630 -0.6160
 9235SOL    HW139164   3.294   2.369   8.760 -2.1387  1.2102  0.4772
 9235SOL    HW239165   3.208   2.443   8.664  0.2781  0.5052 -0.5105
 9236SOL     OW39166   0.756   3.188  16.741  0.0035  0.1355 -0.6110
 9236SOL    HW139167   0.827   3.188  16.806 -0.4500 -0.6201 -0.1083
 9236SOL    HW239168   0.685   3.158  16.798  0.6660 -0.5799 -0.1538
 9237SOL     OW39169   1.284   3.746   0.725  0.2814 -0.4756 -0.2859
 9237SOL    HW139170   1.203   3.749   0.675  0.6154 -0.6767 -0.8329
 9237SOL    HW239171   1.296   3.655   0.750  0.5877 -0.5805 -0.8322
 9238SOL     OW39172   0.782   0.339   7.491  0.5390 -0.0863 -0.0563
 9238SOL    HW139173   0.743   0.265   7.538 -0.6296 -0.6498 -1.9229
 9238SOL    HW239174   0.836   0.297   7.424  0.9924  0.2597  0.0911
 9239SOL     OW39175   2.475   4.686   6.383  0.4336  0.0739 -0.0324
 9239SOL    HW139176   2.503   4.631   6.310  0.7310  1.1006 -0.6865
 9239SOL    HW239177   2.381   4.670   6.392  0.0889  1.6275 -0.7753
 9240SOL     OW39178   4.362   1.326   3.733  0.1847 -0.1317 -0.0855
 9240SOL    HW139179   4.368   1.323   3.829 -1.2590  1.2910  0.0454
 9240SOL    HW239180   4.435   1.274   3.698  0.8829  0.2299  0.8108
 9241SOL     OW39181   4.464   1.766   3.729 -0.2434 -0.5898 -0.5111
 9241SOL    HW139182   4.502   1.679   3.730 -1.3606 -1.0639  2.4911
 9241SOL    HW239183   4.535   1.822   3.761 -1.2443  0.5176 -0.1934
 9242SOL     OW39184   0.981   0.486   3.677  0.4829  0.4306  0.1019
 9242SOL    HW139185   1.024   0.401   3.684 -0.4461  0.0225  0.8461
 9242SOL    HW239186   0.990   0.515   3.586 -2.2870 -0.3550 -0.4020
 9243SOL     OW39187   4.229   2.430   6.584  0.1919  0.0633 -0.3664
 9243SOL    HW139188   4.276   2.432   6.501 -0.9514  0.3781 -1.0054
 9243SOL    HW239189   4.137   2.412   6.567 -0.0219  0.2653  0.5854
 9244SOL     OW39190   0.971   4.185   3.248 -0.3056 -0.3022  0.3956
 9244SOL    HW139191   0.887   4.140   3.255  0.2048 -1.6026 -1.6557
 9244SOL    HW239192   1.033   4.122   3.285  1.0053  0.8397  0.1521
 9245SOL     OW39193   4.671   2.303   3.884 -0.0902  0.1359 -0.5273
 9245SOL    HW139194   4.666   2.391   3.921 -2.4158 -0.0740 -0.3433
 9245SOL    HW239195   0.027   2.274   3.927  0.3487  2.2524  0.0900
 9246SOL     OW39196   0.140   0.663   2.326 -0.2787  0.1379  0.2817
 9246SOL    HW139197   0.143   0.598   2.256  1.3768 -0.9437  1.3608
 9246SOL    HW239198   0.046   0.666   2.346 -0.4179  0.3543 -0.4112
 9247SOL     OW39199   0.286   0.748   1.236 -0.4680  0.1450  0.4093
 9247SOL    HW139200   0.358   0.792   1.192 -0.5572 -0.8014 -0.6739
 9247SOL    HW239201   0.268   0.693   1.160 -0.8172 -0.3557  0.8574
 9248SOL     OW39202   1.229   4.126  14.237  1.3247 -0.0832  0.2487
 9248SOL    HW139203   1.234   4.215  14.203 -0.9144  0.8882  2.3828
 9248SOL    HW239204   1.282   4.075  14.177 -0.2878 -0.3131 -0.9647
 9249SOL     OW39205   3.134   2.276  13.554  0.7872 -0.1425 -0.5976
 9249SOL    HW139206   3.131   2.335  13.479  2.3818  1.1077  0.3090
 9249SOL    HW239207   3.184   2.329  13.615 -0.9224  0.1476  0.5356
 9250SOL     OW39208   1.015   4.150  12.999  0.1929 -0.1980  0.3471
 9250SOL    HW139209   1.041   4.241  13.013 -0.4560  0.1655 -0.7754
 9250SOL    HW239210   0.937   4.155  12.944  0.5659 -1.5255 -0.2982
 9251SOL     OW39211   0.442   3.094   5.578 -0.3583 -0.3541  0.7470
 9251SOL    HW139212   0.484   3.136   5.653  0.0913 -0.4038  0.5280
 9251SOL    HW239213   0.388   3.162   5.540  0.0374  0.2662  1.3042
 9252SOL     OW39214   2.578   4.645   5.482  0.5535 -0.6015  0.2996
 9252SOL    HW139215   2.615   4.703   5.549  1.0939 -1.4230  0.7052
 9252SOL    HW239216   2.490   4.626   5.516 -1.2016  2.4084 -2.5578
 9253SOL     OW39217   0.592   2.484   4.621  0.2156 -0.4643 -0.2361
 9253SOL    HW139218   0.523   2.493   4.687  0.9670  0.2744  0.4554
 9253SOL    HW239219   0.552   2.452   4.540  1.7904  1.4456 -1.8147
 9254SOL     OW39220   1.363   0.150   5.915 -0.2547 -0.5497 -0.1223
 9254SOL    HW139221   1.304   0.201   5.860 -0.0527  2.5585  2.5378
 9254SOL    HW239222   1.300   0.093   5.959  1.8270 -2.9919 -0.2774
 9255SOL     OW39223   4.212   2.886  12.238  0.6368 -0.3317 -0.3351
 9255SOL    HW139224   4.262   2.937  12.173 -1.8045  1.4303 -0.8064
 9255SOL    HW239225   4.131   2.936  12.233 -0.1871 -1.5301  1.0807
 9256SOL     OW39226   3.786   2.490   7.049 -0.0460  0.1411 -1.1474
 9256SOL    HW139227   3.708   2.435   7.065  0.6490 -0.3943  0.4209
 9256SOL    HW239228   3.852   2.429   7.081 -1.6442  0.3801  2.6948
 9257SOL     OW39229   3.188   0.974  14.189  0.1827 -0.1721 -0.6136
 9257SOL    HW139230   3.100   1.009  14.205  0.4923 -0.1125  0.8865
 9257SOL    HW239231   3.224   1.016  14.266  0.4901  0.3863 -1.0651
 9258SOL     OW39232   0.869   1.119   4.562  0.0080  0.2263 -0.2585
 9258SOL    HW139233   0.820   1.036   4.563  1.3341 -0.5494  1.4766
 9258SOL    HW239234   0.865   1.140   4.469 -0.8460 -1.1317 -0.5229
 9259SOL     OW39235   4.137   0.623   3.496 -0.4798  0.1902  0.1663
 9259SOL    HW139236   4.178   0.607   3.581  0.5340  2.5776  0.1254
 9259SOL    HW239237   4.199   0.674   3.444 -0.6237  0.2588  0.0616
 9260SOL     OW39238   3.981   1.278   3.621  0.0352 -0.2306  0.2880
 9260SOL    HW139239   3.960   1.294   3.529  1.9661 -4.5189 -0.8932
 9260SOL    HW239240   3.976   1.184   3.636 -2.2695 -0.4179 -1.6425
 9261SOL     OW39241   0.343   3.282  14.445  0.0925  0.5852  0.8005
 9261SOL    HW139242   0.253   3.254  14.460  0.1716 -1.2479 -2.1136
 9261SOL    HW239243   0.370   3.203  14.398 -1.2452  0.4252  0.3096
 9262SOL     OW39244   0.422   3.235   8.149 -0.1745 -0.3220 -0.2411
 9262SOL    HW139245   0.350   3.221   8.210 -0.6530 -0.4992 -0.8352
 9262SOL    HW239246   0.387   3.180   8.078 -0.8822  2.3285 -1.9430
 9263SOL     OW39247   1.209   1.157   6.505  0.0658  0.6399  0.0212
 9263SOL    HW139248   1.164   1.098   6.566 -0.7872  0.6882 -0.5509
 9263SOL    HW239249   1.202   1.234   6.560  1.9389 -0.4949  1.8379
 9264SOL     OW39250   0.547   2.988   4.499  0.2934  0.5399 -0.1808
 9264SOL    HW139251   0.615   2.959   4.437  2.2817 -0.9744  2.7097
 9264SOL    HW239252   0.482   3.024   4.439 -1.6711  0.2863  1.8123
 9265SOL     OW39253   2.899   3.351   4.093 -0.0814 -0.2974 -0.3679
 9265SOL    HW139254   2.828   3.350   4.157 -0.3567  0.5970 -0.6550
 9265SOL    HW239255   2.874   3.438   4.061  0.4367 -0.8593 -2.3012
 9266SOL     OW39256   2.614   1.513   3.872 -0.0013 -0.3104  0.4093
 9266SOL    HW139257   2.677   1.459   3.920 -1.5371 -0.0376  2.7550
 9266SOL    HW239258   2.589   1.455   3.800 -0.5918 -0.1622  0.4955
 9267SOL     OW39259   0.420   0.293   1.426  0.4027 -0.2880  0.3408
 9267SOL    HW139260   0.388   0.383   1.430 -0.8390 -0.6738 -0.9712
 9267SOL    HW239261   0.470   0.295   1.508 -1.2078  1.5836  1.2720
 9268SOL     OW39262   3.469   2.079   6.628 -0.1635 -0.0235 -0.4981
 9268SOL    HW139263   3.386   2.048   6.665  2.1415 -3.5883  1.6351
 9268SOL    HW239264   3.445   2.170   6.613 -1.7063 -0.4920 -0.9516
 9269SOL     OW39265   1.603   0.373   5.280  0.3328 -0.0572 -0.1734
 9269SOL    HW139266   1.695   0.364   5.255  0.4443  0.6613 -0.0157
 9269SOL    HW239267   1.595   0.387   5.374  0.6042 -0.3847 -0.1008
 9270SOL     OW39268   2.960   1.488  17.146  0.2874  0.0147 -0.0897
 9270SOL    HW139269   2.886   1.428  17.144 -0.7344  1.2374  1.1692
 9270SOL    HW239270   2.937   1.529  17.230 -0.5485 -0.6796  0.0172
 9271SOL     OW39271   3.238   0.250   1.478  0.1361  0.2675 -0.1566
 9271SOL    HW139272   3.242   0.335   1.435  2.3783  0.9246  1.3596
 9271SOL    HW239273   3.262   0.189   1.408 -1.5627 -0.0094 -0.4980
 9272SOL     OW39274   3.440   0.167   6.571  0.1676 -0.0485 -0.1076
 9272SOL    HW139275   3.502   0.209   6.511 -0.3563  0.3801 -0.3543
 9272SOL    HW239276   3.499   0.119   6.630  1.0207 -1.7646 -2.3433
 9273SOL     OW39277   2.016   4.194   8.716  0.0261  0.0315  0.6459
 9273SOL    HW139278   2.008   4.270   8.659 -0.2862 -0.0752  0.5453
 9273SOL    HW239279   2.051   4.238   8.793  1.8283  1.7657 -1.1588
 9274SOL     OW39280   1.102   1.737   3.837 -0.3690 -0.6712  0.2178
 9274SOL    HW139281   1.103   1.815   3.892  1.3773 -0.6579  0.1623
 9274SOL    HW239282   1.138   1.675   3.901  3.4885 -2.1257 -3.3891
 9275SOL     OW39283   0.533   4.651   7.261 -0.3141 -0.0304 -0.7566
 9275SOL    HW139284   0.569   4.596   7.330 -0.4211 -0.6931 -1.2326
 9275SOL    HW239285   0.462   4.699   7.303  0.6214  1.0349 -0.3887
 9276SOL     OW39286   0.708   1.331   8.230  0.1925  0.2952 -0.1925
 9276SOL    HW139287   0.791   1.380   8.235  0.9189 -1.0496  0.9114
 9276SOL    HW239288   0.670   1.375   8.155  2.9045  0.4270 -1.4818
 9277SOL     OW39289   0.358   0.603   9.359 -0.1357  0.2098  0.7802
 9277SOL    HW139290   0.447   0.633   9.343 -0.5773  1.0809 -0.0226
 9277SOL    HW239291   0.328   0.674   9.415 -1.2542 -2.4931  3.6193
 9278SOL     OW39292   2.612   4.390   2.871  0.0147 -0.1435 -0.2904
 9278SOL    HW139293   2.591   4.304   2.836  0.0140 -0.1226 -0.3422
 9278SOL    HW239294   2.704   4.379   2.896 -0.7726 -1.5017  1.9583
 9279SOL     OW39295   0.092   3.102   5.630 -0.5643 -0.0774 -0.0333
 9279SOL    HW139296   0.091   3.052   5.549  1.0480 -2.5319  1.4822
 9279SOL    HW239297   0.149   3.178   5.617 -0.4241 -0.0869  0.5345
 9280SOL     OW39298   1.055   4.225   2.589 -0.1476  0.4425  0.2544
 9280SOL    HW139299   0.964   4.204   2.570 -0.0105 -0.4644  0.6294
 9280SOL    HW239300   1.094   4.265   2.511  2.2195 -0.1639  1.1339
 9281SOL     OW39301   3.501   3.497  15.582 -0.5604  0.1242  0.0289
 9281SOL    HW139302   3.583   3.517  15.536  0.0092 -2.2570  0.0011
 9281SOL    HW239303   3.532   3.457  15.663 -0.6133  1.0989  0.5272
 9282SOL     OW39304   1.644   3.307   5.953  0.0753 -0.3107  0.2889
 9282SOL    HW139305   1.650   3.287   6.046 -0.3834  0.2147  0.4379
 9282SOL    HW239306   1.736   3.317   5.928 -0.1282 -1.9489 -1.1407
 9283SOL     OW39307   1.109   0.803   2.194 -0.1072 -0.3893 -0.1234
 9283SOL    HW139308   1.077   0.755   2.271  0.9654 -2.2480 -0.8536
 9283SOL    HW239309   1.125   0.733   2.132  0.7941 -2.6327  2.6359
 9284SOL     OW39310   0.536   1.718   3.694 -0.3868 -0.3409  0.2401
 9284SOL    HW139311   0.522   1.626   3.671 -3.0342  0.0250  0.3471
 9284SOL    HW239312   0.629   1.717   3.714 -0.5362  2.3014  1.0251
 9285SOL     OW39313   1.646   4.351   7.089  0.5561  0.4793 -0.1396
 9285SOL    HW139314   1.673   4.313   7.006 -0.3666  1.6843 -0.9916
 9285SOL    HW239315   1.627   4.440   7.059 -0.1607  0.5980  0.6680
 9286SOL     OW39316   0.596   4.160   5.106  0.0069  0.3990 -1.1670
 9286SOL    HW139317   0.641   4.106   5.171 -0.6801  0.3005 -0.7707
 9286SOL    HW239318   0.670   4.219   5.091  0.0791  0.7662  0.6232
 9287SOL     OW39319   0.340   1.908   2.116  0.4694  0.2787 -0.2580
 9287SOL    HW139320   0.411   1.878   2.059 -0.0367 -1.4537  0.0281
 9287SOL    HW239321   0.268   1.879   2.060  1.2766 -2.1538 -0.0407
 9288SOL     OW39322   2.583   2.165   6.991 -0.5003  0.2713 -0.5166
 9288SOL    HW139323   2.580   2.195   7.082  1.7051  2.5826 -1.1941
 9288SOL    HW239324   2.601   2.249   6.949 -1.9703  0.9385  0.2225
 9289SOL     OW39325   2.544   1.606   1.384  0.0449  0.2434 -0.2422
 9289SOL    HW139326   2.534   1.527   1.437 -1.7440  1.5121  1.3214
 9289SOL    HW239327   2.599   1.577   1.311  0.8586  0.0084  0.4574
 9290SOL     OW39328   4.092   3.106   1.168 -0.0370 -0.5428  0.3606
 9290SOL    HW139329   4.134   3.057   1.097  1.8202  0.8022  0.5216
 9290SOL    HW239330   4.001   3.083   1.148  0.4850 -1.1307 -1.3766
 9291SOL     OW39331   0.845   4.415  13.639 -0.4154  0.3861  0.0488
 9291SOL    HW139332   0.781   4.364  13.688 -0.0754 -0.1995 -0.1178
 9291SOL    HW239333   0.795   4.492  13.609  0.1779 -0.5311 -3.2812
 9292SOL     OW39334   4.634   3.135   4.054  0.5158 -0.5266 -0.1391
 9292SOL    HW139335   4.626   3.118   4.148 -0.2308 -2.7496 -0.6081
 9292SOL    HW239336   4.588   3.059   4.020  1.6102 -1.5874  0.7358
 9293SOL     OW39337   1.384   2.514   9.939 -0.0582 -0.2357  0.4365
 9293SOL    HW139338   1.295   2.537   9.968 -0.5520  0.3297 -1.5219
 9293SOL    HW239339   1.417   2.590   9.891 -2.1076 -0.5996 -1.5744
 9294SOL     OW39340   1.598   0.830   5.256  0.2192 -0.3411  0.6908
 9294SOL    HW139341   1.582   0.925   5.251 -1.6081 -0.5805  2.0517
 9294SOL    HW239342   1.661   0.835   5.328 -0.7099 -1.6907  1.6012
 9295SOL     OW39343   1.535   3.956  12.262  0.3698  0.0556 -0.0383
 9295SOL    HW139344   1.541   4.052  12.263  2.0442 -0.0519 -0.4641
 9295SOL    HW239345   1.567   3.937  12.173 -1.5282  1.3393 -1.0031
 9296SOL     OW39346   1.958   2.316   5.790  0.4183 -0.1446 -0.3883
 9296SOL    HW139347   1.921   2.402   5.809  0.3790 -0.0232 -1.0143
 9296SOL    HW239348   2.012   2.345   5.716  0.5501 -0.9677 -0.6133
 9297SOL     OW39349   1.337   1.696   1.770  0.1694  0.7318 -0.3947
 9297SOL    HW139350   1.293   1.739   1.696 -0.7832  0.9736  0.3200
 9297SOL    HW239351   1.356   1.774   1.821  1.3520  0.5472 -0.5330
 9298SOL     OW39352   4.119   1.522   7.713 -0.1302 -0.0332 -0.0630
 9298SOL    HW139353   4.102   1.471   7.792  0.4016  0.9720  0.7031
 9298SOL    HW239354   4.194   1.476   7.675 -1.3779 -2.5608  0.4891
 9299SOL     OW39355   4.103   1.305   0.882  0.0517  0.1155  0.7267
 9299SOL    HW139356   4.083   1.272   0.969  2.6000  0.7426  1.5292
 9299SOL    HW239357   4.149   1.386   0.902  0.8542 -0.2183  0.2514
 9300SOL     OW39358   2.960   1.102   5.047 -0.2329  0.0760 -0.5534
 9300SOL    HW139359   2.902   1.112   5.123 -0.3084 -2.0702 -0.3159
 9300SOL    HW239360   3.012   1.026   5.075 -2.1590 -0.8572  0.4774
 9301SOL     OW39361   1.658   2.354  10.014  0.3292  0.7141  0.3726
 9301SOL    HW139362   1.583   2.382   9.962  1.8466 -1.1713 -2.8403
 9301SOL    HW239363   1.708   2.303   9.950 -2.8463 -0.6894 -1.0096
 9302SOL     OW39364   2.360   2.425  11.824  0.2316 -0.7519 -0.6968
 9302SOL    HW139365   2.335   2.419  11.732 -1.2299  0.4303 -0.3922
 9302SOL    HW239366   2.295   2.484  11.863  0.7420 -1.6693  1.5176
 9303SOL     OW39367   2.772   1.404   2.273  0.2402  0.0788 -0.2846
 9303SOL    HW139368   2.713   1.406   2.197  1.0438 -4.0918 -0.9718
 9303SOL    HW239369   2.800   1.496   2.271 -0.3831  0.2180 -2.9007
 9304SOL     OW39370   0.131   1.200  15.096 -0.4459 -0.1688  0.3154
 9304SOL    HW139371   0.208   1.145  15.113 -0.8764 -0.3193  1.8164
 9304SOL    HW239372   0.179   1.248  15.029 -0.3694 -0.4072  0.1990
 9305SOL     OW39373   4.637   1.765  13.617  0.5572 -0.0735  0.1053
 9305SOL    HW139374   4.648   1.682  13.664  3.6744  0.9948  1.2415
 9305SOL    HW239375   4.581   1.741  13.543 -0.5767 -1.3181  1.3595
 9306SOL     OW39376   0.514   2.773  10.209 -0.2581  0.0494  0.2715
 9306SOL    HW139377   0.480   2.854  10.246  3.1192  1.4446  0.2301
 9306SOL    HW239378   0.435   2.719  10.208  0.4867 -1.0519  0.4350
 9307SOL     OW39379   2.246   0.908   6.222 -0.3249 -1.0310 -0.1416
 9307SOL    HW139380   2.183   0.916   6.294 -0.9568  1.3369 -0.9746
 9307SOL    HW239381   2.286   0.995   6.218  3.0048 -2.7034 -3.3733
 9308SOL     OW39382   1.676   1.758  10.794  0.3621 -0.7985  0.1478
 9308SOL    HW139383   1.685   1.664  10.783 -1.0627 -0.8392 -0.6615
 9308SOL    HW239384   1.645   1.779  10.706  1.5394 -2.1867 -0.5941
 9309SOL     OW39385   2.951   2.118   1.801  0.1945 -0.2521 -0.1018
 9309SOL    HW139386   2.871   2.071   1.779 -1.0277  1.4568  0.6885
 9309SOL    HW239387   2.951   2.185   1.733 -0.7422 -0.0249  0.1204
 9310SOL     OW39388   1.848   3.233   2.205 -0.5076  0.3020 -0.1608
 9310SOL    HW139389   1.870   3.167   2.270 -2.8875  1.7166  2.0910
 9310SOL    HW239390   1.907   3.205   2.135 -0.6888  0.3968 -0.3528
 9311SOL     OW39391   1.433   1.345   0.897  0.5401 -0.1867 -0.2050
 9311SOL    HW139392   1.361   1.328   0.957  0.6485  0.3754  0.0925
 9311SOL    HW239393   1.491   1.270   0.905  3.7573  2.2522 -0.5539
 9312SOL     OW39394   2.835   0.772   8.310 -0.7691  0.1013 -0.5859
 9312SOL    HW139395   2.880   0.720   8.244  0.4692  0.3671  0.0577
 9312SOL    HW239396   2.848   0.722   8.391  2.6845  0.8538 -0.6697
 9313SOL     OW39397   0.001   1.369   2.895 -0.1120 -0.5071 -0.1586
 9313SOL    HW139398   0.017   1.391   2.987 -0.6299 -0.4835 -0.0751
 9313SOL    HW239399   4.679   1.440   2.851  2.3256  0.5622 -1.0536
 9314SOL     OW39400   1.064   4.242   6.956  0.5434  0.6479  0.3330
 9314SOL    HW139401   1.102   4.250   7.044 -0.6718  0.5710  0.8648
 9314SOL    HW239402   0.975   4.266   6.983  0.3064  1.5763 -1.2707
 9315SOL     OW39403   0.691   1.688   4.506  0.0342 -0.0830  0.6281
 9315SOL    HW139404   0.757   1.630   4.468  0.4804 -0.1913  1.5722
 9315SOL    HW239405   0.642   1.632   4.566  1.3217 -2.1796 -0.2783
 9316SOL     OW39406   1.260   4.630  13.316 -0.0868 -0.2436 -0.0061
 9316SOL    HW139407   1.179   4.616  13.365 -0.5839  1.2023 -0.4083
 9316SOL    HW239408   1.320   4.644  13.389  0.0698 -1.4463  0.0992
 9317SOL     OW39409   0.766   4.094   7.847 -0.0831 -0.0135 -0.2522
 9317SOL    HW139410   0.769   4.160   7.916 -2.1030  0.1067 -0.3001
 9317SOL    HW239411   0.681   4.061   7.875 -0.5297  0.1860 -1.3647
 9318SOL     OW39412   0.635   4.009   1.536  0.4094  0.5957  0.2688
 9318SOL    HW139413   0.638   3.942   1.468 -0.0722  0.8177  0.0267
 9318SOL    HW239414   0.566   4.061   1.495 -0.5969 -1.2663 -0.3817
 9319SOL     OW39415   2.651   2.857   4.358 -0.5615  0.7954  0.1406
 9319SOL    HW139416   2.697   2.788   4.310  0.8551  1.0378  1.1364
 9319SOL    HW239417   2.603   2.905   4.290 -2.9759 -2.6875 -0.6120
 9320SOL     OW39418   0.957   2.646   2.453 -0.2077 -0.4144  0.1376
 9320SOL    HW139419   0.918   2.576   2.504  0.1191 -0.2956  0.5523
 9320SOL    HW239420   0.988   2.591   2.381 -0.1820  0.7942 -0.7686
 9321SOL     OW39421   4.137   1.200   4.187 -0.0098 -0.1355  0.5768
 9321SOL    HW139422   4.134   1.296   4.188  0.0988 -0.1268 -0.1220
 9321SOL    HW239423   4.171   1.172   4.272  0.3757  0.9148  0.7653
 9322SOL     OW39424   0.244   2.066   5.569  0.0721  0.1557 -0.6360
 9322SOL    HW139425   0.164   2.067   5.516  0.3066  0.8914 -0.9698
 9322SOL    HW239426   0.239   2.150   5.614  0.4990  0.7823 -1.7469
 9323SOL     OW39427   1.069   3.781   4.138  0.2975  0.3937  0.5408
 9323SOL    HW139428   1.009   3.724   4.092 -0.5884  0.8311  1.1569
 9323SOL    HW239429   1.058   3.864   4.091 -3.1010  0.6716  1.8431
 9324SOL     OW39430   3.032   3.050  12.359  0.1420  0.0108 -0.1372
 9324SOL    HW139431   2.957   3.081  12.410  0.7234  0.1406  0.6452
 9324SOL    HW239432   3.085   3.010  12.428 -0.8544  2.1437  1.8744
 9325SOL     OW39433   3.676   2.155  12.490  0.2292 -0.1986 -0.3397
 9325SOL    HW139434   3.686   2.225  12.554 -2.4225  0.5571 -0.7303
 9325SOL    HW239435   3.686   2.078  12.545 -1.0221 -0.1076  0.0151
 9326SOL     OW39436   1.312   4.229   2.056 -0.9854  0.9221  0.6198
 9326SOL    HW139437   1.370   4.301   2.080  1.8735 -1.0136 -0.5251
 9326SOL    HW239438   1.361   4.174   1.995  0.1730  2.1682  0.4271
 9327SOL     OW39439   0.261   4.543   7.638 -0.1094 -0.4162 -0.3989
 9327SOL    HW139440   0.353   4.532   7.663 -0.0794  0.6823 -0.0234
 9327SOL    HW239441   0.247   4.463   7.587 -1.4054 -0.2390 -0.3330
 9328SOL     OW39442   2.218   4.481   4.739  0.8668  0.3116 -0.4041
 9328SOL    HW139443   2.193   4.571   4.760  0.8772  0.1667  0.2117
 9328SOL    HW239444   2.152   4.431   4.786  0.1334  2.6377  1.0262
 9329SOL     OW39445   1.808   0.806   8.128  0.9907 -0.4467  0.6553
 9329SOL    HW139446   1.867   0.731   8.124  0.9602 -0.4604  0.4573
 9329SOL    HW239447   1.881   0.866   8.143 -1.3616  2.7778 -0.7121
 9330SOL     OW39448   1.839   0.867  10.346  0.1357 -0.8094  0.1704
 9330SOL    HW139449   1.911   0.803  10.348  1.4112  0.5948 -1.2135
 9330SOL    HW239450   1.820   0.872  10.253  3.5717 -1.0272 -0.5409
 9331SOL     OW39451   2.353   2.330   7.094 -0.4717  0.7151  0.4853
 9331SOL    HW139452   2.308   2.254   7.130  0.5690  0.9524  2.2742
 9331SOL    HW239453   2.410   2.333   7.171  2.4651  0.4479 -1.6777
 9332SOL     OW39454   4.023   2.050   4.486  0.4205 -0.4309  0.3108
 9332SOL    HW139455   4.077   1.984   4.528 -0.3293 -1.4480 -0.3123
 9332SOL    HW239456   3.979   2.006   4.413 -1.2970 -0.5445  1.4010
 9333SOL     OW39457   4.098   3.951   7.562 -0.2995  0.3013  0.2475
 9333SOL    HW139458   4.117   3.891   7.634  0.2081 -0.9335 -0.9309
 9333SOL    HW239459   4.182   3.951   7.517 -0.5311 -0.0672 -0.1796
 9334SOL     OW39460   3.625   4.294   3.687  0.5507  0.7275 -0.1710
 9334SOL    HW139461   3.558   4.293   3.755 -1.0906 -0.9059 -1.7757
 9334SOL    HW239462   3.627   4.387   3.666  0.9918  0.7869  0.1571
 9335SOL     OW39463   1.725   0.993   8.466  0.1878  0.4639  0.3363
 9335SOL    HW139464   1.717   0.921   8.529  0.1150  1.0560  1.0065
 9335SOL    HW239465   1.821   0.996   8.461  0.0033  2.1841 -1.8123
 9336SOL     OW39466   3.305   3.334   4.279 -0.2929 -0.0365 -0.2746
 9336SOL    HW139467   3.263   3.292   4.354 -0.1848  0.4836  0.0770
 9336SOL    HW239468   3.394   3.300   4.277 -1.0294 -1.9921 -0.4176
 9337SOL     OW39469   2.149   1.961   6.923  0.3988  0.1902 -0.1544
 9337SOL    HW139470   2.115   1.896   6.861  1.3789 -1.3013  0.8901
 9337SOL    HW239471   2.069   2.013   6.933  0.8256  0.4048  2.0075
 9338SOL     OW39472   0.021   2.037   4.334 -0.1134 -0.1286 -0.6690
 9338SOL    HW139473   0.116   2.028   4.345 -0.2622 -1.0382 -0.1337
 9338SOL    HW239474   0.007   2.009   4.243  2.4851  0.5973 -1.2998
 9339SOL     OW39475   0.930   2.150   9.901 -0.7815 -0.6543  0.1285
 9339SOL    HW139476   0.899   2.240   9.913 -2.5983 -1.0176 -1.9100
 9339SOL    HW239477   0.893   2.115   9.982 -0.3958 -1.5271 -0.0800
 9340SOL     OW39478   4.110   1.287  16.837 -0.8998 -0.2090  0.2068
 9340SOL    HW139479   4.195   1.286  16.881 -0.4584 -0.8444 -0.6645
 9340SOL    HW239480   4.061   1.229  16.896 -0.6459 -0.0924  0.5369
 9341SOL     OW39481   3.601   2.422  14.179  0.0852 -0.4200  0.3539
 9341SOL    HW139482   3.689   2.458  14.178 -0.3313  0.6343  1.1613
 9341SOL    HW239483   3.583   2.415  14.273  0.7920  0.5855  0.5726
 9342SOL     OW39484   0.856   1.684   7.840  0.0164  0.2563 -0.2331
 9342SOL    HW139485   0.782   1.745   7.851  1.2631  1.5049  1.3967
 9342SOL    HW239486   0.846   1.670   7.746 -0.5623 -0.0422 -0.1239
 9343SOL     OW39487   3.466   3.140  10.805  0.0285  0.7747  0.1637
 9343SOL    HW139488   3.533   3.086  10.763 -0.3150  0.9293 -0.5682
 9343SOL    HW239489   3.519   3.216  10.830  1.1606  0.0325  0.0043
 9344SOL     OW39490   0.485   2.245   1.739 -0.0391  0.2273 -0.1238
 9344SOL    HW139491   0.475   2.340   1.730 -0.4053  0.1057 -0.9956
 9344SOL    HW239492   0.442   2.213   1.659  1.1882 -1.3075 -0.1671
 9345SOL     OW39493   1.752   2.779  12.941  0.3028 -0.0805  0.0795
 9345SOL    HW139494   1.658   2.798  12.934  0.3520 -0.0838 -0.5888
 9345SOL    HW239495   1.755   2.785  13.036  0.6582  0.4140  0.0350
 9346SOL     OW39496   3.879   3.016  14.707  0.5403 -0.0102  0.0685
 9346SOL    HW139497   3.841   3.010  14.619  1.5228 -2.6496 -0.1418
 9346SOL    HW239498   3.896   2.926  14.735 -2.0758 -0.4147  0.3477
 9347SOL     OW39499   0.457   2.688   6.265  0.0340 -0.6316  0.9316
 9347SOL    HW139500   0.454   2.770   6.313  0.1099  0.0034 -0.1593
 9347SOL    HW239501   0.399   2.698   6.190  0.3274  1.4912  1.0075
 9348SOL     OW39502   0.524   2.128   7.962  0.5127  0.6121 -0.3799
 9348SOL    HW139503   0.580   2.061   8.000 -0.4699 -0.3723 -0.6710
 9348SOL    HW239504   0.566   2.197   8.014 -0.1228  0.0851  0.8319
 9349SOL     OW39505   3.121   1.134  10.541  0.5670 -0.0864  0.1639
 9349SOL    HW139506   3.042   1.188  10.545  1.1312  0.7115  0.5677
 9349SOL    HW239507   3.105   1.085  10.460  2.6211 -0.3019 -0.1057
 9350SOL     OW39508   0.401   0.176   3.915 -0.2848 -0.5807 -0.2631
 9350SOL    HW139509   0.398   0.245   3.849  3.2670  0.1322  0.3198
 9350SOL    HW239510   0.490   0.202   3.942 -0.8410  3.1064 -1.9633
 9351SOL     OW39511   3.013   1.763   7.786 -0.6402 -0.4498  0.2015
 9351SOL    HW139512   3.009   1.787   7.879 -2.1596 -0.2963  0.0890
 9351SOL    HW239513   3.079   1.827   7.758 -1.6998 -0.4213 -2.1641
 9352SOL     OW39514   2.169   2.089   0.675  0.3917  0.5879  0.2404
 9352SOL    HW139515   2.255   2.061   0.644 -0.2819  1.6005 -2.5313
 9352SOL    HW239516   2.128   2.002   0.668  0.9314  0.2193  1.6160
 9353SOL     OW39517   1.754   2.569   9.565 -0.2166  0.2656  0.1343
 9353SOL    HW139518   1.766   2.476   9.586 -1.2290  0.6040  2.2328
 9353SOL    HW239519   1.677   2.575   9.510 -0.7995  1.0300  1.0304
 9354SOL     OW39520   2.547   3.353  12.430  0.0635 -0.2497 -0.4351
 9354SOL    HW139521   2.609   3.349  12.503  1.8579 -1.9296 -2.0607
 9354SOL    HW239522   2.459   3.339  12.466 -0.1152 -0.5979 -1.0091
 9355SOL     OW39523   4.694   2.651  13.272  0.0535  0.0267  0.1416
 9355SOL    HW139524   4.654   2.723  13.223  1.4606 -0.5586 -1.8818
 9355SOL    HW239525   0.050   2.695  13.298  0.8716 -0.2903 -1.8564
 9356SOL     OW39526   0.545   3.371   6.738 -0.1233 -0.4684  0.2134
 9356SOL    HW139527   0.548   3.426   6.660 -1.8567  0.2479  0.6594
 9356SOL    HW239528   0.635   3.387   6.768 -0.8970  1.3670  1.5444
 9357SOL     OW39529   0.184   0.207   7.802  0.3919  0.0801  0.3385
 9357SOL    HW139530   0.175   0.191   7.896  0.4879 -1.2695  0.1131
 9357SOL    HW239531   0.130   0.134   7.772  1.8324 -0.0760 -1.8119
 9358SOL     OW39532   3.968   3.648  16.418 -0.2426 -0.3096 -0.4175
 9358SOL    HW139533   3.981   3.704  16.494  0.4162 -0.0166 -0.7531
 9358SOL    HW239534   3.928   3.571  16.458  0.0860 -0.0158  0.4786
 9359SOL     OW39535   2.188   0.122  16.237  0.0129  0.1375 -0.4416
 9359SOL    HW139536   2.147   0.040  16.209 -0.4037  0.4403 -0.7292
 9359SOL    HW239537   2.280   0.102  16.221  0.0515 -0.8927  1.0490
 9360SOL     OW39538   2.504   3.121   6.997 -0.2671 -0.0311 -0.0885
 9360SOL    HW139539   2.565   3.056   7.031 -0.2435  0.0756  0.0707
 9360SOL    HW239540   2.510   3.106   6.903 -0.5235 -0.4588 -0.0383
 9361SOL     OW39541   0.046   2.955   8.399 -0.2799 -0.0392  0.5446
 9361SOL    HW139542   0.136   2.923   8.392  0.7109  2.9518 -0.3795
 9361SOL    HW239543   0.051   3.007   8.480  1.3389  0.0251  0.4134
 9362SOL     OW39544   1.718   3.845   9.625  0.1283  0.4176 -0.6024
 9362SOL    HW139545   1.701   3.763   9.670 -1.3681  0.0248 -1.8890
 9362SOL    HW239546   1.632   3.887   9.623  1.4631  3.1148 -1.9611
 9363SOL     OW39547   1.167   4.217   8.542 -0.1930  0.7315  0.2018
 9363SOL    HW139548   1.195   4.308   8.557 -0.9073  1.0367 -0.3141
 9363SOL    HW239549   1.249   4.190   8.500  0.0755  2.7293 -0.5835
 9364SOL     OW39550   4.152   1.518   2.544  0.3498 -0.3625  0.1365
 9364SOL    HW139551   4.060   1.512   2.568  0.5433 -1.3789  0.5940
 9364SOL    HW239552   4.155   1.477   2.457  1.0720  0.1984 -0.1064
 9365SOL     OW39553   3.852   3.462   7.442 -0.4356 -0.3244  0.4756
 9365SOL    HW139554   3.925   3.522   7.459 -0.3146 -0.1470 -0.6809
 9365SOL    HW239555   3.904   3.381   7.442  1.1336  0.6771 -0.7305
 9366SOL     OW39556   4.243   3.285  11.985 -0.8143  0.2140  0.6359
 9366SOL    HW139557   4.260   3.227  11.910  1.0059 -1.4873  2.3954
 9366SOL    HW239558   4.156   3.263  12.016 -1.7965  2.4870 -0.4652
 9367SOL     OW39559   2.265   0.378   8.983  0.4880  0.0414 -0.1936
 9367SOL    HW139560   2.241   0.444   8.918  0.0523  0.6044  0.5425
 9367SOL    HW239561   2.282   0.299   8.931  1.9706 -0.8710  1.6571
 9368SOL     OW39562   1.111   2.643   4.326  0.5389 -0.7821 -0.0367
 9368SOL    HW139563   1.021   2.634   4.293  0.5197  2.3550 -0.8138
 9368SOL    HW239564   1.095   2.595   4.408 -0.3568 -1.9143 -0.8615
 9369SOL     OW39565   0.642   0.811   5.583 -0.6194  0.1289  0.3842
 9369SOL    HW139566   0.728   0.849   5.567 -0.6651 -0.1918 -0.6559
 9369SOL    HW239567   0.663   0.720   5.607  0.8395  0.6018  0.8683
 9370SOL     OW39568   0.869   3.562   4.642 -0.7904 -0.6071 -0.6417
 9370SOL    HW139569   0.936   3.507   4.682  0.1455  0.9268 -0.1253
 9370SOL    HW239570   0.913   3.593   4.563 -0.4569 -0.9257 -0.5827
 9371SOL     OW39571   0.161   0.297   3.307 -0.2781  0.0685  0.2996
 9371SOL    HW139572   0.253   0.320   3.312 -0.3411  0.2696  0.5048
 9371SOL    HW239573   0.164   0.216   3.256 -0.4215  0.4044 -0.2545
 9372SOL     OW39574   3.862   1.636   1.687 -0.1096  0.2997  0.6141
 9372SOL    HW139575   3.837   1.559   1.739  0.7391  0.0725  0.6868
 9372SOL    HW239576   3.859   1.702   1.757 -0.1318  1.6948 -0.7097
 9373SOL     OW39577   3.623   4.389  12.476 -0.0171 -0.1389  0.5324
 9373SOL    HW139578   3.712   4.421  12.484 -0.2486  0.0035  2.7819
 9373SOL    HW239579   3.620   4.332  12.553  0.1299  1.0801  1.4363
 9374SOL     OW39580   1.869   1.532   9.770  0.0693 -0.3339  0.1944
 9374SOL    HW139581   1.792   1.492   9.729 -1.4364  1.8459  0.8495
 9374SOL    HW239582   1.890   1.456   9.823  0.7735  0.1434  0.5939
 9375SOL     OW39583   0.131   1.872   3.548 -0.3063  0.3757  0.0444
 9375SOL    HW139584   0.142   1.789   3.593 -0.8394  0.6806  0.7433
 9375SOL    HW239585   0.036   1.887   3.551 -0.6221 -1.6399 -0.1067
 9376SOL     OW39586   0.697   0.477  15.818 -0.5135  0.1537  0.1523
 9376SOL    HW139587   0.615   0.464  15.771  0.6079 -1.0950 -1.4368
 9376SOL    HW239588   0.671   0.539  15.887 -4.9702 -0.0182 -1.4248
 9377SOL     OW39589   0.127   1.024   4.951 -0.5399  0.3917  0.2832
 9377SOL    HW139590   0.196   1.045   5.013 -1.9069  1.0654  1.5877
 9377SOL    HW239591   0.132   0.929   4.951  0.5308  0.4449  0.4339
 9378SOL     OW39592   1.083   1.548   6.319  0.6525 -0.0492  0.0367
 9378SOL    HW139593   0.995   1.537   6.355 -0.3119  1.2654 -1.9195
 9378SOL    HW239594   1.111   1.459   6.301 -1.1177 -0.8870  1.3768
 9379SOL     OW39595   3.513   2.162   5.382  0.3403  0.1825 -0.4513
 9379SOL    HW139596   3.494   2.068   5.374 -0.0377  0.3127 -1.1851
 9379SOL    HW239597   3.574   2.166   5.309  0.8619  1.8792  0.0793
 9380SOL     OW39598   4.553   1.739   5.180  0.0784 -0.7967 -0.0414
 9380SOL    HW139599   4.509   1.655   5.190  0.0467 -0.7770 -0.0173
 9380SOL    HW239600   4.484   1.801   5.154 -0.1922 -0.3396  1.7788
 9381SOL     OW39601   4.432   1.467   8.937  0.1356 -0.3855  0.0713
 9381SOL    HW139602   4.517   1.505   8.915  0.0974  0.0441  0.6473
 9381SOL    HW239603   4.463   1.402   9.000  3.8289  0.4666 -0.8717
 9382SOL     OW39604   2.879   0.429   7.418 -0.0709  0.2484  0.6583
 9382SOL    HW139605   2.892   0.363   7.350 -0.3226  0.1832  0.6712
 9382SOL    HW239606   2.902   0.506   7.366  1.1107  0.8130  2.0037
 9383SOL     OW39607   0.271   3.742   4.483  0.1211 -0.2879  0.1364
 9383SOL    HW139608   0.278   3.753   4.577  3.7215 -1.3476  0.0046
 9383SOL    HW239609   0.192   3.789   4.456  0.9727  0.6036 -0.8071
 9384SOL     OW39610   4.375   2.068   2.618 -0.0364  0.7163  0.3874
 9384SOL    HW139611   4.470   2.073   2.617 -0.0507  0.7145 -1.1204
 9384SOL    HW239612   4.370   2.059   2.523 -0.6465 -0.2339  0.5061
 9385SOL     OW39613   2.081   0.890   6.461 -0.4470 -0.1573 -0.1880
 9385SOL    HW139614   2.025   0.816   6.486  1.1468 -1.4837 -0.5764
 9385SOL    HW239615   2.128   0.904   6.543  1.6085 -0.5178 -1.3330
 9386SOL     OW39616   3.903   0.108   2.897 -0.2516  0.0394 -0.1118
 9386SOL    HW139617   3.898   0.175   2.829 -1.9186 -0.3422 -0.3530
 9386SOL    HW239618   3.916   0.163   2.974  0.8565 -0.5537  0.1365
 9387SOL     OW39619   3.058   4.530   8.803  0.0857 -0.2446 -0.1360
 9387SOL    HW139620   3.064   4.622   8.830 -0.3302  0.2586 -1.7540
 9387SOL    HW239621   2.982   4.496   8.850 -1.5702 -1.7667 -3.8846
 9388SOL     OW39622   0.774   3.142   0.363  0.4084  0.0084  0.1429
 9388SOL    HW139623   0.842   3.208   0.347  0.2683  0.3682  1.0404
 9388SOL    HW239624   0.706   3.204   0.389 -0.9038 -0.7089 -1.5784
 9389SOL     OW39625   0.736   4.311   7.313 -0.1347 -0.2853  0.0312
 9389SOL    HW139626   0.641   4.296   7.315  0.0418 -1.7300 -2.5725
 9389SOL    HW239627   0.772   4.261   7.386  1.0199 -0.2886 -0.5424
 9390SOL     OW39628   2.639   0.973   6.490  0.1308  0.1383  0.1298
 9390SOL    HW139629   2.721   1.020   6.506 -0.4715  1.3752 -0.3477
 9390SOL    HW239630   2.653   0.900   6.550 -0.0427 -0.8932 -1.0789
 9391SOL     OW39631   1.517   0.066  15.891 -0.1363 -0.2299  0.2082
 9391SOL    HW139632   1.600   0.019  15.878 -1.1158 -1.3756 -1.8291
 9391SOL    HW239633   1.542   0.137  15.832 -2.7375  0.1434 -0.4470
 9392SOL     OW39634   2.655   2.494   5.964  0.5663 -0.1027 -0.5184
 9392SOL    HW139635   2.681   2.448   6.043 -1.8363 -1.6820 -0.6574
 9392SOL    HW239636   2.641   2.421   5.904  1.6406 -0.9931  0.3359
 9393SOL     OW39637   1.754   2.627  15.835  0.4562 -0.3595  0.5554
 9393SOL    HW139638   1.842   2.599  15.808  0.4660  0.0605  0.1539
 9393SOL    HW239639   1.721   2.543  15.864 -1.1094 -1.0758 -3.2641
 9394SOL     OW39640   2.983   3.895   1.321 -0.1402  0.5690  0.1053
 9394SOL    HW139641   2.948   3.832   1.383 -2.6168  0.9830 -0.8656
 9394SOL    HW239642   2.903   3.948   1.312 -1.1193 -0.9965 -0.3259
 9395SOL     OW39643   1.600   4.274   2.066 -0.3566  0.4401 -0.1578
 9395SOL    HW139644   1.678   4.287   2.119 -1.0109 -0.9950  1.1609
 9395SOL    HW239645   1.564   4.215   2.133  0.4283 -0.3138 -0.3928
 9396SOL     OW39646   0.804   3.898   8.429 -0.3016 -0.1790 -0.7096
 9396SOL    HW139647   0.742   3.894   8.357 -0.6144 -0.1447 -0.4434
 9396SOL    HW239648   0.751   3.867   8.502  0.2455  1.6455  0.4865
 9397SOL     OW39649   2.073   2.572   7.455 -0.3339 -0.1671 -0.1359
 9397SOL    HW139650   2.082   2.626   7.377 -0.5196 -0.7525 -0.5613
 9397SOL    HW239651   2.105   2.487   7.428 -0.0807 -0.2385  0.3912
 9398SOL     OW39652   3.004   0.654   1.241  0.2788 -0.5269 -0.2439
 9398SOL    HW139653   2.962   0.726   1.288 -0.1429 -1.2839  0.5397
 9398SOL    HW239654   2.929   0.609   1.203 -1.3523 -0.2548  2.6080
 9399SOL     OW39655   3.502   2.228  16.228 -0.3738  0.2813  0.0772
 9399SOL    HW139656   3.550   2.204  16.149 -1.9591 -2.0300 -0.1792
 9399SOL    HW239657   3.429   2.168  16.210 -1.3253  2.1135 -2.2044
 9400SOL     OW39658   4.105   3.688  16.879  0.5536  0.0551  0.5263
 9400SOL    HW139659   4.066   3.656  16.961  1.4933  2.3593  1.8693
 9400SOL    HW239660   4.156   3.611  16.854 -0.9222 -0.3723 -1.2243
 9401SOL     OW39661   0.960   4.342   6.686  0.0481  0.2374 -0.6061
 9401SOL    HW139662   0.976   4.356   6.779  1.1038 -2.9554 -0.2897
 9401SOL    HW239663   0.879   4.393   6.675 -0.7954 -1.1688 -1.0247
 9402SOL     OW39664   0.965   4.282   5.366 -0.3811 -0.6130 -0.9294
 9402SOL    HW139665   0.999   4.372   5.372 -0.7358 -0.6485  1.4610
 9402SOL    HW239666   0.874   4.311   5.363 -0.4424 -0.7223 -0.1051
 9403SOL     OW39667   3.240   2.229   8.278 -0.2073 -0.1841  0.3632
 9403SOL    HW139668   3.237   2.146   8.326  1.8989 -0.3291  0.2544
 9403SOL    HW239669   3.333   2.249   8.276 -0.7465  2.1832 -1.0249
 9404SOL     OW39670   3.658   0.493   6.860 -0.2501 -0.2354  0.6307
 9404SOL    HW139671   3.609   0.569   6.891 -0.8494 -0.7149  0.8408
 9404SOL    HW239672   3.587   0.429   6.858 -1.1732  0.7435  1.9891
 9405SOL     OW39673   0.186   1.692   6.978 -0.2194  0.1892  0.1136
 9405SOL    HW139674   0.260   1.697   7.038  1.9427  0.1020 -2.5187
 9405SOL    HW239675   0.129   1.629   7.022  0.7641 -2.0979 -1.8504
 9406SOL     OW39676   2.518   0.654   3.221 -0.2947 -0.6427 -0.0846
 9406SOL    HW139677   2.569   0.591   3.272  0.3534 -1.2271 -1.4551
 9406SOL    HW239678   2.462   0.684   3.292 -0.4634 -0.0014 -0.4917
 9407SOL     OW39679   3.413   4.424   1.386  0.0523  0.4446  0.2080
 9407SOL    HW139680   3.418   4.519   1.394  1.0498  0.4767 -0.6500
 9407SOL    HW239681   3.329   4.398   1.424 -0.4391  2.0494  0.2143
 9408SOL     OW39682   1.093   3.136  14.925 -0.2267  0.0936  0.1432
 9408SOL    HW139683   1.017   3.153  14.869 -0.4514 -0.2982  0.3313
 9408SOL    HW239684   1.159   3.101  14.865  1.3904  2.7034  0.3725
 9409SOL     OW39685   0.330   2.400  16.113  0.0889 -0.2114  0.8539
 9409SOL    HW139686   0.423   2.382  16.100  0.3104  1.2203  0.4548
 9409SOL    HW239687   0.299   2.402  16.023 -0.2682  0.0724  0.9856
 9410SOL     OW39688   2.355   1.164   2.800 -0.2443  0.8015  0.4230
 9410SOL    HW139689   2.299   1.233   2.766 -2.7289 -1.2237  0.3749
 9410SOL    HW239690   2.437   1.211   2.789 -0.3190  0.6709 -0.6695
 9411SOL     OW39691   0.891   3.989  11.682 -0.0483  0.2325 -0.6835
 9411SOL    HW139692   0.856   3.904  11.708 -1.2675  0.7957 -0.4627
 9411SOL    HW239693   0.815   4.047  11.672 -1.9198 -1.8169  1.7593
 9412SOL     OW39694   4.293   1.794   6.243 -0.7460 -0.0378  0.2253
 9412SOL    HW139695   4.322   1.792   6.152  0.7481 -2.9631  0.7470
 9412SOL    HW239696   4.315   1.703   6.265 -1.7926 -0.4942 -0.6346
 9413SOL     OW39697   0.511   1.150   1.701  0.2493 -0.3934 -0.4642
 9413SOL    HW139698   0.515   1.079   1.765 -3.3696  0.8065  1.0643
 9413SOL    HW239699   0.534   1.227   1.753  0.8190 -0.2621 -0.9093
 9414SOL     OW39700   3.085   0.862   2.108 -0.2605 -0.3015  0.2194
 9414SOL    HW139701   3.124   0.949   2.118 -1.7136  0.3123  0.4905
 9414SOL    HW239702   3.001   0.899   2.083  0.5238  0.0463 -1.8960
 9415SOL     OW39703   3.505   1.181   3.290 -0.4873 -0.0236  0.7179
 9415SOL    HW139704   3.429   1.135   3.326 -2.8836  1.1766 -2.8763
 9415SOL    HW239705   3.530   1.217   3.375 -1.6304 -0.5550  1.2821
 9416SOL     OW39706   3.495   3.918   4.589  0.1382 -0.1652  0.0628
 9416SOL    HW139707   3.434   3.890   4.521 -0.6953 -1.5147  1.3490
 9416SOL    HW239708   3.437   3.969   4.645 -0.5173  0.0504 -0.8138
 9417SOL     OW39709   1.172   2.782   5.818 -0.6948 -0.1118 -0.0279
 9417SOL    HW139710   1.111   2.714   5.848 -0.8668 -0.1031 -0.3652
 9417SOL    HW239711   1.190   2.820   5.904  0.4995  2.0783 -1.2451
 9418SOL     OW39712   0.764   3.866   8.727  0.0324  0.2775 -0.3512
 9418SOL    HW139713   0.851   3.827   8.739 -0.2460 -0.2691 -0.0872
 9418SOL    HW239714   0.786   3.959   8.721 -4.0764  1.3260  0.8847
 9419SOL     OW39715   2.023   0.822   9.331  0.0474 -0.5530 -0.5098
 9419SOL    HW139716   2.065   0.863   9.407  0.5436 -1.6898 -0.1775
 9419SOL    HW239717   1.936   0.808   9.369  0.1847 -1.7405 -0.6322
 9420SOL     OW39718   3.376   2.340   7.761 -0.2928 -0.1118  0.0411
 9420SOL    HW139719   3.416   2.287   7.830  3.6219  2.3904 -0.3022
 9420SOL    HW239720   3.331   2.411   7.806 -0.8594  0.4463 -1.3994
 9421SOL     OW39721   4.180   2.376   9.792 -0.5321  0.5495 -0.2458
 9421SOL    HW139722   4.257   2.407   9.840 -2.0900  2.2298  1.1548
 9421SOL    HW239723   4.216   2.349   9.708 -3.4789  0.8685 -1.5800
 9422SOL     OW39724   4.037   0.926   3.897  0.5383  0.0856 -0.1729
 9422SOL    HW139725   4.021   0.973   3.978  1.7517  0.7293 -0.3111
 9422SOL    HW239726   3.972   0.967   3.839  1.0513 -0.4105 -1.1027
 9423SOL     OW39727   2.311   3.458   7.074  0.1004 -0.3620  0.0032
 9423SOL    HW139728   2.270   3.375   7.052  0.8780 -1.3521  2.2605
 9423SOL    HW239729   2.265   3.468   7.158  0.8005  2.6111  0.0482
 9424SOL     OW39730   1.896   3.196   5.692 -0.2149 -0.1778 -0.0997
 9424SOL    HW139731   1.852   3.279   5.673 -0.9973 -0.3227  1.1355
 9424SOL    HW239732   1.825   3.133   5.707  1.1042 -1.1587  1.8507
 9425SOL     OW39733   2.056   2.223   3.983 -0.3313  0.5579 -0.1030
 9425SOL    HW139734   1.961   2.222   3.996 -0.5117  2.2813 -1.2936
 9425SOL    HW239735   2.070   2.253   3.893  0.8406  2.9924  0.8962
 9426SOL     OW39736   1.252   3.305  16.098 -0.5647  0.1170 -0.2341
 9426SOL    HW139737   1.317   3.360  16.143 -0.2130 -1.9820  1.7911
 9426SOL    HW239738   1.194   3.372  16.061  0.9332  0.9141 -1.1234
 9427SOL     OW39739   2.982   4.667   4.830 -0.5347  0.3190  0.5649
 9427SOL    HW139740   3.016   4.702   4.747 -2.3854 -0.8230 -0.6974
 9427SOL    HW239741   3.058   4.656   4.887  2.6744 -0.7522 -3.9087
 9428SOL     OW39742   0.854   3.219   3.710  0.0771  0.7491 -0.3645
 9428SOL    HW139743   0.812   3.243   3.627 -0.8131  3.3663  0.8344
 9428SOL    HW239744   0.917   3.290   3.720  1.8117 -0.7028 -0.9302
 9429SOL     OW39745   2.299   1.103   5.151  0.7732 -0.2614  0.4938
 9429SOL    HW139746   2.317   1.015   5.184 -0.1896  0.1834  2.2244
 9429SOL    HW239747   2.212   1.085   5.115  0.0055 -0.2680  2.3782
 9430SOL     OW39748   0.076   2.203  10.793 -0.9444 -0.6604  0.6279
 9430SOL    HW139749   0.116   2.287  10.815  1.7097 -1.6701 -0.3758
 9430SOL    HW239750   0.158   2.160  10.772 -1.5383 -1.6466  0.3311
 9431SOL     OW39751   1.535   4.059   6.601 -0.1368 -0.3290 -0.1923
 9431SOL    HW139752   1.594   4.022   6.535 -1.4481 -0.6079 -1.2089
 9431SOL    HW239753   1.512   3.979   6.647  0.7171 -0.5568 -0.1605
 9432SOL     OW39754   0.336   1.896   8.322 -1.0093 -0.2629  0.4332
 9432SOL    HW139755   0.404   1.850   8.371 -0.5034 -1.5392 -1.4408
 9432SOL    HW239756   0.358   1.845   8.243 -1.6105 -0.8166  0.6258
 9433SOL     OW39757   4.051   0.216  11.711 -0.7287 -0.3962 -0.1213
 9433SOL    HW139758   4.061   0.206  11.616 -1.6849  2.6860 -0.5339
 9433SOL    HW239759   4.042   0.311  11.711  2.3501 -0.0913 -1.3256
 9434SOL     OW39760   0.142   2.238   2.381  0.1592 -0.2052  0.0060
 9434SOL    HW139761   0.057   2.217   2.342  0.2790  0.2567 -0.5049
 9434SOL    HW239762   0.111   2.237   2.471  2.9857  2.3356  0.9947
 9435SOL     OW39763   4.147   0.802  12.881 -0.0611  0.0693  0.6052
 9435SOL    HW139764   4.169   0.799  12.974  3.2776 -1.5489 -0.2340
 9435SOL    HW239765   4.235   0.814  12.844  0.8216  1.5061  3.1749
 9436SOL     OW39766   2.485   4.037  16.931  0.2852 -0.0975 -0.9778
 9436SOL    HW139767   2.442   3.966  16.883 -1.2416 -2.3271  3.6465
 9436SOL    HW239768   2.573   4.037  16.893  0.7318  0.9595  0.0456
 9437SOL     OW39769   2.343   2.461   5.122  0.3060  0.0357 -0.2227
 9437SOL    HW139770   2.387   2.529   5.171 -0.1444  0.4841 -0.4406
 9437SOL    HW239771   2.411   2.444   5.057 -1.1181 -1.0802 -1.4223
 9438SOL     OW39772   1.693   2.811   2.481 -0.0679 -0.2257  0.0181
 9438SOL    HW139773   1.770   2.805   2.538  0.2987  0.8014 -0.3661
 9438SOL    HW239774   1.676   2.720   2.457  0.8161 -0.4479  0.2340
 9439SOL     OW39775   1.670   0.862  10.835  0.0432  0.2377  0.0669
 9439SOL    HW139776   1.684   0.891  10.745  0.9641 -0.1484  0.0808
 9439SOL    HW239777   1.697   0.940  10.883 -0.5199  0.7430 -0.4399
 9440SOL     OW39778   2.834   4.526   4.063  0.0129 -0.1665  0.1198
 9440SOL    HW139779   2.751   4.549   4.104 -1.3909 -0.2910 -2.6511
 9440SOL    HW239780   2.895   4.510   4.135 -0.8874  0.4256  0.9987
 9441SOL     OW39781   0.306   2.154   7.131  0.9283 -0.3703 -0.1869
 9441SOL    HW139782   0.241   2.129   7.197 -1.1999  0.1054 -2.1129
 9441SOL    HW239783   0.307   2.250   7.135  1.0000 -0.4632  2.2283
 9442SOL     OW39784   2.526   1.272   5.837 -0.2930  0.3157  0.4960
 9442SOL    HW139785   2.433   1.285   5.859  0.3841  1.0773  2.9423
 9442SOL    HW239786   2.512   1.292   5.744  1.2045 -0.2376  0.1651
 9443SOL     OW39787   2.991   1.997  11.871 -0.1757 -0.2973  0.0236
 9443SOL    HW139788   2.938   2.062  11.825 -0.5398 -1.0025 -0.5625
 9443SOL    HW239789   3.050   2.052  11.923  0.5818  0.7792 -1.9558
 9444SOL     OW39790   4.602   0.996  11.278  0.2941  0.5000  0.2609
 9444SOL    HW139791   4.670   0.962  11.221 -0.4287 -0.5053 -0.0005
 9444SOL    HW239792   4.643   1.080  11.300 -0.1106  0.9746 -0.8079
 9445SOL     OW39793   0.828   3.976   9.699 -0.1364 -0.3208 -0.1936
 9445SOL    HW139794   0.822   3.901   9.640  2.1282 -0.4589 -0.2539
 9445SOL    HW239795   0.787   3.940   9.777 -0.8562  0.5751 -0.1592
 9446SOL     OW39796   4.256   4.155   4.861 -0.2826 -0.2626 -0.1779
 9446SOL    HW139797   4.212   4.073   4.835  0.0976  0.1289 -2.0429
 9446SOL    HW239798   4.330   4.176   4.805  0.0600 -0.6776  0.1146
 9447SOL     OW39799   0.052   3.509   1.922  0.4347 -0.2345  0.5362
 9447SOL    HW139800   0.126   3.487   1.866 -0.3596 -0.4617 -0.4188
 9447SOL    HW239801   0.059   3.442   1.991 -1.6993 -1.7788 -0.7415
 9448SOL     OW39802   1.409   3.815   9.597  0.5597 -0.5561 -0.1664
 9448SOL    HW139803   1.418   3.856   9.511  3.0091 -1.8602 -0.5522
 9448SOL    HW239804   1.331   3.862   9.625  0.9275 -0.2724  0.3712
 9449SOL     OW39805   4.194   1.152   5.822  0.6032 -0.1458  0.1408
 9449SOL    HW139806   4.118   1.183   5.871 -1.2550 -1.9618 -1.5505
 9449SOL    HW239807   4.166   1.061   5.830  0.6304 -0.2701 -1.2249
 9450SOL     OW39808   4.511   4.656   9.310  0.4442  0.2496  0.6879
 9450SOL    HW139809   4.545   4.625   9.394  0.3590 -0.0888  0.5998
 9450SOL    HW239810   4.589   4.645   9.255  1.0279 -4.2602  2.4308
 9451SOL     OW39811   3.665   0.474  15.488 -0.0504 -0.1632  0.4034
 9451SOL    HW139812   3.738   0.533  15.508 -2.5948  3.6454 -1.3394
 9451SOL    HW239813   3.676   0.404  15.552  0.3126 -1.0429 -0.6303
 9452SOL     OW39814   3.255   1.585   1.918 -0.1517 -0.3395  0.0986
 9452SOL    HW139815   3.334   1.638   1.911 -0.3818 -0.3543 -2.6100
 9452SOL    HW239816   3.258   1.546   1.830 -1.7654 -1.4369  0.5335
 9453SOL     OW39817   1.634   1.925   3.106  0.2793  0.3483 -0.1259
 9453SOL    HW139818   1.552   1.970   3.128 -0.2078 -0.3206 -0.5799
 9453SOL    HW239819   1.687   1.998   3.073 -0.7168  0.9521 -0.4076
 9454SOL     OW39820   3.197   0.841   5.093  0.0682 -0.3912  0.3397
 9454SOL    HW139821   3.218   0.754   5.060  1.4989  0.2892 -0.5684
 9454SOL    HW239822   3.136   0.818   5.163 -0.2971  1.3096  0.5872
 9455SOL     OW39823   0.204   4.062   3.595 -0.5147 -0.2498 -0.1131
 9455SOL    HW139824   0.220   3.976   3.632 -1.1512 -0.8376 -1.2146
 9455SOL    HW239825   0.284   4.110   3.618 -0.9167  0.8035 -0.8812
 9456SOL     OW39826   0.674   1.479   8.818  0.9634  0.2516  0.2951
 9456SOL    HW139827   0.765   1.503   8.836  0.4902  1.1834  1.4749
 9456SOL    HW239828   0.616   1.554   8.834  1.0927  0.2124  0.9398
 9457SOL     OW39829   1.120   0.833  17.057  0.2586 -0.3842  0.8412
 9457SOL    HW139830   1.195   0.878  17.018  0.1111 -1.9747 -1.2720
 9457SOL    HW239831   1.092   0.784  16.979 -3.3682  1.9278  0.6618
 9458SOL     OW39832   1.180   3.805  15.758  0.0263 -0.3170 -0.6027
 9458SOL    HW139833   1.145   3.796  15.669  2.0655  0.2188 -1.4775
 9458SOL    HW239834   1.249   3.738  15.753 -1.5739 -2.0710  1.1964
 9459SOL     OW39835   3.794   0.473   6.258  0.2478 -0.4571  0.5478
 9459SOL    HW139836   3.775   0.493   6.350 -0.0269  0.4445  0.2924
 9459SOL    HW239837   3.760   0.384   6.251 -0.8987  0.0046  0.2508
 9460SOL     OW39838   1.550   4.002   2.418  0.1042 -0.4978  0.6123
 9460SOL    HW139839   1.593   4.002   2.504  1.0718  1.3460  0.1265
 9460SOL    HW239840   1.486   3.933   2.431  0.7896 -1.4528 -1.0690
 9461SOL     OW39841   0.603   1.308   6.252 -0.2858  0.0297 -0.2370
 9461SOL    HW139842   0.592   1.337   6.343  1.0657 -2.9321  0.8647
 9461SOL    HW239843   0.631   1.392   6.216  0.3825 -0.3256 -0.5431
 9462SOL     OW39844   3.687   2.758  13.157  0.0003  0.2146  0.2170
 9462SOL    HW139845   3.756   2.779  13.221  0.7568 -3.9664  0.7232
 9462SOL    HW239846   3.612   2.808  13.191  0.6110  0.8767  0.6101
 9463SOL     OW39847   2.940   3.100   7.826  0.5545  0.1721  0.5284
 9463SOL    HW139848   3.016   3.115   7.770 -0.4932  1.0312 -0.6931
 9463SOL    HW239849   2.930   3.183   7.871  2.6316  0.8253 -0.2507
 9464SOL     OW39850   2.077   3.861   6.894  0.1091 -0.0267 -0.8012
 9464SOL    HW139851   2.026   3.786   6.864 -0.3648  0.3581 -0.9576
 9464SOL    HW239852   2.068   3.861   6.989  0.9240 -1.4433 -0.7240
 9465SOL     OW39853   2.275   2.386   3.742  0.4219  0.7566 -0.1229
 9465SOL    HW139854   2.228   2.460   3.778 -1.8394 -1.0594  0.6228
 9465SOL    HW239855   2.340   2.443   3.701  1.9318 -0.2106  0.9338
 9466SOL     OW39856   1.154   3.966  14.481 -0.4674  0.2254 -0.6060
 9466SOL    HW139857   1.123   3.898  14.541  0.3233  0.1952 -0.2343
 9466SOL    HW239858   1.246   3.944  14.465 -0.4514  1.5889 -2.3913
 9467SOL     OW39859   2.895   2.382   6.893  0.3873 -0.1376 -0.4911
 9467SOL    HW139860   2.939   2.462   6.862  0.4994  0.5136  1.3207
 9467SOL    HW239861   2.905   2.379   6.988  0.8860  0.1193 -0.5352
 9468SOL     OW39862   3.251   1.445   9.145 -0.0544 -0.1735 -0.0129
 9468SOL    HW139863   3.233   1.400   9.227 -1.2099 -1.6518 -1.0731
 9468SOL    HW239864   3.303   1.522   9.167 -1.8225  0.8635  0.5395
 9469SOL     OW39865   3.840   3.005   5.371  0.3086 -0.0496  0.0966
 9469SOL    HW139866   3.775   3.073   5.352  0.2002  0.4673  2.3439
 9469SOL    HW239867   3.897   3.046   5.436  0.5720  0.3646 -0.3975
 9470SOL     OW39868   0.503   0.466   1.844 -0.2639 -0.7926 -0.2002
 9470SOL    HW139869   0.504   0.474   1.940 -2.2021  0.7556 -0.3006
 9470SOL    HW239870   0.410   0.448   1.830 -0.9146  0.7806  1.9377
 9471SOL     OW39871   1.009   1.597   8.441 -0.6854  0.7391  0.2177
 9471SOL    HW139872   0.920   1.608   8.476 -0.4394  0.5802  0.8883
 9471SOL    HW239873   1.074   1.611   8.509 -2.7664 -0.2539  2.4104
 9472SOL     OW39874   3.231   2.791   5.771  0.3007  0.8183  0.2927
 9472SOL    HW139875   3.154   2.747   5.736  1.3831 -0.4643 -0.4948
 9472SOL    HW239876   3.205   2.883   5.771 -0.1021  0.7014 -1.2082
 9473SOL     OW39877   2.206   1.382  14.008 -0.0246 -0.0701 -0.4279
 9473SOL    HW139878   2.168   1.411  14.091 -1.1921 -1.4499 -0.4862
 9473SOL    HW239879   2.296   1.380  14.041  0.5014 -1.3899 -1.9279
 9474SOL     OW39880   0.480   2.560   8.681  0.2527 -0.0992  0.0194
 9474SOL    HW139881   0.387   2.559   8.660  0.5214 -0.1455 -1.1483
 9474SOL    HW239882   0.511   2.575   8.592 -0.3176 -3.3251 -0.6891
 9475SOL     OW39883   1.000   3.305   0.377  0.2421 -0.2177 -0.4622
 9475SOL    HW139884   1.005   3.397   0.403  0.8625 -0.1558 -0.8255
 9475SOL    HW239885   1.078   3.277   0.330 -0.0429 -1.6587 -0.0867
 9476SOL     OW39886   4.695   1.937   4.046 -0.5646 -0.0704  0.4808
 9476SOL    HW139887   0.055   1.945   4.000 -0.7468 -0.2223  0.1186
 9476SOL    HW239888   4.634   1.970   3.980  0.4021  0.6927 -0.0393
 9477SOL     OW39889   0.104   3.389   2.176 -0.1347  0.3269 -0.4673
 9477SOL    HW139890   0.159   3.376   2.253 -0.5128  1.2400 -0.0412
 9477SOL    HW239891   0.048   3.311   2.183  0.2391  0.1922  1.0282
 9478SOL     OW39892   1.782   4.412   8.847 -0.1143 -0.1648  0.3410
 9478SOL    HW139893   1.819   4.345   8.790  0.7073 -0.7726  1.5987
 9478SOL    HW239894   1.845   4.422   8.918  0.8508  1.0649 -0.6901
 9479SOL     OW39895   0.272   4.439   3.673  0.1038  0.3313 -0.3354
 9479SOL    HW139896   0.337   4.505   3.647 -1.5233  1.8766 -0.4851
 9479SOL    HW239897   0.327   4.378   3.722  0.4929  0.2575 -0.8504
 9480SOL     OW39898   3.756   4.644   5.371  0.4020  0.1595 -0.0395
 9480SOL    HW139899   3.751   4.552   5.395  0.3404  0.1682 -0.0184
 9480SOL    HW239900   3.701   4.647   5.293  0.6502 -0.1908 -0.2262
 9481SOL     OW39901   3.986   2.228   9.007 -0.7231 -0.0995  0.2219
 9481SOL    HW139902   3.963   2.288   9.077 -0.6826 -0.1375  0.2677
 9481SOL    HW239903   3.902   2.183   9.001 -0.9390  0.2582  0.5516
 9482SOL     OW39904   2.916   4.627   7.850 -0.1692  0.3667 -0.4408
 9482SOL    HW139905   2.856   4.697   7.825  0.9287  1.4333 -0.0917
 9482SOL    HW239906   2.907   4.630   7.945 -1.2248 -1.4553 -0.4839
 9483SOL     OW39907   3.388   4.642   7.205  0.0811 -0.8076  0.4937
 9483SOL    HW139908   3.320   4.578   7.224  0.1972 -0.5453  1.7864
 9483SOL    HW239909   3.381   4.654   7.110  2.5001 -0.5031  0.3501
 9484SOL     OW39910   3.793   0.566   9.208  0.1096  0.0875  0.0084
 9484SOL    HW139911   3.808   0.491   9.150  0.3461 -0.4688  0.7871
 9484SOL    HW239912   3.828   0.640   9.159 -0.5313  0.2768 -0.1615
 9485SOL     OW39913   0.534   1.526  10.859 -0.3047 -0.0830 -0.3214
 9485SOL    HW139914   0.511   1.435  10.840 -0.8496  0.1750 -0.9185
 9485SOL    HW239915   0.558   1.513  10.950 -2.1016 -1.6532 -0.0725
 9486SOL     OW39916   4.211   2.584   1.254 -0.1928 -0.6133 -0.1903
 9486SOL    HW139917   4.305   2.565   1.245  0.4054  1.2859  2.0440
 9486SOL    HW239918   4.171   2.506   1.215 -1.4171 -0.4325  0.7179
 9487SOL     OW39919   2.417   1.891   8.743  0.6153 -0.5118 -0.1434
 9487SOL    HW139920   2.337   1.913   8.694 -0.0971 -0.3382  1.1034
 9487SOL    HW239921   2.480   1.952   8.706 -0.5946 -0.5785 -2.3671
 9488SOL     OW39922   4.242   3.305   8.883 -0.1075 -0.3704 -0.7642
 9488SOL    HW139923   4.325   3.353   8.893  0.6447 -1.9010  0.3898
 9488SOL    HW239924   4.181   3.358   8.934 -0.5762 -1.8824  0.2491
 9489SOL     OW39925   4.164   1.346   2.304 -0.0675  0.4145 -0.6355
 9489SOL    HW139926   4.221   1.276   2.274 -0.9862 -0.1184 -1.1188
 9489SOL    HW239927   4.082   1.302   2.328  0.0282  1.1144  1.0289
 9490SOL     OW39928   0.392   1.269   4.065  0.0217  0.2115 -0.0192
 9490SOL    HW139929   0.409   1.185   4.108 -1.3621 -0.3487 -0.5607
 9490SOL    HW239930   0.429   1.247   3.980  1.7538 -0.2278  0.8522
 9491SOL     OW39931   0.499   0.623  15.960 -0.6787  0.5059 -0.0815
 9491SOL    HW139932   0.450   0.701  15.984  0.4470  0.7862  1.3093
 9491SOL    HW239933   0.536   0.585  16.040 -0.0121  2.1163  0.3887
 9492SOL     OW39934   2.064   1.343   8.096  0.0659  0.4465  0.2952
 9492SOL    HW139935   2.079   1.370   8.187  0.0700 -0.8572  0.6706
 9492SOL    HW239936   2.070   1.428   8.051 -1.5675  1.0172  1.1319
 9493SOL     OW39937   0.377   1.671  15.060  0.0576  0.2675  0.5512
 9493SOL    HW139938   0.435   1.710  15.126  1.4321 -2.5945  1.0213
 9493SOL    HW239939   0.449   1.648  15.001 -0.2574 -0.4625  0.4585
 9494SOL     OW39940   2.851   2.298   9.251 -0.4893 -0.8787  0.1987
 9494SOL    HW139941   2.829   2.319   9.342 -0.5636 -0.2031  0.0308
 9494SOL    HW239942   2.899   2.217   9.263 -0.2711 -0.5995  1.2099
 9495SOL     OW39943   4.344   2.081   7.020 -0.1338  0.0880  0.1281
 9495SOL    HW139944   4.390   1.998   7.008 -0.9070 -0.1537 -1.2140
 9495SOL    HW239945   4.358   2.115   6.932 -0.4584 -2.8208 -1.0534
 9496SOL     OW39946   2.839   0.963   9.356 -0.4498  0.1224 -0.3792
 9496SOL    HW139947   2.855   1.057   9.365 -1.6244  0.2820  0.0710
 9496SOL    HW239948   2.903   0.928   9.418  1.1362 -0.5612 -2.4134
 9497SOL     OW39949   4.690   3.077   7.125  0.1565 -0.0276  0.3933
 9497SOL    HW139950   0.034   3.028   7.171 -0.3376 -1.7112 -0.6698
 9497SOL    HW239951   4.640   3.000   7.097  0.1152  0.8907 -2.0561
 9498SOL     OW39952   2.360   3.603  17.683  0.1269  0.2061  0.2226
 9498SOL    HW139953   2.423   3.530  17.686 -3.1273 -2.6410 -0.2369
 9498SOL    HW239954   2.349   3.620   0.077  1.9197 -0.4637  0.5596
 9499SOL     OW39955   3.358   2.822  13.422  0.0264  0.4337 -0.2096
 9499SOL    HW139956   3.373   2.892  13.485 -0.3895 -0.8362  1.2952
 9499SOL    HW239957   3.425   2.756  13.440  0.4052  0.6698 -0.7781
 9500SOL     OW39958   2.450   1.900   7.452  0.3506  0.0031  0.2313
 9500SOL    HW139959   2.456   1.945   7.536  0.5011  1.8751 -0.7912
 9500SOL    HW239960   2.399   1.822   7.475  2.7586 -2.6280 -3.3835
 9501SOL     OW39961   3.334   0.019   6.179 -0.1100 -0.5789 -0.1441
 9501SOL    HW139962   3.315   0.047   6.089  1.5542  1.7670  0.2334
 9501SOL    HW239963   3.367   0.100   6.217 -1.0532 -0.2220 -0.0907
 9502SOL     OW39964   0.903   2.226  11.541 -0.2662 -0.4109  0.3526
 9502SOL    HW139965   0.948   2.304  11.508  0.4818 -1.1279 -0.3251
 9502SOL    HW239966   0.836   2.226  11.473 -0.6990 -0.4345  0.7804
 9503SOL     OW39967   2.341   3.759  14.377 -0.6072  0.0676 -0.2888
 9503SOL    HW139968   2.420   3.794  14.417 -0.1865 -0.6519 -0.4873
 9503SOL    HW239969   2.275   3.785  14.441 -1.5206 -4.1248  0.4831
 9504SOL     OW39970   2.283   4.386  15.795  0.1847  0.0208 -0.1075
 9504SOL    HW139971   2.337   4.452  15.752  0.2290 -1.7446 -2.7925
 9504SOL    HW239972   2.257   4.345  15.712  1.3338 -1.2760  0.1733
 9505SOL     OW39973   1.658   3.199   8.281 -0.5934 -0.1047  0.3207
 9505SOL    HW139974   1.653   3.104   8.277 -1.3594 -0.0634  0.3262
 9505SOL    HW239975   1.643   3.220   8.373  2.8396 -1.0256  1.0917
 9506SOL     OW39976   3.362   1.432  12.149  0.5076  0.2393  0.6796
 9506SOL    HW139977   3.379   1.379  12.071 -3.4020  2.3997 -1.6215
 9506SOL    HW239978   3.362   1.368  12.219  2.0984  1.7142  2.0371
 9507SOL     OW39979   0.448   4.560   7.967 -0.2662  0.0842  0.5055
 9507SOL    HW139980   0.355   4.543   7.958  0.2514 -1.5286 -1.8271
 9507SOL    HW239981   0.478   4.544   7.877  0.8685 -1.6781  1.1807
 9508SOL     OW39982   0.655   1.133  13.892  0.1463 -0.2878 -0.4477
 9508SOL    HW139983   0.695   1.111  13.808  0.2355 -2.4035  0.1657
 9508SOL    HW239984   0.697   1.075  13.955  1.5917  0.7792 -0.4168
 9509SOL     OW39985   3.221   0.219   0.180 -0.3640  0.3972 -0.2512
 9509SOL    HW139986   3.210   0.151   0.247  1.0995 -0.3389 -0.7649
 9509SOL    HW239987   3.145   0.277   0.176  0.5354  1.7543  2.6662
 9510SOL     OW39988   1.557   4.641  14.010 -0.4511 -0.1292  0.0777
 9510SOL    HW139989   1.596   4.597  13.935 -1.6254 -1.2766  0.1338
 9510SOL    HW239990   1.484   4.685  13.966 -0.8698  0.9859  1.9125
 9511SOL     OW39991   2.812   1.043   3.011  0.0997 -0.1523 -0.3819
 9511SOL    HW139992   2.730   1.010   3.047 -0.1312 -0.8659 -1.5491
 9511SOL    HW239993   2.845   1.096   3.083  0.3767 -0.7643 -0.0556
 9512SOL     OW39994   3.738   0.942   0.184 -0.0004  0.0056  0.7512
 9512SOL    HW139995   3.767   0.855   0.157  0.8488  0.0770  1.4232
 9512SOL    HW239996   3.777   0.994   0.114  0.1455 -1.3034 -0.1332
 9513SOL     OW39997   1.299   1.269   5.273 -0.0949  0.4424 -0.1354
 9513SOL    HW139998   1.234   1.199   5.264  2.0522 -1.4087 -1.0583
 9513SOL    HW239999   1.366   1.225   5.326  0.8657  1.0330 -0.8696
 9514SOL     OW40000   0.549   0.415  11.617 -0.7699  0.1376 -0.0358
 9514SOL    HW140001   0.637   0.381  11.606 -1.2570 -1.2128  0.1247
 9514SOL    HW240002   0.524   0.350  11.683  0.2535 -0.9653 -0.7351
 9515SOL     OW40003   0.776   1.568  10.759 -0.4495  0.0010  0.3640
 9515SOL    HW140004   0.816   1.482  10.774  0.4833  0.2683 -0.5700
 9515SOL    HW240005   0.688   1.559  10.796 -0.6039  1.3208  0.2996
 9516SOL     OW40006   0.057   0.041   7.995 -0.3144  0.2270  0.3949
 9516SOL    HW140007   0.110   4.688   7.976 -1.7984 -1.3369  2.6373
 9516SOL    HW240008   4.723   0.002   8.060  1.1655 -0.9924  0.9823
 9517SOL     OW40009   3.477   0.309   6.844 -0.0604  0.1564 -0.0916
 9517SOL    HW140010   3.432   0.286   6.763  0.8838  0.9014 -0.8361
 9517SOL    HW240011   3.392   0.323   6.887  0.1056  1.1024 -0.0517
 9518SOL     OW40012   1.816   2.160   4.765  0.3464  0.1302  0.4019
 9518SOL    HW140013   1.902   2.203   4.767  0.5689 -0.1959 -2.6096
 9518SOL    HW240014   1.774   2.203   4.691  1.6619  0.3316 -0.2173
 9519SOL     OW40015   4.424   2.854  15.781 -0.1241  0.9050 -0.1788
 9519SOL    HW140016   4.473   2.914  15.838 -0.4822  2.3691 -1.4217
 9519SOL    HW240017   4.380   2.916  15.724 -0.9741  0.2396 -0.2490
 9520SOL     OW40018   1.820   4.669   2.221  0.2756 -0.1100 -0.5031
 9520SOL    HW140019   1.903   4.629   2.248  0.6117  1.0263  0.1108
 9520SOL    HW240020   1.841   0.036   2.204 -2.1712  0.4796 -0.2254
 9521SOL     OW40021   3.887   2.915  13.605  0.3266 -0.2333  0.4052
 9521SOL    HW140022   3.857   2.993  13.559  2.4238 -0.2319 -0.9386
 9521SOL    HW240023   3.831   2.850  13.561 -0.2489 -0.4432  1.4407
 9522SOL     OW40024   3.171   1.467  12.466  0.0568 -0.1842 -0.2903
 9522SOL    HW140025   3.180   1.561  12.484  0.6491  0.2380 -2.8640
 9522SOL    HW240026   3.098   1.456  12.406 -0.6158  1.8894  0.1111
 9523SOL     OW40027   4.381   2.900  10.091  0.0447 -0.1094 -0.1206
 9523SOL    HW140028   4.423   2.858  10.016  1.0921  1.9471 -0.7046
 9523SOL    HW240029   4.291   2.909  10.061  0.8645  3.8480 -1.3889
 9524SOL     OW40030   4.108   4.253   0.254 -0.3025  0.3089  0.0798
 9524SOL    HW140031   4.081   4.343   0.240  0.1132  0.3719 -0.3134
 9524SOL    HW240032   4.107   4.241   0.349  0.0340  2.2766  0.3235
 9525SOL     OW40033   3.242   0.540   7.440 -0.1163 -0.4547  0.0395
 9525SOL    HW140034   3.223   0.603   7.509 -0.5542  0.8801 -1.2887
 9525SOL    HW240035   3.337   0.543   7.439 -0.1789  2.6683  4.3610
 9526SOL     OW40036   4.165   4.376  17.515  0.1143 -0.0985  0.3713
 9526SOL    HW140037   4.243   4.426  17.492 -0.6743  0.9115 -0.1109
 9526SOL    HW240038   4.194   4.307  17.574  0.3591  0.1580  0.5513
 9527SOL     OW40039   1.819   0.256   8.270 -0.3035 -0.2428  0.0289
 9527SOL    HW140040   1.895   0.250   8.327  0.6084 -0.2906 -1.1904
 9527SOL    HW240041   1.788   0.343   8.298  0.9612 -0.2070  1.2741
 9528SOL     OW40042   0.109   2.380  12.953  0.2030  0.3334  0.3946
 9528SOL    HW140043   0.029   2.328  12.964  0.7178 -0.5427 -0.0041
 9528SOL    HW240044   0.134   2.391  13.045 -2.1701  1.2622  0.9459
 9529SOL     OW40045   4.020   3.209  12.599 -0.3959 -0.6338 -0.3893
 9529SOL    HW140046   4.020   3.118  12.569 -1.3442 -0.2279 -1.6157
 9529SOL    HW240047   4.052   3.185  12.686 -0.4813  1.2262  0.1539
 9530SOL     OW40048   1.492   0.546   5.737 -0.4322  0.5493  0.1376
 9530SOL    HW140049   1.509   0.540   5.831  1.0366  0.3995 -0.1283
 9530SOL    HW240050   1.583   0.540   5.706 -0.2088  0.5258  0.7980
 9531SOL     OW40051   3.990   0.058   7.902  0.0208  0.0117 -0.0482
 9531SOL    HW140052   3.917   0.093   7.953  1.9298  2.1410  1.2064
 9531SOL    HW240053   3.940   0.041   7.822 -1.9886  0.5899  1.0857
 9532SOL     OW40054   4.613   2.460   2.897 -0.1026 -1.0783 -0.1976
 9532SOL    HW140055   4.584   2.457   2.988  1.5292  0.3375  0.3771
 9532SOL    HW240056   4.706   2.481   2.905 -0.3401  0.1882 -0.7139
 9533SOL     OW40057   2.386   3.644   0.618 -0.2311  0.1954 -0.5501
 9533SOL    HW140058   2.417   3.674   0.533  0.6685  0.5591 -0.0959
 9533SOL    HW240059   2.453   3.692   0.667 -3.5060  3.2685  0.8669
 9534SOL     OW40060   3.225   0.449  10.331 -0.5871  0.3505  0.0187
 9534SOL    HW140061   3.130   0.447  10.322 -0.6526  2.5691  0.3329
 9534SOL    HW240062   3.250   0.496  10.252 -0.5753  1.4745  0.6912
 9535SOL     OW40063   2.702   2.948   7.446 -0.1778 -0.3878  0.3598
 9535SOL    HW140064   2.754   2.948   7.526  3.7341  0.4722 -2.1942
 9535SOL    HW240065   2.747   2.892   7.383  2.1340  0.8889  0.9001
 9536SOL     OW40066   0.298   1.358   5.679  0.3478 -0.0815 -0.2936
 9536SOL    HW140067   0.243   1.372   5.602  0.7293  0.8728 -0.3979
 9536SOL    HW240068   0.378   1.328   5.637 -0.2930  1.0897 -2.3591
 9537SOL     OW40069   4.324   4.491   5.059  0.0025  0.0714  0.2424
 9537SOL    HW140070   4.358   4.543   4.986 -1.1750 -0.3080 -0.5913
 9537SOL    HW240071   4.411   4.479   5.096 -0.0322 -0.8176  0.0511
 9538SOL     OW40072   3.362   2.282   1.856 -0.2065 -0.3174 -0.0153
 9538SOL    HW140073   3.388   2.316   1.770  0.6680 -2.8905 -0.7836
 9538SOL    HW240074   3.283   2.331   1.876  1.0163  1.3535  0.7876
 9539SOL     OW40075   1.154   4.078  15.836  0.0853  0.2435 -0.1556
 9539SOL    HW140076   1.109   4.121  15.764  0.4719 -1.3790 -1.3603
 9539SOL    HW240077   1.150   3.985  15.816 -2.7314 -0.3121  2.9828
 9540SOL     OW40078   3.495   1.237   6.624 -0.3788  0.5691  0.3870
 9540SOL    HW140079   3.555   1.310   6.636 -1.5193  1.3883  0.9667
 9540SOL    HW240080   3.434   1.278   6.563 -1.2396 -0.3080  0.6509
 9541SOL     OW40081   2.927   3.435   1.319 -0.2056 -0.7478 -0.2065
 9541SOL    HW140082   2.884   3.354   1.292 -1.0490 -0.5396  0.5224
 9541SOL    HW240083   2.929   3.427   1.415  0.3083  1.1991 -0.0610
 9542SOL     OW40084   0.700   2.437   3.946 -0.5131 -0.0961  1.0419
 9542SOL    HW140085   0.760   2.510   3.937 -1.2830  0.6137  1.6328
 9542SOL    HW240086   0.714   2.409   3.856 -0.4984  0.7374  0.7923
 9543SOL     OW40087   1.058   4.619  12.848 -0.4004 -0.2270 -0.0998
 9543SOL    HW140088   0.976   4.580  12.816 -1.2634  1.2358  0.3336
 9543SOL    HW240089   1.042   4.710  12.825 -2.9413 -0.8860 -0.9517
 9544SOL     OW40090   4.162   3.749   7.739  0.5127 -0.2660  0.1217
 9544SOL    HW140091   4.233   3.772   7.798 -0.1307  1.9148  0.0424
 9544SOL    HW240092   4.170   3.653   7.733  0.8390 -0.2297 -0.0227
 9545SOL     OW40093   0.244   1.521   4.316 -0.3792  0.1457  0.0227
 9545SOL    HW140094   0.199   1.556   4.393 -1.2733  2.0435 -1.3566
 9545SOL    HW240095   0.227   1.595   4.257  0.8931  0.4991  0.0893
 9546SOL     OW40096   0.900   3.408  11.342 -0.0455  0.2680  0.5882
 9546SOL    HW140097   0.983   3.384  11.302  0.0496  0.4465  0.6835
 9546SOL    HW240098   0.851   3.325  11.340 -1.0425  0.8772 -0.7631
 9547SOL     OW40099   0.661   1.650  14.263 -0.0615 -0.6925 -0.5782
 9547SOL    HW140100   0.663   1.570  14.316  0.7141 -1.7952 -2.2469
 9547SOL    HW240101   0.581   1.638  14.212 -0.7488 -1.2598  0.6272
 9548SOL     OW40102   2.274   4.014   1.393  0.0380 -0.6632 -0.2895
 9548SOL    HW140103   2.198   3.963   1.363  1.8163 -2.6663 -1.3218
 9548SOL    HW240104   2.346   3.955   1.418  0.4830  1.0285  2.4583
 9549SOL     OW40105   3.959   2.431  14.268 -0.2734 -0.2225 -0.1289
 9549SOL    HW140106   3.925   2.342  14.276  1.4213 -0.8201  0.4951
 9549SOL    HW240107   3.924   2.448  14.181  3.5944  2.5951 -1.1739
 9550SOL     OW40108   3.563   1.837   8.537 -0.3942 -0.1192  0.0513
 9550SOL    HW140109   3.620   1.914   8.533  2.2854 -2.1315 -0.8278
 9550SOL    HW240110   3.586   1.801   8.623  2.6736  2.3053  0.2267
 9551SOL     OW40111   4.267   1.281   9.542 -0.1033 -0.4957 -0.5346
 9551SOL    HW140112   4.172   1.269   9.540 -0.1561  0.1506 -1.8028
 9551SOL    HW240113   4.300   1.219   9.477 -1.0346 -2.2255  0.6316
 9552SOL     OW40114   0.268   2.592   5.965 -0.4654 -0.3237 -0.0267
 9552SOL    HW140115   0.211   2.516   5.980 -3.8129  2.5492  2.0264
 9552SOL    HW240116   0.244   2.651   6.037  1.4468  1.0292 -0.5081
 9553SOL     OW40117   2.199   0.280  11.955 -0.0416 -0.2131 -1.1948
 9553SOL    HW140118   2.254   0.333  12.013 -2.4238 -0.7740  1.5413
 9553SOL    HW240119   2.244   0.300  11.873  1.8013 -1.3787 -0.4763
 9554SOL     OW40120   2.928   3.629   7.098  0.2669 -0.0317  0.1153
 9554SOL    HW140121   2.917   3.716   7.059  0.9893 -0.5028 -1.1334
 9554SOL    HW240122   2.976   3.659   7.175  0.1805 -0.4692  0.3390
 9555SOL     OW40123   0.945   0.722   8.067 -0.7398 -1.2919  0.3417
 9555SOL    HW140124   0.890   0.705   8.143  1.7982  0.1982  2.5458
 9555SOL    HW240125   1.026   0.678   8.095 -0.5753  0.7145  2.9967
 9556SOL     OW40126   0.522   0.181   0.587  0.3175 -0.2476 -0.2536
 9556SOL    HW140127   0.618   0.185   0.586  0.3373 -0.7426 -0.7104
 9556SOL    HW240128   0.504   0.205   0.678 -1.7395 -1.6139 -0.3078
 9557SOL     OW40129   2.800   0.701   9.280  0.0749 -0.2780  0.2405
 9557SOL    HW140130   2.809   0.726   9.188 -2.6676 -0.6957 -0.1507
 9557SOL    HW240131   2.825   0.780   9.328 -0.3788  0.5810 -0.9297
 9558SOL     OW40132   0.362   1.850  16.824 -0.5531  0.0207  0.2580
 9558SOL    HW140133   0.297   1.878  16.889 -1.5419  0.1845 -0.8076
 9558SOL    HW240134   0.433   1.812  16.875 -2.0906 -1.3168  1.3842
 9559SOL     OW40135   1.256   0.520   9.305 -0.3480 -0.5362  0.3291
 9559SOL    HW140136   1.272   0.599   9.254  0.3576 -0.2508  1.0130
 9559SOL    HW240137   1.281   0.457   9.237 -2.9275  0.8845 -1.9740
 9560SOL     OW40138   3.233   0.043   8.050 -0.5138 -0.5758  0.1082
 9560SOL    HW140139   3.164   0.096   8.089 -0.3210  0.1031 -0.4870
 9560SOL    HW240140   3.244   4.699   8.116  0.6780 -0.3600  0.1356
 9561SOL     OW40141   2.481   2.692  11.730  0.0732  0.0569  0.7001
 9561SOL    HW140142   2.555   2.636  11.707 -0.6315 -0.2532 -0.8105
 9561SOL    HW240143   2.422   2.619  11.745  3.3063 -3.0780 -1.8346
 9562SOL     OW40144   4.514   1.346  16.569  0.0021  0.6246  0.1718
 9562SOL    HW140145   4.484   1.346  16.659 -2.5203 -1.2872 -0.6686
 9562SOL    HW240146   4.544   1.255  16.562 -1.3593  0.3605 -2.2353
 9563SOL     OW40147   0.649   4.710   3.343 -0.1227 -0.0028 -0.1776
 9563SOL    HW140148   0.668   0.070   3.302 -0.2440  0.5366  0.8931
 9563SOL    HW240149   0.629   4.651   3.270 -1.1284  0.1404 -0.0105
 9564SOL     OW40150   1.047   4.704   1.790  0.0301  0.4222  0.5395
 9564SOL    HW140151   1.016   4.614   1.798 -0.5170  0.4942 -0.8601
 9564SOL    HW240152   1.057   4.716   1.696  0.1896  0.3434  0.5482
 9565SOL     OW40153   1.937   2.255   3.711 -0.3511 -0.0919 -0.3314
 9565SOL    HW140154   1.980   2.253   3.625 -1.8735 -0.5893 -1.0901
 9565SOL    HW240155   1.853   2.216   3.688  0.8285 -0.9341 -3.3147
   4.72458   4.72458  17.69983
