Membrane in water
40155
    1TCq1    O1    1   1.462   1.551  11.209 -0.3932 -0.3020 -0.0203
    1TCq1    C1    2   1.366   1.554  11.114  0.0449  0.5546 -0.4782
    1TCq1    O2    3   1.333   1.646  11.046  0.7274 -0.0308 -0.3936
    1TCq1    C2    4   1.254   1.474  11.161 -0.0335  0.3161  0.5701
    1TCq1    C3    5   1.129   1.524  11.131  0.0688  0.2249 -0.9228
    1TCq1    C4    6   1.017   1.456  11.173 -0.3581  0.4710 -0.1008
    1TCq1    C5    7   1.030   1.338  11.247 -0.2669  0.7416 -0.0980
    1TCq1    C6    8   1.159   1.291  11.281 -1.0982 -0.0924 -0.2974
    1TCq1    C7    9   1.269   1.359  11.237 -0.4472 -0.1016 -0.2209
    1TCq1    C8   10   1.176   1.196  11.379 -0.2732 -0.0586 -0.6682
    1TCq1    O4   11   1.099   1.193  11.475  0.2284  0.2941  0.1526
    1TCq1    C9   12   0.881   1.488  11.138  0.1219  0.1762 -0.1311
    1TCq1    O5   13   0.867   1.591  11.067 -0.1344  0.0129  0.4318
    1TCq1    O6   14   0.791   1.404  11.159  0.5754 -0.0934  0.1865
    1TCq1    H1   15   1.446   1.474  11.268 -1.2047  1.3775  1.9426
    1TCq1    H2   16   1.122   1.613  11.068  0.6989 -0.1668 -1.5361
    1TCq1    H3   17   0.944   1.281  11.280  0.6113 -0.1566  0.6239
    1TCq1    H4   18   1.365   1.316  11.265 -0.4186 -0.0290 -0.2083
    2MPD2     C   19   1.361   0.734  11.520  0.4579  0.0530  0.2292
    2MPD2    C1   20   1.280   0.823  11.591 -0.2153  0.0888 -0.2899
    2MPD2    C2   21   1.250   0.949  11.548 -0.5571  0.1695  0.6655
    2MPD2    C3   22   1.297   0.980  11.418  0.0556 -0.0227 -0.3713
    2MPD2    C4   23   1.375   0.893  11.343 -0.5407 -0.2097  0.0180
    2MPD2    C5   24   1.408   0.768  11.393 -0.4725  0.2840  0.4271
    2MPD2     H   25   1.180   1.009  11.605 -1.7625 -0.3518 -0.2581
    2MPD2    H1   26   1.419   0.922  11.248  0.9160  0.9576  1.0367
    2MPD2    H2   27   1.377   0.634  11.558 -0.7776 -1.2989 -2.8503
    2MPD2    H3   28   1.463   0.695  11.335  0.7878  0.7775  1.0126
    2MPD2     N   29   1.266   1.102  11.343 -0.6071  0.2622 -0.2796
    2MPD2    H5   30   1.297   1.105  11.246  0.3270 -0.7959 -0.0141
    2MPD2    N1   31   1.228   0.796  11.727 -0.3952  0.5012  1.0189
    2MPD2    H7   32   1.175   0.873  11.766 -0.2426  0.1043  1.9980
    3TCq1    O1   33   0.659   2.519  10.717  0.2629  0.1379 -0.7225
    3TCq1    C1   34   0.561   2.589  10.667  0.0891  1.0743  0.8137
    3TCq1    O2   35   0.498   2.676  10.721 -0.1569 -0.0874  0.6136
    3TCq1    C2   36   0.536   2.542  10.534 -0.2693 -0.0141  0.4729
    3TCq1    C3   37   0.644   2.504  10.459  0.1401 -0.1716  0.1092
    3TCq1    C4   38   0.611   2.426  10.345  0.2336 -0.1049  0.5580
    3TCq1    C5   39   0.482   2.417  10.299 -0.2851 -0.0203 -0.3302
    3TCq1    C6   40   0.386   2.478  10.368  0.0105  0.2645  0.3607
    3TCq1    C7   41   0.409   2.533  10.490  0.0238  0.1284  0.1353
    3TCq1    C8   42   0.248   2.487  10.320  0.0124  0.5643 -0.2207
    3TCq1    O4   43   0.209   2.394  10.250  0.2089 -0.1829  0.1081
    3TCq1    C9   44   0.721   2.372  10.271  0.3317 -0.4382  0.3621
    3TCq1    O5   45   0.704   2.272  10.198 -0.2856  0.3259 -0.1576
    3TCq1    O6   46   0.831   2.421  10.301  0.2103  0.1917 -0.0592
    3TCq1    H1   47   0.675   2.437  10.666 -1.3772 -0.5169 -0.1888
    3TCq1    H2   48   0.746   2.516  10.492 -0.1907 -0.8669  1.3826
    3TCq1    H3   49   0.466   2.385  10.196 -1.7749 -0.4490  0.0312
    3TCq1    H4   50   0.333   2.575  10.556  1.3050  1.6303  0.6767
    4MPD2     C   51   4.531   2.743  10.338 -0.5072 -0.6690 -0.1894
    4MPD2    C1   52   4.625   2.819  10.400 -0.4694 -0.0447  0.1579
    4MPD2    C2   53   0.031   2.770  10.416  0.1053  0.0508 -0.3585
    4MPD2    C3   54   0.056   2.644  10.369 -0.1015  0.3199  0.0061
    4MPD2    C4   55   4.691   2.560  10.314  0.4089  0.3870  0.3179
    4MPD2    C5   56   4.565   2.614  10.299 -0.0401 -0.6031  0.3991
    4MPD2     H   57   0.113   2.830  10.453 -1.0898  1.8487 -0.6245
    4MPD2    H1   58   4.702   2.457  10.283  0.2586 -0.2085  2.2005
    4MPD2    H2   59   4.432   2.779  10.314  0.2979  1.6328 -0.0361
    4MPD2    H3   60   4.489   2.555  10.249 -0.5414  1.3786 -1.1689
    4MPD2     N   61   0.190   2.595  10.379  0.7187 -0.8445  0.1887
    4MPD2    H5   62   0.259   2.662  10.412  0.0277  1.1362 -2.4401
    4MPD2    N1   63   4.597   2.956  10.436  0.2587  0.3032  0.1349
    4MPD2    H7   64   4.676   3.016  10.459  1.5253 -0.3331 -2.4537
    5TCq1    O1   65   0.252   0.177   9.994  0.5831 -0.1745  0.0573
    5TCq1    C1   66   0.282   0.168  10.128 -0.5991 -0.1258 -0.7945
    5TCq1    O2   67   0.242   0.085  10.206  0.2304 -0.2817  0.4508
    5TCq1    C2   68   0.425   0.196  10.147  0.0979  0.0470  0.2523
    5TCq1    C3   69   0.468   0.322  10.168 -0.5032 -0.5178 -0.2486
    5TCq1    C4   70   0.598   0.336  10.215  0.3107 -0.3492 -0.4900
    5TCq1    C5   71   0.677   0.226  10.247 -1.2684  0.2777 -0.3181
    5TCq1    C6   72   0.626   0.099  10.224  0.2049  0.6991 -0.0975
    5TCq1    C7   73   0.496   0.083  10.180 -0.6753 -0.5765  0.0945
    5TCq1    C8   74   0.689   4.708  10.274  0.0437  0.1836  0.8098
    5TCq1    O4   75   0.635   4.605  10.238  0.0771  0.2686 -0.2237
    5TCq1    C9   76   0.655   0.471  10.207  0.2319 -0.4925 -0.2174
    5TCq1    O5   77   0.595   0.557  10.139  0.4168 -0.3713 -0.0760
    5TCq1    O6   78   0.781   0.469  10.219  0.1736 -0.4114 -0.4202
    5TCq1    H1   79   0.321   0.234   9.954  0.0663  0.8373  0.5949
    5TCq1    H2   80   0.407   0.408  10.144 -0.4291  0.2919  2.5018
    5TCq1    H3   81   0.783   0.240  10.262 -1.1529 -1.4171  0.4301
    5TCq1    H4   82   0.450   4.716  10.146 -0.8513 -0.7854  0.8874
    6MPD2     C   83   0.926   4.679  10.557 -0.4922  0.3322  0.1523
    6MPD2    C1   84   0.858   4.636  10.444 -0.2162  0.1829  0.6133
    6MPD2    C2   85   0.881   4.511  10.385 -0.0145  0.1059  0.1270
    6MPD2    C3   86   0.977   4.425  10.446  0.0533 -0.3682  0.3098
    6MPD2    C4   87   1.042   4.472  10.559  0.2848 -0.6295  0.1777
    6MPD2    C5   88   1.022   4.598  10.613  0.7240 -0.4510 -0.1918
    6MPD2     H   89   0.823   4.485  10.297  1.7625 -2.0548 -0.4067
    6MPD2    H1   90   1.124   4.414  10.600  0.6569  2.0510  3.2114
    6MPD2    H2   91   0.898   0.047  10.607  1.5640  0.8347  0.3876
    6MPD2    H3   92   1.084   4.617  10.700  1.6327 -1.2502 -0.6599
    6MPD2     N   93   1.003   4.306  10.378 -0.9048 -0.5247  0.5321
    6MPD2    H5   94   0.969   4.293  10.283 -0.3935 -1.1654  0.4368
    6MPD2    N1   95   0.774   0.005  10.383 -0.1464  0.5890  0.5170
    6MPD2    H7   96   0.775   0.099  10.422  0.9722  0.7449  0.1117
    7TCq1    O1   97   3.060   4.143  13.401  0.9806 -0.5655  0.4874
    7TCq1    C1   98   3.126   4.023  13.399  0.5925 -0.2405 -0.1594
    7TCq1    O2   99   3.231   3.989  13.451  0.1869  0.0987 -0.3409
    7TCq1    C2  100   3.039   3.933  13.332 -0.6719 -0.1814 -0.3021
    7TCq1    C3  101   2.952   3.967  13.230  0.8150 -0.2046  0.4224
    7TCq1    C4  102   2.885   3.869  13.158  0.4259 -0.5180  0.8548
    7TCq1    C5  103   2.900   3.740  13.207  0.5359  0.5659  0.0733
    7TCq1    C6  104   2.971   3.705  13.317 -0.3456  0.2881  0.5883
    7TCq1    C7  105   3.042   3.799  13.383  0.4849  0.5103 -0.1500
    7TCq1    C8  106   2.996   3.560  13.339 -0.1624  0.6624 -0.4712
    7TCq1    O4  107   2.929   3.473  13.292  0.3325 -0.0046  0.4104
    7TCq1    C9  108   2.808   3.901  13.040 -0.7956  0.4450 -0.2191
    7TCq1    O5  109   2.769   4.019  13.017 -0.4923  0.2831 -0.1819
    7TCq1    O6  110   2.803   3.813  12.946  0.7941  0.2381 -0.4488
    7TCq1    H1  111   2.977   4.133  13.351  2.0726 -0.3740 -1.3763
    7TCq1    H2  112   2.955   4.068  13.191 -0.4267 -0.3178  0.0222
    7TCq1    H3  113   2.858   3.663  13.143 -0.1050  1.8254 -1.0025
    7TCq1    H4  114   3.126   3.775  13.448 -1.0581 -1.4031  1.1420
    8MPD2     C  115   3.157   3.211  13.681  0.0736  0.1745  0.4956
    8MPD2    C1  116   3.114   3.193  13.550 -0.1034  0.3713 -1.4648
    8MPD2    C2  117   3.090   3.300  13.465  0.5955  0.6973  0.3781
    8MPD2    C3  118   3.100   3.431  13.519 -0.4033  0.1057 -0.2199
    8MPD2    C4  119   3.154   3.438  13.646 -0.0142  0.8619  0.0287
    8MPD2    C5  120   3.170   3.332  13.729  0.3939  0.1662  0.3217
    8MPD2     H  121   3.062   3.291  13.361  1.6474 -3.3670  0.4387
    8MPD2    H1  122   3.182   3.531  13.694  0.5634  1.1295 -0.8257
    8MPD2    H2  123   3.178   3.128  13.748  0.2711  1.4141  1.9673
    8MPD2    H3  124   3.223   3.361  13.819  0.6819 -0.4821  0.3540
    8MPD2     N  125   3.071   3.544  13.456  0.6214 -0.0963  0.0606
    8MPD2    H5  126   3.107   3.628  13.500  0.2568  0.5463 -0.8489
    8MPD2    N1  127   3.108   3.060  13.498 -0.1918 -0.3002  0.2027
    8MPD2    H7  128   3.153   2.989  13.556  0.8987  0.7439  0.6271
    9TCq1    O1  129   0.771   1.473  10.839  0.4570  0.1467  0.1370
    9TCq1    C1  130   0.821   1.482  10.710 -0.5440  0.0218 -0.4070
    9TCq1    O2  131   0.777   1.419  10.612 -0.2855  0.4026 -0.1097
    9TCq1    C2  132   0.838   1.627  10.693  0.2437 -0.0591  1.2311
    9TCq1    C3  133   0.786   1.690  10.579  0.8100  0.1896 -0.0779
    9TCq1    C4  134   0.789   1.827  10.580 -0.5807  0.0772 -0.4954
    9TCq1    C5  135   0.838   1.890  10.689 -0.0255 -0.2503  0.1413
    9TCq1    C6  136   0.870   1.829  10.811 -0.6699 -0.0662  0.0404
    9TCq1    C7  137   0.878   1.694  10.805  0.2626  0.7586  0.5483
    9TCq1    C8  138   0.936   1.910  10.909 -0.5486 -1.1924  0.1525
    9TCq1    O4  139   0.961   2.025  10.877 -0.3829 -0.3267 -1.0524
    9TCq1    C9  140   0.734   1.901  10.465 -0.1907 -0.2454 -0.2024
    9TCq1    O5  141   0.756   2.028  10.474 -0.2251 -0.5721  0.2350
    9TCq1    O6  142   0.680   1.840  10.369  0.2916  0.4598 -0.0814
    9TCq1    H1  143   0.799   1.534  10.910 -2.3455  1.4893  0.0973
    9TCq1    H2  144   0.743   1.629  10.501 -0.1981  3.1540 -1.8302
    9TCq1    H3  145   0.827   1.998  10.694 -1.8363 -0.3984 -0.6676
    9TCq1    H4  146   0.949   1.654  10.877  2.1258  1.2826 -1.0166
   10MPD2     C  147   1.052   2.043  11.152 -0.2730  0.7083  0.4766
   10MPD2    C1  148   0.993   1.920  11.152  0.2522  0.1052  1.1452
   10MPD2    C2  149   0.982   1.850  11.269  0.0920  0.7994  0.6929
   10MPD2    C3  150   1.023   1.916  11.388 -0.2256  0.0758  0.9565
   10MPD2    C4  151   1.078   2.045  11.389 -0.3129 -0.0377 -0.5438
   10MPD2    C5  152   1.100   2.104  11.268 -0.1360  0.0219  0.3091
   10MPD2     H  153   0.931   1.754  11.275  1.9300 -0.1985  0.3173
   10MPD2    H1  154   1.109   2.093  11.481  0.2114  0.2983 -0.8985
   10MPD2    H2  155   1.071   2.105  11.065  1.6257  0.1052  0.4695
   10MPD2    H3  156   1.143   2.201  11.248 -0.7821  0.1508 -0.4859
   10MPD2     N  157   0.996   1.862  11.511 -0.2009  0.3047  0.6975
   10MPD2    H5  158   1.019   1.918  11.593 -1.0476  0.0060  1.1433
   10MPD2    N1  159   0.946   1.854  11.035 -0.3956 -0.1697  0.1902
   10MPD2    H7  160   0.924   1.755  11.046 -2.3362  0.2567  0.2105
   11TCq1    O1  161   2.184   1.985  14.382  0.6021  0.3954 -0.6426
   11TCq1    C1  162   2.062   2.029  14.367  0.2007  0.1748  0.7989
   11TCq1    O2  163   1.959   1.971  14.402  0.0802 -0.4526  1.1559
   11TCq1    C2  164   2.068   2.102  14.246  0.3432  0.1337 -0.3611
   11TCq1    C3  165   2.181   2.173  14.222  0.0949 -0.4003  0.4816
   11TCq1    C4  166   2.206   2.202  14.090 -0.4951 -0.1608 -0.0098
   11TCq1    C5  167   2.119   2.174  13.991  0.3233 -0.0681  0.2267
   11TCq1    C6  168   2.000   2.109  14.021  0.7244  0.0434  0.0639
   11TCq1    C7  169   1.979   2.066  14.148 -0.2502 -0.1607 -0.2435
   11TCq1    C8  170   1.912   2.047  13.919  0.3089  0.1227 -0.8899
   11TCq1    O4  171   1.832   1.957  13.954  0.0136 -0.2062  0.3726
   11TCq1    C9  172   2.320   2.286  14.063  0.8482 -0.2368 -0.3780
   11TCq1    O5  173   2.384   2.334  14.160 -0.9503  0.1065 -0.2019
   11TCq1    O6  174   2.357   2.296  13.943 -0.7378  0.3551  0.0217
   11TCq1    H1  175   2.253   2.034  14.331 -0.3548  0.7064 -1.6335
   11TCq1    H2  176   2.247   2.210  14.300 -0.3102  0.0316  0.6281
   11TCq1    H3  177   2.145   2.193  13.887 -1.6901  0.7122 -0.1325
   11TCq1    H4  178   1.897   1.999  14.170  0.1539 -0.5221  0.1551
   12MPD2     C  179   1.819   2.162  13.581 -0.1109 -0.7335  0.1998
   12MPD2    C1  180   1.840   2.067  13.679  0.3224 -0.2634 -0.0455
   12MPD2    C2  181   1.796   1.942  13.660 -0.3723 -0.2569 -0.2850
   12MPD2    C3  182   1.739   1.900  13.535 -0.2616 -0.1039 -0.3612
   12MPD2    C4  183   1.705   2.005  13.442  0.0274  0.5909 -0.0634
   12MPD2    C5  184   1.756   2.130  13.466  0.3493  0.0242  0.2861
   12MPD2     H  185   1.801   1.872  13.743 -1.1418  0.9761  0.7951
   12MPD2    H1  186   1.643   1.983  13.355 -1.2871 -0.8741  1.2573
   12MPD2    H2  187   1.828   2.264  13.617 -1.7330 -0.2740 -0.6770
   12MPD2    H3  188   1.723   2.219  13.414  0.9157  0.0195 -0.0801
   12MPD2     N  189   1.690   1.766  13.519 -0.1095 -0.2120  0.8955
   12MPD2    H5  190   1.634   1.747  13.436  1.7205  1.1230 -0.6250
   12MPD2    N1  191   1.906   2.113  13.798 -0.1072 -0.5396  0.4346
   12MPD2    H7  192   1.946   2.206  13.794  0.8425 -0.9288  0.7585
   13TCq1    O1  193   0.087   1.707  11.614 -0.0501 -0.0914  0.2197
   13TCq1    C1  194   0.111   1.573  11.595  0.0818  0.5616 -0.3491
   13TCq1    O2  195   0.076   1.477  11.663  0.1596  0.6024 -0.2967
   13TCq1    C2  196   0.162   1.557  11.464 -0.1846  0.7732  0.1361
   13TCq1    C3  197   0.239   1.447  11.440  0.4438  0.7084 -0.5254
   13TCq1    C4  198   0.316   1.448  11.327 -1.5732  0.0760 -0.1354
   13TCq1    C5  199   0.319   1.556  11.242 -0.1883 -0.3956 -0.0007
   13TCq1    C6  200   0.224   1.653  11.264  0.5955  0.0169  0.8517
   13TCq1    C7  201   0.149   1.660  11.369  0.0012  0.4234  0.4125
   13TCq1    C8  202   0.246   1.781  11.188 -0.6249  0.2424  0.5340
   13TCq1    O4  203   0.188   1.881  11.228  0.7983  0.5211 -0.1274
   13TCq1    C9  204   0.415   1.339  11.316  0.1384  0.1310 -0.1935
   13TCq1    O5  205   0.431   1.270  11.420  0.2680 -0.3041  0.2031
   13TCq1    O6  206   0.491   1.352  11.217  0.3449  0.4578 -0.5496
   13TCq1    H1  207   0.140   1.770  11.561  0.0636 -1.0428 -0.7953
   13TCq1    H2  208   0.246   1.360  11.505  0.0794  0.3609 -0.9557
   13TCq1    H3  209   0.389   1.561  11.159 -1.4140 -0.3198 -1.0359
   13TCq1    H4  210   0.091   1.751  11.378 -1.9420 -0.6452 -1.3319
   14MPD2     C  211   0.435   1.831  10.873  0.3791  0.1811 -1.3864
   14MPD2    C1  212   0.370   1.868  10.991  0.5430  0.1816  0.6664
   14MPD2    C2  213   0.350   1.999  11.025 -0.5376 -0.9157 -0.4824
   14MPD2    C3  214   0.406   2.096  10.948  0.0663  0.0511 -0.6583
   14MPD2    C4  215   0.470   2.060  10.832  0.8446 -0.1183  0.2978
   14MPD2    C5  216   0.477   1.927  10.798 -0.0973 -0.4707 -0.3064
   14MPD2     H  217   0.304   2.028  11.119  0.4363  2.6154 -1.0939
   14MPD2    H1  218   0.528   2.130  10.773  0.0218 -0.6555 -1.1256
   14MPD2    H2  219   0.445   1.730  10.834  0.1242 -0.3068 -0.2153
   14MPD2    H3  220   0.514   1.898  10.700  0.8785  0.2561 -0.1558
   14MPD2     N  221   0.385   2.227  10.993 -0.2059 -0.2170 -0.6889
   14MPD2    H5  222   0.350   2.239  11.087 -0.8607 -1.5384 -0.7648
   14MPD2    N1  223   0.320   1.765  11.074  0.0673 -0.2399 -0.0525
   14MPD2    H7  224   0.350   1.670  11.054  0.1190  0.4306 -3.3005
   15TCq1    O1  225   4.193   1.831   2.182 -0.2515 -0.1843 -0.8200
   15TCq1    C1  226   4.168   1.697   2.207 -0.4706  0.6826 -0.6210
   15TCq1    O2  227   4.256   1.611   2.205  0.4065 -0.1438 -0.1006
   15TCq1    C2  228   4.041   1.663   2.151  0.4523  0.3732  0.3567
   15TCq1    C3  229   3.941   1.718   2.212 -0.0751  0.4858 -0.8210
   15TCq1    C4  230   3.820   1.698   2.154 -0.1547  0.3140 -0.1388
   15TCq1    C5  231   3.802   1.612   2.050 -0.1472 -0.5133  0.4315
   15TCq1    C6  232   3.914   1.560   1.991 -0.4220  0.1374 -0.0219
   15TCq1    C7  233   4.036   1.579   2.045  1.1025  1.1695 -0.0960
   15TCq1    C8  234   3.919   1.464   1.881 -0.5233  0.8048 -0.0345
   15TCq1    O4  235   4.024   1.407   1.860  0.2549 -0.0539  0.4502
   15TCq1    C9  236   3.700   1.761   2.212  0.4549  0.2996  1.1841
   15TCq1    O5  237   3.710   1.822   2.323 -0.5590 -0.6371 -0.2961
   15TCq1    O6  238   3.584   1.742   2.155  0.2752  0.3390  0.6831
   15TCq1    H1  239   4.110   1.878   2.158 -0.9688 -0.8329  0.4128
   15TCq1    H2  240   3.957   1.781   2.299 -2.2390  0.9909 -0.8018
   15TCq1    H3  241   3.701   1.590   2.020 -0.7598  1.2508  1.2181
   15TCq1    H4  242   4.117   1.510   2.026  0.2634  0.9080 -2.7762
   16MPD2     C  243   3.664   1.447   1.604  0.0651 -0.3082  0.0258
   16MPD2    C1  244   3.777   1.419   1.674 -0.0019 -0.5769  0.1564
   16MPD2    C2  245   3.879   1.335   1.615 -0.0582 -0.3442  0.0199
   16MPD2    C3  246   3.863   1.297   1.477 -0.6438  0.3146  0.2790
   16MPD2    C4  247   3.746   1.324   1.413  0.3766  0.1841  0.7072
   16MPD2    C5  248   3.652   1.407   1.476  0.2727  0.3550 -0.1475
   16MPD2     H  249   3.977   1.311   1.655  0.7054  3.1647  0.2486
   16MPD2    H1  250   3.719   1.295   1.312  0.8094 -0.8208  0.8785
   16MPD2    H2  251   3.582   1.510   1.637  1.2514  0.1576  1.9982
   16MPD2    H3  252   3.559   1.440   1.432 -0.1449 -2.3858 -1.3184
   16MPD2     N  253   3.963   1.213   1.419 -0.1084 -0.1000  0.0800
   16MPD2    H5  254   4.045   1.185   1.473  1.7534 -1.6032 -3.5920
   16MPD2    N1  255   3.805   1.471   1.801 -1.1135  0.2831 -0.1835
   16MPD2    H7  256   3.724   1.523   1.835 -1.2329  0.9396 -1.4757
   17TCq1    O1  257   0.869   0.822  11.711 -0.5232  0.3987 -0.5498
   17TCq1    C1  258   0.905   0.711  11.644 -0.3316 -0.1529 -0.4763
   17TCq1    O2  259   0.898   0.592  11.680 -0.0259  0.4982 -0.3995
   17TCq1    C2  260   0.914   0.753  11.503 -1.0929 -0.1963 -0.2187
   17TCq1    C3  261   0.858   0.873  11.463 -0.8713 -0.2748  0.3046
   17TCq1    C4  262   0.898   0.913  11.338 -0.5126  0.4561  0.6074
   17TCq1    C5  263   0.988   0.848  11.254 -0.0898  0.1757  0.1536
   17TCq1    C6  264   1.023   0.725  11.296  0.7872 -0.1830  0.0102
   17TCq1    C7  265   0.975   0.672  11.412  0.1889 -0.0738  0.0039
   17TCq1    C8  266   1.122   0.648  11.220  0.0006  0.1327 -0.7043
   17TCq1    O4  267   1.156   0.542  11.270 -0.2385 -0.1452  0.2269
   17TCq1    C9  268   0.844   1.043  11.299 -0.2069 -0.4842  0.4938
   17TCq1    O5  269   0.780   1.103  11.387  0.7542  0.3111  0.6799
   17TCq1    O6  270   0.854   1.085  11.182  0.2910 -0.4171  0.2644
   17TCq1    H1  271   0.904   0.909  11.681 -0.5880  0.1814 -1.2415
   17TCq1    H2  272   0.788   0.925  11.526  1.2915  1.9413  0.8864
   17TCq1    H3  273   1.014   0.895  11.160 -0.1506  0.1583  0.1282
   17TCq1    H4  274   1.004   0.572  11.443 -1.4064 -0.1456  1.2852
   18MPD2     C  275   1.318   0.574  11.016 -0.2928  0.4130  0.2218
   18MPD2    C1  276   1.251   0.695  11.017 -0.3353  0.4525 -0.1149
   18MPD2    C2  277   1.286   0.790  10.919 -0.5999 -0.0483 -0.4879
   18MPD2    C3  278   1.385   0.763  10.828 -0.2255 -0.1704  0.3697
   18MPD2    C4  279   1.449   0.637  10.831 -1.1982  0.2387 -0.4014
   18MPD2    C5  280   1.424   0.546  10.929 -0.2214 -0.2331 -0.4742
   18MPD2     H  281   1.235   0.885  10.907 -2.1102 -1.0045 -1.6413
   18MPD2    H1  282   1.520   0.614  10.752 -0.3608  2.4679 -0.2998
   18MPD2    H2  283   1.297   0.489  11.079 -0.0265 -0.1829 -0.4821
   18MPD2    H3  284   1.469   0.449  10.938  0.7534  0.2793  0.1865
   18MPD2     N  285   1.415   0.843  10.713 -0.2091 -0.4855 -0.5288
   18MPD2    H5  286   1.464   0.795  10.639 -0.6715  0.5947 -1.5414
   18MPD2    N1  287   1.149   0.717  11.108 -0.4153  0.1221  0.0745
   18MPD2    H7  288   1.083   0.790  11.085 -0.6597 -0.5863 -1.4399
   19TMC2    C1  289   2.991   1.632  14.451  0.1196 -0.3439 -0.2589
   19TMC2    C2  290   3.080   1.635  14.352  0.2030  0.0966  0.3531
   19TMC2    C3  291   3.071   1.555  14.245 -0.1431  0.0507 -0.3165
   19TMC2    C4  292   2.893   1.539  14.451  0.6440 -0.3905  0.3396
   19TMC2    C5  293   2.878   1.461  14.334  0.5872 -0.0394 -0.2372
   19TMC2    C6  294   2.964   1.473  14.227 -0.4968 -0.4197  0.2997
   19TMC2     C  295   3.001   1.727  14.559  0.3874  0.0032  1.0577
   19TMC2     O  296   3.012   1.844  14.522 -0.1115  0.4357  0.1139
   19TMC2     H  297   3.140   1.725  14.352 -1.6597  1.3580 -1.4614
   19TMC2    H1  298   2.818   1.536  14.530 -0.2244 -1.3850 -0.5238
   19TMC2    H2  299   2.957   1.420  14.133  0.4632 -1.8569  1.0478
   19TMC2    C7  300   2.762   1.378  14.319 -0.1978 -0.2971 -0.1575
   19TMC2    C8  301   3.162   1.575  14.137 -0.1238 -0.8474 -0.6066
   19TMC2    O1  302   2.699   1.353  14.420 -0.6482  0.3827 -0.3084
   19TMC2    O2  303   3.133   1.572  14.020 -0.4748  0.2787  0.1237
   19TMC2    O5  304   3.273   1.633  14.175 -0.4304  0.2089  0.6537
   19TMC2    H5  305   3.290   1.639  14.272  0.0757 -1.7001  0.6765
   20MPD2     C  306   3.073   1.894  14.803 -0.8254  0.2647  0.0892
   20MPD2    C1  307   3.083   1.755  14.797  1.2655 -0.6514 -0.0195
   20MPD2    C2  308   3.138   1.680  14.902  0.5392 -0.0379  0.1762
   20MPD2    C3  309   3.180   1.739  15.019  0.4449  0.9058  0.1403
   20MPD2    C4  310   3.190   1.877  15.013 -0.8595  0.0131 -0.0284
   20MPD2    C5  311   3.135   1.951  14.912  0.5509  0.1928  0.4375
   20MPD2     H  312   3.135   1.573  14.885 -1.5505 -0.0046  0.3396
   20MPD2    H1  313   3.223   1.928  15.102 -0.6284  1.2250 -0.8137
   20MPD2    H2  314   3.023   1.946  14.722  0.8366  1.6224 -0.0522
   20MPD2    H3  315   3.143   2.059  14.917 -0.6995  0.3645 -1.2728
   20MPD2     N  316   3.221   1.672  15.132 -0.0611  0.4050  0.1843
   20MPD2    H5  317   3.238   1.728  15.215  1.6328  2.5663 -1.6144
   20MPD2    N1  318   3.051   1.674  14.675 -0.1527  0.4885 -0.0718
   20MPD2    H7  319   3.063   1.574  14.681  0.5532  0.6451  1.0994
   21MPD2     C  320   0.306   2.342  14.128  0.2036  0.7501  0.2829
   21MPD2    C1  321   0.380   2.242  14.195  0.5998 -0.3962  0.1622
   21MPD2    C2  322   0.319   2.149  14.286 -0.1589  1.1795 -0.7165
   21MPD2    C3  323   0.183   2.159  14.301 -0.5811  1.0748  0.3573
   21MPD2    C4  324   0.112   2.254  14.238  0.4092 -0.7525 -0.0042
   21MPD2    C5  325   0.171   2.349  14.156 -0.4859 -0.8158 -0.5317
   21MPD2     H  326   0.384   2.071  14.326 -2.4049 -1.0560 -1.3965
   21MPD2    H1  327   0.004   2.244  14.247  0.3491 -1.1907 -1.2243
   21MPD2    H2  328   0.350   2.411  14.057  2.4576 -0.6556  0.3134
   21MPD2    H3  329   0.106   2.420  14.108  1.3599  0.4525 -1.1732
   21MPD2     N  330   0.107   2.064  14.374  0.0518 -0.3559  0.2086
   21MPD2    H5  331   0.006   2.065  14.361  0.2159 -1.3319 -1.1729
   21MPD2    N1  332   0.519   2.226  14.170  0.1661  0.4203  0.0908
   21MPD2    H7  333   0.569   2.150  14.217  1.0459  0.1235 -1.3147
   22TCq2    C1  334   0.158   1.963  14.447 -0.0500 -0.0383 -0.2676
   22TCq2    O2  335   0.274   1.926  14.463 -0.5206 -0.2003 -0.1813
   22TCq2    C2  336   0.059   1.894  14.531 -0.4375 -0.4509 -0.1753
   22TCq2    C3  337   0.093   1.773  14.578  0.1761  0.0985 -0.1268
   22TCq2    C4  338   0.001   1.705  14.654  0.0001  0.2957 -0.6822
   22TCq2    C5  339   4.608   1.759  14.685 -0.0781  0.3288  0.2072
   22TCq2    C6  340   4.583   1.883  14.638  0.6060  0.3255 -0.2683
   22TCq2    C7  341   4.666   1.957  14.561  0.9955  0.3980 -0.3068
   22TCq2    C8  342   4.460   1.945  14.680  0.0417  1.3375 -0.4482
   22TCq2    O4  343   4.416   1.907  14.786 -0.4486  0.2184 -0.3435
   22TCq2    C9  344   0.021   1.576  14.713 -0.5595 -0.1951  0.1262
   22TCq2    O5  345   0.113   1.504  14.662  0.0767 -0.9041  0.4897
   22TCq2    O6  346   4.686   1.563  14.823  0.1766 -0.0184 -0.0197
   22TCq2    H2  347   0.187   1.722  14.557  2.7759  4.0618  1.9714
   22TCq2    H3  348   4.528   1.708  14.739 -0.8218  1.2726  0.0024
   22TCq2    H4  349   4.655   2.063  14.543 -0.0557  0.4431  0.5939
   23MPD2     C  350   1.771   2.728  14.333 -0.0836 -0.2588 -0.5291
   23MPD2    C1  351   1.696   2.700  14.450  0.8539  0.8455 -0.4370
   23MPD2    C2  352   1.563   2.711  14.447 -0.0538 -0.4880  0.5571
   23MPD2    C3  353   1.498   2.746  14.329 -0.2484  0.5933 -0.3334
   23MPD2    C4  354   1.570   2.769  14.216 -0.1860 -0.0384 -0.4576
   23MPD2    C5  355   1.707   2.762  14.217  0.4618 -0.0186 -0.2879
   23MPD2     H  356   1.508   2.688  14.538  1.8025  0.4588  1.9408
   23MPD2    H1  357   1.521   2.783  14.120  0.0994 -1.7234 -0.8446
   23MPD2    H2  358   1.878   2.714  14.325  0.1951  0.9340  1.0001
   23MPD2    H3  359   1.764   2.778  14.126  1.0220  2.5177  0.5157
   23MPD2     N  360   1.361   2.748  14.318 -0.1637  0.0973 -0.2909
   23MPD2    H5  361   1.325   2.762  14.225 -0.3922 -1.9881 -0.5294
   23MPD2    N1  362   1.759   2.660  14.574 -0.3061  0.0093 -0.3470
   23MPD2    H7  363   1.704   2.648  14.659 -0.8927  0.1975 -0.7004
   24TCq2    C1  364   1.265   2.732  14.416 -0.5097  0.8921  0.2823
   24TCq2    O2  365   1.283   2.716  14.540  0.3535 -0.1290 -0.2480
   24TCq2    C2  366   1.130   2.738  14.365 -0.0028  0.3204 -0.0921
   24TCq2    C3  367   1.020   2.753  14.444 -0.4821 -0.3756 -0.2510
   24TCq2    C4  368   0.902   2.786  14.386 -0.4773  0.4624 -0.4746
   24TCq2    C5  369   0.889   2.801  14.243  1.1001  0.0319 -0.7506
   24TCq2    C6  370   1.000   2.764  14.168  0.0445  0.0033 -0.2562
   24TCq2    C7  371   1.124   2.736  14.228 -0.1215  0.1899 -0.0792
   24TCq2    C8  372   1.012   2.816  14.036  0.1464 -0.4651 -0.3875
   24TCq2    O4  373   1.123   2.838  13.989  0.0805 -0.0757 -0.6937
   24TCq2    C9  374   0.802   2.844  14.462  0.2294 -0.4328 -0.4450
   24TCq2    O5  375   0.815   2.830  14.585 -0.5695  0.3654 -0.0914
   24TCq2    O6  376   0.708   2.897  14.403  0.4156 -0.7820  0.1273
   24TCq2    H2  377   1.027   2.758  14.552 -0.0206 -1.6428 -0.2206
   24TCq2    H3  378   0.795   2.830  14.199  0.0389  0.7468  1.9594
   24TCq2    H4  379   1.202   2.698  14.163 -0.3492 -3.4539  1.7637
   25TMC2    C1  380   0.351   0.581  11.091 -0.2712 -0.6462  0.4075
   25TMC2    C2  381   0.484   0.610  11.061  0.1144  1.1325 -0.5923
   25TMC2    C3  382   0.573   0.613  11.165 -0.1364 -0.0781 -0.0534
   25TMC2    C4  383   0.307   0.557  11.227  0.8757  0.1273 -0.3808
   25TMC2    C5  384   0.401   0.570  11.326 -0.3183  0.0494 -0.5255
   25TMC2    C6  385   0.536   0.586  11.297 -0.6178  0.4300 -0.1686
   25TMC2     C  386   0.275   0.558  10.971 -0.2052 -0.2046 -0.0255
   25TMC2     O  387   0.296   0.624  10.871  0.0355 -0.0524 -0.1177
   25TMC2     H  388   0.516   0.631  10.960 -3.7179  1.8306 -1.6791
   25TMC2    H1  389   0.206   0.522  11.245  0.7061  1.3278  1.0285
   25TMC2    H2  390   0.615   0.598  11.370 -1.0268 -0.1442  0.3635
   25TMC2    C7  391   0.361   0.572  11.462 -0.2858  0.2971 -0.5073
   25TMC2    C8  392   0.717   0.639  11.140 -0.0183 -0.2965 -0.1638
   25TMC2    O1  393   0.441   0.559  11.553 -0.1287 -0.0176  0.0698
   25TMC2    O2  394   0.750   0.684  11.034 -0.3482 -0.6646  0.0658
   25TMC2    O5  395   0.789   0.550  11.214  0.0548 -0.0550 -0.0289
   25TMC2    H5  396   0.745   0.503  11.289 -0.6593 -0.8213 -0.9256
   26MPD2     C  397   4.625   0.322  10.713 -0.2787  0.5563  0.2265
   26MPD2    C1  398   4.646   0.245  10.823 -0.5429 -0.0840  0.0268
   26MPD2    C2  399   0.020   0.288  10.918  0.2805 -0.0223 -0.6679
   26MPD2    C3  400   0.083   0.409  10.893  0.1198  0.4107 -0.5324
   26MPD2    C4  401   0.056   0.482  10.777 -0.8375  0.0031  0.3380
   26MPD2    C5  402   4.684   0.439  10.691 -0.3213 -0.1595 -0.6001
   26MPD2     H  403   0.049   0.236  11.009  1.4235  3.0514  0.7215
   26MPD2    H1  404   0.101   0.577  10.754 -1.9844 -0.0208 -1.9815
   26MPD2    H2  405   4.552   0.291  10.640  0.1533 -2.2125  0.9698
   26MPD2    H3  406   4.664   0.502  10.606 -0.2649 -1.2166 -1.3977
   26MPD2     N  407   0.179   0.459  10.988  0.9928  0.2862  0.0628
   26MPD2    H5  408   0.204   0.409  11.073 -0.7909 -0.8640 -0.0846
   26MPD2    N1  409   4.571   0.127  10.846  0.3628  0.2137 -0.5298
   26MPD2    H7  410   4.496   0.115  10.779 -0.4296  0.1680  0.3623
   27TMC2    C1  411   3.877   2.917  11.486  0.2888  0.1493 -0.6454
   27TMC2    C2  412   3.828   2.893  11.360 -0.2317 -0.3905  0.4455
   27TMC2    C3  413   3.784   3.005  11.289 -0.5725 -0.1910 -0.1428
   27TMC2    C4  414   3.892   3.048  11.526 -0.3650  0.3607  0.3842
   27TMC2    C5  415   3.844   3.157  11.461  0.3362 -0.6631  0.1214
   27TMC2    C6  416   3.775   3.132  11.340 -0.1691  0.1211  0.1982
   27TMC2     C  417   3.803   2.856  11.593 -0.1115  0.0281  0.0386
   27TMC2     O  418   3.776   2.923  11.687  0.3467  0.5472 -0.4544
   27TMC2     H  419   3.809   2.794  11.321 -0.8554 -0.4966  1.0322
   27TMC2    H1  420   3.950   3.068  11.615 -1.2959  1.0304  0.8269
   27TMC2    H2  421   3.752   3.211  11.269  2.1145  1.4337  0.8970
   27TMC2    C7  422   3.796   3.268  11.527 -0.7232 -0.0307 -0.0443
   27TMC2    C8  423   3.755   2.999  11.147 -0.3496 -0.3109  0.3732
   27TMC2    O1  424   3.750   3.366  11.468 -1.2872  0.2414 -0.5192
   27TMC2    O2  425   3.718   3.088  11.075 -0.0506 -0.1632 -0.1883
   27TMC2    O5  426   3.850   2.899  11.114  0.2319 -0.2067  0.4430
   27TMC2    H5  427   3.890   2.866  11.198 -0.4105  2.1744  1.6846
   28MPD2     C  428   3.629   2.440  11.839 -0.5571  0.3154  0.3039
   28MPD2    C1  429   3.597   2.567  11.854  0.1288  0.7024  0.2178
   28MPD2    C2  430   3.662   2.661  11.776 -0.0926  0.6437 -0.4827
   28MPD2    C3  431   3.749   2.624  11.676 -0.1300 -0.1321  0.1329
   28MPD2    C4  432   3.773   2.488  11.653  0.5322 -0.1631  0.4516
   28MPD2    C5  433   3.710   2.401  11.739 -0.7116  0.7691  0.2201
   28MPD2     H  434   3.656   2.767  11.798 -1.0995  0.7060 -1.0699
   28MPD2    H1  435   3.821   2.448  11.565  1.2134 -1.1662  1.2662
   28MPD2    H2  436   3.591   2.357  11.897 -2.2829  0.5021 -0.5689
   28MPD2    H3  437   3.734   2.295  11.739 -0.8783  0.7306 -2.4981
   28MPD2     N  438   3.805   2.719  11.583 -0.1412 -0.0672 -0.0967
   28MPD2    H5  439   3.865   2.675  11.515 -0.7878 -0.3501 -0.4831
   28MPD2    N1  440   3.495   2.598  11.940 -0.5656  0.0566 -0.6127
   28MPD2    H7  441   3.464   2.521  11.999 -0.0385 -0.5060 -1.0701
   29MPD2     C  442   3.387   4.664  14.388 -0.1707  0.4313 -0.0822
   29MPD2    C1  443   3.484   4.609  14.474 -0.4647  0.3538  0.5572
   29MPD2    C2  444   3.513   4.688  14.588  0.6336 -0.5181  0.3004
   29MPD2    C3  445   3.458   0.086  14.615  0.3895  0.3489 -1.0243
   29MPD2    C4  446   3.367   0.133  14.529 -0.0897  0.2501 -0.4388
   29MPD2    C5  447   3.330   0.065  14.419 -0.6185  0.4035 -0.2024
   29MPD2     H  448   3.598   4.661  14.649  1.1720 -0.6836 -0.5238
   29MPD2    H1  449   3.322   0.229  14.551  1.1085  1.3952 -3.1132
   29MPD2    H2  450   3.343   4.622  14.298 -1.4719 -1.3221  1.3521
   29MPD2    H3  451   3.255   0.112  14.358 -0.0278  1.5579 -0.0457
   29MPD2     N  452   3.486   0.165  14.727  0.1647 -0.3119  0.2182
   29MPD2    H5  453   3.455   0.261  14.724  0.5281 -0.1611  1.2016
   29MPD2    N1  454   3.536   4.480  14.454 -0.6772 -0.0171 -0.0821
   29MPD2    H7  455   3.618   4.459  14.510  0.5687  0.1575 -1.8356
   30TCq2    C1  456   3.540   0.116  14.841 -0.1659  0.5772  0.1864
   30TCq2    O2  457   3.558   0.003  14.884  0.6623  0.2587  0.1938
   30TCq2    C2  458   3.561   0.225  14.943 -0.1769 -0.7074 -0.0869
   30TCq2    C3  459   3.548   0.188  15.070 -0.3382 -0.0308 -0.3134
   30TCq2    C4  460   3.537   0.283  15.167 -0.3988  0.6781  0.9285
   30TCq2    C5  461   3.559   0.414  15.140  0.1916 -0.1914  0.0380
   30TCq2    C6  462   3.575   0.450  15.009 -0.2472  0.6013 -0.0289
   30TCq2    C7  463   3.564   0.361  14.906  0.0517  0.3242 -0.1746
   30TCq2    C8  464   3.636   0.579  14.979 -0.2631  0.1912  0.7920
   30TCq2    O4  465   3.698   0.588  14.874  0.1735 -0.1772 -0.2937
   30TCq2    C9  466   3.498   0.239  15.302  0.2526 -0.6334 -0.8126
   30TCq2    O5  467   3.517   0.313  15.401  0.1173  0.6187 -0.1784
   30TCq2    O6  468   3.439   0.134  15.308 -1.2245 -0.0265  0.4693
   30TCq2    H2  469   3.537   0.085  15.101 -0.6742  0.4562  1.1378
   30TCq2    H3  470   3.559   0.489  15.218 -1.5824 -2.2127  1.9845
   30TCq2    H4  471   3.564   0.387  14.801 -3.2472 -0.8647 -0.4746
   31MPD2     C  472   1.362   4.019  14.649  0.2239 -0.0622 -0.6306
   31MPD2    C1  473   1.225   4.029  14.620  0.8174 -0.5968 -0.1379
   31MPD2    C2  474   1.134   3.972  14.709 -0.0889 -1.2891 -0.2008
   31MPD2    C3  475   1.179   3.896  14.813 -0.3958  0.9281  0.4237
   31MPD2    C4  476   1.315   3.869  14.831 -0.3132  0.5693 -0.2518
   31MPD2    C5  477   1.404   3.941  14.760 -0.3761  0.0003 -0.2267
   31MPD2     H  478   1.027   3.975  14.698 -0.4105  2.8479  3.9686
   31MPD2    H1  479   1.351   3.824  14.923 -0.7237  1.9985  0.6019
   31MPD2    H2  480   1.439   4.078  14.600 -0.4925  1.9426  0.6227
   31MPD2    H3  481   1.509   3.939  14.786 -0.4145 -0.7411 -0.1278
   31MPD2     N  482   1.091   3.835  14.909 -0.2558 -0.3904 -0.0333
   31MPD2    H5  483   1.131   3.781  14.985 -0.0636  0.4969  0.4931
   31MPD2    N1  484   1.195   4.125  14.516 -0.1605 -0.1811  0.2045
   31MPD2    H7  485   1.274   4.152  14.458 -1.9121  0.7700 -1.7514
   32TCq2    C1  486   0.957   3.847  14.914  0.4262  0.2724 -0.1097
   32TCq2    O2  487   0.879   3.882  14.825 -0.1497 -0.7981 -0.0308
   32TCq2    C2  488   0.894   3.797  15.036  0.4905  0.5571 -0.0585
   32TCq2    C3  489   0.754   3.815  15.038 -0.2263 -0.2221  0.1560
   32TCq2    C4  490   0.687   3.799  15.152  0.0954 -0.3205  0.1422
   32TCq2    C5  491   0.752   3.754  15.266  0.5728  0.1799  0.0164
   32TCq2    C6  492   0.892   3.748  15.265  0.6492 -0.3748  0.3300
   32TCq2    C7  493   0.964   3.756  15.146  0.5010  0.0994 -0.5487
   32TCq2    C8  494   0.968   3.695  15.376 -0.2918  0.3843 -1.2053
   32TCq2    O4  495   1.081   3.658  15.353 -0.2747 -0.0614 -0.9563
   32TCq2    C9  496   0.547   3.816  15.154 -0.0757 -0.3382  0.0920
   32TCq2    O5  497   0.490   3.793  15.263  0.1082  0.2856  0.2254
   32TCq2    O6  498   0.488   3.831  15.041  0.8719 -0.6914  0.0759
   32TCq2    H2  499   0.701   3.850  14.950 -0.0131  1.5879  0.7448
   32TCq2    H3  500   0.683   3.725  15.344 -0.0042 -1.0890 -0.9688
   32TCq2    H4  501   1.072   3.765  15.152  0.6225 -0.6988 -1.6956
   33MPD2     C  502   1.043   1.231  10.177  0.2347 -0.4844  0.8551
   33MPD2    C1  503   1.163   1.293  10.194 -0.0992 -0.4407  0.7646
   33MPD2    C2  504   1.190   1.400  10.115 -0.3303  0.8797 -0.1058
   33MPD2    C3  505   1.092   1.459  10.030 -0.5375 -0.4721 -0.4678
   33MPD2    C4  506   0.967   1.398  10.025  0.1068  0.6526 -0.0056
   33MPD2    C5  507   0.946   1.282  10.100  0.0413 -0.7719  0.1506
   33MPD2     H  508   1.284   1.452  10.125  0.2422 -0.0656 -0.5902
   33MPD2    H1  509   0.889   1.429   9.957  1.3505 -1.4226 -2.3782
   33MPD2    H2  510   1.018   1.142  10.233  1.6819  0.0576  2.3736
   33MPD2    H3  511   0.853   1.230  10.079 -0.8093 -0.5725  3.4623
   33MPD2     N  512   1.107   1.582   9.959 -0.2177  0.6032 -0.0254
   33MPD2    H5  513   1.035   1.612   9.895 -1.1383  0.2442  0.8464
   33MPD2    N1  514   1.249   1.249  10.297  0.0453 -0.5093  0.5024
   33MPD2    H7  515   1.214   1.165  10.343  0.4171 -0.0322  1.6548
   34TCq2    C1  516   1.207   1.680   9.969 -0.5454 -0.7745  0.3750
   34TCq2    O2  517   1.323   1.656  10.000 -0.8069 -0.3530 -0.5710
   34TCq2    C2  518   1.161   1.807   9.923  0.0628  0.2760 -0.0762
   34TCq2    C3  519   1.041   1.853   9.969 -0.2382  0.1542 -0.0121
   34TCq2    C4  520   1.033   1.990   9.981  0.2705  0.0257  0.3104
   34TCq2    C5  521   1.123   2.079   9.925 -0.0305 -0.4702  0.7050
   34TCq2    C6  522   1.232   2.022   9.862  0.1759  0.1079 -0.5890
   34TCq2    C7  523   1.252   1.886   9.865 -0.8559  0.4604  0.7238
   34TCq2    C8  524   1.328   2.109   9.807  0.3826 -0.1066  0.0358
   34TCq2    O4  525   1.326   2.228   9.838 -0.5476  0.3360  0.1493
   34TCq2    C9  526   0.923   2.055  10.051  0.5177 -0.6448  1.1218
   34TCq2    O5  527   0.873   1.995  10.147  0.0080  0.4574  0.6329
   34TCq2    O6  528   0.918   2.180  10.036  0.4543  0.4642  0.4395
   34TCq2    H2  529   0.968   1.786  10.013  0.5368 -0.6682  0.0138
   34TCq2    H3  530   1.118   2.186   9.945 -0.7899 -0.5123  0.7267
   34TCq2    H4  531   1.347   1.847   9.829 -1.1985 -0.8656  1.2367
   35MPD2     C  532   2.959   3.382  11.411  0.0367 -0.4280  0.1618
   35MPD2    C1  533   2.987   3.249  11.406 -0.5562 -0.1778  0.0471
   35MPD2    C2  534   2.924   3.179  11.305  0.3568 -0.4982  0.7639
   35MPD2    C3  535   2.838   3.239  11.215 -0.0744  0.4318  0.3240
   35MPD2    C4  536   2.818   3.375  11.216 -0.3940 -0.1843  0.2455
   35MPD2    C5  537   2.877   3.441  11.312  0.8395 -0.2957  0.1321
   35MPD2     H  538   2.922   3.070  11.301  1.0653 -0.5372  1.4041
   35MPD2    H1  539   2.755   3.431  11.148  0.6266  2.5145  1.5178
   35MPD2    H2  540   3.003   3.438  11.492  0.1703 -1.4694  0.7965
   35MPD2    H3  541   2.874   3.549  11.314 -0.2195 -0.3119 -1.0479
   35MPD2     N  542   2.776   3.150  11.128 -0.1299  0.1607 -0.0047
   35MPD2    H5  543   2.815   3.057  11.121 -2.5416 -0.8642  0.0004
   35MPD2    N1  544   3.053   3.191  11.515 -0.4297 -0.6926  0.4871
   35MPD2    H7  545   3.064   3.244  11.600  0.2497 -0.1904  0.0871
   36TCq2    C1  546   2.658   3.172  11.062 -0.3762  0.1081  0.2709
   36TCq2    O2  547   2.604   3.278  11.039 -0.7474  0.4668  0.2640
   36TCq2    C2  548   2.611   3.049  11.016 -0.9000 -0.9424 -0.5465
   36TCq2    C3  549   2.506   3.063  10.938 -0.1493 -0.3715 -0.2639
   36TCq2    C4  550   2.414   2.959  10.927 -0.1288 -0.1327 -0.6046
   36TCq2    C5  551   2.431   2.839  10.995  0.3872 -0.0211  0.1718
   36TCq2    C6  552   2.538   2.829  11.077 -0.2741 -0.0674 -0.4145
   36TCq2    C7  553   2.619   2.937  11.098  0.0031 -0.2593 -1.3976
   36TCq2    C8  554   2.561   2.704  11.137 -0.3123 -0.1672 -0.3943
   36TCq2    O4  555   2.470   2.621  11.136  0.5951 -0.0580  0.2847
   36TCq2    C9  556   2.285   2.988  10.855  0.0149  0.0333 -0.3483
   36TCq2    O5  557   2.278   3.095  10.786  0.0801  0.2791  0.3628
   36TCq2    O6  558   2.195   2.905  10.865  0.4853 -0.0291 -0.3555
   36TCq2    H2  559   2.492   3.152  10.878  0.9667  0.0697  0.1380
   36TCq2    H3  560   2.368   2.751  10.983 -1.5080  1.2050  1.2272
   36TCq2    H4  561   2.697   2.933  11.174 -0.1139 -0.3572 -1.2817
   37TMC2    C1  562   0.029   3.204  11.171 -0.5745 -0.5623 -0.9184
   37TMC2    C2  563   4.696   3.282  11.071 -0.1425 -0.1695  0.1673
   37TMC2    C3  564   0.052   3.334  10.970  0.6354  0.5938  0.2895
   37TMC2    C4  565   0.164   3.169  11.165 -0.0488 -0.2048  0.1585
   37TMC2    C5  566   0.243   3.217  11.059 -0.7206 -0.3454  0.6498
   37TMC2    C6  567   0.186   3.299  10.960  0.0128  0.4460  0.1494
   37TMC2     C  568   4.667   3.159  11.273  0.4724  0.2197 -0.3090
   37TMC2     O  569   4.553   3.203  11.279 -0.3224 -0.3268 -0.2318
   37TMC2     H  570   4.592   3.312  11.081 -0.1857  0.8526 -3.3043
   37TMC2    H1  571   0.207   3.114  11.248  0.3388 -0.6628 -0.3523
   37TMC2    H2  572   0.256   3.337  10.887 -0.7562  1.5363 -0.0190
   37TMC2    C7  573   0.387   3.184  11.070  0.4096  0.1933 -0.9113
   37TMC2    C8  574   4.712   3.420  10.867 -0.3012 -0.1097 -0.0901
   37TMC2    O1  575   0.415   3.088  11.146 -0.0957 -0.2914 -0.7285
   37TMC2    O2  576   4.600   3.476  10.864 -0.6195 -0.1508  0.0533
   37TMC2    O5  577   0.086   3.437  10.772  0.0479 -0.5536  0.4233
   37TMC2    H5  578   0.053   3.476  10.688  0.0474 -0.6365  0.3846
   38MPD2     C  579   4.573   2.939  11.725 -0.6526  0.3352  0.2499
   38MPD2    C1  580   4.702   2.930  11.700  0.5013 -0.1513  0.1134
   38MPD2    C2  581   0.019   2.958  11.569  0.3171 -0.5985  0.0185
   38MPD2    C3  582   4.660   3.026  11.483  0.1025  0.5428 -0.1492
   38MPD2    C4  583   4.523   3.049  11.517 -0.1496 -0.0018 -0.0967
   38MPD2    C5  584   4.484   2.993  11.635  0.4043  0.4019 -0.3557
   38MPD2     H  585   0.124   2.941  11.547  0.8945  1.8404  0.8942
   38MPD2    H1  586   4.452   3.103  11.457  0.0745  1.6291  1.1172
   38MPD2    H2  587   4.524   2.899  11.813  2.2323 -1.0316  1.2106
   38MPD2    H3  588   4.378   2.999  11.656  0.0852 -0.3076 -1.7674
   38MPD2     N  589   4.718   3.070  11.361 -0.4394  0.0274  0.4559
   38MPD2    H5  590   0.093   3.050  11.352  0.2791  3.4591  0.5369
   38MPD2    N1  591   0.064   2.867  11.790  0.7223 -0.6199  0.2117
   38MPD2    H7  592   0.160   2.855  11.759 -0.4199 -2.5001 -2.6207
   39MPD2     C  593   4.259   0.714   1.557  0.2511  0.4603  0.3204
   39MPD2    C1  594   4.184   0.826   1.588  0.1789 -0.8761 -0.4367
   39MPD2    C2  595   4.059   0.842   1.540  0.8027 -0.5030 -0.0151
   39MPD2    C3  596   4.000   0.746   1.444  0.0437  0.3287  0.5148
   39MPD2    C4  597   4.078   0.635   1.422 -0.2547 -0.2864 -0.2599
   39MPD2    C5  598   4.206   0.619   1.473 -0.0955  0.6357  0.6147
   39MPD2     H  599   4.005   0.933   1.563  0.0182 -0.5728 -1.5438
   39MPD2    H1  600   4.042   0.568   1.345 -0.2815 -0.3454 -0.1960
   39MPD2    H2  601   4.363   0.706   1.586 -0.0406 -0.4195  1.0916
   39MPD2    H3  602   4.273   0.541   1.438 -0.4608 -0.5627  2.6000
   39MPD2     N  603   3.864   0.747   1.399 -0.5795  0.3857 -0.4295
   39MPD2    H5  604   3.834   0.676   1.333  0.9100  0.3429 -1.0494
   39MPD2    N1  605   4.250   0.935   1.649 -0.2987  0.3122 -0.4562
   39MPD2    H7  606   4.347   0.922   1.678 -1.1880 -1.2858  1.7642
   40TCq2    C1  607   4.219   1.061   1.679 -0.2691 -0.0466 -0.2539
   40TCq2    O2  608   4.122   1.131   1.653  0.1433 -0.3322 -0.5412
   40TCq2    C2  609   4.315   1.115   1.783  0.4131 -0.1612  0.4746
   40TCq2    C3  610   4.356   1.034   1.875 -0.3999 -0.3903  0.8377
   40TCq2    C4  611   4.472   1.069   1.937 -0.4143  0.3425  0.1011
   40TCq2    C5  612   4.553   1.171   1.906  0.5921 -0.4446 -0.0109
   40TCq2    C6  613   4.509   1.250   1.800  0.5799  0.0880 -0.5917
   40TCq2    C7  614   4.387   1.221   1.742  0.5309  0.5951  0.6117
   40TCq2    C8  615   4.597   1.340   1.733  0.7583  0.8493  0.3488
   40TCq2    O4  616   4.574   1.347   1.612 -0.3372 -0.7341  0.4282
   40TCq2    C9  617   4.533   0.973   2.028 -0.2687  0.1736  0.1043
   40TCq2    O5  618   4.469   0.870   2.066 -0.0704 -0.0840 -0.3350
   40TCq2    O6  619   4.656   0.988   2.052  0.4506 -0.4089  0.7166
   40TCq2    H2  620   4.315   0.938   1.906 -3.1656  0.4624 -0.2169
   40TCq2    H3  621   4.646   1.181   1.962  0.2580  0.6346  0.3611
   40TCq2    H4  622   4.338   1.286   1.670 -0.0879 -2.0340 -1.3554
   41TMC2    C1  623   2.362   3.153  13.073 -0.1618 -0.0766 -0.2915
   41TMC2    C2  624   2.493   3.125  13.089  0.2968  0.1453 -0.3387
   41TMC2    C3  625   2.550   3.073  12.972  0.4458  0.4305 -0.0320
   41TMC2    C4  626   2.288   3.134  12.966  0.3627  0.1033  0.2948
   41TMC2    C5  627   2.344   3.080  12.862  0.3132  0.1838 -0.0590
   41TMC2    C6  628   2.476   3.042  12.860  0.3824 -0.0238  0.6826
   41TMC2     C  629   2.304   3.242  13.172  0.0119 -0.0849  0.2356
   41TMC2     O  630   2.246   3.345  13.134 -0.4195 -0.4688  0.3728
   41TMC2     H  631   2.554   3.171  13.165  1.6122 -1.5686 -0.3445
   41TMC2    H1  632   2.183   3.158  12.972  0.3301  0.5319 -2.1141
   41TMC2    H2  633   2.524   2.988  12.780  0.4582  0.1214  0.6308
   41TMC2    C7  634   2.269   3.093  12.740 -0.5636  0.3296  0.0726
   41TMC2    C8  635   2.691   3.030  12.963  0.0553 -0.1348 -0.1735
   41TMC2    O1  636   2.149   3.113  12.750  0.1371 -0.1173  0.3474
   41TMC2    O2  637   2.729   2.954  12.873 -0.1952  0.3203  0.0207
   41TMC2    O5  638   2.756   3.054  13.073  0.1908  0.1541  0.2581
   41TMC2    H5  639   2.736   3.135  13.124 -2.2516 -0.4544  0.2721
   42MPD2     C  640   2.250   3.363  13.432  0.0457 -0.3686  0.6045
   42MPD2    C1  641   2.302   3.243  13.419  0.3854 -0.8112  0.4725
   42MPD2    C2  642   2.340   3.175  13.537 -0.3085  0.1284 -0.0049
   42MPD2    C3  643   2.320   3.233  13.664  0.3207 -0.4477 -1.1606
   42MPD2    C4  644   2.261   3.359  13.671 -0.1789 -0.2693 -0.1323
   42MPD2    C5  645   2.235   3.425  13.552 -0.1135  0.2066 -0.4042
   42MPD2     H  646   2.395   3.082  13.525 -1.2462 -0.4961  0.6213
   42MPD2    H1  647   2.243   3.415  13.763  2.3546 -0.3261  0.3912
   42MPD2    H2  648   2.229   3.426  13.346 -0.8093 -0.6802  0.5782
   42MPD2    H3  649   2.201   3.527  13.539  0.3476  0.3960 -0.0936
   42MPD2     N  650   2.360   3.163  13.783 -0.4043 -0.0148 -0.0726
   42MPD2    H5  651   2.328   3.209  13.868 -1.9242 -0.5088 -0.3681
   42MPD2    N1  652   2.331   3.186  13.294  0.2379  0.1766 -0.0629
   42MPD2    H7  653   2.377   3.095  13.291 -2.3355 -1.2105  3.2154
   43MPD2     C  654   4.500   1.423   0.076 -0.1696  1.1734  0.0458
   43MPD2    C1  655   4.514   1.333   0.180  0.2256 -0.3881  0.7993
   43MPD2    C2  656   4.452   1.373   0.294 -0.6518 -0.5957  0.1807
   43MPD2    C3  657   4.372   1.483   0.305 -0.2472  0.3481 -0.1047
   43MPD2    C4  658   4.367   1.571   0.195  0.0046 -0.5748 -0.2482
   43MPD2    C5  659   4.429   1.538   0.081 -0.8955  0.0228 -0.0752
   43MPD2     H  660   4.481   1.310   0.377  1.0773 -1.4825 -1.0980
   43MPD2    H1  661   4.305   1.660   0.196  0.5180 -0.2369  1.6134
   43MPD2    H2  662   4.549   1.414  17.678  0.8360  1.0059  0.5735
   43MPD2    H3  663   4.415   1.609  17.698  1.1490  0.2915 -0.1769
   43MPD2     N  664   4.300   1.517   0.423  0.0650  0.1488  0.2362
   43MPD2    H5  665   4.256   1.607   0.432 -1.2792 -0.4080 -0.8708
   43MPD2    N1  666   4.588   1.216   0.169 -0.4362 -0.4161  0.4458
   43MPD2    H7  667   4.605   1.169   0.257 -0.5784  1.2840  1.3723
   44TCq2    C1  668   4.129   1.446   0.981 -0.2944  0.0170 -0.0214
   44TCq2    O2  669   4.190   1.342   0.997  0.1049 -0.2666  0.6221
   44TCq2    C2  670   4.112   1.502   0.846  0.0443 -0.5650 -0.4444
   44TCq2    C3  671   4.041   1.612   0.819  0.0437  0.3259  0.3133
   44TCq2    C4  672   4.052   1.674   0.700  0.5320  0.2792 -0.5802
   44TCq2    C5  673   4.128   1.616   0.598 -0.6944  0.7603 -0.0463
   44TCq2    C6  674   4.195   1.498   0.629 -0.3676 -0.2452  0.0696
   44TCq2    C7  675   4.187   1.432   0.747  0.7145  0.5597 -0.3819
   44TCq2    C8  676   4.282   1.431   0.527  0.0217 -1.2822  0.0662
   44TCq2    O4  677   4.316   1.314   0.539 -0.6453 -0.4905  0.1914
   44TCq2    C9  678   3.953   1.780   0.668 -0.3142  0.3745  0.0279
   44TCq2    O5  679   3.971   1.836   0.559 -0.8873 -0.1356 -0.3164
   44TCq2    O6  680   3.876   1.823   0.758  0.6823 -0.5750 -0.5811
   44TCq2    H2  681   3.977   1.669   0.886 -0.2600  0.4410 -0.0714
   44TCq2    H3  682   4.120   1.653   0.496 -0.1511 -1.4647 -0.9068
   44TCq2    H4  683   4.244   1.341   0.761 -1.9424 -1.2807 -1.5204
   45TMC2    C1  684   4.043   3.181   9.314 -0.0045  0.2584 -0.0987
   45TMC2    C2  685   3.967   3.287   9.296 -0.9470 -0.0903 -0.1420
   45TMC2    C3  686   4.029   3.411   9.296 -0.1243 -0.7141 -0.9842
   45TMC2    C4  687   4.174   3.195   9.328  0.1603 -0.2664 -0.0071
   45TMC2    C5  688   4.226   3.313   9.329 -0.0649 -0.2950  0.2182
   45TMC2    C6  689   4.161   3.428   9.324 -0.1359 -0.7134 -0.0547
   45TMC2     C  690   3.986   3.054   9.335 -0.0821 -0.4162 -0.0460
   45TMC2     O  691   4.045   2.994   9.424  0.6588  0.3295 -0.0812
   45TMC2     H  692   3.859   3.279   9.296 -1.2221  3.6675  2.2646
   45TMC2    H1  693   4.234   3.112   9.364  1.5016  1.2789  1.3156
   45TMC2    H2  694   4.213   3.519   9.299 -0.7853 -0.9659 -2.3217
   45TMC2    C7  695   4.366   3.317   9.381  0.3972  0.0902  0.0270
   45TMC2    C8  696   3.944   3.525   9.272 -0.4844  0.0229 -0.0419
   45TMC2    O1  697   4.433   3.216   9.360 -0.2617 -0.3458  0.4174
   45TMC2    O2  698   3.828   3.527   9.238 -0.2915 -0.5282  0.0940
   45TMC2    O5  699   3.992   3.619   9.348  0.2875  0.2412 -0.0919
   45TMC2    H5  700   4.078   3.601   9.392  0.6875  1.4389 -0.3926
   46MPD2     C  701   3.793   2.818   9.368  0.0328 -0.8557  0.6812
   46MPD2    C1  702   3.765   2.931   9.293 -0.8542 -0.3029  0.0760
   46MPD2    C2  703   3.643   2.941   9.230  0.8301  1.2369 -0.1746
   46MPD2    C3  704   3.539   2.853   9.267 -0.5012 -0.6736 -0.1551
   46MPD2    C4  705   3.565   2.736   9.335 -0.7673  0.5707 -0.1473
   46MPD2    C5  706   3.695   2.720   9.382  0.9622 -0.0474  0.2985
   46MPD2     H  707   3.614   3.019   9.160  0.2907  0.9390 -0.2789
   46MPD2    H1  708   3.494   2.656   9.353  0.7394 -0.6500  0.3290
   46MPD2    H2  709   3.888   2.799   9.416 -0.5620 -0.8151  1.8877
   46MPD2    H3  710   3.725   2.640   9.449 -3.1896  0.2045  2.4469
   46MPD2     N  711   3.410   2.889   9.224 -0.0190 -0.1329 -0.2821
   46MPD2    H5  712   3.411   2.974   9.168  2.4789  1.1169  1.6368
   46MPD2    N1  713   3.863   3.030   9.272  0.6145  0.3841 -0.8481
   46MPD2    H7  714   3.832   3.111   9.219  1.4475  1.1677 -0.1454
   47TMC2    C1  715   1.097   3.674   8.393 -0.1357 -0.2920  0.6170
   47TMC2    C2  716   1.069   3.685   8.261  0.0425 -0.0673  0.6234
   47TMC2    C3  717   1.026   3.571   8.198 -0.0711  0.1681  0.3363
   47TMC2    C4  718   1.076   3.563   8.461  0.4898 -0.3714  0.8218
   47TMC2    C5  719   1.018   3.456   8.401 -0.1596  0.0023  0.5920
   47TMC2    C6  720   0.996   3.456   8.266  0.2929  0.1605  0.3897
   47TMC2     C  721   1.154   3.793   8.457 -0.2988 -1.2201 -0.1774
   47TMC2     O  722   1.130   3.898   8.405 -0.4798 -0.7586 -0.0276
   47TMC2     H  723   1.093   3.774   8.205  0.4945 -0.1234  0.7282
   47TMC2    H1  724   1.078   3.570   8.569 -1.9349  3.4644  0.6107
   47TMC2    H2  725   0.957   3.366   8.219 -0.9793  1.7636 -1.5739
   47TMC2    C7  726   1.007   3.336   8.480 -0.1704 -0.2648 -0.1534
   47TMC2    C8  727   1.033   3.578   8.050 -0.2092  0.2277  0.5486
   47TMC2    O1  728   1.037   3.356   8.597 -0.4005  0.1722  0.6876
   47TMC2    O2  729   1.028   3.686   7.996  0.5738 -0.1104 -0.2199
   47TMC2    O5  730   1.113   3.475   8.006 -0.1246 -0.5258  0.1315
   47TMC2    H5  731   1.127   3.410   8.079  0.7700  0.9947  1.3207
   48MPD2     C  732   1.314   3.979   8.613  0.6666  0.8501 -0.1418
   48MPD2    C1  733   1.329   3.845   8.624 -0.2937  0.1549 -0.3143
   48MPD2    C2  734   1.422   3.800   8.710  0.1688 -0.3694  0.3744
   48MPD2    C3  735   1.507   3.883   8.786  0.7963  1.0191 -0.5261
   48MPD2    C4  736   1.485   4.015   8.772 -0.0707  0.3439 -0.3080
   48MPD2    C5  737   1.378   4.066   8.697  0.1970  0.0935 -0.1150
   48MPD2     H  738   1.452   3.696   8.706  0.8985 -0.1450  0.0770
   48MPD2    H1  739   1.544   4.095   8.815  1.7602 -1.2078  0.0222
   48MPD2    H2  740   1.225   4.020   8.566 -0.9384 -1.3476  0.9876
   48MPD2    H3  741   1.356   4.172   8.698 -1.9070 -0.3130 -1.7837
   48MPD2     N  742   1.612   3.820   8.860  0.6394  0.1758  0.6249
   48MPD2    H5  743   1.618   3.720   8.849  0.5984  0.1109  1.1884
   48MPD2    N1  744   1.249   3.755   8.553 -0.4556 -0.4539 -0.2965
   48MPD2    H7  745   1.264   3.656   8.567 -0.5044 -0.3706  0.3489
   49MPD2     C  746   4.514   1.220   9.672 -0.1289  1.8320 -0.4774
   49MPD2    C1  747   4.509   1.139   9.783 -0.6273  0.0287 -0.1726
   49MPD2    C2  748   4.590   1.168   9.894 -0.3056 -0.1059  0.1273
   49MPD2    C3  749   4.671   1.280   9.889 -0.0059  0.3998  0.3537
   49MPD2    C4  750   4.669   1.364   9.785 -0.3011  0.2094  0.3725
   49MPD2    C5  751   4.593   1.331   9.678 -0.0083  0.1684  0.3201
   49MPD2     H  752   4.578   1.112   9.986  1.3243 -1.7982 -0.6900
   49MPD2    H1  753   0.010   1.451   9.788 -0.7292  0.6146 -1.8743
   49MPD2    H2  754   4.464   1.197   9.579  0.6427  2.6202 -1.0859
   49MPD2    H3  755   4.598   1.398   9.593 -0.3851  1.1773  1.0929
   49MPD2     N  756   0.045   1.308   9.985 -0.4415  0.0083 -0.6040
   49MPD2    H5  757   0.114   1.378   9.962  0.0521 -0.1768  0.3602
   49MPD2    N1  758   4.423   1.032   9.795 -0.3566 -0.2760  0.2953
   49MPD2    H7  759   4.421   0.979   9.881  2.7887 -0.4681  0.2411
   50TCq2    C1  760   4.345   0.981   9.687  0.6226 -0.0626  0.2562
   50TCq2    O2  761   4.334   1.023   9.573  0.2524  0.2163  0.4057
   50TCq2    C2  762   4.268   0.864   9.726 -0.5639  0.2098  0.9888
   50TCq2    C3  763   4.214   0.855   9.852 -0.1460  0.4272 -0.4824
   50TCq2    C4  764   4.149   0.733   9.875  0.6910 -0.1771  0.1611
   50TCq2    C5  765   4.121   0.647   9.779  0.6943  0.0569 -0.3965
   50TCq2    C6  766   4.163   0.673   9.651  0.2857  0.0089  0.2984
   50TCq2    C7  767   4.241   0.779   9.618  0.1614 -0.6284 -0.0616
   50TCq2    C8  768   4.146   0.566   9.560  0.6707 -0.3568 -0.1644
   50TCq2    O4  769   4.117   0.453   9.604 -0.2658  0.0401  0.3064
   50TCq2    C9  770   4.094   0.708  10.004  0.0615  0.0469  0.5036
   50TCq2    O5  771   4.091   0.805  10.081 -0.1269 -0.3598 -0.8179
   50TCq2    O6  772   4.023   0.608  10.010 -0.5614  0.4002  0.1393
   50TCq2    H2  773   4.236   0.934   9.923  0.6483 -0.9880  0.8556
   50TCq2    H3  774   4.072   0.553   9.804 -0.4072 -0.1813 -3.3653
   50TCq2    H4  775   4.291   0.785   9.522  0.8292  0.1857  0.3482
   51MPD2     C  776   0.983   4.264   1.161  0.2789 -0.3177  0.1914
   51MPD2    C1  777   0.899   4.238   1.267 -0.4398  0.3521 -0.0189
   51MPD2    C2  778   0.928   4.298   1.388  0.0491  0.1083 -0.3388
   51MPD2    C3  779   1.044   4.371   1.414 -0.4577 -0.8876  0.3994
   51MPD2    C4  780   1.122   4.400   1.304 -0.7390  0.4328 -0.5332
   51MPD2    C5  781   1.086   4.350   1.182 -0.7328  0.3193  0.1086
   51MPD2     H  782   0.866   4.272   1.473  1.5100 -1.8575  0.1335
   51MPD2    H1  783   1.211   4.462   1.307 -0.8777  0.5263  2.0853
   51MPD2    H2  784   0.955   4.230   1.062  0.1924  0.3950 -0.0288
   51MPD2    H3  785   1.141   4.377   1.093 -0.5078  0.7574  0.3766
   51MPD2     N  786   1.085   4.424   1.541  0.1399 -0.6289 -0.0150
   51MPD2    H5  787   1.151   4.500   1.545 -0.1652 -0.3232 -0.7594
   51MPD2    N1  788   0.784   4.162   1.250  0.1776  0.7387  0.2628
   51MPD2    H7  789   0.726   4.136   1.330 -2.4125  1.5722 -1.3527
   52TCq2    C1  790   1.023   4.394   1.659 -0.6975 -0.4473 -0.3097
   52TCq2    O2  791   0.942   4.308   1.688  1.0673  0.1133 -0.1737
   52TCq2    C2  792   1.079   4.474   1.766 -0.2740  0.7120  0.3363
   52TCq2    C3  793   0.995   4.480   1.879  0.8363  0.2362  0.1978
   52TCq2    C4  794   1.019   4.589   1.962 -0.3967 -0.0757  0.2828
   52TCq2    C5  795   1.123   4.671   1.945  0.5285 -0.6187  0.3752
   52TCq2    C6  796   1.211   4.653   1.839 -0.0761  0.6438 -0.8962
   52TCq2    C7  797   1.191   4.553   1.749  0.0501 -0.0027 -0.2060
   52TCq2    C8  798   1.333   0.007   1.819  0.2450 -0.0942 -0.4473
   52TCq2    O4  799   1.397   4.713   1.713  0.3960 -0.1608 -0.4948
   52TCq2    C9  800   0.927   4.608   2.073 -0.1853 -0.0472 -0.0058
   52TCq2    O5  801   0.887   4.503   2.130 -0.0191  0.2597 -0.7152
   52TCq2    O6  802   0.929   4.722   2.119 -0.4159  0.0475 -0.0406
   52TCq2    H2  803   0.905   4.421   1.892  2.1232 -1.3194  2.1263
   52TCq2    H3  804   1.121   0.033   2.011  0.8036 -0.0046 -0.4119
   52TCq2    H4  805   1.250   4.545   1.659 -2.4337  1.2539 -1.9645
   53TMC2    C1  806   1.019   3.123  11.429 -0.4936 -0.4060 -0.4259
   53TMC2    C2  807   1.138   3.078  11.473  0.2872  0.7867  0.7543
   53TMC2    C3  808   1.154   3.039  11.598  0.5368  0.9109  0.5178
   53TMC2    C4  809   0.917   3.145  11.515  0.4866 -0.0454  0.3038
   53TMC2    C5  810   0.937   3.112  11.642 -0.1349 -0.0140  0.1323
   53TMC2    C6  811   1.055   3.056  11.689  0.1677 -0.2589  0.2831
   53TMC2     C  812   1.005   3.155  11.281  0.1710  0.3172  0.2840
   53TMC2     O  813   1.106   3.159  11.206  0.2052  0.0497  0.1746
   53TMC2     H  814   1.214   3.067  11.396 -0.7693 -2.1859  0.1289
   53TMC2    H1  815   0.822   3.188  11.483  1.0589  0.2006 -1.0853
   53TMC2    H2  816   1.060   3.011  11.788 -3.2635 -2.1257 -0.4056
   53TMC2    C7  817   0.811   3.098  11.714 -0.1707 -0.2189 -0.0250
   53TMC2    C8  818   1.284   2.998  11.647 -0.1709 -0.1565 -0.0589
   53TMC2    O1  819   0.721   3.067  11.638 -0.1132 -0.0474  0.0753
   53TMC2    O2  820   1.297   2.992  11.768  0.0367  0.2621 -0.6117
   53TMC2    O5  821   1.373   2.992  11.543  0.0597  0.0315  0.4430
   53TMC2    H5  822   1.336   2.978  11.453 -1.0261 -0.3136  0.9441
   54MPD2     C  823   0.882   3.264  11.022 -0.1466  0.6644  0.6442
   54MPD2    C1  824   0.813   3.204  11.125  0.3389  0.7067 -0.2788
   54MPD2    C2  825   0.675   3.196  11.104 -0.5823  0.2114 -0.5964
   54MPD2    C3  826   0.609   3.249  10.995  0.8415  0.1582 -0.0029
   54MPD2    C4  827   0.676   3.312  10.898  0.5235 -0.4459 -0.4079
   54MPD2    C5  828   0.813   3.317  10.920 -0.1856  0.3212 -0.0820
   54MPD2     H  829   0.624   3.141  11.182 -1.7303  0.4807 -1.1692
   54MPD2    H1  830   0.625   3.363  10.817  1.9133  2.0374  0.2912
   54MPD2    H2  831   0.988   3.284  11.030 -0.4337  2.9158 -1.0517
   54MPD2    H3  832   0.871   3.375  10.849  1.6875 -3.6847 -1.8461
   54MPD2     N  833   0.466   3.247  10.979 -0.2259 -0.2267 -0.3125
   54MPD2    H5  834   0.420   3.294  10.902  1.5981  0.7130 -0.8140
   54MPD2    N1  835   0.872   3.161  11.245  0.4694 -0.5420 -0.0367
   54MPD2    H7  836   0.810   3.123  11.316  1.4625  1.7283  2.0817
   55MPD2     C  837   2.223   1.674  17.308  0.8273 -0.0370  0.3181
   55MPD2    C1  838   2.222   1.540  17.351 -0.2890 -0.9021 -0.3028
   55MPD2    C2  839   2.240   1.519  17.482 -0.6784  0.3118  0.2668
   55MPD2    C3  840   2.229   1.626  17.570 -0.0892  0.3569 -0.1760
   55MPD2    C4  841   2.212   1.756  17.533 -0.1362  0.7034 -0.1455
   55MPD2    C5  842   2.225   1.773  17.400 -0.8963 -0.2135 -0.5980
   55MPD2     H  843   2.252   1.430  17.543  0.7726  1.3043  1.4268
   55MPD2    H1  844   2.212   1.839  17.602  1.7029 -0.1682  0.9108
   55MPD2    H2  845   2.224   1.691  17.201  0.0301 -0.6890  0.2065
   55MPD2    H3  846   2.223   1.872  17.355 -2.1925  0.3265  0.6552
   55MPD2     N  847   2.234   1.602   0.013 -0.0647 -0.0669 -0.1887
   55MPD2    H5  848   2.193   1.671   0.074 -1.1854 -1.6101  0.7984
   55MPD2    N1  849   2.214   1.432  17.259 -1.0075  0.8480 -0.3586
   55MPD2    H7  850   2.205   1.458  17.161 -0.6630 -2.9735 -1.3873
   56TCq2    C1  851   2.209   1.302  17.287 -0.1302 -0.4672  0.5301
   56TCq2    O2  852   2.193   1.258  17.398  0.7496 -0.0467  0.2871
   56TCq2    C2  853   2.212   1.217  17.169  0.8293  0.3818 -0.0730
   56TCq2    C3  854   2.252   1.265  17.047  0.3094  0.5981 -0.4425
   56TCq2    C4  855   2.229   1.187  16.940  0.6757  0.1380  0.6510
   56TCq2    C5  856   2.157   1.072  16.952 -0.8029 -0.6084  1.5485
   56TCq2    C6  857   2.113   1.032  17.074 -0.1045 -0.2735 -0.4596
   56TCq2    C7  858   2.137   1.104  17.182 -0.8087 -0.1925 -0.2343
   56TCq2    C8  859   2.069   0.896  17.088 -0.2784  0.3417  0.2129
   56TCq2    O4  860   2.024   0.840  16.988 -0.8585 -0.2470  0.6035
   56TCq2    C9  861   2.282   1.227  16.810 -0.2855 -0.6388 -0.4163
   56TCq2    O5  862   2.337   1.340  16.817  0.2338 -0.0592  0.3762
   56TCq2    O6  863   2.300   1.139  16.718  0.0565 -0.0462  0.4604
   56TCq2    H2  864   2.294   1.364  17.046  1.7650 -0.0425 -1.7787
   56TCq2    H3  865   2.149   1.008  16.865 -1.1516  0.8836  0.4888
   56TCq2    H4  866   2.102   1.072  17.279 -0.2593 -1.3546 -0.4285
   57TMC2    C1  867   0.657   1.959  13.353 -0.0952 -0.0270  0.2719
   57TMC2    C2  868   0.770   1.993  13.414  0.4434  0.1851 -0.4066
   57TMC2    C3  869   0.880   1.950  13.345 -0.3942  0.4320 -0.0509
   57TMC2    C4  870   0.641   1.895  13.233  0.9648  0.5261  0.8756
   57TMC2    C5  871   0.756   1.868  13.168 -0.3990  0.1014 -0.8238
   57TMC2    C6  872   0.879   1.898  13.218 -0.2429  0.2635  0.6938
   57TMC2     C  873   0.552   1.930  13.444  0.1433  0.4626  0.3065
   57TMC2     O  874   0.528   2.000  13.541 -0.1578  0.2362 -0.8808
   57TMC2     H  875   0.775   2.031  13.516 -1.0814 -1.8627  0.4393
   57TMC2    H1  876   0.545   1.877  13.186  2.5443 -1.1011 -1.7918
   57TMC2    H2  877   0.969   1.886  13.160 -1.1635 -0.1449 -0.6642
   57TMC2    C7  878   0.747   1.769  13.062  0.3068 -0.2798 -0.1024
   57TMC2    C8  879   1.021   1.972  13.386  0.4763  0.0642 -0.6215
   57TMC2    O1  880   0.629   1.752  13.027 -0.3971 -0.8834  0.4344
   57TMC2    O2  881   1.110   1.896  13.351 -0.1368 -0.3273  0.9746
   57TMC2    O5  882   1.019   2.021  13.508  0.4461 -0.2375  0.3483
   57TMC2    H5  883   0.958   2.098  13.508  2.2166  1.1811  0.8590
   58MPD2     C  884   0.176   1.646  13.635 -0.1884  0.0078  0.4073
   58MPD2    C1  885   0.214   1.773  13.672 -0.1319 -0.1511  0.1410
   58MPD2    C2  886   0.315   1.829  13.591  0.4185 -0.3598 -0.2392
   58MPD2    C3  887   0.385   1.764  13.488 -0.0999  0.0641 -0.3082
   58MPD2    C4  888   0.343   1.631  13.468 -0.1785  0.0876  0.1465
   58MPD2    C5  889   0.241   1.577  13.533 -0.2868  0.5438  0.1315
   58MPD2     H  890   0.342   1.928  13.625 -0.6945  0.4128 -1.6201
   58MPD2    H1  891   0.388   1.572  13.388 -1.4151  0.4514 -0.8191
   58MPD2    H2  892   0.107   1.581  13.688  1.4511 -1.7430  0.3467
   58MPD2    H3  893   0.201   1.480  13.507 -2.5035  1.7249 -0.8517
   58MPD2     N  894   0.495   1.811  13.414 -0.4484 -0.7815  0.2466
   58MPD2    H5  895   0.525   1.747  13.341 -1.4928 -0.8478 -0.1285
   58MPD2    N1  896   0.151   1.854  13.775  0.3506  0.2592 -0.2441
   58MPD2    H7  897   0.196   1.944  13.785  2.4641 -0.7734 -0.4171
   59MPD2     C  898   3.214   2.076  12.826 -0.3973  0.3235 -0.1943
   59MPD2    C1  899   3.276   2.152  12.732  0.0487 -0.3531 -0.8445
   59MPD2    C2  900   3.389   2.229  12.766 -0.4224  0.4177 -0.1306
   59MPD2    C3  901   3.443   2.222  12.894  0.5965 -0.0409  0.0805
   59MPD2    C4  902   3.374   2.153  12.988  0.2929 -0.2105  0.4955
   59MPD2    C5  903   3.263   2.086  12.954  0.5542  0.3135 -0.3900
   59MPD2     H  904   3.442   2.281  12.687  0.5913  0.2649  0.4376
   59MPD2    H1  905   3.417   2.132  13.086  2.4576 -0.1149 -0.4425
   59MPD2    H2  906   3.121   2.024  12.811 -1.3764  1.6473  1.2647
   59MPD2    H3  907   3.225   2.019  13.031  2.9964 -0.1167  0.4304
   59MPD2     N  908   3.555   2.294  12.942 -0.0878  0.2811 -0.1705
   59MPD2    H5  909   3.575   2.278  13.041 -0.8587  0.3391 -0.0040
   59MPD2    N1  910   3.227   2.140  12.603 -0.5506  0.5855 -0.0030
   59MPD2    H7  911   3.160   2.065  12.590  0.4092 -0.3801  0.6922
   60TCq2    C1  912   3.292   2.181  12.486  0.2970 -0.0583 -0.3609
   60TCq2    O2  913   3.380   2.268  12.473  0.3654 -0.2116 -0.0527
   60TCq2    C2  914   3.263   2.094  12.375 -0.1241 -0.2134  0.0607
   60TCq2    C3  915   3.216   1.967  12.393  0.7727 -0.3754 -0.4664
   60TCq2    C4  916   3.204   1.887  12.281 -0.7427  0.5271  0.1816
   60TCq2    C5  917   3.243   1.928  12.157  0.6935 -0.1192 -0.3421
   60TCq2    C6  918   3.276   2.061  12.146  0.3310  0.4244 -0.0646
   60TCq2    C7  919   3.290   2.142  12.253  0.2547  0.8890 -0.3359
   60TCq2    C8  920   3.301   2.113  12.014 -0.1851 -0.3180 -0.3194
   60TCq2    O4  921   3.336   2.026  11.934  0.7254 -0.7433  0.0734
   60TCq2    C9  922   3.173   1.749  12.299 -0.0657 -0.0961  0.1780
   60TCq2    O5  923   3.174   1.681  12.198 -0.3858  0.1877 -0.6516
   60TCq2    O6  924   3.161   1.703  12.411 -0.2137 -0.8063  0.4327
   60TCq2    H2  925   3.194   1.924  12.490  1.2349  2.3453  0.8605
   60TCq2    H3  926   3.236   1.856  12.075 -0.1058  1.1461 -1.3805
   60TCq2    H4  927   3.344   2.235  12.249  0.1677  0.9155 -0.9197
   61MPD2     C  928   3.151   3.072  15.524 -0.1257  0.4725  0.0161
   61MPD2    C1  929   3.080   3.174  15.461 -0.2194  0.3517  0.7812
   61MPD2    C2  930   3.119   3.216  15.334 -0.2371  0.1305 -0.2703
   61MPD2    C3  931   3.230   3.152  15.271  0.3508 -0.6413 -0.5136
   61MPD2    C4  932   3.298   3.058  15.337 -0.5775  0.1636  0.4123
   61MPD2    C5  933   3.269   3.020  15.466  0.1518 -0.5467 -0.3678
   61MPD2     H  934   3.062   3.295  15.286 -1.5619 -1.0940 -0.6913
   61MPD2    H1  935   3.386   3.008  15.299 -0.4688 -0.4230  1.4411
   61MPD2    H2  936   3.116   3.026  15.616 -3.0638  0.5426 -1.0574
   61MPD2    H3  937   3.321   2.932  15.503  1.4123  0.8930  1.3081
   61MPD2     N  938   3.269   3.180  15.137  0.1613  0.1628 -0.1503
   61MPD2    H5  939   3.360   3.148  15.106  0.4807 -0.6784  1.6480
   61MPD2    N1  940   2.970   3.238  15.530  0.3044 -0.5472  0.3300
   61MPD2    H7  941   2.934   3.320  15.482 -2.1964 -2.4264 -0.9963
   62TCq2    C1  942   2.915   3.209  15.655 -0.0373 -0.0246  0.2469
   62TCq2    O2  943   2.934   3.104  15.723  0.0997  0.5865 -0.7548
   62TCq2    C2  944   2.800   3.298  15.679  0.1650  0.2048  1.2001
   62TCq2    C3  945   2.714   3.248  15.777 -1.5157 -0.5527 -0.4437
   62TCq2    C4  946   2.607   3.324  15.813  0.1158 -0.2941  0.4894
   62TCq2    C5  947   2.583   3.445  15.752 -0.1053 -0.4136 -0.6473
   62TCq2    C6  948   2.675   3.502  15.663 -0.0431  0.4463  0.2359
   62TCq2    C7  949   2.785   3.428  15.627  0.5018 -0.3960 -0.1033
   62TCq2    C8  950   2.642   3.631  15.603  0.0293 -0.0326  0.3191
   62TCq2    O4  951   2.710   3.653  15.504  0.2800 -0.0302  0.0082
   62TCq2    C9  952   2.514   3.273  15.908 -0.4090  0.3337  0.0665
   62TCq2    O5  953   2.400   3.329  15.915  0.2966  0.9780  0.0033
   62TCq2    O6  954   2.551   3.169  15.962  0.5052 -0.3715 -0.0370
   62TCq2    H2  955   2.746   3.155  15.823  2.4651  0.5699 -0.9226
   62TCq2    H3  956   2.486   3.488  15.770  0.2203  0.5988 -1.2735
   62TCq2    H4  957   2.852   3.473  15.555 -0.4164  2.0395  0.5335
   63TMC2    C1  958   1.887   3.914  10.227 -0.0190  0.2299 -0.4862
   63TMC2    C2  959   1.982   4.008  10.266  0.3361 -0.3721  0.8351
   63TMC2    C3  960   2.024   4.105  10.175 -0.0052  0.3875  0.7650
   63TMC2    C4  961   1.838   3.918  10.098  0.0526 -0.1780 -0.1312
   63TMC2    C5  962   1.872   4.023  10.017  0.5762 -0.0303  0.2396
   63TMC2    C6  963   1.968   4.112  10.049 -0.5999 -1.0999  0.0648
   63TMC2     C  964   1.822   3.839  10.332  0.7545  0.4400 -0.5889
   63TMC2     O  965   1.829   3.892  10.441 -0.0402  0.0182 -0.0363
   63TMC2     H  966   2.002   4.017  10.372  1.7754 -0.0466  0.5389
   63TMC2    H1  967   1.754   3.856  10.069 -2.0564  1.8494  1.6384
   63TMC2    H2  968   1.982   4.204   9.993  0.3545 -0.7809  0.8395
   63TMC2    C7  969   1.783   4.045   9.904 -0.3388 -0.3245  0.3294
   63TMC2    C8  970   2.105   4.217  10.211 -0.4044 -0.5078 -0.0747
   63TMC2    O1  971   1.752   3.952   9.831 -0.1050  0.8093  0.4412
   63TMC2    O2  972   2.109   4.320  10.149  0.5083 -0.3076 -0.0882
   63TMC2    O5  973   2.191   4.177  10.303 -0.1604 -0.4677 -0.3037
   63TMC2    H5  974   2.189   4.081  10.324 -0.8420 -1.0964 -3.1531
   64MPD2     C  975   1.654   3.387  10.545  0.1934 -0.0867 -0.0739
   64MPD2    C1  976   1.664   3.378  10.408  0.6578  0.4871 -0.2503
   64MPD2    C2  977   1.698   3.490  10.325 -0.1995  0.2322 -0.4389
   64MPD2    C3  978   1.725   3.614  10.382  0.2641 -0.2951  0.4896
   64MPD2    C4  979   1.719   3.628  10.516  0.8669  0.6749 -0.6420
   64MPD2    C5  980   1.684   3.514  10.598  0.5756 -0.3090 -0.0259
   64MPD2     H  981   1.704   3.481  10.217 -0.5711 -0.1143 -0.4325
   64MPD2    H1  982   1.742   3.723  10.563 -1.0014  0.4399  0.7211
   64MPD2    H2  983   1.632   3.300  10.606  0.2678  0.1129  0.2371
   64MPD2    H3  984   1.700   3.522  10.705  3.1584  0.5373 -0.4701
   64MPD2     N  985   1.771   3.716  10.295  0.2489 -0.0360  0.2290
   64MPD2    H5  986   1.787   3.692  10.197 -1.8858  0.8563 -0.3370
   64MPD2    N1  987   1.652   3.247  10.355  0.1491 -0.0062  0.4387
   64MPD2    H7  988   1.650   3.172  10.423  0.9099  0.8697  1.4183
   65MPD2     C  989   3.709   2.842  15.910 -0.1264  0.3842 -0.3975
   65MPD2    C1  990   3.652   2.804  15.792  0.3716 -0.1077 -0.1797
   65MPD2    C2  991   3.631   2.670  15.773 -0.5384  0.0034  0.1881
   65MPD2    C3  992   3.646   2.583  15.883  0.2405 -0.0512  0.1257
   65MPD2    C4  993   3.697   2.627  16.003 -0.8273  0.0023 -0.3634
   65MPD2    C5  994   3.731   2.755  16.016 -0.3623  0.1203  0.4407
   65MPD2     H  995   3.581   2.626  15.687 -2.4767  0.6678  0.9700
   65MPD2    H1  996   3.704   2.568  16.094  1.0409  0.1548 -0.4129
   65MPD2    H2  997   3.751   2.940  15.929  0.1948  0.3126 -0.7393
   65MPD2    H3  998   3.777   2.784  16.110  0.9733  1.1354 -0.5173
   65MPD2     N  999   3.587   2.457  15.884  0.3817 -0.0001  0.0095
   65MPD2    H5 1000   3.587   2.406  15.971 -1.0785 -0.3962 -0.2255
   65MPD2    N1 1001   3.631   2.899  15.683 -0.1353 -0.0973 -0.0566
   65MPD2    H7 1002   3.621   2.856  15.592 -2.0940 -1.3612  0.7631
   66TCq2    C1 1003   3.627   3.033  15.691 -0.3199  0.5783  0.5493
   66TCq2    O2 1004   3.619   3.104  15.791 -0.1425 -0.2845  0.4899
   66TCq2    C2 1005   3.614   3.098  15.560 -0.2028 -0.1157 -0.2955
   66TCq2    C3 1006   3.669   3.038  15.452 -0.4962 -0.0390 -0.3668
   66TCq2    C4 1007   3.665   3.115  15.341 -0.3768 -0.5105 -0.0574
   66TCq2    C5 1008   3.608   3.245  15.333  0.8837 -0.9956 -0.2787
   66TCq2    C6 1009   3.566   3.302  15.450 -0.0080 -0.2736 -0.8325
   66TCq2    C7 1010   3.575   3.231  15.565 -0.4896 -0.1741 -0.6060
   66TCq2    C8 1011   3.502   3.434  15.441  0.7516 -0.2556  0.4448
   66TCq2    O4 1012   3.524   3.500  15.338  0.1152 -0.3794 -0.0519
   66TCq2    C9 1013   3.735   3.066  15.226 -0.4185 -0.0506  0.4526
   66TCq2    O5 1014   3.735   3.137  15.127 -0.1682 -0.1576  0.3656
   66TCq2    O6 1015   3.800   2.957  15.230  0.0807  0.3641 -0.2989
   66TCq2    H2 1016   3.727   2.947  15.448 -1.0554 -0.4741  1.6699
   66TCq2    H3 1017   3.606   3.298  15.238 -0.3921 -0.8347 -0.1651
   66TCq2    H4 1018   3.536   3.267  15.659 -0.4083 -1.6219 -0.0278
   67MPD2     C 1019   3.641   2.272  14.136  0.6265 -0.2518  0.9448
   67MPD2    C1 1020   3.552   2.364  14.197 -0.3746  0.8917 -0.0465
   67MPD2    C2 1021   3.434   2.403  14.127 -0.4242  0.3066 -0.1912
   67MPD2    C3 1022   3.398   2.354  13.998  0.0283  0.5238  0.5058
   67MPD2    C4 1023   3.498   2.283  13.932  1.0605  0.0862 -0.1540
   67MPD2    C5 1024   3.607   2.242  14.008 -0.3269 -0.3850 -0.5200
   67MPD2     H 1025   3.358   2.465  14.171  0.5306  2.1003 -1.0495
   67MPD2    H1 1026   3.480   2.252  13.830  0.6020  2.4324 -0.7738
   67MPD2    H2 1027   3.731   2.236  14.183  1.6785  0.1776 -0.7422
   67MPD2    H3 1028   3.681   2.183  13.953  0.2495 -0.7020  0.5944
   67MPD2     N 1029   3.262   2.381  13.947 -0.0510 -0.4814  0.2482
   67MPD2    H5 1030   3.202   2.432  14.011 -1.1478  0.5011 -1.5413
   67MPD2    N1 1031   3.579   2.411  14.327  0.2767  0.3920  0.5623
   67MPD2    H7 1032   3.510   2.481  14.355 -0.9257 -0.9184  0.8739
   68TCq2    C1 1033   3.692   2.393  14.407 -0.0591  0.3744  0.7033
   68TCq2    O2 1034   3.788   2.319  14.384  0.6534  0.9865 -0.1210
   68TCq2    C2 1035   3.701   2.472  14.527  0.2477 -0.4380 -0.1893
   68TCq2    C3 1036   3.591   2.532  14.574  0.6096 -0.2859 -0.0530
   68TCq2    C4 1037   3.616   2.625  14.670 -0.2530  0.1408  0.7971
   68TCq2    C5 1038   3.736   2.647  14.733  0.0168 -0.2117  0.4689
   68TCq2    C6 1039   3.836   2.571  14.685  0.1833 -0.6286 -0.4807
   68TCq2    C7 1040   3.828   2.495  14.575  0.3385 -0.5727  0.1680
   68TCq2    C8 1041   3.968   2.565  14.752  0.6033 -0.8265 -0.4403
   68TCq2    O4 1042   4.052   2.520  14.680  0.3687 -0.0893 -0.0879
   68TCq2    C9 1043   3.498   2.689  14.719  0.1322  0.2207 -0.3890
   68TCq2    O5 1044   3.398   2.705  14.644  0.2980  0.0348 -0.2452
   68TCq2    O6 1045   3.513   2.732  14.833 -0.9132 -0.0719 -0.5166
   68TCq2    H2 1046   3.487   2.511  14.550  1.0063 -0.6599 -1.4245
   68TCq2    H3 1047   3.750   2.715  14.816  0.5671 -0.3633  0.5020
   68TCq2    H4 1048   3.910   2.438  14.534  1.7396  1.5799 -0.0042
   69TMC2    C1 1049   4.564   3.846  11.567 -0.1763 -0.3952  0.1695
   69TMC2    C2 1050   4.463   3.793  11.481 -0.2877 -0.0302  0.0261
   69TMC2    C3 1051   4.464   3.839  11.354 -0.9276  0.3216 -1.2081
   69TMC2    C4 1052   4.649   3.940  11.515  0.2966 -0.2186 -0.8795
   69TMC2    C5 1053   4.653   3.967  11.384  0.4068 -0.2450  0.4892
   69TMC2    C6 1054   4.552   3.930  11.306 -1.0374  0.1907 -0.2003
   69TMC2     C 1055   4.640   3.749  11.646  0.3138 -0.0993 -0.9808
   69TMC2     O 1056   4.581   3.659  11.708 -0.8430  0.0864  0.0187
   69TMC2     H 1057   4.408   3.703  11.505 -0.5084  0.5712  1.7603
   69TMC2    H1 1058   4.717   3.996  11.578 -0.4718 -1.5059  1.0843
   69TMC2    H2 1059   4.550   3.938  11.197 -1.5399  0.8679 -0.1426
   69TMC2    C7 1060   0.057   3.982  11.330 -0.1472  0.1506  0.1271
   69TMC2    C8 1061   4.347   3.801  11.279 -0.4938  0.2380 -0.0008
   69TMC2    O1 1062   0.143   3.944  11.410  0.0614  0.1263  0.3416
   69TMC2    O2 1063   4.349   3.799  11.156 -0.1055  0.3243  0.4072
   69TMC2    O5 1064   4.239   3.832  11.354  0.6996 -0.1045  0.3588
   69TMC2    H5 1065   4.273   3.855  11.444 -1.1415  1.5562  0.6060
   70MPD2     C 1066   0.273   3.710  11.640  0.4931 -0.8328  0.1534
   70MPD2    C1 1067   0.148   3.704  11.692 -0.0597 -0.1651  0.3384
   70MPD2    C2 1068   0.128   3.641  11.817  0.3842  0.7193  0.3856
   70MPD2    C3 1069   0.230   3.575  11.879 -0.2394 -0.7775 -0.1873
   70MPD2    C4 1070   0.350   3.570  11.814  0.2513 -0.4927  0.0712
   70MPD2    C5 1071   0.373   3.634  11.695  0.0785 -0.4207  0.3143
   70MPD2     H 1072   0.027   3.645  11.856 -0.0760 -0.7922 -0.6317
   70MPD2    H1 1073   0.432   3.513  11.856 -0.0172 -1.0020 -0.0913
   70MPD2    H2 1074   0.296   3.748  11.541 -0.7213 -0.3588  0.0445
   70MPD2    H3 1075   0.473   3.626  11.653 -0.0369  0.4504 -0.1246
   70MPD2     N 1076   0.223   3.530  12.018  0.0439  0.2427 -0.2006
   70MPD2    H5 1077   0.309   3.500  12.062  0.3383  1.8794  0.3276
   70MPD2    N1 1078   0.047   3.765  11.616 -0.0475  0.0759  0.2326
   70MPD2    H7 1079   0.076   3.812  11.531  2.5528  0.7015  1.4827
   71TMC2    C1 1080   3.734   4.548   2.041  0.1615  0.6154  0.5461
   71TMC2    C2 1081   3.780   4.445   2.118  0.5476 -0.4052 -0.2591
   71TMC2    C3 1082   3.768   4.462   2.250  0.7318 -0.3741  0.1998
   71TMC2    C4 1083   3.671   4.663   2.096 -0.0190 -0.2960  0.6281
   71TMC2    C5 1084   3.664   4.672   2.231  0.2672 -0.8902 -0.2466
   71TMC2    C6 1085   3.704   4.567   2.310  0.9552  0.1871  0.4215
   71TMC2     C 1086   3.770   4.560   1.903  0.8673 -0.1076 -0.0954
   71TMC2     O 1087   3.720   4.658   1.842 -0.1113  0.0963  0.0766
   71TMC2     H 1088   3.822   4.348   2.093  0.5997 -0.8302  1.4604
   71TMC2    H1 1089   3.631   0.018   2.034 -0.6978 -1.5811 -0.5989
   71TMC2    H2 1090   3.679   4.572   2.416  1.6046 -1.5908  0.6633
   71TMC2    C7 1091   3.582   0.045   2.294 -0.0438  0.3953  0.2389
   71TMC2    C8 1092   3.779   4.345   2.327 -0.8183 -0.1745  0.5230
   71TMC2    O1 1093   3.598   0.061   2.414  0.2787  0.2278 -0.9299
   71TMC2    O2 1094   3.849   4.248   2.302 -0.4068 -0.0276 -0.1910
   71TMC2    O5 1095   3.672   4.337   2.404 -0.0416 -0.2020 -0.3197
   71TMC2    H5 1096   3.603   4.401   2.374  1.3137  0.2569 -2.4516
   72MPD2     C 1097   4.034   4.443   1.490  0.3888  0.0673  0.4122
   72MPD2    C1 1098   3.912   4.501   1.493  0.3365  0.2276 -0.7067
   72MPD2    C2 1099   3.849   4.517   1.619 -0.3915 -0.4298  0.0338
   72MPD2    C3 1100   3.911   4.464   1.730  0.1199 -0.5428 -0.8204
   72MPD2    C4 1101   4.038   4.399   1.720  0.0752  0.4141  0.7539
   72MPD2    C5 1102   4.098   4.392   1.596 -1.4320 -0.0497 -0.2589
   72MPD2     H 1103   3.756   4.569   1.639 -1.0538 -1.8388  0.5760
   72MPD2    H1 1104   4.093   4.363   1.806 -0.0913  0.9713  1.0930
   72MPD2    H2 1105   4.095   4.449   1.400 -1.4709  0.4216 -0.8347
   72MPD2    H3 1106   4.194   4.344   1.587 -2.1626 -1.5383 -0.1876
   72MPD2     N 1107   3.863   4.468   1.859  0.1741 -0.4808  0.0535
   72MPD2    H5 1108   3.915   4.414   1.927  0.2502  0.0065  0.3798
   72MPD2    N1 1109   3.853   4.550   1.379 -0.4756 -0.5831  0.1573
   72MPD2    H7 1110   3.771   4.604   1.405  0.1123  0.8397 -0.9247
   73TMC2    C1 1111   2.691   0.858  14.209  0.2832  0.3850  0.2314
   73TMC2    C2 1112   2.609   0.890  14.309 -0.2209 -0.0607  0.1610
   73TMC2    C3 1113   2.656   0.964  14.412 -0.2224 -0.5536  0.6103
   73TMC2    C4 1114   2.826   0.880  14.222  0.2378  0.0944  0.5467
   73TMC2    C5 1115   2.870   0.968  14.313  0.8376 -0.1469  0.1342
   73TMC2    C6 1116   2.782   1.005  14.418 -0.2061 -0.2954  0.1321
   73TMC2     C 1117   2.654   0.833  14.073 -0.0484 -0.9145 -0.6331
   73TMC2     O 1118   2.748   0.859  13.998  0.2350 -0.0612  0.0162
   73TMC2     H 1119   2.501   0.886  14.300 -0.1048 -0.8183 -0.9228
   73TMC2    H1 1120   2.893   0.829  14.154 -0.0068 -0.4632  0.7236
   73TMC2    H2 1121   2.812   1.079  14.492 -0.4000  0.2845 -0.3737
   73TMC2    C7 1122   2.956   1.068  14.243 -0.4031  0.6311  0.0383
   73TMC2    C8 1123   2.579   0.981  14.533 -0.1670 -0.2298  1.3144
   73TMC2    O1 1124   3.023   1.149  14.308 -0.5144  0.3078  0.6765
   73TMC2    O2 1125   2.580   1.081  14.603  0.4530 -0.1349 -0.1307
   73TMC2    O5 1126   2.483   0.886  14.536  0.3263  0.3710 -0.1856
   73TMC2    H5 1127   2.508   0.800  14.495  1.7724 -0.2159  1.8696
   74MPD2     C 1128   2.385   0.747  13.655  0.1699 -0.6574 -0.4114
   74MPD2    C1 1129   2.489   0.829  13.676  0.5105  0.1855 -0.5961
   74MPD2    C2 1130   2.529   0.863  13.807 -0.0120 -0.4704  0.1101
   74MPD2    C3 1131   2.473   0.792  13.910 -0.2549  0.5136  0.0147
   74MPD2    C4 1132   2.352   0.723  13.886 -0.1121 -0.1360 -0.4319
   74MPD2    C5 1133   2.304   0.704  13.756 -0.0728 -0.9833  0.4094
   74MPD2     H 1134   2.617   0.924  13.825 -0.9652  0.6677  0.8418
   74MPD2    H1 1135   2.312   0.667  13.969  1.7453 -1.9243 -0.7609
   74MPD2    H2 1136   2.351   0.717  13.557 -0.8921 -0.6947 -0.0407
   74MPD2    H3 1137   2.212   0.651  13.732 -1.7486  1.9023  0.4251
   74MPD2     N 1138   2.523   0.804  14.046  0.0917  0.1977  0.2440
   74MPD2    H5 1139   2.469   0.759  14.119  0.4729 -0.3895  0.1620
   74MPD2    N1 1140   2.565   0.872  13.561 -0.2133  0.4967  0.8616
   74MPD2    H7 1141   2.554   0.816  13.477  2.3302  1.5620 -0.1837
   75TCq2    C1 1142   3.222   2.345  13.818  0.1280  0.6465  0.8311
   75TCq2    O2 1143   3.281   2.291  13.729 -0.1476  0.0648  0.5650
   75TCq2    C2 1144   3.081   2.374  13.797  0.8917  0.4399 -0.7809
   75TCq2    C3 1145   3.003   2.402  13.905  0.0474 -0.1519 -1.0167
   75TCq2    C4 1146   2.873   2.444  13.886 -0.1133  0.0133  0.0709
   75TCq2    C5 1147   2.825   2.462  13.756  0.2744 -0.3573 -0.0139
   75TCq2    C6 1148   2.907   2.440  13.656  0.3114 -0.1149 -0.2241
   75TCq2    C7 1149   3.040   2.402  13.667 -0.2008  0.4789  0.4048
   75TCq2    C8 1150   2.859   2.459  13.523 -0.0846 -0.6175 -0.0196
   75TCq2    O4 1151   2.923   2.395  13.438 -0.2656  0.0139 -0.2595
   75TCq2    C9 1152   2.786   2.470  13.995  0.3374  0.6546  0.0776
   75TCq2    O5 1153   2.669   2.434  13.962  0.6282  0.3220  0.1867
   75TCq2    O6 1154   2.828   2.466  14.115 -0.3886  0.2366 -0.1640
   75TCq2    H2 1155   3.021   2.381  14.010  0.8405 -2.4892 -1.6111
   75TCq2    H3 1156   2.728   2.503  13.729  0.0763 -0.1252  1.0202
   75TCq2    H4 1157   3.104   2.389  13.580  0.5624 -0.9977  1.1933
   76MPD2     C 1158   1.064   3.434  11.641 -0.9015 -0.3499  0.0532
   76MPD2    C1 1159   1.118   3.444  11.511  0.2526  0.6847  0.8779
   76MPD2    C2 1160   1.243   3.393  11.491  0.8781  0.3140  0.1590
   76MPD2    C3 1161   1.321   3.330  11.585 -0.4126 -0.4237 -0.0590
   76MPD2    C4 1162   1.272   3.335  11.720 -0.4309  0.3091  0.2607
   76MPD2    C5 1163   1.141   3.379  11.741  0.2908  0.0482 -0.0619
   76MPD2     H 1164   1.283   3.396  11.390  0.9672  1.5563  0.2370
   76MPD2    H1 1165   1.332   3.299  11.803 -2.6991  0.2450  1.8628
   76MPD2    H2 1166   0.970   3.477  11.674  0.7665  0.5023  3.6613
   76MPD2    H3 1167   1.106   3.384  11.843  1.2793  0.2120  0.2720
   76MPD2     N 1168   1.458   3.298  11.559 -0.0759  0.0870  0.1143
   76MPD2    H5 1169   1.522   3.293  11.638 -0.4146  2.6717  0.5526
   76MPD2    N1 1170   1.050   3.506  11.401 -0.1420 -0.0526  0.4968
   76MPD2    H7 1171   1.099   3.499  11.312  0.8269 -0.9756  1.0919
   77TCq2    C1 1172   1.516   3.265  11.434 -0.2738  0.3463  0.7069
   77TCq2    O2 1173   1.449   3.226  11.339  0.0022  0.0720  0.3828
   77TCq2    C2 1174   1.656   3.231  11.446 -0.6806  0.3775 -0.4941
   77TCq2    C3 1175   1.750   3.327  11.483  0.6179  0.2124  0.2640
   77TCq2    C4 1176   1.885   3.284  11.494  0.1455  0.7730  0.2620
   77TCq2    C5 1177   1.928   3.167  11.434 -0.4619 -0.1054 -0.1028
   77TCq2    C6 1178   1.831   3.075  11.397  0.1467  0.1641 -0.6982
   77TCq2    C7 1179   1.702   3.110  11.395 -0.0191  0.0316 -0.6154
   77TCq2    C8 1180   1.862   2.932  11.378  0.1268 -0.5346 -0.1972
   77TCq2    O4 1181   1.785   2.854  11.325  0.1239  0.1152 -0.0516
   77TCq2    C9 1182   1.980   3.379  11.554  0.0687  1.2124  0.2917
   77TCq2    O5 1183   1.938   3.433  11.658 -0.1981 -0.3902  0.2563
   77TCq2    O6 1184   2.084   3.415  11.498  0.2442 -0.2151 -0.3709
   77TCq2    H2 1185   1.723   3.428  11.515  1.3162  0.7751 -0.9145
   77TCq2    H3 1186   2.034   3.155  11.418 -0.3271  1.3829 -0.2758
   77TCq2    H4 1187   1.629   3.038  11.362  0.5951  0.4666 -2.9286
   78MPD1     C 1188   2.549   0.015   2.068 -0.0185  0.3970  0.1583
   78MPD1    C1 1189   2.620   0.002   1.944 -0.0421  0.2426  0.2752
   78MPD1    C2 1190   2.754   4.684   1.945 -0.3499  0.4639  0.6168
   78MPD1    C3 1191   2.823   4.654   2.060 -0.1751  0.0131 -0.2296
   78MPD1    C4 1192   2.757   4.669   2.179  0.3884 -0.8731 -0.3145
   78MPD1    C5 1193   2.626   4.711   2.179  0.1316 -0.0614 -0.2378
   78MPD1     H 1194   2.806   4.668   1.852  0.8817 -1.4665  1.6264
   78MPD1    H1 1195   2.811   4.646   2.270 -0.3322  1.9132  0.8202
   78MPD1    H2 1196   2.443   0.035   2.066 -0.2803 -0.8900  1.5153
   78MPD1    H3 1197   2.569   4.703   2.271 -0.5887 -1.6613 -0.8198
   78MPD1     N 1198   2.951   4.606   2.058 -0.3598 -0.6391  0.3211
   78MPD1    H5 1199   2.991   4.572   2.145 -1.4370 -1.0662  0.6535
   78MPD1    N1 1200   2.552   0.004   1.821 -0.1140  0.5595  0.1275
   78MPD1    H6 1201   2.622   0.016   1.749  0.8065 -0.1261  0.8988
   78MPD1    H7 1202   2.477   0.073   1.824 -1.3513 -0.8628  2.4780
   79TCq2    C1 1203   3.033   4.602   1.954 -0.4262  0.1550  0.2764
   79TCq2    O2 1204   3.026   4.631   1.832  0.2913  0.5941  1.2238
   79TCq2    C2 1205   3.164   4.557   1.991  0.5584 -0.1022  0.3118
   79TCq2    C3 1206   3.203   4.560   2.119 -0.4210  0.0941  0.4032
   79TCq2    C4 1207   3.312   4.497   2.157 -0.0236 -0.2197 -0.2431
   79TCq2    C5 1208   3.401   4.444   2.065 -0.1606  0.6016 -0.0459
   79TCq2    C6 1209   3.369   4.448   1.931  0.0926 -0.0596  0.3203
   79TCq2    C7 1210   3.248   4.510   1.893 -0.1685 -0.0074 -0.1300
   79TCq2    C8 1211   3.447   4.366   1.837  0.7275  0.7883 -0.4752
   79TCq2    O4 1212   3.525   4.295   1.901 -0.0781  0.3659 -0.9581
   79TCq2    C9 1213   3.338   4.472   2.299 -0.2540  1.1919  0.2420
   79TCq2    O5 1214   3.448   4.411   2.326 -0.2558  0.7669 -0.3339
   79TCq2    O6 1215   3.251   4.488   2.383 -0.0294  0.2022  0.2511
   79TCq2    H2 1216   3.140   4.593   2.201 -2.8709  0.4054 -1.6168
   79TCq2    H3 1217   3.476   4.377   2.104 -0.2163 -0.0719 -1.0873
   79TCq2    H4 1218   3.216   4.516   1.789 -1.5511  0.3763  0.3083
   80MPD2     C 1219   1.019   2.747  11.873 -0.2892  0.0738 -1.1406
   80MPD2    C1 1220   0.917   2.719  11.785 -0.4846 -0.1259 -0.1683
   80MPD2    C2 1221   0.788   2.737  11.831 -0.3393 -0.7768 -0.0486
   80MPD2    C3 1222   0.755   2.753  11.973  0.1679 -0.1777 -0.6973
   80MPD2    C4 1223   0.861   2.769  12.059  0.0204  0.5347  0.3309
   80MPD2    C5 1224   0.988   2.764  12.009 -0.5828  0.3010 -0.7389
   80MPD2     H 1225   0.713   2.723  11.753 -2.8928 -2.8931  2.7456
   80MPD2    H1 1226   0.839   2.780  12.164 -1.7105  0.0507  0.0094
   80MPD2    H2 1227   1.124   2.733  11.851 -0.0770  1.2042 -0.8357
   80MPD2    H3 1228   1.074   2.772  12.075 -1.1901  1.2836 -0.0732
   80MPD2     N 1229   0.624   2.776  12.023  1.0827  0.2818 -0.5956
   80MPD2    H5 1230   0.617   2.797  12.122 -3.9628  1.2664 -1.1540
   80MPD2    N1 1231   0.939   2.675  11.654  0.6494 -1.1744 -0.2520
   80MPD2    H7 1232   0.854   2.653  11.603  1.0271 -1.6495 -0.6809
   81TCq2    C1 1233   1.063   2.657  11.594 -0.4077  0.3996 -0.0660
   81TCq2    O2 1234   1.180   2.670  11.635  0.1356 -0.4229  0.4014
   81TCq2    C2 1235   1.049   2.605  11.457  0.3134  0.2547  0.9101
   81TCq2    C3 1236   1.154   2.620  11.370 -0.4128 -0.1100 -0.4674
   81TCq2    C4 1237   1.148   2.580  11.239  0.0915 -0.1567  0.0002
   81TCq2    C5 1238   1.041   2.505  11.197 -0.1359  0.8712  0.8012
   81TCq2    C6 1239   0.944   2.474  11.295 -0.5977  0.8017 -0.1467
   81TCq2    C7 1240   0.941   2.530  11.417  0.1538  0.3444  0.3704
   81TCq2    C8 1241   0.849   2.367  11.264  0.5708  0.2147 -0.1772
   81TCq2    O4 1242   0.824   2.355  11.143  0.2551 -0.0423 -0.2404
   81TCq2    C9 1243   1.265   2.597  11.153 -0.2794  0.0216  0.0379
   81TCq2    O5 1244   1.252   2.581  11.026  0.1926  0.6110  0.1293
   81TCq2    O6 1245   1.366   2.643  11.209  0.0015 -0.5069  0.1302
   81TCq2    H2 1246   1.240   2.680  11.399  0.3456 -1.4587  0.0984
   81TCq2    H3 1247   1.046   2.474  11.093 -0.6239  0.2005  0.9835
   81TCq2    H4 1248   0.863   2.509  11.488 -1.2009 -0.5557 -1.3835
   82MPD2     C 1249   3.509   2.676  10.411  0.1085  0.4066 -0.6913
   82MPD2    C1 1250   3.427   2.581  10.463 -0.5294 -0.1606  0.4527
   82MPD2    C2 1251   3.482   2.472  10.524  0.0841  0.0776 -0.4300
   82MPD2    C3 1252   3.626   2.467  10.544 -0.5412  0.2564 -0.7004
   82MPD2    C4 1253   3.702   2.561  10.480  0.7990  0.2768  0.4717
   82MPD2    C5 1254   3.641   2.667  10.414  0.2271  0.4948  0.6209
   82MPD2     H 1255   3.414   2.398  10.566 -1.8525  0.5580 -2.6651
   82MPD2    H1 1256   3.810   2.551  10.478  0.7508 -0.2345  0.3820
   82MPD2    H2 1257   3.468   2.759  10.355 -1.0572 -1.3054 -2.3468
   82MPD2    H3 1258   3.689   2.748  10.360 -0.6498  0.0750 -0.7902
   82MPD2     N 1259   3.688   2.375  10.625 -0.8261  0.7497 -0.0623
   82MPD2    H5 1260   3.789   2.379  10.617 -0.4837 -1.8777  2.8668
   82MPD2    N1 1261   3.290   2.607  10.463  0.1692  0.2354 -0.1155
   82MPD2    H7 1262   3.263   2.703  10.447  0.7223  0.2669 -0.8242
   83TCq2    C1 1263   3.629   2.279  10.698  0.4180 -0.3543  0.1857
   83TCq2    O2 1264   3.513   2.241  10.710  0.0976  0.0519 -0.2773
   83TCq2    C2 1265   3.727   2.182  10.756 -0.5353 -0.0606  0.3521
   83TCq2    C3 1266   3.851   2.224  10.802 -0.3227 -0.0131  0.9043
   83TCq2    C4 1267   3.920   2.148  10.897 -0.0908 -0.2441  0.8653
   83TCq2    C5 1268   3.875   2.019  10.918 -1.3365 -0.2701 -1.0049
   83TCq2    C6 1269   3.762   1.976  10.863  0.9019 -0.5076  0.0379
   83TCq2    C7 1270   3.684   2.051  10.777  0.3995  0.1121 -0.3913
   83TCq2    C8 1271   3.712   1.844  10.894  0.6377  0.7359 -0.5247
   83TCq2    O4 1272   3.772   1.779  10.984  0.5085 -0.0550 -0.3868
   83TCq2    C9 1273   4.039   2.194  10.961 -0.4214 -0.1062  0.2645
   83TCq2    O5 1274   4.075   2.131  11.064  0.4491  0.0984  0.6594
   83TCq2    O6 1275   4.084   2.305  10.925  0.1559 -0.1202 -0.5844
   83TCq2    H2 1276   3.883   2.326  10.789  0.5301 -0.4304 -0.2594
   83TCq2    H3 1277   3.930   1.958  10.988 -1.6274  0.7585  0.1164
   83TCq2    H4 1278   3.591   2.030  10.726  0.9800  0.9304 -1.7732
   84TCq2    C1 1279   0.064   1.247  10.105  0.0129 -0.8227  0.2610
   84TCq2    O2 1280   4.724   1.160  10.155 -0.3169 -0.2599  0.8733
   84TCq2    C2 1281   0.179   1.291  10.181  0.3461  0.5068 -0.0022
   84TCq2    C3 1282   0.263   1.376  10.123  0.0566  0.5895  1.0214
   84TCq2    C4 1283   0.328   1.460  10.215  0.5949  0.7920  0.2470
   84TCq2    C5 1284   0.325   1.430  10.348  0.2772 -0.5153 -0.3908
   84TCq2    C6 1285   0.241   1.334  10.402  0.0011  0.0903 -0.4268
   84TCq2    C7 1286   0.172   1.261  10.312  0.2297  0.0213  0.2229
   84TCq2    C8 1287   0.211   1.339  10.544 -0.4893 -0.4699  0.2102
   84TCq2    O4 1288   0.294   1.388  10.620 -0.5328 -0.2467  0.4303
   84TCq2    C9 1289   0.411   1.567  10.164  0.0356 -0.4037  0.2649
   84TCq2    O5 1290   0.466   1.641  10.251 -0.3450  0.1424  0.3731
   84TCq2    O6 1291   0.435   1.562  10.039  0.2991 -0.1012  0.1850
   84TCq2    H2 1292   0.277   1.388  10.016 -3.2307  1.2627  0.6856
   84TCq2    H3 1293   0.379   1.495  10.415 -0.0381  0.7571 -1.3724
   84TCq2    H4 1294   0.121   1.169  10.339  2.1827 -1.0623  0.2540
   85MPD2     C 1295   1.013   3.510  16.547 -0.2381  0.2046 -0.8042
   85MPD2    C1 1296   0.936   3.588  16.453  0.9809  0.4853  0.0995
   85MPD2    C2 1297   0.949   3.723  16.440 -0.4288  0.8790 -0.0045
   85MPD2    C3 1298   1.022   3.790  16.530  0.4033 -0.0618 -0.1753
   85MPD2    C4 1299   1.094   3.719  16.619 -0.1461 -0.1376 -0.0415
   85MPD2    C5 1300   1.098   3.584  16.623 -0.2289 -0.2353  0.4567
   85MPD2     H 1301   0.891   3.768  16.360  0.0944  0.3244 -0.6937
   85MPD2    H1 1302   1.150   3.762  16.701  1.0843  1.7791 -1.8899
   85MPD2    H2 1303   1.007   3.402  16.553 -1.0335  0.2482 -0.8375
   85MPD2    H3 1304   1.155   3.544  16.706  0.8808  1.2617  0.4049
   85MPD2     N 1305   1.021   3.932  16.532  0.2607  0.6159  0.1026
   85MPD2    H5 1306   0.976   3.977  16.453 -1.5327 -0.4304  0.5390
   85MPD2    N1 1307   0.835   3.527  16.374  0.0323  0.1650  0.2015
   85MPD2    H7 1308   0.802   3.572  16.290  0.0528 -2.8078 -1.4125
   86TCq2    C1 1309   1.095   4.011  16.612  0.3407 -0.3948 -0.3766
   86TCq2    O2 1310   1.167   3.975  16.704 -0.0977  0.2949  0.0053
   86TCq2    C2 1311   1.062   4.151  16.609 -0.2741  0.0392  0.5673
   86TCq2    C3 1312   1.080   4.218  16.725  0.7802  0.0959 -0.0727
   86TCq2    C4 1313   1.070   4.350  16.718  0.1658  0.1359  0.1712
   86TCq2    C5 1314   1.049   4.423  16.602 -0.1999  0.0702  0.2614
   86TCq2    C6 1315   1.022   4.347  16.488  0.8724  0.2074  0.0050
   86TCq2    C7 1316   1.027   4.210  16.486 -0.0792  0.6674  0.3419
   86TCq2    C8 1317   1.048   4.412  16.361 -0.5966 -0.2191  0.2202
   86TCq2    O4 1318   1.155   4.468  16.353 -0.5865 -0.5487  0.2112
   86TCq2    C9 1319   1.086   4.431  16.831 -0.2032 -0.2256  0.0549
   86TCq2    O5 1320   1.080   4.380  16.945 -0.4916  0.2644  0.7315
   86TCq2    O6 1321   1.108   4.554  16.817  0.6209  0.0693  0.9125
   86TCq2    H2 1322   1.102   4.166  16.817  1.4775  2.1017  0.8903
   86TCq2    H3 1323   1.056   4.531  16.599  1.4739 -0.0066  1.3406
   86TCq2    H4 1324   1.002   4.155  16.396  1.0306  0.3199  0.2508
   87MPD2     C 1325   4.028   3.099   1.668 -0.1548 -0.3613 -0.3827
   87MPD2    C1 1326   3.893   3.106   1.671  0.1548 -0.3132  0.4252
   87MPD2    C2 1327   3.831   3.225   1.709 -0.3292 -0.2983 -0.0132
   87MPD2    C3 1328   3.911   3.328   1.755 -0.6714  0.5427 -0.2445
   87MPD2    C4 1329   4.051   3.319   1.745  0.0825 -0.5628  0.3901
   87MPD2    C5 1330   4.107   3.201   1.701 -0.3621  0.3855 -0.9437
   87MPD2     H 1331   3.724   3.241   1.719 -0.5166  0.7023 -3.4359
   87MPD2    H1 1332   4.115   3.397   1.784 -0.9096  1.1211 -1.3427
   87MPD2    H2 1333   4.076   3.011   1.625 -0.1768 -0.5216 -0.0759
   87MPD2    H3 1334   4.215   3.190   1.697 -0.4972 -0.9536 -0.7832
   87MPD2     N 1335   3.843   3.441   1.804 -0.4242  0.0101 -0.1282
   87MPD2    H5 1336   3.743   3.447   1.789 -0.8573 -2.7655  1.7098
   87MPD2    N1 1337   3.820   2.991   1.633 -0.1424 -0.3611  0.4814
   87MPD2    H7 1338   3.872   2.920   1.582 -0.1605  1.7548 -2.4940
   88TCq2    C1 1339   3.690   2.970   1.677  0.3678 -0.8862 -0.3059
   88TCq2    O2 1340   3.611   3.043   1.738  0.0743 -0.5649  0.4524
   88TCq2    C2 1341   3.639   2.837   1.656  0.8841 -0.4114  0.9691
   88TCq2    C3 1342   3.516   2.806   1.699 -0.1362 -0.1963 -0.8147
   88TCq2    C4 1343   3.456   2.689   1.657  0.0442  0.8409  0.4761
   88TCq2    C5 1344   3.523   2.603   1.578 -0.1371 -0.0481  0.0349
   88TCq2    C6 1345   3.651   2.637   1.533  0.5569  0.4623  0.2949
   88TCq2    C7 1346   3.711   2.754   1.572  0.0898  0.6006  0.0999
   88TCq2    C8 1347   3.721   2.557   1.430  0.0848 -0.2279  0.2171
   88TCq2    O4 1348   3.844   2.553   1.434  0.3028 -0.0788 -0.1684
   88TCq2    C9 1349   3.315   2.660   1.689 -0.5585 -0.2356 -0.0051
   88TCq2    O5 1350   3.252   2.749   1.759  1.0351  0.1801  0.0895
   88TCq2    O6 1351   3.266   2.549   1.649 -0.3243  0.3636 -0.7164
   88TCq2    H2 1352   3.448   2.870   1.754 -1.1233 -1.6092 -0.4003
   88TCq2    H3 1353   3.470   2.513   1.548 -1.0329  1.4948 -3.0128
   88TCq2    H4 1354   3.811   2.779   1.537 -0.7424  2.2076 -1.1047
   89MPD2     C 1355   0.130   1.414   1.614  0.0612  0.5492 -0.2649
   89MPD2    C1 1356   0.101   1.438   1.748 -0.5025  0.5201 -0.6398
   89MPD2    C2 1357   0.196   1.490   1.829  0.2746  0.0520  0.2753
   89MPD2    C3 1358   0.322   1.526   1.786  0.9266  0.9579 -0.1939
   89MPD2    C4 1359   0.352   1.509   1.653  0.2300  0.2957  0.3284
   89MPD2    C5 1360   0.255   1.460   1.568  0.1966 -0.1848 -0.1540
   89MPD2     H 1361   0.179   1.503   1.935 -1.3306  1.3332 -0.1380
   89MPD2    H1 1362   0.452   1.531   1.617  0.1190  0.5558  0.1838
   89MPD2    H2 1363   0.060   1.367   1.547  0.7107 -1.8265  0.7183
   89MPD2    H3 1364   0.283   1.446   1.464  1.1001  1.3988 -0.1287
   89MPD2     N 1365   0.423   1.573   1.882  0.2417  0.0749 -0.1035
   89MPD2    H5 1366   0.383   1.593   1.973 -1.7886  1.3727 -1.2817
   89MPD2    N1 1367   4.703   1.393   1.802  0.8292 -0.2519 -0.4163
   89MPD2    H7 1368   4.686   1.397   1.902  0.1561 -1.0593 -0.4997
   90TCq2    C1 1369   0.546   1.628   1.848 -0.2458 -0.1434 -0.3295
   90TCq2    O2 1370   0.594   1.647   1.739  0.0965 -0.4758  0.0074
   90TCq2    C2 1371   0.619   1.671   1.969  0.3077  0.1390  0.1574
   90TCq2    C3 1372   0.564   1.672   2.097 -0.9014  0.3536 -0.1988
   90TCq2    C4 1373   0.645   1.710   2.198  0.3770  0.4253  0.4872
   90TCq2    C5 1374   0.774   1.738   2.183  0.0572 -0.4218 -0.3913
   90TCq2    C6 1375   0.824   1.729   2.064  0.0284 -0.5289 -0.3813
   90TCq2    C7 1376   0.746   1.711   1.953 -0.4665  0.2542 -0.5803
   90TCq2    C8 1377   0.962   1.751   2.054  0.3541 -0.7415  0.3772
   90TCq2    O4 1378   1.010   1.843   2.115  0.2299  0.2331  0.2040
   90TCq2    C9 1379   0.587   1.701   2.332 -0.3274 -0.0086 -0.0134
   90TCq2    O5 1380   0.477   1.641   2.337 -0.5737 -0.4965 -0.1082
   90TCq2    O6 1381   0.661   1.734   2.422 -0.2124  0.1566 -0.4109
   90TCq2    H2 1382   0.466   1.642   2.132 -0.0233 -0.5811  1.4416
   90TCq2    H3 1383   0.840   1.739   2.269 -1.9503 -0.8514  1.1396
   90TCq2    H4 1384   0.792   1.703   1.855  1.6840 -1.4652  0.5797
   91TMC2    C1 1385   0.968   0.459  16.321 -0.6802 -0.0626  0.2159
   91TMC2    C2 1386   1.064   0.524  16.393  0.1336 -0.2632 -0.2161
   91TMC2    C3 1387   1.029   0.571  16.520 -0.4477 -0.2461  0.0709
   91TMC2    C4 1388   0.841   0.440  16.368  0.3675  0.4768  0.3006
   91TMC2    C5 1389   0.818   0.481  16.499  0.4993  0.0490  0.1607
   91TMC2    C6 1390   0.911   0.553  16.571  0.3392  0.0343  0.2629
   91TMC2     C 1391   1.012   0.395  16.202  0.7300 -0.0874 -0.5720
   91TMC2     O 1392   0.935   0.345  16.119  0.7416 -0.3705  0.2596
   91TMC2     H 1393   1.167   0.538  16.363 -0.4360  1.8570 -1.1958
   91TMC2    H1 1394   0.773   0.386  16.303 -0.7765  1.7618  0.4149
   91TMC2    H2 1395   0.902   0.578  16.676 -0.3222  1.6195 -0.1823
   91TMC2    C7 1396   0.690   0.451  16.560  0.3136 -0.4069  0.5911
   91TMC2    C8 1397   1.126   0.633  16.604 -0.1311 -0.4853 -0.1091
   91TMC2    O1 1398   0.668   0.511  16.668 -0.6970 -0.0045 -0.0585
   91TMC2    O2 1399   1.127   0.632  16.726 -0.0869 -0.2642 -0.0339
   91TMC2    O5 1400   1.147   0.747  16.536 -0.1665  0.1234 -0.4414
   91TMC2    H5 1401   1.158   0.726  16.440 -1.9274  1.8461 -1.0227
   92MPD2     C 1402   1.150   0.392  15.939  0.2072 -0.9933 -0.2710
   92MPD2    C1 1403   1.212   0.388  16.059 -0.1132  0.0370 -0.4110
   92MPD2    C2 1404   1.343   0.345  16.062 -0.6308 -0.5309 -0.0367
   92MPD2    C3 1405   1.409   0.308  15.945 -0.1668 -0.7847 -0.0772
   92MPD2    C4 1406   1.349   0.320  15.825 -0.6764  0.2738 -0.4974
   92MPD2    C5 1407   1.218   0.367  15.822  0.5058 -0.3111 -0.2165
   92MPD2     H 1408   1.388   0.333  16.160  1.7629 -0.2809 -1.0964
   92MPD2    H1 1409   1.397   0.283  15.736 -1.3677 -0.6376 -0.4905
   92MPD2    H2 1410   1.044   0.416  15.937  0.4638 -0.1067 -3.6042
   92MPD2    H3 1411   1.163   0.385  15.730  0.9665  0.7445 -0.2923
   92MPD2     N 1412   1.536   0.260  15.966  0.6100  0.1947 -0.1476
   92MPD2    H5 1413   1.574   0.276  16.059 -2.5064 -1.3912  1.4114
   92MPD2    N1 1414   1.146   0.403  16.182  0.1857  0.6394 -0.9273
   92MPD2    H7 1415   1.205   0.414  16.264  0.8866 -2.3591 -1.0488
   93MPD2     C 1416   2.453   0.340  13.821  0.1037  0.5307 -0.2250
   93MPD2    C1 1417   2.426   0.361  13.956 -0.8857 -0.0302 -0.2119
   93MPD2    C2 1418   2.293   0.352  14.001 -0.1463  0.0009  0.4917
   93MPD2    C3 1419   2.187   0.319  13.920  0.9368  0.2947 -0.1534
   93MPD2    C4 1420   2.220   0.279  13.791 -0.6916  0.6668 -0.0665
   93MPD2    C5 1421   2.347   0.299  13.747 -0.7503  1.0149 -0.1699
   93MPD2     H 1422   2.281   0.378  14.105  0.5083  1.2473  0.2562
   93MPD2    H1 1423   2.141   0.250  13.723 -0.4068  0.7852 -0.4494
   93MPD2    H2 1424   2.553   0.346  13.780  0.7228  1.7759  1.4481
   93MPD2    H3 1425   2.370   0.284  13.642  1.2123 -0.3185  0.4490
   93MPD2     N 1426   2.057   0.309  13.968 -0.1077  0.0185 -0.0222
   93MPD2    H5 1427   1.982   0.286  13.904  0.0342 -2.0653  0.5584
   93MPD2    N1 1428   2.525   0.393  14.049  0.0029  0.4358 -0.1554
   93MPD2    H7 1429   2.490   0.388  14.144  2.0115 -0.0609  0.5646
   94TCq2    C1 1430   2.661   0.421  14.028  0.9134 -0.1643 -0.4003
   94TCq2    O2 1431   2.727   0.418  13.922  0.4079  0.0677  0.4734
   94TCq2    C2 1432   2.729   0.441  14.155 -0.4747  0.0641 -0.8579
   94TCq2    C3 1433   2.656   0.496  14.262  0.0787 -0.1030 -0.0798
   94TCq2    C4 1434   2.731   0.533  14.370 -0.1032 -0.0206  0.3273
   94TCq2    C5 1435   2.869   0.507  14.371 -0.6852  0.1671  0.9405
   94TCq2    C6 1436   2.923   0.450  14.263 -0.7986  0.0107 -0.4145
   94TCq2    C7 1437   2.857   0.413  14.154 -0.1713  0.2214 -0.1110
   94TCq2    C8 1438   3.061   0.398  14.272  0.2102 -0.2987 -0.2412
   94TCq2    O4 1439   3.088   0.299  14.205 -0.4635 -0.0327 -0.1111
   94TCq2    C9 1440   2.672   0.610  14.472 -0.1785  0.1468  0.0758
   94TCq2    O5 1441   2.552   0.656  14.456 -0.3590 -0.1063 -0.7222
   94TCq2    O6 1442   2.757   0.659  14.554 -0.5592 -0.0277  0.0914
   94TCq2    H2 1443   2.549   0.512  14.264 -0.2233 -2.1358  0.6665
   94TCq2    H3 1444   2.917   0.523  14.466  0.1659 -0.3492  0.5952
   94TCq2    H4 1445   2.897   0.371  14.063  1.0646  2.8141 -0.7555
   95TMC2    C1 1446   3.136   2.404  16.756  0.4032 -0.4775 -0.5058
   95TMC2    C2 1447   3.145   2.332  16.873 -0.2916  0.6893 -0.0652
   95TMC2    C3 1448   3.160   2.401  16.990 -0.6548  0.2680 -0.2527
   95TMC2    C4 1449   3.141   2.539  16.758 -0.4623  0.0953  0.0102
   95TMC2    C5 1450   3.136   2.604  16.878 -0.4600  0.6849 -0.5655
   95TMC2    C6 1451   3.144   2.538  17.000  0.4343  0.0311  0.4499
   95TMC2     C 1452   3.127   2.334  16.631  0.1343  0.4045  0.4712
   95TMC2     O 1453   3.120   2.404  16.531 -0.2549  0.1699 -0.1957
   95TMC2     H 1454   3.173   2.227  16.870  0.1429  0.6929  3.5495
   95TMC2    H1 1455   3.130   2.596  16.666 -2.8613 -0.9188 -0.3193
   95TMC2    H2 1456   3.160   2.593  17.092  0.6571  1.8988 -0.7066
   95TMC2    C7 1457   3.130   2.752  16.893  0.3344  0.3391  0.0928
   95TMC2    C8 1458   3.233   2.330  17.095  0.0983  0.2769  0.5660
   95TMC2    O1 1459   3.131   2.804  17.004  0.1784 -0.2936 -0.4935
   95TMC2    O2 1460   3.333   2.267  17.057 -0.8149  1.3405 -0.4867
   95TMC2    O5 1461   3.207   2.391  17.211 -0.0387  0.0448 -0.2581
   95TMC2    H5 1462   3.117   2.431  17.211  0.8410  2.0425  0.5872
   96MPD2     C 1463   3.093   1.921  16.330 -0.5655 -0.6540  0.1814
   96MPD2    C1 1464   3.151   2.046  16.308 -0.1762  0.1579  1.1511
   96MPD2    C2 1465   3.148   2.134  16.411  0.5767  0.9444  0.5461
   96MPD2    C3 1466   3.099   2.107  16.537 -0.6168 -0.2018  0.4702
   96MPD2    C4 1467   3.051   1.978  16.557 -0.2493 -1.0694  0.5415
   96MPD2    C5 1468   3.050   1.886  16.452  0.7181  1.1458  0.8257
   96MPD2     H 1469   3.190   2.232  16.389  0.0748  0.4538 -2.5761
   96MPD2    H1 1470   3.010   1.945  16.652 -0.7728 -1.6734  0.1152
   96MPD2    H2 1471   3.072   1.845  16.255  2.4873  0.6553 -2.0015
   96MPD2    H3 1472   3.011   1.785  16.457  0.4150  1.0912 -2.3213
   96MPD2     N 1473   3.097   2.197  16.641 -0.4898 -0.7093 -0.3634
   96MPD2    H5 1474   3.064   2.160  16.730  0.1116 -0.5181 -0.0567
   96MPD2    N1 1475   3.202   2.076  16.177 -0.0626  0.8263  0.1671
   96MPD2    H7 1476   3.207   1.996  16.114  2.1384  1.8047 -0.9332
   97MPD2     C 1477   0.617   4.193   0.765  0.5703 -0.1232  0.6084
   97MPD2    C1 1478   0.672   4.316   0.767 -0.0612 -0.5033  0.2014
   97MPD2    C2 1479   0.687   4.386   0.648  0.0598 -0.2352 -0.4611
   97MPD2    C3 1480   0.651   4.333   0.520 -0.2033 -0.4735 -1.0682
   97MPD2    C4 1481   0.595   4.202   0.523 -0.2205  0.1946  1.2235
   97MPD2    C5 1482   0.586   4.135   0.642 -0.4667  0.0285 -0.2879
   97MPD2     H 1483   0.714   4.490   0.663 -0.8735  0.0426 -0.6601
   97MPD2    H1 1484   0.553   4.152   0.437  0.5019  0.6217  0.6261
   97MPD2    H2 1485   0.594   4.135   0.854 -1.6870  1.8344  1.3137
   97MPD2    H3 1486   0.555   4.031   0.643 -1.2209  0.2731  1.8434
   97MPD2     N 1487   0.642   4.419   0.400  0.2290  0.1656 -0.1982
   97MPD2    H5 1488   0.612   4.362   0.321  0.7207 -0.0902 -0.2003
   97MPD2    N1 1489   0.703   4.378   0.896 -0.4758 -0.9265 -0.3345
   97MPD2    H7 1490   0.700   4.315   0.976  1.8656  0.4071  0.8186
   98TCq2    C1 1491   0.678   4.551   0.387 -0.0874  0.6969  0.0538
   98TCq2    O2 1492   0.756   4.612   0.459  0.3491 -0.3185  0.0024
   98TCq2    C2 1493   0.628   4.619   0.264  0.4863  0.2520 -0.5801
   98TCq2    C3 1494   0.559   4.545   0.168  0.2415  0.1177  0.1870
   98TCq2    C4 1495   0.499   4.616   0.067 -0.6546  0.3671 -0.3104
   98TCq2    C5 1496   0.506   0.029   0.057 -0.3786 -0.6216  0.2796
   98TCq2    C6 1497   0.575   0.095   0.158  0.2611 -0.3220 -0.1320
   98TCq2    C7 1498   0.640   0.028   0.264  0.4068 -0.2297 -0.3403
   98TCq2    C8 1499   0.620   0.230   0.133  0.2376  0.5513  0.4807
   98TCq2    O4 1500   0.693   0.269   0.223 -0.3469  0.2603 -0.3429
   98TCq2    C9 1501   0.426   4.552  17.660  0.0441 -0.0314  0.5354
   98TCq2    O5 1502   0.325   4.617  17.609  0.0674  0.3946 -0.3472
   98TCq2    O6 1503   0.448   4.430  17.652 -0.0371  0.0841 -0.1393
   98TCq2    H2 1504   0.542   4.439   0.184 -1.9098  0.7705  2.3206
   98TCq2    H3 1505   0.449   0.083  17.681  0.0003  1.1556  1.2817
   98TCq2    H4 1506   0.699   0.082   0.338  0.2006  1.5382 -1.4507
   99MPD2     C 1507   4.172   1.523   1.483  0.6271 -0.0970 -0.2042
   99MPD2    C1 1508   4.075   1.611   1.439  1.3129  0.1511  0.2370
   99MPD2    C2 1509   4.039   1.607   1.302  0.3199  0.6583  0.3958
   99MPD2    C3 1510   4.102   1.520   1.216 -0.2580  0.2494  0.1496
   99MPD2    C4 1511   4.205   1.439   1.267  0.2752 -0.1746 -0.2171
   99MPD2    C5 1512   4.239   1.440   1.400 -0.0080 -0.2463  0.6401
   99MPD2     H 1513   3.964   1.672   1.260  1.3545  0.5054 -1.6944
   99MPD2    H1 1514   4.259   1.367   1.207  0.5214 -1.4924  1.5826
   99MPD2    H2 1515   4.208   1.523   1.586  1.1679 -2.6365 -0.3966
   99MPD2    H3 1516   4.324   1.380   1.433  0.9390  0.8805  0.2463
   99MPD2     N 1517   4.079   1.527   1.076  0.2368  0.4875 -0.8100
   99MPD2    H5 1518   4.030   1.611   1.046  1.3605  1.0387 -1.0977
   99MPD2    N1 1519   3.999   1.694   1.523  0.1469 -0.1353  0.3362
   99MPD2    H7 1520   3.913   1.736   1.490 -1.1237 -2.9857 -0.0155
  100TCq2    C1 1521   4.022   1.725   1.653 -0.7897  0.2347  0.5467
  100TCq2    O2 1522   4.132   1.711   1.707 -0.3768 -0.0415  0.0785
  100TCq2    C2 1523   3.924   1.807   1.725 -0.1905 -0.0710 -0.1938
  100TCq2    C3 1524   3.963   1.862   1.842  0.3982  0.0096  0.0636
  100TCq2    C4 1525   3.862   1.927   1.906  0.1958 -0.4281  0.6768
  100TCq2    C5 1526   3.743   1.936   1.845  0.1192  1.1623 -0.2113
  100TCq2    C6 1527   3.705   1.875   1.735  0.0204 -0.0508  0.3887
  100TCq2    C7 1528   3.795   1.795   1.675 -0.4015 -0.1280  0.0900
  100TCq2    C8 1529   3.564   1.886   1.706 -0.1121  0.2909 -0.5439
  100TCq2    O4 1530   3.494   1.921   1.799  0.1330 -0.2355  0.2324
  100TCq2    C9 1531   3.895   2.009   2.019  0.9865  0.8150  1.6006
  100TCq2    O5 1532   4.011   1.989   2.062 -0.0650  0.4118  0.0407
  100TCq2    O6 1533   3.812   2.101   2.059 -0.1848 -0.4072 -0.1939
  100TCq2    H2 1534   4.065   1.858   1.878  0.0153 -0.7518  1.0525
  100TCq2    H3 1535   3.683   2.019   1.880  0.3773  0.8644  0.9275
  100TCq2    H4 1536   3.768   1.749   1.580 -1.4063  1.0917 -0.2258
  101MPD2     C 1537   4.203   2.728  12.349 -0.1460  0.2949  0.2277
  101MPD2    C1 1538   4.085   2.765  12.403 -0.0905 -0.5867  0.0643
  101MPD2    C2 1539   4.036   2.704  12.517  0.4611 -0.3958 -0.4563
  101MPD2    C3 1540   4.105   2.597  12.566 -0.1096 -0.4724 -0.0177
  101MPD2    C4 1541   4.211   2.551  12.509  0.0054  0.4804  0.3908
  101MPD2    C5 1542   4.253   2.615  12.399  0.2079 -0.2398 -0.9812
  101MPD2     H 1543   3.942   2.726  12.567  0.0716  1.7371 -2.0974
  101MPD2    H1 1544   4.275   2.481  12.561 -0.3973 -0.2734 -0.1253
  101MPD2    H2 1545   4.250   2.775  12.263  3.0485  0.7746  2.2429
  101MPD2    H3 1546   4.353   2.584  12.371  0.6150  0.3216 -0.1661
  101MPD2     N 1547   4.054   2.549  12.686  0.6068  0.4779  0.6992
  101MPD2    H5 1548   3.982   2.605  12.731  0.2682  0.5434  0.0718
  101MPD2    N1 1549   4.018   2.871  12.336 -0.6985 -0.0567 -1.0098
  101MPD2    H7 1550   4.072   2.905  12.257 -0.8032 -0.0645 -1.0850
  102TCq2    C1 1551   3.983   3.238  12.040  0.1246  0.0931 -0.5710
  102TCq2    O2 1552   4.065   3.154  12.004  0.5917  0.0120 -0.3272
  102TCq2    C2 1553   3.902   3.210  12.155  0.2154  0.0259  0.9169
  102TCq2    C3 1554   3.839   3.308  12.227  0.0386  0.2188  0.6258
  102TCq2    C4 1555   3.797   3.279  12.348  0.4361  0.0716  0.2691
  102TCq2    C5 1556   3.798   3.149  12.391  0.0237 -0.5917  0.0914
  102TCq2    C6 1557   3.863   3.060  12.318 -0.1557 -0.3094 -0.3848
  102TCq2    C7 1558   3.920   3.085  12.197 -0.3206 -0.0496  0.0710
  102TCq2    C8 1559   3.904   2.933  12.381  0.3298  0.3433  0.2654
  102TCq2    O4 1560   3.832   2.905  12.478 -0.5538  0.2268 -0.1491
  102TCq2    C9 1561   3.745   3.379  12.432  0.0807  0.0270 -0.7019
  102TCq2    O5 1562   3.710   3.340  12.547  0.0569 -0.1342  0.3402
  102TCq2    O6 1563   3.753   3.500  12.396  0.1488 -0.1614 -0.1045
  102TCq2    H2 1564   3.838   3.407  12.185 -2.1792  0.9675  2.4246
  102TCq2    H3 1565   3.760   3.128  12.490 -0.2499  1.2027  0.3631
  102TCq2    H4 1566   3.973   3.008  12.142 -1.2367 -0.6428  0.0129
  103TMC2    C1 1567   2.429   2.674  11.876 -0.2638 -0.1325 -0.6257
  103TMC2    C2 1568   2.448   2.541  11.907 -0.4757 -0.2042  0.5315
  103TMC2    C3 1569   2.524   2.513  12.018 -0.3796 -0.5248  0.0624
  103TMC2    C4 1570   2.480   2.779  11.956 -0.7319  0.1059 -0.0578
  103TMC2    C5 1571   2.554   2.744  12.069  0.3021  0.1462  0.0917
  103TMC2    C6 1572   2.567   2.610  12.104 -0.1373  0.0143 -0.1942
  103TMC2     C 1573   2.322   2.715  11.793 -0.3436 -0.5331 -0.3143
  103TMC2     O 1574   2.287   2.832  11.808 -0.5486  0.5673  0.2296
  103TMC2     H 1575   2.410   2.458  11.848 -0.4448 -0.0558  0.3005
  103TMC2    H1 1576   2.486   2.882  11.925  1.2684  0.5626  1.8598
  103TMC2    H2 1577   2.612   2.586  12.200 -0.5213 -0.6963 -0.1875
  103TMC2    C7 1578   2.523   2.814  12.194 -0.0052 -0.6675 -0.3261
  103TMC2    C8 1579   2.515   2.377  12.069 -0.2788  0.5798 -0.1252
  103TMC2    O1 1580   2.594   2.789  12.292 -0.1831  0.4068 -0.4490
  103TMC2    O2 1581   2.422   2.301  12.058 -0.3451 -0.2586  0.3028
  103TMC2    O5 1582   2.644   2.333  12.091  0.7037 -0.1665  0.0653
  103TMC2    H5 1583   2.716   2.400  12.084 -0.0634  0.4072 -2.2787
  104MPD2     C 1584   2.130   2.527  11.541  0.3783  0.4868 -0.8208
  104MPD2    C1 1585   2.163   2.635  11.620 -0.3302  0.2298 -1.2473
  104MPD2    C2 1586   2.117   2.760  11.585  0.4905  0.4357  1.0643
  104MPD2    C3 1587   2.027   2.770  11.481  0.3561 -0.5884  0.5733
  104MPD2    C4 1588   1.990   2.664  11.403 -0.1531 -0.3404  0.5776
  104MPD2    C5 1589   2.043   2.541  11.438  0.0780 -0.1027  0.9021
  104MPD2     H 1590   2.140   2.844  11.650 -2.1539  1.0954  1.1443
  104MPD2    H1 1591   1.907   2.665  11.334  0.0542  0.2807  0.3328
  104MPD2    H2 1592   2.169   2.428  11.559  2.2866  1.2057 -0.9469
  104MPD2    H3 1593   2.012   2.449  11.390  0.5051  0.3197 -0.1762
  104MPD2     N 1594   1.962   2.897  11.467  0.4194  0.3872  0.2260
  104MPD2    H5 1595   1.987   2.969  11.534 -2.1133  1.3603  0.0932
  104MPD2    N1 1596   2.266   2.614  11.720  0.3275  0.7690  0.0215
  104MPD2    H7 1597   2.305   2.521  11.733 -1.8538 -0.1598 -0.0232
  105MPD2     C 1598   4.615   1.854   0.274  0.1734  0.1300  0.7879
  105MPD2    C1 1599   4.611   1.995   0.258  0.1171  0.4484  0.4071
  105MPD2    C2 1600   4.573   2.076   0.363 -0.3345 -0.1455 -0.2636
  105MPD2    C3 1601   4.511   2.018   0.472  0.2611 -0.0128  0.3325
  105MPD2    C4 1602   4.497   1.883   0.481  0.1059 -0.4679  0.2051
  105MPD2    C5 1603   4.558   1.802   0.386 -0.2511 -0.2234  0.3484
  105MPD2     H 1604   4.563   2.182   0.347  2.5400  0.3851  1.5806
  105MPD2    H1 1605   4.450   1.831   0.564 -0.2828  0.7593  0.7538
  105MPD2    H2 1606   4.629   1.785   0.192 -2.2689 -1.2527  1.5508
  105MPD2    H3 1607   4.527   1.698   0.380 -0.5805 -0.1643  1.0610
  105MPD2     N 1608   4.452   2.101   0.574  0.1685  0.2700 -0.8871
  105MPD2    H5 1609   4.477   2.200   0.575 -0.4478  0.4239 -0.3465
  105MPD2    N1 1610   4.636   2.059   0.136 -0.3482  0.0709 -0.2427
  105MPD2    H7 1611   4.621   2.159   0.134  1.3527  0.3421  0.9760
  106TCq2    C1 1612   4.351   2.063   0.662 -0.7158 -0.6978  0.2156
  106TCq2    O2 1613   4.284   1.961   0.665 -0.1689 -0.1520 -0.5167
  106TCq2    C2 1614   4.293   2.171   0.742  0.2416 -0.6797  0.0151
  106TCq2    C3 1615   4.379   2.268   0.801  0.5689 -0.4610 -0.1648
  106TCq2    C4 1616   4.319   2.349   0.898 -0.3725  0.1871 -0.5084
  106TCq2    C5 1617   4.187   2.346   0.931  0.0387 -0.2449 -0.2310
  106TCq2    C6 1618   4.108   2.254   0.870  0.1171  0.6058 -0.0827
  106TCq2    C7 1619   4.161   2.171   0.773  0.3680  0.6569  0.2268
  106TCq2    C8 1620   3.974   2.240   0.907 -0.1060  0.0608 -0.0879
  106TCq2    O4 1621   3.908   2.146   0.862  0.6491 -0.0967 -0.1905
  106TCq2    C9 1622   4.405   2.437   0.969  0.2620 -0.8723 -0.0915
  106TCq2    O5 1623   4.358   2.494   1.076 -0.5997 -0.6899 -0.1825
  106TCq2    O6 1624   4.528   2.428   0.942 -0.0712 -0.4166  0.5914
  106TCq2    H2 1625   4.487   2.263   0.798  0.6213  0.2159  0.4413
  106TCq2    H3 1626   4.151   2.424   0.998  1.3590  1.0712 -1.0642
  106TCq2    H4 1627   4.093   2.095   0.735  1.7524 -0.5439  0.1217
  107TMC2    C1 1628   0.074   1.150  11.512  0.5430 -0.0393 -0.3997
  107TMC2    C2 1629   0.188   1.084  11.489 -0.1008 -0.2193 -0.1059
  107TMC2    C3 1630   0.222   1.053  11.368  0.4621 -0.0595  0.3101
  107TMC2    C4 1631   0.001   1.187  11.400 -0.5109  0.5303 -0.2518
  107TMC2    C5 1632   0.046   1.155  11.270 -0.9823  0.0380  0.0950
  107TMC2    C6 1633   0.162   1.084  11.258  0.0135  0.1667 -0.1931
  107TMC2     C 1634   0.017   1.156  11.640  0.5167 -0.6344  0.5953
  107TMC2     O 1635   4.622   1.179  11.643  0.2678  0.1298  0.2675
  107TMC2     H 1636   0.239   1.040  11.574 -0.1076  2.1725  1.1364
  107TMC2    H1 1637   4.631   1.239  11.419 -0.5364 -0.1557  1.4741
  107TMC2    H2 1638   0.185   1.051  11.157  2.0151 -4.6524  1.8317
  107TMC2    C7 1639   4.691   1.185  11.156  0.4076 -0.5902  0.2506
  107TMC2    C8 1640   0.339   0.969  11.361  0.1322  0.1974 -0.1588
  107TMC2    O1 1641   4.573   1.212  11.173 -0.0711  0.2152  0.7984
  107TMC2    O2 1642   0.352   0.869  11.291  0.3142 -0.0901 -0.9645
  107TMC2    O5 1643   0.438   1.027  11.433  0.4327  0.1677  0.0606
  107TMC2    H5 1644   0.413   1.121  11.446 -3.8988 -1.0141  0.4889
  108MPD2     C 1645   0.182   1.167  11.973 -0.7611 -0.3116 -0.0462
  108MPD2    C1 1646   0.079   1.159  11.883 -0.0258 -0.3483  0.7117
  108MPD2    C2 1647   4.675   1.140  11.931 -1.0862  0.0134 -0.8889
  108MPD2    C3 1648   4.651   1.157  12.069  0.8854  0.4192  0.3065
  108MPD2    C4 1649   0.033   1.190  12.156 -0.6731  0.6133 -0.2554
  108MPD2    C5 1650   0.161   1.189  12.103 -0.1906  0.7579  1.2520
  108MPD2     H 1651   4.597   1.110  11.862 -1.2614 -1.2969 -0.1293
  108MPD2    H1 1652   0.015   1.203  12.262  1.8327  1.4034  0.0715
  108MPD2    H2 1653   0.283   1.165  11.935 -0.5585 -1.4717  0.5581
  108MPD2    H3 1654   0.248   1.214  12.163 -0.0647  1.9289  0.5803
  108MPD2     N 1655   4.521   1.150  12.122  0.3586  0.0464 -0.0541
  108MPD2    H5 1656   4.507   1.155  12.222  2.5331 -0.5234  0.2739
  108MPD2    N1 1657   0.107   1.143  11.745 -0.1902  0.4508 -0.5360
  108MPD2    H7 1658   0.205   1.159  11.723 -0.1191  0.2551 -0.3641
  109MPD2     C 1659   4.284   4.067   2.100  0.5067 -0.8140  0.1778
  109MPD2    C1 1660   4.346   4.071   1.978  0.3998  0.2891 -0.0105
  109MPD2    C2 1661   4.479   4.113   1.976 -0.0839 -0.3870 -0.3108
  109MPD2    C3 1662   4.549   4.133   2.092  0.1706  0.4840  0.3243
  109MPD2    C4 1663   4.480   4.147   2.206 -0.5489  0.6295  0.3132
  109MPD2    C5 1664   4.347   4.114   2.215 -0.3187  0.3609  0.3830
  109MPD2     H 1665   4.541   4.103   1.887 -2.7367 -1.1775 -2.0890
  109MPD2    H1 1666   4.533   4.194   2.288 -1.1397 -0.2934  1.2200
  109MPD2    H2 1667   4.185   4.033   2.127  0.0797  0.8916  0.7412
  109MPD2    H3 1668   4.304   4.119   2.315 -2.2699 -0.9113 -0.3862
  109MPD2     N 1669   4.687   4.168   2.079 -0.5075  0.6724 -0.2437
  109MPD2    H5 1670   4.716   4.161   1.982  0.9483 -0.3669  0.2697
  109MPD2    N1 1671   4.270   4.027   1.867 -0.3571  0.5965  0.8187
  109MPD2    H7 1672   4.177   4.001   1.897 -0.2157  0.2783  0.9819
  110TCq2    C1 1673   0.058   4.185   2.181  0.8381 -0.1583 -0.4223
  110TCq2    O2 1674   0.045   4.155   2.300 -0.3754  0.2206  0.2990
  110TCq2    C2 1675   0.198   4.215   2.133  0.1636  0.5824 -0.3989
  110TCq2    C3 1676   0.291   4.207   2.230 -0.6176  0.6950 -0.5946
  110TCq2    C4 1677   0.423   4.230   2.188 -0.2294 -0.8368  0.0851
  110TCq2    C5 1678   0.452   4.269   2.060  0.0234  1.0842 -0.9673
  110TCq2    C6 1679   0.352   4.276   1.965 -0.0409  0.2940  0.6578
  110TCq2    C7 1680   0.223   4.251   2.007  0.7621 -0.1922 -0.1055
  110TCq2    C8 1681   0.393   4.326   1.830  0.6527 -1.0433  0.2548
  110TCq2    O4 1682   0.504   4.375   1.810 -0.1944 -0.0506 -0.7771
  110TCq2    C9 1683   0.523   4.233   2.289 -0.0745  0.0465  0.6020
  110TCq2    O5 1684   0.636   4.269   2.255  0.1448  0.0266  0.1470
  110TCq2    O6 1685   0.483   4.241   2.409  0.0965 -0.4553  0.0480
  110TCq2    H2 1686   0.266   4.183   2.333  3.3249  0.4829  0.3311
  110TCq2    H3 1687   0.553   4.290   2.025 -0.2627  2.3479 -1.0374
  110TCq2    H4 1688   0.141   4.276   1.940  1.2132 -0.7361 -0.8592
  111TMC2    C1 1689   4.596   3.827  10.747  0.2322 -0.2080  0.0985
  111TMC2    C2 1690   4.695   3.853  10.656 -1.5192  0.3338 -0.1890
  111TMC2    C3 1691   0.097   3.826  10.696 -0.7288  0.4978 -0.2444
  111TMC2    C4 1692   4.629   3.808  10.882 -0.1641 -0.6509  0.2768
  111TMC2    C5 1693   0.036   3.796  10.925 -0.0239 -0.0870  0.3868
  111TMC2    C6 1694   0.136   3.802  10.828  0.4722  0.7122  0.9228
  111TMC2     C 1695   4.469   3.878  10.713 -0.2416 -0.3680  0.2733
  111TMC2     O 1696   4.430   3.884  10.597  0.4872  0.0127  0.3561
  111TMC2     H 1697   4.663   3.866  10.554  1.8174  2.7986 -0.9093
  111TMC2    H1 1698   4.549   3.785  10.951 -0.4710  0.5243  0.3208
  111TMC2    H2 1699   0.241   3.801  10.855  1.0107 -0.9651 -1.2868
  111TMC2    C7 1700   0.055   3.705  11.042 -0.1852 -0.0459  0.6774
  111TMC2    C8 1701   0.210   3.819  10.611 -0.3372  0.0890 -0.8226
  111TMC2    O1 1702   4.691   3.693  11.121 -0.5794 -0.1482  0.2966
  111TMC2    O2 1703   0.317   3.875  10.638 -0.3936 -0.0643  0.8337
  111TMC2    O5 1704   0.188   3.723  10.523 -0.6805 -0.2457 -0.0241
  111TMC2    H5 1705   0.104   3.673  10.532 -0.5943 -0.2409  0.7556
  112MPD2     C 1706   4.031   4.134  10.840 -0.2460  0.3556  0.3178
  112MPD2    C1 1707   4.078   4.083  10.722  0.6760  0.2737 -0.2683
  112MPD2    C2 1708   4.197   4.018  10.705 -0.3127  0.2325 -0.4060
  112MPD2    C3 1709   4.280   4.011  10.814  0.3954  0.4668  0.2948
  112MPD2    C4 1710   4.236   4.071  10.935  0.7650  0.0049  0.1982
  112MPD2    C5 1711   4.114   4.120  10.946  0.0617 -0.0674  0.4228
  112MPD2     H 1712   4.225   3.983  10.606 -0.5481  2.4520 -1.2662
  112MPD2    H1 1713   4.293   4.065  11.027 -1.4479  3.4178  1.7977
  112MPD2    H2 1714   3.933   4.180  10.855 -0.1981  0.1873  1.1291
  112MPD2    H3 1715   4.085   4.160  11.043  0.6654 -1.9602  1.3849
  112MPD2     N 1716   4.409   3.943  10.817  0.0440  0.0513  0.1377
  112MPD2    H5 1717   4.456   3.944  10.907  0.9483 -1.3382 -0.3254
  112MPD2    N1 1718   3.996   4.087  10.610 -0.0916 -0.1127  0.1981
  112MPD2    H7 1719   4.044   4.059  10.525  1.1558  2.8653 -0.0688
  113MPD2     C 1720   3.294   1.603   0.919 -0.8282 -0.5009 -0.0944
  113MPD2    C1 1721   3.200   1.706   0.907  0.2240 -0.2235 -0.5967
  113MPD2    C2 1722   3.101   1.711   0.812 -0.1565 -0.4966  0.5355
  113MPD2    C3 1723   3.090   1.607   0.725 -0.1892 -0.1231 -0.7761
  113MPD2    C4 1724   3.185   1.506   0.732  1.0855  0.1132  0.2408
  113MPD2    C5 1725   3.285   1.506   0.830 -0.5220 -0.2142  0.0140
  113MPD2     H 1726   3.024   1.787   0.813 -0.8555 -1.2628  4.7209
  113MPD2    H1 1727   3.192   1.428   0.656  0.9988 -0.5147  0.8768
  113MPD2    H2 1728   3.372   1.597   0.994 -1.9876  0.8435  1.2173
  113MPD2    H3 1729   3.350   1.419   0.833 -0.4181 -0.1785 -1.5301
  113MPD2     N 1730   2.998   1.603   0.620 -0.2660 -0.6537 -0.2685
  113MPD2    H5 1731   2.987   1.514   0.572 -3.6188 -0.1429 -0.4069
  113MPD2    N1 1732   3.199   1.814   0.998 -0.0135  0.2842 -0.6884
  113MPD2    H7 1733   3.129   1.887   0.985  0.3321  0.9550  1.1791
  114TCq2    C1 1734   2.911   1.700   0.593  0.0053 -0.0992  0.5219
  114TCq2    O2 1735   2.922   1.821   0.618 -0.1358 -0.1791  0.0519
  114TCq2    C2 1736   2.801   1.657   0.507  0.3342 -0.1062  0.2463
  114TCq2    C3 1737   2.743   1.748   0.428 -0.6300  0.0628  0.9177
  114TCq2    C4 1738   2.634   1.709   0.354  0.0965  0.1939  0.1890
  114TCq2    C5 1739   2.576   1.585   0.379 -0.0916 -0.3562  0.7616
  114TCq2    C6 1740   2.637   1.495   0.466 -0.1128  0.1121 -0.3665
  114TCq2    C7 1741   2.760   1.532   0.522  0.5653  0.0078  0.0906
  114TCq2    C8 1742   2.548   1.392   0.528  1.3519 -0.4970  0.2393
  114TCq2    O4 1743   2.449   1.367   0.461 -0.2132 -0.2585 -0.2395
  114TCq2    C9 1744   2.566   1.811   0.280 -0.0474  0.1466 -0.4845
  114TCq2    O5 1745   2.457   1.776   0.230 -0.3234  0.1678  0.1814
  114TCq2    O6 1746   2.607   1.926   0.289  0.0029 -0.1984  0.1734
  114TCq2    H2 1747   2.773   1.851   0.418  1.4019 -0.6771 -0.4842
  114TCq2    H3 1748   2.478   1.561   0.340 -1.1535  0.9792  2.6511
  114TCq2    H4 1749   2.797   1.483   0.611 -0.6425 -2.4918 -0.7942
  115TMC2    C1 1750   3.423   4.366  17.436  0.5878 -0.1635  0.3293
  115TMC2    C2 1751   3.405   4.370  17.301 -0.0504 -0.5416  0.6608
  115TMC2    C3 1752   3.364   4.487  17.242 -0.6503  0.4043 -0.0081
  115TMC2    C4 1753   3.419   4.481  17.510 -0.3375  0.0295 -0.7143
  115TMC2    C5 1754   3.408   4.600  17.448 -0.5505 -0.7183  0.1212
  115TMC2    C6 1755   3.368   4.601  17.320  0.5235 -1.3121 -0.1807
  115TMC2     C 1756   3.446   4.232  17.501 -0.1065  0.3210 -0.5024
  115TMC2     O 1757   3.417   4.142  17.430  0.1550  0.0937 -0.0030
  115TMC2     H 1758   3.415   4.281  17.240 -1.2415 -0.0282 -0.2809
  115TMC2    H1 1759   3.449   4.475  17.615 -0.1158  1.7624 -0.6700
  115TMC2    H2 1760   3.364   4.701  17.279  3.4565 -0.3200  1.9704
  115TMC2    C7 1761   3.480   4.713  17.499 -0.0525  0.0572  0.1295
  115TMC2    C8 1762   3.359   4.497  17.103  0.2009 -0.6115 -0.5398
  115TMC2    O1 1763   3.454   0.038  17.608  0.6214  0.1444 -0.0140
  115TMC2    O2 1764   3.439   4.454  17.023  0.0089 -0.4061  0.1482
  115TMC2    O5 1765   3.246   4.564  17.077 -0.4758  0.0798  0.5163
  115TMC2    H5 1766   3.185   4.575  17.154  1.0894  3.0071  1.3285
  116MPD2     C 1767   3.651   3.937   0.164 -0.4329  0.4429  0.1704
  116MPD2    C1 1768   3.566   3.900   0.066  0.3864  0.3161  0.3546
  116MPD2    C2 1769   3.525   3.999  17.678 -1.1319 -0.5457  0.3633
  116MPD2    C3 1770   3.552   4.132  17.695 -0.0436 -0.0801 -0.8337
  116MPD2    C4 1771   3.635   4.165   0.107  0.0853 -0.0836 -0.4223
  116MPD2    C5 1772   3.688   4.065   0.181  0.1034  0.3777 -0.2795
  116MPD2     H 1773   3.446   3.975  17.607  0.1661 -2.8858 -0.2616
  116MPD2    H1 1774   3.658   4.265   0.141 -0.4781 -0.5973  1.4462
  116MPD2    H2 1775   3.709   3.865   0.220 -1.4218 -1.1737 -0.8620
  116MPD2    H3 1776   3.765   4.088   0.254 -0.1022  0.4777 -0.0921
  116MPD2     N 1777   3.502   4.241  17.623  0.0512  0.4489 -0.3137
  116MPD2    H5 1778   3.534   4.335  17.644 -1.0148  0.8902 -0.6683
  116MPD2    N1 1779   3.520   3.773   0.038  0.2618 -0.4446  0.7214
  116MPD2    H7 1780   3.457   3.763  17.658  1.2385  1.6535 -0.3179
  117TMC2    C1 1781   1.972   0.904  14.365  0.2081 -0.2361 -0.4271
  117TMC2    C2 1782   1.972   0.835  14.483 -0.2296  0.4843  0.5785
  117TMC2    C3 1783   2.064   0.881  14.573  0.0312 -0.1606 -0.0224
  117TMC2    C4 1784   2.059   0.999  14.329  0.3870  0.3189  0.0605
  117TMC2    C5 1785   2.160   1.026  14.418 -0.7983  1.2739  0.5520
  117TMC2    C6 1786   2.163   0.976  14.547  0.1779 -0.2688 -0.0947
  117TMC2     C 1787   1.870   0.854  14.274 -0.3688  0.6346  0.0592
  117TMC2     O 1788   1.816   0.746  14.304 -0.4538  0.1222  0.3857
  117TMC2     H 1789   1.881   0.780  14.508  1.0629 -0.5186  3.1364
  117TMC2    H1 1790   2.057   1.030  14.225 -1.0839  0.6161  0.1838
  117TMC2    H2 1791   2.242   0.990  14.619  1.1576 -0.8203 -1.0681
  117TMC2    C7 1792   2.270   1.111  14.373  0.3802  0.5333  0.8667
  117TMC2    C8 1793   2.061   0.824  14.707 -0.6034 -0.1224  0.5975
  117TMC2    O1 1794   2.318   1.188  14.456 -0.2816 -0.2180 -0.0006
  117TMC2    O2 1795   2.105   0.885  14.803  0.0698 -0.7721  0.3528
  117TMC2    O5 1796   2.052   0.689  14.694 -0.5303  0.3001 -0.6480
  117TMC2    H5 1797   2.046   0.662  14.600 -1.3630 -0.3816 -0.4014
  118MPD2     C 1798   2.415   1.121  14.034  0.1228 -0.6594 -0.0963
  118MPD2    C1 1799   2.416   1.139  14.167  0.0387 -0.3475  0.1483
  118MPD2    C2 1800   2.519   1.213  14.226  0.4316 -0.0237 -0.0438
  118MPD2    C3 1801   2.631   1.249  14.147  0.2247 -0.0950  0.4088
  118MPD2    C4 1802   2.630   1.223  14.010  0.8039  0.2784 -0.5726
  118MPD2    C5 1803   2.520   1.160  13.953 -0.3638  0.4054  0.2164
  118MPD2     H 1804   2.512   1.246  14.329 -0.3741 -0.0365 -0.0900
  118MPD2    H1 1805   2.715   1.254  13.951 -0.4575  1.1928 -1.9107
  118MPD2    H2 1806   2.338   1.066  13.982 -1.2909 -1.1365  2.4947
  118MPD2    H3 1807   2.507   1.139  13.847  0.9021  2.3549 -0.3210
  118MPD2     N 1808   2.740   1.325  14.191 -0.2526  0.0367 -0.0377
  118MPD2    H5 1809   2.810   1.346  14.121 -0.5264 -0.6111 -0.5059
  118MPD2    N1 1810   2.310   1.082  14.243  0.5304 -0.2937 -0.4666
  118MPD2    H7 1811   2.250   1.015  14.194 -0.0907  0.9295 -1.3698
  119MPD2     C 1812   0.240   2.196  13.575  0.6226  0.8226 -0.6332
  119MPD2    C1 1813   0.116   2.201  13.639 -1.0770  0.4819  0.1294
  119MPD2    C2 1814   0.012   2.139  13.578 -0.5244 -0.5965 -0.2747
  119MPD2    C3 1815   0.022   2.047  13.477  0.0425 -0.5313  0.5191
  119MPD2    C4 1816   0.147   2.045  13.421  0.1996 -0.0349  0.4063
  119MPD2    C5 1817   0.256   2.112  13.470 -0.2304 -0.3684 -0.1329
  119MPD2     H 1818   4.638   2.141  13.625 -0.2980  0.1900  0.1554
  119MPD2    H1 1819   0.162   1.987  13.331 -1.5204 -3.3009  2.2245
  119MPD2    H2 1820   0.327   2.240  13.623 -0.0305  0.5289  0.8274
  119MPD2    H3 1821   0.350   2.101  13.417 -0.5273  0.1083 -0.7591
  119MPD2     N 1822   4.644   1.962  13.433  0.8120  0.7556  0.0329
  119MPD2    H5 1823   4.662   1.908  13.349 -1.6219 -1.1970  0.7849
  119MPD2    N1 1824   0.105   2.276  13.756 -0.0471 -0.9471  0.1908
  119MPD2    H7 1825   0.182   2.338  13.781  0.5892 -1.1440 -1.3111
  120TCq2    C1 1826   4.524   1.946  13.495 -0.1902  0.5918  0.1914
  120TCq2    O2 1827   4.478   2.003  13.594  0.2692  0.0355  0.2166
  120TCq2    C2 1828   4.435   1.873  13.424 -0.4696  0.1126  1.0736
  120TCq2    C3 1829   4.438   1.889  13.292 -0.5354  0.2704  0.9072
  120TCq2    C4 1830   4.343   1.820  13.220 -0.2045 -0.1071  0.4169
  120TCq2    C5 1831   4.243   1.752  13.283 -0.4758  0.4690  0.2248
  120TCq2    C6 1832   4.253   1.743  13.420  0.4128 -0.7782 -0.7788
  120TCq2    C7 1833   4.347   1.801  13.490 -0.4159  0.4909 -0.3763
  120TCq2    C8 1834   4.138   1.678  13.490  0.0815  0.1569  0.3961
  120TCq2    O4 1835   4.032   1.659  13.432  0.0152 -0.6642 -0.5674
  120TCq2    C9 1836   4.340   1.830  13.078  0.6698  0.2036 -0.2829
  120TCq2    O5 1837   4.250   1.762  13.017 -0.3227 -0.5643 -0.1495
  120TCq2    O6 1838   4.408   1.924  13.020  0.1188 -0.0983 -0.2052
  120TCq2    H2 1839   4.480   1.976  13.243 -0.1435 -0.0136  0.7396
  120TCq2    H3 1840   4.158   1.711  13.230 -1.8028  3.3333  0.1074
  120TCq2    H4 1841   4.326   1.835  13.591  1.3545  4.3435 -1.3161
  121TMC2    C1 1842   1.385   3.882  14.333 -0.0985  0.8099  0.1980
  121TMC2    C2 1843   1.510   3.884  14.386  0.1977 -0.0842 -0.7900
  121TMC2    C3 1844   1.556   3.776  14.447  0.1780  0.5275 -0.2091
  121TMC2    C4 1845   1.302   3.774  14.350  0.0880 -0.1545  0.4012
  121TMC2    C5 1846   1.363   3.662  14.399  0.0946  0.0066 -0.3701
  121TMC2    C6 1847   1.493   3.661  14.455  0.3464  0.2282  0.2113
  121TMC2     C 1848   1.334   3.993  14.254  0.0288 -0.0970  0.4169
  121TMC2     O 1849   1.214   3.996  14.233 -0.0342 -0.3219  0.2519
  121TMC2     H 1850   1.570   3.973  14.397  0.8277 -0.8310  1.8247
  121TMC2    H1 1851   1.194   3.781  14.337  0.2996  1.4305 -0.5623
  121TMC2    H2 1852   1.547   3.572  14.485 -1.6053 -0.8698  0.4701
  121TMC2    C7 1853   1.326   3.541  14.325  0.1707 -0.2122 -0.2086
  121TMC2    C8 1854   1.666   3.794  14.539  0.2551  0.1316 -0.2145
  121TMC2    O1 1855   1.388   3.445  14.373 -0.3541  0.1665 -0.2842
  121TMC2    O2 1856   1.747   3.881  14.534  0.5437  0.6042  0.5327
  121TMC2    O5 1857   1.660   3.713  14.648  0.3344 -0.1427 -0.3758
  121TMC2    H5 1858   1.574   3.667  14.651  0.2829 -0.0247  0.0673
  122MPD2     C 1859   1.328   4.197  14.037 -0.0143 -0.0040 -0.1450
  122MPD2    C1 1860   1.443   4.146  14.098  0.1810  0.0330 -0.2690
  122MPD2    C2 1861   1.565   4.175  14.033 -0.4111  0.5681 -0.0299
  122MPD2    C3 1862   1.571   4.265  13.926  0.3744  0.5841 -0.0902
  122MPD2    C4 1863   1.451   4.321  13.876  0.8039  0.0175 -0.1365
  122MPD2    C5 1864   1.331   4.280  13.931 -0.0621 -0.5828  0.0217
  122MPD2     H 1865   1.653   4.122  14.066 -0.5432  0.2333 -0.2235
  122MPD2    H1 1866   1.439   4.395  13.798 -0.5396  0.5850  0.6127
  122MPD2    H2 1867   1.225   4.177  14.064 -0.5122  0.5547 -1.6235
  122MPD2    H3 1868   1.244   4.328  13.888  0.8836  1.7839  0.7263
  122MPD2     N 1869   1.691   4.289  13.854 -0.4926 -0.2408 -0.4820
  122MPD2    H5 1870   1.688   4.352  13.775 -0.8784 -0.6986 -0.8350
  122MPD2    N1 1871   1.442   4.052  14.198  0.6269 -0.0388 -0.0803
  122MPD2    H7 1872   1.530   4.011  14.226 -0.1931 -0.9653  1.1294
  123MPD2     C 1873   0.068   2.420   9.976 -0.6117  0.1042  0.3585
  123MPD2    C1 1874   0.045   2.327   9.877  0.0403  0.0383  0.3350
  123MPD2    C2 1875   0.131   2.315   9.771 -0.0453 -0.2265 -0.1243
  123MPD2    C3 1876   0.234   2.408   9.749  0.2484 -0.4048  0.5439
  123MPD2    C4 1877   0.252   2.516   9.834 -0.8547  0.0992  0.6457
  123MPD2    C5 1878   0.170   2.512   9.947  0.0539 -0.4416  0.0999
  123MPD2     H 1879   0.122   2.230   9.705 -1.2422  2.4735 -3.4466
  123MPD2    H1 1880   0.320   2.600   9.823  1.7729 -2.2260 -0.9728
  123MPD2    H2 1881   0.019   2.422  10.072  0.0800 -0.3317  0.7150
  123MPD2    H3 1882   0.184   2.597  10.014  3.5599  1.0506 -2.5185
  123MPD2     N 1883   0.322   2.383   9.640  0.5052  0.4087  0.2669
  123MPD2    H5 1884   0.295   2.303   9.584  0.6784  0.6086 -0.0982
  123MPD2    N1 1885   4.669   2.231   9.909 -0.0243  0.3244  0.2207
  123MPD2    H7 1886   4.618   2.250   9.995 -0.8856  0.0287 -0.2236
  124TCq2    C1 1887   0.429   2.453   9.601  0.1184  0.5642 -0.1849
  124TCq2    O2 1888   0.500   2.536   9.660  0.4311  0.4125 -0.4185
  124TCq2    C2 1889   0.489   2.408   9.472 -0.4679 -0.0531 -0.6451
  124TCq2    C3 1890   0.623   2.421   9.465  0.8749 -0.1921 -0.1088
  124TCq2    C4 1891   0.687   2.367   9.365 -0.6705 -0.0817  0.1075
  124TCq2    C5 1892   0.623   2.283   9.274 -1.1272 -0.2228  0.8727
  124TCq2    C6 1893   0.488   2.270   9.285  0.1616  0.1759 -0.0690
  124TCq2    C7 1894   0.414   2.342   9.378  1.0064 -0.3895  0.0785
  124TCq2    C8 1895   0.429   2.222   9.155  0.2331  0.3205 -0.6626
  124TCq2    O4 1896   0.510   2.219   9.062  0.2921  0.1497 -0.1160
  124TCq2    C9 1897   0.838   2.385   9.345 -0.0513 -0.3652  0.1541
  124TCq2    O5 1898   0.888   2.320   9.252 -0.3718 -0.5545  0.4096
  124TCq2    O6 1899   0.895   2.467   9.417 -0.2880  0.0815 -0.7377
  124TCq2    H2 1900   0.680   2.480   9.536  1.2765 -0.0025 -0.5852
  124TCq2    H3 1901   0.681   2.238   9.195  1.9614  0.4123  2.7519
  124TCq2    H4 1902   0.308   2.365   9.369  0.8241 -0.4340  2.2213
  125TMC2    C1 1903   0.685   2.720   9.152 -0.4585 -0.4407  0.2638
  125TMC2    C2 1904   0.689   2.841   9.215 -0.4984 -0.0750 -0.0364
  125TMC2    C3 1905   0.777   2.932   9.169 -0.1964 -0.3721 -0.8011
  125TMC2    C4 1906   0.770   2.715   9.044  0.3936 -0.5730  0.0627
  125TMC2    C5 1907   0.842   2.817   8.992 -0.7408  0.0909 -0.1037
  125TMC2    C6 1908   0.848   2.939   9.049  0.7626  0.1147  0.8319
  125TMC2     C 1909   0.561   2.647   9.156 -0.0208 -0.5422  0.1438
  125TMC2     O 1910   0.536   2.591   9.054  0.1191  0.5346 -0.2534
  125TMC2     H 1911   0.632   2.857   9.306  0.3949 -2.7908  0.9973
  125TMC2    H1 1912   0.772   2.617   8.996  2.3813  1.5406 -4.1038
  125TMC2    H2 1913   0.928   3.010   9.032 -1.1521  2.9474  3.6357
  125TMC2    C7 1914   0.891   2.802   8.848  0.2941 -0.0364  0.1027
  125TMC2    C8 1915   0.802   3.043   9.262 -0.2685  0.2384 -0.1314
  125TMC2    O1 1916   0.941   2.694   8.819 -0.1059  0.1482 -0.1368
  125TMC2    O2 1917   0.833   3.151   9.217 -0.3712 -0.2150  0.1488
  125TMC2    O5 1918   0.837   2.981   9.379  0.4547 -0.3559 -0.5254
  125TMC2    H5 1919   0.855   2.885   9.372 -1.9746 -0.9361  1.1666
  126MPD1     C 1920   0.073   2.616   9.304  0.8371 -0.7301 -0.1152
  126MPD1    C1 1921   0.146   2.689   9.399  0.0273 -0.0288  0.3267
  126MPD1    C2 1922   0.276   2.693   9.379  0.5207  0.3407 -0.0222
  126MPD1    C3 1923   0.346   2.644   9.273 -0.4832  0.5616 -0.3863
  126MPD1    C4 1924   0.280   2.576   9.176 -0.2790  0.4052  0.8169
  126MPD1    C5 1925   0.143   2.571   9.192  0.2974  0.1721 -0.0101
  126MPD1     H 1926   0.336   2.741   9.456  0.5650 -0.1783  0.2720
  126MPD1    H1 1927   0.328   2.543   9.085 -1.5383  1.3401 -0.1827
  126MPD1    H2 1928   4.689   2.608   9.305  0.7298  1.0373  2.1656
  126MPD1    H3 1929   0.081   2.526   9.115 -2.0509 -0.3977  2.2286
  126MPD1     N 1930   0.487   2.666   9.270 -0.1209  0.2555 -0.1785
  126MPD1    H5 1931   0.540   2.699   9.350  0.1709  3.5594 -1.7366
  126MPD1    N1 1932   0.088   2.741   9.521  0.1550  0.7362  0.0774
  126MPD1    H6 1933   0.148   2.810   9.564 -0.9412  0.8805  1.3736
  126MPD1    H7 1934   4.722   2.787   9.509 -0.9693 -1.3257  0.4342
  127MPD2     C 1935   1.919   2.916   9.048 -0.0132 -0.0378  0.1923
  127MPD2    C1 1936   1.909   2.984   9.169 -0.0338  0.0770  0.4548
  127MPD2    C2 1937   1.934   3.124   9.180  0.5115  0.4625  0.1433
  127MPD2    C3 1938   1.930   3.202   9.067 -0.6739  0.3952  0.4850
  127MPD2    C4 1939   1.925   3.137   8.940 -0.0245 -0.6646  0.2400
  127MPD2    C5 1940   1.921   2.998   8.934 -0.0636 -0.1654 -0.1812
  127MPD2     H 1941   1.938   3.175   9.276 -3.2561  3.6701 -1.4016
  127MPD2    H1 1942   1.911   3.189   8.846  0.2979  0.3201  0.7400
  127MPD2    H2 1943   1.920   2.807   9.040 -0.3373  0.1000 -1.6160
  127MPD2    H3 1944   1.912   2.954   8.836 -3.5745 -0.4137  0.2521
  127MPD2     N 1945   1.937   3.344   9.082  0.5398  0.3540  0.1818
  127MPD2    H5 1946   1.965   3.373   9.176 -0.2040  0.5296  0.3449
  127MPD2    N1 1947   1.891   2.901   9.276  0.2074  0.1872  0.2082
  127MPD2    H7 1948   1.886   2.802   9.252 -2.1382  0.0621  1.1732
  128TCq2    C1 1949   1.892   2.934   9.414 -0.0431  0.0873 -0.6246
  128TCq2    O2 1950   1.917   3.040   9.471  0.3050  0.5782 -0.4621
  128TCq2    C2 1951   1.864   2.817   9.493 -0.1133 -0.1549 -0.0532
  128TCq2    C3 1952   1.882   2.830   9.630 -0.2420  0.0536  0.1057
  128TCq2    C4 1953   1.861   2.723   9.714  0.1392  0.8377 -0.0019
  128TCq2    C5 1954   1.843   2.596   9.657 -0.4844 -0.3553 -0.1810
  128TCq2    C6 1955   1.817   2.594   9.524  0.0409  0.1462  0.1157
  128TCq2    C7 1956   1.826   2.698   9.443 -0.5706  0.3247 -0.5005
  128TCq2    C8 1957   1.769   2.466   9.466 -0.2527  0.0353 -0.0327
  128TCq2    O4 1958   1.796   2.438   9.351 -0.5317 -0.1302 -0.1945
  128TCq2    C9 1959   1.874   2.726   9.859  0.2275 -0.5134 -0.3814
  128TCq2    O5 1960   1.820   2.625   9.922  0.1387 -0.1029  0.0577
  128TCq2    O6 1961   1.910   2.833   9.911  0.3750  0.5459  0.7117
  128TCq2    H2 1962   1.928   2.921   9.668  0.7425  0.5343 -2.2451
  128TCq2    H3 1963   1.834   2.508   9.719 -2.3840  0.6670  0.9959
  128TCq2    H4 1964   1.770   2.689   9.350 -0.8558 -1.6444 -0.1370
  129MPD2     C 1965   0.082   3.960   1.744 -0.2989  0.6040  0.7832
  129MPD2    C1 1966   0.221   3.958   1.749 -0.0073  0.1325 -0.2547
  129MPD2    C2 1967   0.300   3.972   1.637 -0.1339  1.2996 -0.6182
  129MPD2    C3 1968   0.238   3.981   1.517  0.1593 -0.4365  0.8837
  129MPD2    C4 1969   0.104   3.971   1.506  0.3202 -0.1543  0.1425
  129MPD2    C5 1970   0.024   3.960   1.612  0.1908  0.0460  0.1500
  129MPD2     H 1971   0.408   3.982   1.645 -0.1579 -0.3442  1.9618
  129MPD2    H1 1972   0.041   3.977   1.418  0.6792 -0.5360 -0.1442
  129MPD2    H2 1973   0.014   3.950   1.828 -0.6419  0.6019  0.5051
  129MPD2    H3 1974   4.640   3.961   1.607  0.1625  3.9360  0.9713
  129MPD2     N 1975   0.322   3.990   1.400  0.1377  0.7529  1.0784
  129MPD2    H5 1976   0.422   3.996   1.418  0.7402  0.5405 -2.1902
  129MPD2    N1 1977   0.290   3.942   1.872  0.3256  0.5322  0.1473
  129MPD2    H7 1978   0.392   3.944   1.869  0.2450  2.5240 -1.1623
  130TCq2    C1 1979   0.241   3.914   1.995  0.3650  0.2341  0.4977
  130TCq2    O2 1980   0.124   3.909   2.026 -0.4435  0.3590 -0.2216
  130TCq2    C2 1981   0.341   3.870   2.087 -0.2517 -1.1879 -0.6741
  130TCq2    C3 1982   0.296   3.860   2.216  0.6421 -0.4888 -0.3769
  130TCq2    C4 1983   0.365   3.774   2.293 -0.7530 -0.6041  0.3604
  130TCq2    C5 1984   0.460   3.684   2.250  0.8896 -0.1506  0.6460
  130TCq2    C6 1985   0.496   3.694   2.118  0.2537  0.0690 -0.2101
  130TCq2    C7 1986   0.438   3.786   2.039  0.4252 -0.2340 -0.1561
  130TCq2    C8 1987   0.536   3.572   2.056  0.5214  0.0945 -0.6916
  130TCq2    O4 1988   0.515   3.559   1.937 -0.3292  0.2524  0.1681
  130TCq2    C9 1989   0.349   3.773   2.438 -0.0581 -0.0605 -0.1096
  130TCq2    O5 1990   0.260   3.850   2.485 -0.0953 -0.7435  0.4887
  130TCq2    O6 1991   0.435   3.712   2.513  0.3022 -0.5067 -0.0562
  130TCq2    H2 1992   0.236   3.940   2.256 -0.0243 -1.2207  0.0804
  130TCq2    H3 1993   0.507   3.628   2.329 -1.9335 -0.5070  2.0774
  130TCq2    H4 1994   0.469   3.780   1.935 -0.8181 -1.7381 -0.4432
  131MPD2     C 1995   3.992   1.896   9.292  0.5861  0.4537 -0.5644
  131MPD2    C1 1996   4.121   1.936   9.269  0.2824 -0.6173  0.1997
  131MPD2    C2 1997   4.205   1.942   9.381  0.1188  0.2343 -0.1963
  131MPD2    C3 1998   4.155   1.919   9.509 -0.6805 -0.5519  0.0748
  131MPD2    C4 1999   4.023   1.905   9.530  0.4034 -0.0767  0.1327
  131MPD2    C5 2000   3.955   1.870   9.417  0.1150 -0.5594  0.3652
  131MPD2     H 2001   4.311   1.949   9.363  0.2332 -0.0348  0.3993
  131MPD2    H1 2002   3.979   1.874   9.624  2.1410  2.7800  1.8725
  131MPD2    H2 2003   3.926   1.873   9.210 -0.4966 -1.8728  0.9695
  131MPD2    H3 2004   3.851   1.846   9.437  0.6071 -0.8923  2.5498
  131MPD2     N 2005   4.247   1.901   9.618  0.6509 -0.5603  0.0924
  131MPD2    H5 2006   4.342   1.918   9.587  0.8142  0.6519  1.2662
  131MPD2    N1 2007   4.173   1.960   9.142 -0.6939  0.1106  0.6641
  131MPD2    H7 2008   4.118   1.928   9.063 -0.3610 -1.1446  0.9390
  132TCq2    C1 2009   4.650   2.083   8.806 -0.3649  0.1268 -0.3830
  132TCq2    O2 2010   4.723   2.004   8.748 -0.2936  0.9103  0.5339
  132TCq2    C2 2011   4.517   2.040   8.836  0.2714  0.3156  0.0995
  132TCq2    C3 2012   4.480   1.936   8.760  0.2234 -0.0220 -0.2372
  132TCq2    C4 2013   4.372   1.866   8.809 -0.8240 -0.0384  0.2329
  132TCq2    C5 2014   4.302   1.894   8.923  0.0681  0.4441 -0.4338
  132TCq2    C6 2015   4.337   2.013   8.983  0.5148 -0.0721 -0.1701
  132TCq2    C7 2016   4.454   2.077   8.956 -0.7084 -0.5089 -0.2135
  132TCq2    C8 2017   4.293   2.024   9.121 -0.2034 -0.2639  0.0423
  132TCq2    O4 2018   4.364   2.090   9.195  0.0182 -0.5781  0.2562
  132TCq2    C9 2019   4.334   1.744   8.748  1.2631 -0.3025  0.0881
  132TCq2    O5 2020   4.251   1.669   8.806 -0.3373 -0.2398 -0.4951
  132TCq2    O6 2021   4.379   1.726   8.630 -0.1891  0.4037  0.3323
  132TCq2    H2 2022   4.533   1.895   8.674 -0.3745 -0.5978 -0.3272
  132TCq2    H3 2023   4.227   1.825   8.960 -0.0518  0.3325 -0.8762
  132TCq2    H4 2024   4.493   2.162   9.011  0.7379 -0.2276 -1.6536
  133MPD2     C 2025   3.404   3.749   9.253 -0.0494  0.5592 -0.0564
  133MPD2    C1 2026   3.450   3.650   9.168 -0.4306 -0.9325 -0.2435
  133MPD2    C2 2027   3.380   3.534   9.157 -0.0808  0.4092 -0.2461
  133MPD2    C3 2028   3.269   3.518   9.228  0.0006 -0.6281  0.4801
  133MPD2    C4 2029   3.222   3.619   9.311  0.1346 -0.5998 -0.2174
  133MPD2    C5 2030   3.292   3.732   9.324  0.7392  0.0639 -0.2783
  133MPD2     H 2031   3.418   3.453   9.096  0.5095 -0.4651  1.2822
  133MPD2    H1 2032   3.135   3.597   9.372 -0.1647  1.2908  0.0243
  133MPD2    H2 2033   3.453   3.846   9.254  1.5277 -0.2464  1.6384
  133MPD2    H3 2034   3.258   3.808   9.393 -2.6242 -0.2139 -1.6258
  133MPD2     N 2035   3.187   3.399   9.220 -0.1493 -0.2232  0.0945
  133MPD2    H5 2036   3.101   3.400   9.275  0.8129 -2.4477  1.6739
  133MPD2    N1 2037   3.571   3.666   9.093  0.3947 -0.5162  0.1161
  133MPD2    H7 2038   3.633   3.743   9.117  0.7213 -0.1069 -2.0153
  134TCq2    C1 2039   3.618   3.580   8.995  0.6399  0.1670  0.0284
  134TCq2    O2 2040   3.577   3.472   8.959  0.5443  0.1753  0.7952
  134TCq2    C2 2041   3.749   3.626   8.945  0.2238  0.2878 -0.7122
  134TCq2    C3 2042   3.808   3.746   8.988 -0.5510  0.2149  0.7924
  134TCq2    C4 2043   3.942   3.759   9.007 -0.3275  0.1017 -0.0630
  134TCq2    C5 2044   4.025   3.658   8.970  0.3589  0.4729  0.0197
  134TCq2    C6 2045   3.971   3.540   8.922  0.0329 -0.6476  0.5568
  134TCq2    C7 2046   3.837   3.530   8.907 -0.6772  0.2548 -0.1180
  134TCq2    C8 2047   4.054   3.420   8.918 -0.2599 -0.1380 -0.0075
  134TCq2    O4 2048   3.997   3.313   8.934  0.4501  0.1163 -0.3493
  134TCq2    C9 2049   3.996   3.886   9.049  0.5379  0.3033  0.4218
  134TCq2    O5 2050   4.117   3.893   9.079  0.0169 -0.2622  0.2140
  134TCq2    O6 2051   3.917   3.976   9.079 -0.0175 -0.0108  0.3655
  134TCq2    H2 2052   3.747   3.831   9.018  0.2164  1.2460 -0.5174
  134TCq2    H3 2053   4.133   3.654   8.979  0.4473  1.0774 -0.7580
  134TCq2    H4 2054   3.793   3.451   8.848 -1.9022  0.2104  0.8688
  135MPD2     C 2055   0.829   0.169   8.937  0.0427  0.3803 -0.6696
  135MPD2    C1 2056   0.865   0.042   8.896 -0.2533  0.6802 -0.9727
  135MPD2    C2 2057   1.002   0.007   8.893  0.1422 -0.3539 -0.2851
  135MPD2    C3 2058   1.098   0.104   8.896  0.5572  0.0528  0.3939
  135MPD2    C4 2059   1.059   0.238   8.911 -0.4385  0.5110 -0.2166
  135MPD2    C5 2060   0.924   0.264   8.945 -0.2021  0.0286 -0.1029
  135MPD2     H 2061   1.018   4.624   8.883  0.0911 -0.2748 -1.2105
  135MPD2    H1 2062   1.126   0.322   8.910 -2.2465  1.9954  1.8389
  135MPD2    H2 2063   0.725   0.199   8.948  0.6146  1.6204  1.5808
  135MPD2    H3 2064   0.903   0.366   8.974 -0.8938 -0.5116  1.3135
  135MPD2     N 2065   1.232   0.079   8.850 -0.7965 -0.4229  0.1915
  135MPD2    H5 2066   1.293   0.159   8.838 -1.0512 -0.4477 -1.2304
  135MPD2    N1 2067   0.775   4.657   8.887  0.2659 -0.3958 -0.0570
  135MPD2    H7 2068   0.818   4.566   8.871  0.4234 -0.1981 -0.7588
  136TCq2    C1 2069   0.642   4.672   8.895  0.0294 -0.2659 -0.2954
  136TCq2    O2 2070   0.565   0.045   8.897 -0.1582 -0.0883  0.2361
  136TCq2    C2 2071   0.578   4.536   8.920 -0.0763 -0.6665 -0.6577
  136TCq2    C3 2072   0.438   4.542   8.943 -0.0055 -0.1188 -0.3406
  136TCq2    C4 2073   0.388   4.423   8.994 -0.6171 -0.0244  0.0352
  136TCq2    C5 2074   0.461   4.305   9.005  0.7272  0.1821 -0.0558
  136TCq2    C6 2075   0.595   4.307   8.996  0.0050 -0.1958 -0.3493
  136TCq2    C7 2076   0.654   4.423   8.949 -0.1387 -0.1488  0.0653
  136TCq2    C8 2077   0.677   4.188   9.023 -0.2317 -0.4427 -0.1143
  136TCq2    O4 2078   0.793   4.200   8.990 -0.6084  0.6768  0.9101
  136TCq2    C9 2079   0.253   4.422   9.038  0.1441 -0.6509 -0.3403
  136TCq2    O5 2080   0.188   4.528   9.029 -0.5170 -0.2101 -0.3376
  136TCq2    O6 2081   0.200   4.315   9.069  0.7357  0.5093  0.2296
  136TCq2    H2 2082   0.382   4.632   8.922 -0.2394 -0.0043  0.7782
  136TCq2    H3 2083   0.407   4.219   9.043 -1.9089  0.5045 -3.1761
  136TCq2    H4 2084   0.761   4.417   8.932  0.1271  0.5625  1.5058
  137MPD2     C 2085   1.175   3.150   8.851  0.2789  0.3598 -0.5215
  137MPD2    C1 2086   1.141   3.249   8.934 -0.3526 -0.7737 -0.0836
  137MPD2    C2 2087   1.147   3.231   9.071  0.1017 -0.3312  0.5888
  137MPD2    C3 2088   1.175   3.103   9.120 -0.1562 -0.3990 -0.1305
  137MPD2    C4 2089   1.220   3.006   9.032  0.1274  0.8617 -0.2211
  137MPD2    C5 2090   1.212   3.027   8.899 -0.1035  0.0955 -0.2689
  137MPD2     H 2091   1.117   3.305   9.144 -1.5520 -0.4328  0.0041
  137MPD2    H1 2092   1.269   2.915   9.063  0.9292  0.9789 -1.1508
  137MPD2    H2 2093   1.165   3.159   8.743  1.7872  1.4726 -0.5828
  137MPD2    H3 2094   1.222   2.940   8.835  0.6751  0.1318 -0.1993
  137MPD2     N 2095   1.170   3.081   9.264  0.1408  0.2956 -0.0908
  137MPD2    H5 2096   1.136   3.153   9.327 -0.6115 -1.2068  1.2235
  137MPD2    N1 2097   1.084   3.371   8.876  0.5830 -0.2453  0.1429
  137MPD2    H7 2098   1.064   3.365   8.776 -0.3556  1.4479  0.2211
  138TCq2    C1 2099   1.066   3.488   8.945 -0.8106 -0.4280 -0.1128
  138TCq2    O2 2100   1.097   3.513   9.058  0.1710  0.3805  0.1619
  138TCq2    C2 2101   0.978   3.582   8.882 -0.2108 -0.2438  0.2602
  138TCq2    C3 2102   1.007   3.719   8.875 -0.6079  0.5642  0.1400
  138TCq2    C4 2103   0.952   3.799   8.778  0.4777  0.4725 -0.4793
  138TCq2    C5 2104   0.861   3.742   8.693  0.5141  0.5131 -0.3737
  138TCq2    C6 2105   0.824   3.610   8.709 -0.2259  0.2217 -0.6288
  138TCq2    C7 2106   0.888   3.526   8.795 -1.3960  0.0440 -0.3508
  138TCq2    C8 2107   0.738   3.549   8.606 -0.7991 -0.2166  0.1774
  138TCq2    O4 2108   0.739   3.596   8.491  0.1390 -0.7091  0.2695
  138TCq2    C9 2109   0.980   3.946   8.768  0.7118  0.3146  0.8234
  138TCq2    O5 2110   1.051   3.992   8.858 -0.3796 -0.1139 -0.3670
  138TCq2    O6 2111   0.900   4.020   8.698  0.3426 -0.2398 -0.2978
  138TCq2    H2 2112   1.087   3.759   8.937 -0.0410 -0.9327  0.3743
  138TCq2    H3 2113   0.815   3.800   8.613  0.6192  0.6255 -0.3537
  138TCq2    H4 2114   0.866   3.419   8.795 -0.8520 -0.0615  1.1357
  139TMC2    C1 2115   1.408   1.754  13.102 -0.3387  0.2695 -0.3238
  139TMC2    C2 2116   1.356   1.697  12.986  0.4514  0.2573  0.1612
  139TMC2    C3 2117   1.269   1.774  12.908 -0.1319 -0.5041 -0.2151
  139TMC2    C4 2118   1.370   1.873  13.148 -0.6701  0.1554  0.4866
  139TMC2    C5 2119   1.277   1.937  13.079  0.4054  0.4837  0.2872
  139TMC2    C6 2120   1.227   1.896  12.957  0.4883  0.5358 -0.8273
  139TMC2     C 2121   1.487   1.670  13.187  0.2746  0.3137  0.1968
  139TMC2     O 2122   1.559   1.724  13.269  0.6467  0.6241  0.1046
  139TMC2     H 2123   1.386   1.599  12.949 -1.2085 -0.1612 -0.0705
  139TMC2    H1 2124   1.385   1.892  13.254 -0.1232 -1.9168  0.7922
  139TMC2    H2 2125   1.157   1.952  12.895 -1.3418 -1.0273 -0.1912
  139TMC2    C7 2126   1.286   2.083  13.094  0.3210 -0.0413  0.6103
  139TMC2    C8 2127   1.246   1.727  12.768  0.1099  0.8017  0.1361
  139TMC2    O1 2128   1.204   2.147  13.034 -0.1541  0.1632  0.3902
  139TMC2    O2 2129   1.243   1.611  12.729  0.0438 -0.0440  0.0505
  139TMC2    O5 2130   1.273   1.838  12.687  0.1417 -0.1504  0.2943
  139TMC2    H5 2131   1.299   1.913  12.744  1.4698 -0.9664  0.7488
  140MPD2     C 2132   1.489   1.306  13.240  0.4884 -0.1203 -0.3574
  140MPD2    C1 2133   1.541   1.436  13.221 -0.8571 -0.0168 -0.6297
  140MPD2    C2 2134   1.675   1.456  13.232 -0.1984 -0.4542 -0.8350
  140MPD2    C3 2135   1.758   1.355  13.285  0.5715  0.0430 -0.3592
  140MPD2    C4 2136   1.702   1.230  13.314 -0.6214  0.0723  0.1566
  140MPD2    C5 2137   1.570   1.212  13.297 -0.5252  0.0200 -0.0127
  140MPD2     H 2138   1.726   1.549  13.212 -3.1632  1.2840 -0.3271
  140MPD2    H1 2139   1.757   1.152  13.366  0.1486 -0.3564 -1.3088
  140MPD2    H2 2140   1.387   1.280  13.212  0.9031 -2.4530  0.3226
  140MPD2    H3 2141   1.525   1.115  13.320 -1.2815  0.2025 -0.7114
  140MPD2     N 2142   1.893   1.385  13.317 -0.4844  0.2967 -0.2364
  140MPD2    H5 2143   1.937   1.465  13.272 -0.0803 -0.6498 -1.5261
  140MPD2    N1 2144   1.457   1.538  13.176 -0.0297 -0.3306  0.4877
  140MPD2    H7 2145   1.363   1.514  13.146 -0.8288  0.9493  1.8985
  141TCq2    C1 2146   2.410   3.039  13.799 -0.2136  0.6267  0.0747
  141TCq2    O2 2147   2.465   2.959  13.718  0.0081  0.3336  0.5012
  141TCq2    C2 2148   2.413   3.007  13.939 -0.1804 -0.1109 -0.4473
  141TCq2    C3 2149   2.429   2.869  13.965  0.5499 -0.0545 -0.0697
  141TCq2    C4 2150   2.478   2.835  14.091 -0.2153 -0.1538 -0.0367
  141TCq2    C5 2151   2.484   2.933  14.185  0.1061 -0.5180 -0.9597
  141TCq2    C6 2152   2.460   3.068  14.153 -0.3607  0.0029 -0.1698
  141TCq2    C7 2153   2.420   3.107  14.027 -0.2531  0.1317  0.3557
  141TCq2    C8 2154   2.493   3.183  14.236  0.4435  0.2386  0.2556
  141TCq2    O4 2155   2.422   3.282  14.224  0.2491  0.2524  0.1520
  141TCq2    C9 2156   2.497   2.696  14.123 -0.3038  0.9332 -0.8861
  141TCq2    O5 2157   2.496   2.616  14.026 -0.0582 -0.5181  0.5357
  141TCq2    O6 2158   2.513   2.653  14.241 -0.0285  0.1457  0.0906
  141TCq2    H2 2159   2.429   2.794  13.887  0.7275 -1.6596  1.4955
  141TCq2    H3 2160   2.505   2.904  14.287 -1.2178  1.0100 -0.2656
  141TCq2    H4 2161   2.426   3.213  14.004 -0.1660 -0.2864 -1.5585
  142MPD2     C 2162   4.607   1.507  10.375  0.1580 -0.2518  0.1555
  142MPD2    C1 2163   4.571   1.516  10.247 -0.5196 -0.4633  0.6167
  142MPD2    C2 2164   4.641   1.600  10.154 -0.1540 -0.1582  0.0468
  142MPD2    C3 2165   0.040   1.662  10.198  0.1662 -0.6069 -0.5700
  142MPD2    C4 2166   0.066   1.662  10.337 -0.0831 -0.4351 -0.4832
  142MPD2    C5 2167   4.704   1.590  10.417 -0.4678  0.5523 -0.2093
  142MPD2     H 2168   4.599   1.605  10.055 -0.3365  1.7415  0.2047
  142MPD2    H1 2169   0.148   1.716  10.383 -0.5269  0.4967 -0.7714
  142MPD2    H2 2170   4.558   1.448  10.452  0.3693  0.7124  1.0264
  142MPD2    H3 2171   4.715   1.603  10.524 -0.7689  0.8146 -0.2102
  142MPD2     N 2172   0.124   1.736  10.110  0.2635  0.2073 -0.3835
  142MPD2    H5 2173   0.186   1.803  10.156  0.3712 -0.5320  0.5480
  142MPD2    N1 2174   4.457   1.435  10.210  0.4344 -0.1955 -0.9648
  142MPD2    H7 2175   4.426   1.371  10.282 -0.9482  1.2903 -0.2335
  143TCq2    C1 2176   0.124   1.736   9.975 -0.1553 -0.7885 -0.3088
  143TCq2    O2 2177   0.052   1.670   9.898  0.1797 -0.3402  0.0290
  143TCq2    C2 2178   0.229   1.821   9.922  0.6092  0.5495  0.7629
  143TCq2    C3 2179   0.334   1.856  10.001  0.3178 -0.4834  0.4938
  143TCq2    C4 2180   0.417   1.948   9.948 -0.1988 -0.2397 -0.2248
  143TCq2    C5 2181   0.392   2.013   9.831 -0.3659  0.1017 -0.2867
  143TCq2    C6 2182   0.288   1.971   9.754  0.2887  0.6725  0.3792
  143TCq2    C7 2183   0.202   1.875   9.795  0.2339 -0.2362 -0.2467
  143TCq2    C8 2184   0.290   2.010   9.622 -0.3815  0.3957 -0.2949
  143TCq2    O4 2185   0.389   2.060   9.583 -0.1576 -0.8411  0.7667
  143TCq2    C9 2186   0.539   1.976  10.022 -1.0791 -0.8781  0.0164
  143TCq2    O5 2187   0.548   1.929  10.141 -0.3984  0.1619 -0.7919
  143TCq2    O6 2188   0.628   2.045   9.966  0.4128 -0.2802  0.1998
  143TCq2    H2 2189   0.360   1.814  10.097 -1.7006  0.7810  1.5956
  143TCq2    H3 2190   0.467   2.086   9.801  1.6820 -1.7503  0.3308
  143TCq2    H4 2191   0.125   1.831   9.734 -0.8337  1.2126  0.0512
  144MPD2     C 2192   2.734   0.779   0.154  0.4832  0.1265 -0.1534
  144MPD2    C1 2193   2.753   0.646   0.130  0.3393  0.3188 -0.6551
  144MPD2    C2 2194   2.833   0.571   0.224 -0.0255 -0.0038  0.6475
  144MPD2    C3 2195   2.898   0.644   0.321 -0.3916  0.7053 -1.1626
  144MPD2    C4 2196   2.876   0.775   0.346 -0.1490 -0.0870  0.0344
  144MPD2    C5 2197   2.797   0.842   0.260 -0.8082  0.4658  0.8387
  144MPD2     H 2198   2.863   0.469   0.203 -0.1799 -0.3795  2.2723
  144MPD2    H1 2199   2.928   0.842   0.414 -1.8453  1.5392 -0.2657
  144MPD2    H2 2200   2.676   0.843   0.088  0.5227 -1.3710 -1.6562
  144MPD2    H3 2201   2.791   0.947   0.284  0.4099  0.8085 -0.3890
  144MPD2     N 2202   2.995   0.590   0.410  0.4624  0.0958  0.4820
  144MPD2    H5 2203   3.043   0.659   0.466  3.0189 -2.1521  1.1010
  144MPD2    N1 2204   2.688   0.574   0.031 -0.1409  0.1643 -0.3774
  144MPD2    H7 2205   2.723   0.480   0.019  0.7223  0.4528 -0.1525
  145TCq2    C1 2206   3.037   0.465   0.412  0.6102 -0.3589  0.1689
  145TCq2    O2 2207   2.983   0.369   0.361  0.5204 -0.1913 -0.0653
  145TCq2    C2 2208   3.167   0.439   0.474  0.1677 -0.1870  0.5439
  145TCq2    C3 2209   3.239   0.328   0.441  0.4285 -0.5005  0.2462
  145TCq2    C4 2210   3.371   0.306   0.471  0.1706 -0.3698 -0.4793
  145TCq2    C5 2211   3.437   0.396   0.547  0.3539 -0.0337  0.0376
  145TCq2    C6 2212   3.368   0.506   0.592 -0.1137 -0.7134  0.1650
  145TCq2    C7 2213   3.236   0.533   0.551 -0.2802  0.0151  0.9776
  145TCq2    C8 2214   3.450   0.621   0.630  0.0326 -0.0331  0.1320
  145TCq2    O4 2215   3.557   0.634   0.577 -0.1265 -0.2960  0.3537
  145TCq2    C9 2216   3.443   0.186   0.421 -0.4219  0.3759 -0.0433
  145TCq2    O5 2217   3.567   0.173   0.447  0.2155  0.1928 -0.1834
  145TCq2    O6 2218   3.366   0.098   0.371  0.0220 -0.2509 -0.2929
  145TCq2    H2 2219   3.194   0.253   0.377  1.5149 -1.3715  0.5139
  145TCq2    H3 2220   3.543   0.386   0.569  0.3928  0.6956  0.1842
  145TCq2    H4 2221   3.195   0.629   0.581 -0.2782 -0.1148  1.3868
  146TMC2    C1 2222   4.001   4.327  12.158  0.3306  0.3369  0.7825
  146TMC2    C2 2223   3.935   4.391  12.053  0.3698  0.0156 -0.4199
  146TMC2    C3 2224   3.949   4.338  11.928 -0.3430 -0.7365 -0.2528
  146TMC2    C4 2225   4.078   4.212  12.133 -0.5079  0.3532 -0.6465
  146TMC2    C5 2226   4.075   4.159  12.007 -0.1273 -0.1828  0.6533
  146TMC2    C6 2227   4.019   4.221  11.900  0.2739  0.2027  0.2521
  146TMC2     C 2228   4.053   4.410  12.262 -0.2315  0.1796 -0.4677
  146TMC2     O 2229   4.065   4.530  12.235 -0.4267  0.4294  0.3373
  146TMC2     H 2230   3.878   4.481  12.073  0.2228 -0.4402  1.2396
  146TMC2    H1 2231   4.131   4.167  12.216 -2.0655 -0.2424  0.0313
  146TMC2    H2 2232   4.050   4.188  11.802  2.1585  1.3476  0.4540
  146TMC2    C7 2233   4.168   4.050  11.981 -0.4597 -0.2822 -0.6226
  146TMC2    C8 2234   3.930   4.441  11.821  0.5591  0.1668  0.3903
  146TMC2    O1 2235   4.217   4.034  11.868  0.3898  0.2054  0.6071
  146TMC2    O2 2236   3.898   4.558  11.859  0.1253 -0.2346  0.0807
  146TMC2    O5 2237   3.892   4.378  11.706 -0.1682  0.3970  0.1290
  146TMC2    H5 2238   3.898   4.281  11.694  1.7292  0.3622  1.2355
  147MPD2     C 2239   4.561   3.805  12.213 -0.2993 -0.3356 -0.2162
  147MPD2    C1 2240   4.449   3.802  12.297 -0.4935 -0.0042 -0.3417
  147MPD2    C2 2241   4.332   3.860  12.248 -0.3801 -0.3877  0.3909
  147MPD2    C3 2242   4.323   3.924  12.124  0.6303  0.3297  0.2766
  147MPD2    C4 2243   4.427   3.916  12.035 -0.9695 -0.0845  0.1032
  147MPD2    C5 2244   4.536   3.851  12.082  0.1322  0.0873  0.4236
  147MPD2     H 2245   4.246   3.857  12.313  0.4917  2.4760  1.6888
  147MPD2    H1 2246   4.429   3.952  11.933  0.5470 -2.5520 -0.7426
  147MPD2    H2 2247   4.656   3.758  12.233  0.5995  0.9880 -1.4109
  147MPD2    H3 2248   4.612   3.837  12.006  0.9012 -0.1578  1.2304
  147MPD2     N 2249   4.201   3.986  12.099 -0.4726  0.1931 -0.2346
  147MPD2    H5 2250   4.137   3.996  12.177 -0.1481  0.1675  0.0369
  147MPD2    N1 2251   4.462   3.745  12.431 -0.4162 -0.5170  0.7253
  147MPD2    H7 2252   4.550   3.701  12.456  1.0273  1.1549 -1.4112
  148MPD2     C 2253   4.321   3.173  10.217 -0.3216 -0.3755 -0.1306
  148MPD2    C1 2254   4.317   3.076  10.121 -0.0992  1.4085  0.2922
  148MPD2    C2 2255   4.201   3.018  10.085  0.4601 -0.3076 -0.0263
  148MPD2    C3 2256   4.089   3.039  10.153  0.3463 -0.2268  0.2940
  148MPD2    C4 2257   4.091   3.125  10.256 -0.0991  0.1129 -0.2455
  148MPD2    C5 2258   4.209   3.189  10.289 -0.1450  0.4674 -0.1183
  148MPD2     H 2259   4.202   2.929  10.022 -1.5915 -0.7948  0.6421
  148MPD2    H1 2260   3.996   3.142  10.304 -0.6431  0.2547 -1.3755
  148MPD2    H2 2261   4.416   3.220  10.236 -0.4891 -0.2742  0.4446
  148MPD2    H3 2262   4.210   3.241  10.384  0.8614  2.7948 -1.4086
  148MPD2     N 2263   3.971   2.961  10.129  0.2309 -0.2857  0.3155
  148MPD2    H5 2264   3.898   2.993  10.192 -1.4001 -1.1595 -1.1261
  148MPD2    N1 2265   4.437   3.018  10.069 -0.0025  0.0381 -0.4447
  148MPD2    H7 2266   4.432   2.940  10.003  2.5183  0.7325 -1.4868
  149TCq2    C1 2267   4.564   3.069  10.081  0.1705  0.0469 -0.0916
  149TCq2    O2 2268   4.608   3.169  10.130  0.5119  0.0301  0.1086
  149TCq2    C2 2269   4.661   2.976  10.021 -1.1504 -0.7428 -0.4243
  149TCq2    C3 2270   0.037   3.026   9.942 -0.3778  0.5292  0.0324
  149TCq2    C4 2271   0.106   2.946   9.854 -0.5218  0.0635 -0.1497
  149TCq2    C5 2272   0.054   2.820   9.834  0.5385  0.7955 -0.6394
  149TCq2    C6 2273   4.670   2.777   9.910  0.2775 -0.3719  0.3785
  149TCq2    C7 2274   4.609   2.848  10.008 -0.0281  0.0999  0.1455
  149TCq2    C8 2275   4.594   2.665   9.858  0.3635 -0.5095 -1.2194
  149TCq2    O4 2276   4.495   2.639   9.924  0.1766 -0.0541 -0.0236
  149TCq2    C9 2277   0.194   3.009   9.757 -0.2624 -0.1734  0.1436
  149TCq2    O5 2278   0.208   2.947   9.649 -0.0915  0.2931  0.5748
  149TCq2    O6 2279   0.231   3.126   9.785 -0.2395  0.4571  0.1095
  149TCq2    H2 2280   0.043   3.133   9.930  0.7422  0.4593 -0.0045
  149TCq2    H3 2281   0.097   2.758   9.756  0.8405 -2.0701  1.7940
  149TCq2    H4 2282   4.534   2.810  10.077 -0.1430 -1.0185 -0.6054
  150MPD2     C 2283   1.421   1.756  12.042  0.7912 -0.2304 -0.4463
  150MPD2    C1 2284   1.338   1.863  12.014  0.0558  0.0128 -0.2971
  150MPD2    C2 2285   1.389   1.997  12.014  0.3870 -0.1888  0.6414
  150MPD2    C3 2286   1.517   2.016  12.073  0.4157  0.3440  0.5169
  150MPD2    C4 2287   1.598   1.906  12.095 -0.1330 -0.0464  0.0483
  150MPD2    C5 2288   1.555   1.782  12.072  0.6916  0.4888 -0.4991
  150MPD2     H 2289   1.331   2.087  11.998  1.2537  0.1326 -0.7318
  150MPD2    H1 2290   1.701   1.909  12.129 -0.3711  1.1968  0.6381
  150MPD2    H2 2291   1.399   1.650  12.038 -1.6467  0.3441 -2.0360
  150MPD2    H3 2292   1.630   1.705  12.084 -0.6641 -0.8209 -0.4429
  150MPD2     N 2293   1.557   2.153  12.103 -0.2625  0.0454 -0.4532
  150MPD2    H5 2294   1.492   2.231  12.096  0.1638  0.5408  1.1169
  150MPD2    N1 2295   1.211   1.848  11.969  0.1637 -0.0042  0.3865
  150MPD2    H7 2296   1.158   1.932  11.946 -1.1011 -0.7065  0.7278
  151TCq2    C1 2297   1.686   2.199  12.137  0.8573 -0.6721 -0.0251
  151TCq2    O2 2298   1.795   2.143  12.147 -0.2280 -0.4702 -0.5309
  151TCq2    C2 2299   1.682   2.352  12.144 -0.4327 -0.3666 -0.2438
  151TCq2    C3 2300   1.567   2.429  12.156 -0.5287 -0.3752  0.0759
  151TCq2    C4 2301   1.586   2.562  12.172 -0.1570  0.2057 -1.0726
  151TCq2    C5 2302   1.707   2.621  12.197  0.0329  0.3691  0.6197
  151TCq2    C6 2303   1.813   2.539  12.214  0.0824 -0.0822 -1.0508
  151TCq2    C7 2304   1.801   2.407  12.183  0.2125  0.6682 -0.2550
  151TCq2    C8 2305   1.937   2.591  12.257  0.9207 -0.8168  0.5953
  151TCq2    O4 2306   1.948   2.711  12.274  0.0114  0.1465  0.2435
  151TCq2    C9 2307   1.467   2.645  12.165  0.0462 -0.8250 -0.5167
  151TCq2    O5 2308   1.357   2.595  12.205  0.0384  0.4026 -0.3299
  151TCq2    O6 2309   1.487   2.762  12.115  0.0574 -0.2824 -0.0045
  151TCq2    H2 2310   1.469   2.388  12.134 -0.6851 -1.4003  2.6724
  151TCq2    H3 2311   1.717   2.729  12.204  0.9937  0.1667  2.4926
  151TCq2    H4 2312   1.883   2.338  12.167 -0.4183 -0.3053  0.7220
  152MPD2     C 2313   0.992   1.677  12.485  0.3251  0.1110  0.1314
  152MPD2    C1 2314   1.040   1.775  12.403 -0.1842 -0.5773  0.8368
  152MPD2    C2 2315   0.949   1.811  12.304  0.1262 -0.1030  0.1670
  152MPD2    C3 2316   0.826   1.755  12.287  0.6021  0.0116  0.4870
  152MPD2    C4 2317   0.792   1.649  12.364  0.3914  0.4659 -0.2307
  152MPD2    C5 2318   0.879   1.615  12.460 -0.5485  0.0835  0.4697
  152MPD2     H 2319   0.978   1.888  12.233 -0.6137 -1.6649 -1.8172
  152MPD2    H1 2320   0.696   1.600  12.353  0.0392  1.5658 -1.9859
  152MPD2    H2 2321   1.051   1.648  12.571  1.5268  0.4254 -0.5878
  152MPD2    H3 2322   0.854   1.531  12.523 -0.0170  0.9484  1.8282
  152MPD2     N 2323   0.743   1.800  12.179 -0.3510  0.0654  0.2533
  152MPD2    H5 2324   0.779   1.877  12.124 -0.7410 -1.0410 -1.5303
  152MPD2    N1 2325   1.171   1.822  12.415 -0.4971 -0.5012  0.2461
  152MPD2    H7 2326   1.232   1.778  12.483 -0.6168 -2.0008 -0.6154
  153TCq2    C1 2327   1.216   1.943  12.366  0.4371 -0.3648  0.0131
  153TCq2    O2 2328   1.151   2.031  12.308  0.4299 -0.5373 -0.5597
  153TCq2    C2 2329   1.348   1.973  12.415  0.2485  0.1111  0.3294
  153TCq2    C3 2330   1.431   1.867  12.436  0.6452 -0.4421 -0.0119
  153TCq2    C4 2331   1.571   1.875  12.459  0.7710  0.3381 -0.0714
  153TCq2    C5 2332   1.626   2.000  12.469 -0.3510  0.1200 -0.4240
  153TCq2    C6 2333   1.534   2.103  12.451  0.4584  0.0234 -1.0677
  153TCq2    C7 2334   1.402   2.099  12.425 -0.6591  0.1434  0.5246
  153TCq2    C8 2335   1.584   2.239  12.467  0.1387 -0.3212  0.2655
  153TCq2    O4 2336   1.503   2.329  12.430 -0.1512 -0.0014 -0.7512
  153TCq2    C9 2337   1.656   1.756  12.469 -0.9206  0.0705  0.4609
  153TCq2    O5 2338   1.779   1.777  12.488  0.3441  0.8611 -0.5839
  153TCq2    O6 2339   1.612   1.644  12.435  0.2809  0.0553 -0.0794
  153TCq2    H2 2340   1.399   1.765  12.418  2.5553 -0.9337 -0.5551
  153TCq2    H3 2341   1.726   2.007  12.509  0.2734  0.1741 -1.9907
  153TCq2    H4 2342   1.340   2.186  12.415 -0.8022 -0.0677 -0.3790
  154MPD2     C 2343   3.720   3.072   0.849 -0.5926  0.3681  0.9413
  154MPD2    C1 2344   3.626   2.972   0.846 -0.0879  0.1834  0.5141
  154MPD2    C2 2345   3.508   2.986   0.907 -0.1960 -0.1237 -0.2169
  154MPD2    C3 2346   3.475   3.093   0.981  0.6694 -0.6492 -0.6490
  154MPD2    C4 2347   3.570   3.198   0.985 -0.6808 -0.4789  1.0754
  154MPD2    C5 2348   3.689   3.188   0.916  0.3454  0.8687  0.4853
  154MPD2     H 2349   3.439   2.904   0.890 -0.7307 -0.1409  1.9326
  154MPD2    H1 2350   3.543   3.289   1.037 -1.9104 -0.2154 -0.0123
  154MPD2    H2 2351   3.816   3.063   0.801 -0.0379  2.6930  1.5898
  154MPD2    H3 2352   3.765   3.263   0.931  0.9534  0.4786 -0.6917
  154MPD2     N 2353   3.353   3.085   1.047 -0.4078  0.8382 -0.5490
  154MPD2    H5 2354   3.291   3.013   1.011  0.4176 -0.4110  0.5376
  154MPD2    N1 2355   3.648   2.852   0.775  0.0599  0.9211  0.0345
  154MPD2    H7 2356   3.735   2.839   0.725  0.0251  0.5134  0.0767
  155TCq2    C1 2357   3.573   2.737   0.769 -0.1163  0.0181  0.0409
  155TCq2    O2 2358   3.488   2.699   0.843 -0.3611 -0.3074  0.3906
  155TCq2    C2 2359   3.639   2.621   0.696 -0.0485  0.4638 -0.3702
  155TCq2    C3 2360   3.571   2.508   0.691 -0.1855 -0.5338 -0.1261
  155TCq2    C4 2361   3.624   2.394   0.655  0.0792 -0.8766 -0.1245
  155TCq2    C5 2362   3.756   2.386   0.622 -0.2633  0.1041 -0.5824
  155TCq2    C6 2363   3.833   2.502   0.622 -0.5733 -0.2594  0.0959
  155TCq2    C7 2364   3.775   2.623   0.671  0.0571  0.3717  0.2742
  155TCq2    C8 2365   3.970   2.509   0.564 -0.7753 -0.7674  0.0858
  155TCq2    O4 2366   4.027   2.614   0.565  0.2252  0.3360 -0.1326
  155TCq2    C9 2367   3.545   2.276   0.653 -0.4064  0.0693 -0.8195
  155TCq2    O5 2368   3.602   2.162   0.651  0.1706 -0.2062  0.4414
  155TCq2    O6 2369   3.424   2.298   0.644 -0.1708  0.0266 -0.4307
  155TCq2    H2 2370   3.463   2.508   0.707 -0.4558 -1.0890 -1.9910
  155TCq2    H3 2371   3.790   2.290   0.584 -1.4962  0.4809 -2.6349
  155TCq2    H4 2372   3.832   2.715   0.672 -0.9578  1.0087 -0.1989
  156MPD2     C 2373   1.145   3.626  12.272 -0.7696  0.5317 -0.3637
  156MPD2    C1 2374   1.253   3.691  12.218 -0.1643 -0.0922  0.3102
  156MPD2    C2 2375   1.347   3.748  12.302  0.1302  0.2543  0.5124
  156MPD2    C3 2376   1.328   3.731  12.439  0.2290  0.0105  0.1353
  156MPD2    C4 2377   1.216   3.667  12.493  0.3363 -0.2586  0.3779
  156MPD2    C5 2378   1.124   3.617  12.408 -0.3785 -0.1790  0.9343
  156MPD2     H 2379   1.435   3.787  12.252  0.4468 -1.4574 -0.2818
  156MPD2    H1 2380   1.186   3.664  12.597  2.0770 -1.2959  0.8567
  156MPD2    H2 2381   1.068   3.579  12.211  2.0009 -2.8348 -1.2814
  156MPD2    H3 2382   1.040   3.576  12.462  0.4343 -1.6232  1.1042
  156MPD2     N 2383   1.429   3.784  12.517 -0.6353  0.1854 -0.3125
  156MPD2    H5 2384   1.497   3.840  12.466 -0.3176 -0.4700 -0.6084
  156MPD2    N1 2385   1.285   3.690  12.082 -0.6303  0.3149  0.2204
  156MPD2    H7 2386   1.382   3.716  12.065 -0.3438 -0.3268  0.9096
  157TCq2    C1 2387   1.206   3.659  11.974  0.0226  0.1033 -0.8974
  157TCq2    O2 2388   1.082   3.647  11.976  0.7088  0.0025 -0.3553
  157TCq2    C2 2389   1.271   3.667  11.845  0.0262  0.2458 -0.2242
  157TCq2    C3 2390   1.406   3.631  11.833 -0.4117  0.1671 -0.6564
  157TCq2    C4 2391   1.464   3.649  11.710 -0.2872 -0.0215  0.0121
  157TCq2    C5 2392   1.401   3.708  11.611  0.0091 -0.4691  0.3549
  157TCq2    C6 2393   1.274   3.744  11.625 -0.7008  0.1954 -0.6189
  157TCq2    C7 2394   1.198   3.721  11.736  0.2780 -0.1520  0.3751
  157TCq2    C8 2395   1.210   3.830  11.527  0.0478 -0.5651  0.0990
  157TCq2    O4 2396   1.276   3.900  11.450 -0.2037  0.0566  0.0193
  157TCq2    C9 2397   1.598   3.610  11.685 -0.1354 -0.3745  0.1364
  157TCq2    O5 2398   1.661   3.568  11.786  0.3753  0.1085  0.0275
  157TCq2    O6 2399   1.649   3.646  11.577  0.1725  0.0932 -0.2435
  157TCq2    H2 2400   1.469   3.598  11.915 -0.2430  0.3598 -0.7071
  157TCq2    H3 2401   1.451   3.733  11.518 -1.9577  1.4581 -0.1893
  157TCq2    H4 2402   1.097   3.754  11.758 -0.0361 -1.2306  0.5170
  158TMC2    C1 2403   2.033   3.337  13.994  0.1494 -0.3281  0.5391
  158TMC2    C2 2404   2.050   3.471  14.001  0.3153 -0.0855 -0.0829
  158TMC2    C3 2405   2.000   3.554  13.908  0.2992  0.1355 -0.4989
  158TMC2    C4 2406   1.949   3.277  13.903  1.0288 -0.2269  0.2802
  158TMC2    C5 2407   1.895   3.373  13.814  0.0822 -1.0221  0.4819
  158TMC2    C6 2408   1.920   3.506  13.808  0.2454  0.5998 -0.3862
  158TMC2     C 2409   2.079   3.256  14.107 -0.1239  0.1596  0.0600
  158TMC2     O 2410   2.122   3.317  14.205  0.4325 -0.4265  0.1686
  158TMC2     H 2411   2.102   3.513  14.086  1.1781 -1.4601  0.0633
  158TMC2    H1 2412   1.917   3.174  13.894  0.4710 -0.1259  1.0504
  158TMC2    H2 2413   1.878   3.569  13.731 -1.6759 -0.7792 -0.4809
  158TMC2    C7 2414   1.828   3.322  13.697  0.7608 -0.3153  0.5043
  158TMC2    C8 2415   1.984   3.694  13.933 -0.6561 -0.4495 -0.7708
  158TMC2    O1 2416   1.728   3.382  13.647 -0.0225 -0.0407  0.4869
  158TMC2    O2 2417   1.878   3.748  13.903 -0.2214  0.1601  0.3134
  158TMC2    O5 2418   2.105   3.750  13.947 -0.9019 -0.0045  0.3210
  158TMC2    H5 2419   2.182   3.691  13.933 -0.5756  0.4298  0.2799
  159MPD2     C 2420   2.182   2.818  14.348 -0.6824 -1.0947  0.4201
  159MPD2    C1 2421   2.125   2.789  14.225  0.8390 -0.0172  0.0827
  159MPD2    C2 2422   2.095   2.895  14.136 -0.4624 -0.5205  0.1029
  159MPD2    C3 2423   2.103   3.021  14.179  0.6332 -0.7077 -0.3661
  159MPD2    C4 2424   2.166   3.047  14.296 -0.0579 -0.7380 -0.2748
  159MPD2    C5 2425   2.201   2.945  14.373 -0.0031  0.0287  0.6694
  159MPD2     H 2426   2.051   2.884  14.037  0.1963 -4.4371  0.2574
  159MPD2    H1 2427   2.192   3.147  14.328  0.6265 -0.8427 -0.5094
  159MPD2    H2 2428   2.202   2.737  14.417  0.5319  1.5935  3.2153
  159MPD2    H3 2429   2.257   2.970  14.462  1.0580 -1.1206  0.3166
  159MPD2     N 2430   2.073   3.120  14.079 -0.4155 -0.0289  0.0804
  159MPD2    H5 2431   2.038   3.101  13.986 -1.0849 -1.1085  0.5531
  159MPD2    N1 2432   2.088   2.657  14.193  0.0769  0.3484  0.4420
  159MPD2    H7 2433   2.113   2.594  14.269 -0.8564 -1.1888 -0.5254
  160TMC2    C1 2434   2.020   1.516   1.684  0.2503  0.3891  0.8257
  160TMC2    C2 2435   1.972   1.456   1.793 -0.0368  0.1853  0.6956
  160TMC2    C3 2436   1.959   1.318   1.792 -0.1487 -0.4188  0.8928
  160TMC2    C4 2437   2.047   1.444   1.573  0.0614  0.6533  0.1808
  160TMC2    C5 2438   2.031   1.307   1.575 -0.8476  0.5690  0.1511
  160TMC2    C6 2439   1.987   1.240   1.688 -0.2762 -0.3876 -0.0088
  160TMC2     C 2440   1.980   1.653   1.656  0.3612  0.3017 -0.1323
  160TMC2     O 2441   2.064   1.727   1.606  0.6204  0.0318 -0.6084
  160TMC2     H 2442   1.936   1.514   1.878 -0.1888 -1.2114  1.5903
  160TMC2    H1 2443   2.064   1.492   1.477  0.9631  1.5098  0.7645
  160TMC2    H2 2444   1.971   1.132   1.688 -0.9990 -0.2780  1.2995
  160TMC2    C7 2445   1.988   1.239   1.450 -0.3303  0.2279 -0.0772
  160TMC2    C8 2446   1.891   1.247   1.904  0.6512 -0.1727  0.4525
  160TMC2    O1 2447   1.925   1.131   1.464 -0.2318  0.2279  0.2967
  160TMC2    O2 2448   1.816   1.153   1.894 -0.2267  0.3367  0.1800
  160TMC2    O5 2449   1.958   1.277   2.019  0.0744 -0.1012  1.0777
  160TMC2    H5 2450   2.020   1.353   2.015  1.6769 -1.4388  0.3761
  161MPD2     C 2451   1.822   1.913   1.633  0.1238 -0.1041  0.1959
  161MPD2    C1 2452   1.768   1.784   1.649  0.1372 -0.0425 -0.5188
  161MPD2    C2 2453   1.632   1.773   1.624  0.1084 -0.3225 -0.2415
  161MPD2    C3 2454   1.537   1.877   1.610 -0.2587  0.1982 -0.3817
  161MPD2    C4 2455   1.595   2.000   1.609  0.3672  0.1018 -0.0975
  161MPD2    C5 2456   1.730   2.019   1.620 -0.4431 -0.0466  0.2836
  161MPD2     H 2457   1.586   1.675   1.618 -1.0950  0.1956  0.6274
  161MPD2    H1 2458   1.536   2.091   1.601 -0.7922 -0.5939  0.5660
  161MPD2    H2 2459   1.927   1.933   1.649 -0.4565  2.1962  1.0734
  161MPD2    H3 2460   1.771   2.119   1.626  0.9752 -0.5094 -1.7203
  161MPD2     N 2461   1.394   1.864   1.597  0.1390 -0.3301 -0.2398
  161MPD2    H5 2462   1.336   1.947   1.602  0.0225 -0.5357  1.5881
  161MPD2    N1 2463   1.844   1.664   1.673 -0.4115  0.3082 -0.0494
  161MPD2    H7 2464   1.796   1.575   1.681  0.8603 -0.5002 -1.5957
  162TMC2    C1 2465   4.077   3.215   1.153 -0.3434  0.1289 -0.2005
  162TMC2    C2 2466   3.949   3.223   1.197  0.1218  0.2365  0.4033
  162TMC2    C3 2467   3.916   3.301   1.309  0.4670  0.0676 -0.5433
  162TMC2    C4 2468   4.171   3.291   1.219 -0.1728 -0.8824  0.1590
  162TMC2    C5 2469   4.139   3.372   1.327  0.4078  0.3903  0.7897
  162TMC2    C6 2470   4.008   3.378   1.373 -0.0122  0.3943  0.1250
  162TMC2     C 2471   4.126   3.106   1.073 -0.1450  0.4998  0.0399
  162TMC2     O 2472   4.244   3.102   1.053 -0.5514  0.0352  0.1107
  162TMC2     H 2473   3.869   3.159   1.161  0.0601 -0.9974  2.7494
  162TMC2    H1 2474   4.275   3.276   1.194  0.7462  3.3039  1.3498
  162TMC2    H2 2475   3.988   3.438   1.461 -0.0447  1.2153 -0.4514
  162TMC2    C7 2476   4.242   3.430   1.409  0.2560 -0.0001 -0.6744
  162TMC2    C8 2477   3.781   3.302   1.353  0.2015  0.3909 -0.4121
  162TMC2    O1 2478   4.216   3.540   1.456  0.0050 -0.2173  0.1783
  162TMC2    O2 2479   3.702   3.211   1.350  0.2491 -0.0695  0.2444
  162TMC2    O5 2480   3.732   3.428   1.373 -0.6674  0.8950  0.6891
  162TMC2    H5 2481   3.801   3.498   1.366 -1.3625  1.5299  0.1795
  163MPD2     C 2482   4.080   2.653   0.851  0.2006 -0.1848 -0.0396
  163MPD2    C1 2483   4.188   2.735   0.845 -0.1601  0.1121 -0.3220
  163MPD2    C2 2484   4.170   2.857   0.907  0.2204 -0.9315  0.2519
  163MPD2    C3 2485   4.053   2.892   0.972 -0.7523 -0.0301 -0.3345
  163MPD2    C4 2486   3.946   2.805   0.969 -0.0952  0.2827 -0.8411
  163MPD2    C5 2487   3.956   2.682   0.912  0.3143  0.3722  0.2814
  163MPD2     H 2488   4.248   2.932   0.906  0.2978 -0.9861  1.6248
  163MPD2    H1 2489   3.853   2.834   1.015  0.5661 -0.7787  1.1667
  163MPD2    H2 2490   4.087   2.559   0.798 -0.6030 -0.0310 -0.4227
  163MPD2    H3 2491   3.866   2.621   0.916  0.3990  0.1399 -1.1567
  163MPD2     N 2492   4.031   3.009   1.041 -0.5506  0.0348  0.1964
  163MPD2    H5 2493   3.938   3.023   1.079 -0.5108  0.9789 -0.0554
  163MPD2    N1 2494   4.292   2.714   0.752  0.3994 -0.3504  0.7443
  163MPD2    H7 2495   4.290   2.626   0.700  1.8608  0.3804 -0.5655
  164TCq2    C1 2496   4.479   3.010  10.473 -0.6667  0.0413 -0.3186
  164TCq2    O2 2497   4.367   2.956  10.477  0.0367  0.4257 -0.4213
  164TCq2    C2 2498   4.489   3.139  10.531 -0.4372 -0.1610  0.1074
  164TCq2    C3 2499   4.582   3.224  10.475  0.2823 -0.1225  0.4029
  164TCq2    C4 2500   4.577   3.354  10.518 -0.1225 -0.7108  0.0704
  164TCq2    C5 2501   4.476   3.402  10.607 -0.3979 -0.3532  0.0145
  164TCq2    C6 2502   4.390   3.310  10.660 -0.6159 -0.1644 -0.5756
  164TCq2    C7 2503   4.394   3.175  10.629  0.1978 -0.0604  0.1410
  164TCq2    C8 2504   4.258   3.349  10.704  0.0949  0.7245  0.7972
  164TCq2    O4 2505   4.201   3.263  10.767 -0.4254  0.5004 -0.4806
  164TCq2    C9 2506   4.680   3.451  10.478  0.2177 -0.8024 -0.7012
  164TCq2    O5 2507   4.698   3.550  10.557 -0.0747 -0.4976  0.4469
  164TCq2    O6 2508   0.049   3.406  10.405 -0.1562 -0.2258 -0.0192
  164TCq2    H2 2509   4.656   3.193  10.401  0.1669  0.6028 -0.0167
  164TCq2    H3 2510   4.479   3.504  10.642 -0.6071 -0.2428 -0.2931
  164TCq2    H4 2511   4.308   3.113  10.650 -0.6020 -0.1809 -3.3844
  165MPD2     C 2512   1.479   0.246   2.052  0.1331  0.1125  0.0901
  165MPD2    C1 2513   1.461   0.183   1.936 -0.5836 -0.6885  0.8569
  165MPD2    C2 2514   1.528   0.223   1.822  0.1066 -1.1583 -0.5221
  165MPD2    C3 2515   1.637   0.317   1.829  0.5352 -0.0600  0.1714
  165MPD2    C4 2516   1.659   0.374   1.953 -0.5112  0.7053  0.6205
  165MPD2    C5 2517   1.577   0.343   2.061 -0.0166 -0.9655  0.1914
  165MPD2     H 2518   1.505   0.173   1.728 -0.9440 -3.2496  0.8479
  165MPD2    H1 2519   1.734   0.451   1.972 -0.3888  0.7915 -0.2200
  165MPD2    H2 2520   1.427   0.221   2.144  2.5814  1.1762  1.7809
  165MPD2    H3 2521   1.598   0.403   2.149 -1.2604  0.7364 -0.6850
  165MPD2     N 2522   1.711   0.355   1.714 -0.1536  0.6286  0.1043
  165MPD2    H5 2523   1.787   0.418   1.736 -0.5554  1.3296 -0.5110
  165MPD2    N1 2524   1.360   0.087   1.930 -0.1647  0.8487  0.8766
  165MPD2    H7 2525   1.290   0.084   2.003  0.2913 -2.1692  1.1938
  166TCq2    C1 2526   1.684   0.318   1.584  0.2837  0.7893  0.7727
  166TCq2    O2 2527   1.610   0.234   1.532  0.0590  1.0491 -0.6128
  166TCq2    C2 2528   1.764   0.386   1.490  0.2732 -0.0440  0.0973
  166TCq2    C3 2529   1.797   0.317   1.372  0.0366  0.1249  0.1797
  166TCq2    C4 2530   1.882   0.372   1.282 -0.0331 -0.6284 -0.0136
  166TCq2    C5 2531   1.935   0.501   1.301  0.4822 -0.8420  0.8838
  166TCq2    C6 2532   1.904   0.562   1.414  0.2641  0.2405 -0.4250
  166TCq2    C7 2533   1.816   0.514   1.511 -0.4544 -0.5694 -0.2649
  166TCq2    C8 2534   1.981   0.684   1.449  0.1888  0.0463  0.8626
  166TCq2    O4 2535   2.035   0.758   1.367  0.6657 -0.1759  0.6362
  166TCq2    C9 2536   1.913   0.299   1.161  0.2981 -0.3310  0.4304
  166TCq2    O5 2537   1.981   0.366   1.077 -0.4137 -0.4113  0.3725
  166TCq2    O6 2538   1.829   0.208   1.137 -0.5260  0.5107 -1.1672
  166TCq2    H2 2539   1.757   0.218   1.353  0.2142  0.5636 -2.4278
  166TCq2    H3 2540   2.011   0.532   1.231  0.0097 -1.6982 -0.0246
  166TCq2    H4 2541   1.768   0.571   1.590 -0.2957 -1.3103  0.3678
  167TMC2    C1 2542   3.488   3.127  12.303  0.5311 -1.0805  0.1411
  167TMC2    C2 2543   3.471   3.179  12.432  0.2461 -0.1373  0.6745
  167TMC2    C3 2544   3.453   3.092  12.536  0.4567  0.0122  0.5578
  167TMC2    C4 2545   3.513   2.994  12.288 -0.6321 -0.0917 -0.2293
  167TMC2    C5 2546   3.494   2.907  12.395  0.9704 -0.5244 -0.5020
  167TMC2    C6 2547   3.458   2.958  12.511 -0.3663 -0.8478  0.1398
  167TMC2     C 2548   3.490   3.226  12.191  0.0155  0.5582 -0.1494
  167TMC2     O 2549   3.437   3.332  12.221  0.3435  0.0016 -0.1662
  167TMC2     H 2550   3.454   3.284  12.453 -1.7121 -0.2273 -0.4333
  167TMC2    H1 2551   3.542   2.962  12.189 -0.8942  0.1677 -0.3922
  167TMC2    H2 2552   3.453   2.897  12.601 -2.2377  1.2596  1.4765
  167TMC2    C7 2553   3.553   2.780  12.404  0.2348  0.6295  0.5789
  167TMC2    C8 2554   3.422   3.140  12.671  0.4658 -0.0587 -1.2382
  167TMC2    O1 2555   3.517   2.699  12.487 -0.2647 -0.6233 -0.0881
  167TMC2    O2 2556   3.330   3.100  12.744 -0.5546 -0.4299 -0.5176
  167TMC2    O5 2557   3.498   3.254  12.687  0.2576 -0.6386 -0.6386
  167TMC2    H5 2558   3.569   3.277  12.624  1.3539 -1.5962  0.2344
  168MPD2     C 2559   3.564   3.395  11.965  0.8427  0.2023  0.7572
  168MPD2    C1 2560   3.592   3.265  11.971 -0.9071  0.2486 -0.3262
  168MPD2    C2 2561   3.659   3.209  11.861 -0.4052 -0.0045  0.5298
  168MPD2    C3 2562   3.699   3.283  11.756  0.6512 -0.1131 -0.7594
  168MPD2    C4 2563   3.677   3.419  11.756 -0.6714  0.1989  0.3673
  168MPD2    C5 2564   3.607   3.474  11.864 -0.7693  0.1211 -0.2869
  168MPD2     H 2565   3.681   3.103  11.862  0.8145  0.2595  2.2205
  168MPD2    H1 2566   3.721   3.483  11.680  0.9702 -1.2755  0.0831
  168MPD2    H2 2567   3.510   3.442  12.046 -1.7949  0.7281 -1.3187
  168MPD2    H3 2568   3.575   3.578  11.864 -1.2529 -0.0279 -2.6708
  168MPD2     N 2569   3.756   3.215  11.643  0.2048 -0.0973 -0.3198
  168MPD2    H5 2570   3.763   3.115  11.657 -2.1340 -0.3307 -0.8324
  168MPD2    N1 2571   3.565   3.185  12.082  0.3264 -0.7239  0.2604
  168MPD2    H7 2572   3.596   3.088  12.078 -0.2786 -0.9822  1.8751
  169MPD1     C 2573   0.952   1.234   9.670 -0.4126 -0.0550  0.2924
  169MPD1    C1 2574   1.019   1.130   9.609  0.9800  0.4040  1.3950
  169MPD1    C2 2575   1.155   1.150   9.587 -0.4507  0.9368  0.7358
  169MPD1    C3 2576   1.217   1.275   9.605 -0.9130  0.7848 -0.2326
  169MPD1    C4 2577   1.142   1.382   9.658 -0.7772  0.6579  0.2231
  169MPD1    C5 2578   1.008   1.357   9.691  0.5863 -0.1607 -0.0061
  169MPD1     H 2579   1.218   1.072   9.547  0.7432  1.2027  2.0836
  169MPD1    H1 2580   1.191   1.476   9.680 -1.9266  0.5236  3.3193
  169MPD1    H2 2581   0.851   1.214   9.705  0.1137 -2.1467  0.6465
  169MPD1    H3 2582   0.948   1.441   9.725  1.3516  0.3025  0.2003
  169MPD1     N 2583   1.351   1.278   9.577 -0.1066 -0.7457 -0.5060
  169MPD1    H5 2584   1.385   1.185   9.557 -0.2408 -1.1969  1.3415
  169MPD1    N1 2585   0.956   1.006   9.608 -0.2091 -0.2581 -0.0275
  169MPD1    H6 2586   0.855   0.995   9.620 -0.0787 -2.1009 -0.6386
  169MPD1    H7 2587   0.985   0.950   9.528 -0.9341 -2.1862  1.0753
  170MPD1     C 2588   0.592   0.053  13.129 -0.2383  0.6205  0.2802
  170MPD1    C1 2589   0.500   0.149  13.104 -0.1894 -0.1143  0.5312
  170MPD1    C2 2590   0.441   0.216  13.216  0.2208 -0.0612  0.3637
  170MPD1    C3 2591   0.468   0.172  13.349 -0.1477 -0.5449 -0.1833
  170MPD1    C4 2592   0.556   0.070  13.361  0.0533  0.6492 -0.1078
  170MPD1    C5 2593   0.626   0.018  13.251  0.2465 -0.0146  0.6759
  170MPD1     H 2594   0.374   0.300  13.204 -1.9331 -1.7897  0.1807
  170MPD1    H1 2595   0.562   0.027  13.461 -1.4153  1.5411  0.3513
  170MPD1    H2 2596   0.645   4.720  13.054  0.0629  0.1781  0.8261
  170MPD1    H3 2597   0.701   4.664  13.260  0.1904 -0.2010 -0.4596
  170MPD1     N 2598   0.413   0.237  13.465  0.4776 -0.7105 -0.2378
  170MPD1    H5 2599   0.363   0.325  13.457  0.8344 -0.7083 -2.4579
  170MPD1    N1 2600   0.492   0.198  12.976 -0.1491 -0.4424  0.0678
  170MPD1    H6 2601   0.408   0.248  12.947  0.6856  1.3428  0.6892
  170MPD1    H7 2602   0.516   0.133  12.902 -1.1381  0.7675 -1.3031
  171MPD1     C 2603   4.219   1.750  15.673  0.2908 -0.5146 -0.1282
  171MPD1    C1 2604   4.206   1.687  15.554  0.0150 -0.1550 -0.2307
  171MPD1    C2 2605   4.183   1.551  15.555  0.7183  0.1853  0.2619
  171MPD1    C3 2606   4.210   1.476  15.662  0.0253  0.4286  0.3219
  171MPD1    C4 2607   4.234   1.537  15.786 -0.2085 -0.1153  0.6394
  171MPD1    C5 2608   4.247   1.674  15.784 -0.0511 -0.5914  0.3938
  171MPD1     H 2609   4.168   1.501  15.460  0.5432 -1.9984  1.4381
  171MPD1    H1 2610   4.247   1.485  15.880  0.1087  1.2773  1.3602
  171MPD1    H2 2611   4.223   1.858  15.670 -0.3271 -0.4636  1.1291
  171MPD1    H3 2612   4.258   1.719  15.881  2.7519 -0.6884  0.1176
  171MPD1     N 2613   4.195   1.335  15.664 -0.0887  0.0985  0.0539
  171MPD1    H5 2614   4.200   1.292  15.756 -0.0213 -0.3688 -0.1694
  171MPD1    N1 2615   4.178   1.761  15.438 -0.5378 -0.5875  0.3531
  171MPD1    H6 2616   4.176   1.700  15.357  1.8745  1.2571 -1.0689
  171MPD1    H7 2617   4.236   1.842  15.419  1.2326 -2.3881 -1.9641
  172MPD1     C 2618   3.236   0.245  17.218 -0.0794 -0.5167  0.5071
  172MPD1    C1 2619   3.119   0.305  17.260 -0.7287  0.1151  0.3819
  172MPD1    C2 2620   3.108   0.367  17.381  0.2284  0.5188  0.1223
  172MPD1    C3 2621   3.217   0.379  17.465 -0.4875 -0.1090 -0.2266
  172MPD1    C4 2622   3.342   0.343  17.414  0.9245  0.4572  0.1135
  172MPD1    C5 2623   3.349   0.271  17.293 -0.7059 -0.4785 -0.2967
  172MPD1     H 2624   3.012   0.392  17.423 -0.0870 -0.1852 -0.1841
  172MPD1    H1 2625   3.429   0.363  17.475  0.1452 -1.7826  1.9635
  172MPD1    H2 2626   3.243   0.188  17.126  0.5318  0.8052 -0.2608
  172MPD1    H3 2627   3.443   0.235  17.254 -0.2119 -1.4528  1.7954
  172MPD1     N 2628   3.215   0.449  17.592  0.1770 -0.1024  0.4775
  172MPD1    H5 2629   3.302   0.449  17.645  1.8029  2.9406 -2.2392
  172MPD1    N1 2630   3.002   0.273  17.192 -0.5476 -0.3019 -0.0594
  172MPD1    H6 2631   2.934   0.348  17.203 -0.3690  0.1454 -2.0213
  172MPD1    H7 2632   3.009   0.229  17.100  0.2185  0.4297 -0.3479
  173MPD1     C 2633   4.517   0.940  14.238 -0.2205 -0.1829  0.1530
  173MPD1    C1 2634   4.562   0.820  14.188  0.0615 -0.3576  0.2766
  173MPD1    C2 2635   4.496   0.701  14.222 -0.3586 -0.3803 -0.2236
  173MPD1    C3 2636   4.405   0.707  14.328  0.7648  0.3373 -0.5923
  173MPD1    C4 2637   4.374   0.831  14.383  0.4240  0.2801  0.1273
  173MPD1    C5 2638   4.426   0.951  14.330  0.1705 -0.2176 -0.5559
  173MPD1     H 2639   4.520   0.613  14.164  1.6996 -0.6295  1.0266
  173MPD1    H1 2640   4.302   0.857  14.460 -1.3769 -1.0412 -1.1157
  173MPD1    H2 2641   4.566   1.034  14.215  1.1180 -1.2254 -1.2759
  173MPD1    H3 2642   4.395   1.045  14.374 -1.0818 -0.6037 -0.6206
  173MPD1     N 2643   4.329   0.589  14.363 -0.1801  0.4433 -0.1743
  173MPD1    H5 2644   4.333   0.508  14.302 -1.5617  0.3345 -0.1233
  173MPD1    N1 2645   4.640   0.821  14.076 -0.5796  0.6437 -0.1220
  173MPD1    H6 2646   4.703   0.741  14.080  0.5148  1.5085  0.2297
  173MPD1    H7 2647   4.715   0.890  14.071 -0.4150  0.4721 -0.0102
  174MPD1     C 2648   4.051   4.530  13.941  0.2634  0.2436  0.0154
  174MPD1    C1 2649   4.173   4.585  13.963  0.2437  0.0458 -0.2175
  174MPD1    C2 2650   4.181   4.672  14.073  0.1906 -0.6279 -0.0077
  174MPD1    C3 2651   4.070   4.685  14.151  0.2983 -0.0610  0.2390
  174MPD1    C4 2652   3.953   4.614  14.130  0.4147  0.6201  0.9511
  174MPD1    C5 2653   3.941   4.539  14.014  0.7599 -0.3779  1.0049
  174MPD1     H 2654   4.272   0.007  14.077  0.8981 -1.6900 -0.2896
  174MPD1    H1 2655   3.862   4.633  14.186 -0.2950  0.3216 -0.1150
  174MPD1    H2 2656   4.044   4.463  13.856 -0.7760  1.3366 -0.7675
  174MPD1    H3 2657   3.851   4.486  13.984  1.0227 -0.3367  0.1321
  174MPD1     N 2658   4.071   0.042  14.267  0.4234  1.1477 -0.3394
  174MPD1    H5 2659   3.991   0.040  14.329 -1.0742  0.2148 -2.3256
  174MPD1    N1 2660   4.265   4.579  13.858 -0.1757 -0.0359  0.4903
  174MPD1    H6 2661   4.244   4.487  13.819  0.2247  0.2189 -0.3001
  174MPD1    H7 2662   4.363   4.593  13.882 -0.0216 -0.9706  0.4101
  175MPD1     C 2663   2.577   1.144  15.255 -0.7961 -0.1337 -0.3075
  175MPD1    C1 2664   2.561   1.278  15.273  0.6167 -0.3042  0.0439
  175MPD1    C2 2665   2.640   1.341  15.372  0.1933 -0.6389 -0.7948
  175MPD1    C3 2666   2.732   1.271  15.447 -0.8530  0.5731 -0.3121
  175MPD1    C4 2667   2.749   1.134  15.423 -0.4461 -0.1427  0.1196
  175MPD1    C5 2668   2.672   1.075  15.327 -0.3869  0.0684  0.2809
  175MPD1     H 2669   2.616   1.445  15.391  1.3141 -0.7232  1.0531
  175MPD1    H1 2670   2.819   1.067  15.471 -1.4392 -0.7884  0.6513
  175MPD1    H2 2671   2.513   1.087  15.189  0.7638 -0.9227 -1.1304
  175MPD1    H3 2672   2.688   0.971  15.303  0.1725 -0.1380  1.5702
  175MPD1     N 2673   2.809   1.326  15.551  1.0249 -0.1650  0.1578
  175MPD1    H5 2674   2.877   1.263  15.592  0.3199 -0.8218  0.3161
  175MPD1    N1 2675   2.454   1.346  15.210  0.0026  0.4217 -0.1934
  175MPD1    H6 2676   2.468   1.354  15.109 -1.9935  1.1754 -0.4203
  175MPD1    H7 2677   2.450   1.445  15.233  2.3740  0.4139  0.2494
  176MPD1     C 2678   4.645   2.733  16.889 -0.1102  0.1983  0.1822
  176MPD1    C1 2679   4.656   2.867  16.933 -0.3971 -0.4067 -0.0697
  176MPD1    C2 2680   4.602   2.878  17.060 -0.0356 -0.0526 -0.0777
  176MPD1    C3 2681   4.528   2.794  17.132 -0.8823 -0.6570 -0.4789
  176MPD1    C4 2682   4.522   2.668  17.086 -0.3524 -0.0172 -0.1066
  176MPD1    C5 2683   4.581   2.643  16.964 -0.6841 -0.1149 -0.5673
  176MPD1     H 2684   4.604   2.979  17.100  1.2754  0.1112 -0.5303
  176MPD1    H1 2685   4.466   2.594  17.143 -2.0222  0.1019 -1.5910
  176MPD1    H2 2686   4.683   2.695  16.796 -1.7549  2.2437 -1.3293
  176MPD1    H3 2687   4.574   2.540  16.931  0.5519  0.8939 -3.9326
  176MPD1     N 2688   4.453   2.837  17.242  0.0429 -0.5103 -0.1113
  176MPD1    H5 2689   4.465   2.936  17.263 -0.8394 -0.4956  0.3140
  176MPD1    N1 2690   0.017   2.964  16.869  0.3967  0.3816 -0.5632
  176MPD1    H6 2691   0.052   2.937  16.778 -1.6812 -0.0162 -1.2431
  176MPD1    H7 2692   4.722   3.062  16.891 -1.3297  0.0653 -0.6934
  177MPD1     C 2693   2.451   3.747   9.605 -0.6519 -0.2100 -0.0540
  177MPD1    C1 2694   2.388   3.619   9.588 -0.6567  0.1094 -0.1888
  177MPD1    C2 2695   2.281   3.608   9.500  0.1747  0.0871  0.8441
  177MPD1    C3 2696   2.230   3.719   9.440  0.5022  0.1300 -0.6601
  177MPD1    C4 2697   2.285   3.846   9.466  0.0347 -0.0539 -0.0554
  177MPD1    C5 2698   2.401   3.858   9.548  0.0194 -0.5158 -0.2576
  177MPD1     H 2699   2.236   3.512   9.476 -1.5490  0.4618  2.6431
  177MPD1    H1 2700   2.229   3.930   9.427  0.4168  0.4100  0.3816
  177MPD1    H2 2701   2.531   3.756   9.677 -0.9489 -0.1853  0.2722
  177MPD1    H3 2702   2.425   3.959   9.580 -0.1174 -0.9663  1.2584
  177MPD1     N 2703   2.121   3.699   9.342  0.3137 -0.1226 -0.6285
  177MPD1    H5 2704   2.077   3.612   9.312 -1.2212  0.5299 -0.2311
  177MPD1    N1 2705   2.443   3.506   9.649  0.1462 -0.2661  0.2270
  177MPD1    H6 2706   2.490   3.528   9.736 -0.1713  1.3974 -0.0260
  177MPD1    H7 2707   2.375   3.431   9.662  0.3400 -0.9535 -2.6446
  178MPD1     C 2708   0.134   4.311   0.414  0.3427  0.3621  0.3665
  178MPD1    C1 2709   0.138   4.179   0.385  0.0122  0.9144  0.2157
  178MPD1    C2 2710   0.207   4.137   0.273 -0.4928 -0.8222 -0.2641
  178MPD1    C3 2711   0.273   4.226   0.191  0.1797 -0.7518 -0.1254
  178MPD1    C4 2712   0.269   4.361   0.225 -0.2034 -0.1168 -0.4312
  178MPD1    C5 2713   0.203   4.403   0.335  0.5789  0.0317 -0.1031
  178MPD1     H 2714   0.214   4.030   0.256 -1.7909 -1.2327  1.7905
  178MPD1    H1 2715   0.313   4.440   0.165  0.0939  0.7967  1.0089
  178MPD1    H2 2716   0.088   4.356   0.501  1.2875  0.6920  0.6941
  178MPD1    H3 2717   0.202   4.511   0.341  0.4941 -0.0181  0.7873
  178MPD1     N 2718   0.335   4.195   0.064  0.4715 -0.5844 -0.5457
  178MPD1    H5 2719   0.397   4.267   0.029  1.8220 -2.4486 -1.9726
  178MPD1    N1 2720   0.087   4.089   0.476 -0.1364 -0.1064  0.7000
  178MPD1    H6 2721   0.019   4.126   0.541 -0.2327  0.5882  0.2094
  178MPD1    H7 2722   0.049   4.017   0.413 -0.5111 -0.4679  1.3434
  179MPD1     C 2723   4.296   2.532  16.681  0.5369  0.5998  0.1010
  179MPD1    C1 2724   4.309   2.566  16.551  0.5844 -0.4321 -0.1115
  179MPD1    C2 2725   4.405   2.490  16.473 -0.1433  0.3786  0.1410
  179MPD1    C3 2726   4.459   2.378  16.529 -0.3936 -0.2136 -0.3852
  179MPD1    C4 2727   4.439   2.340  16.663  0.2459 -0.6615 -0.1086
  179MPD1    C5 2728   4.355   2.417  16.735 -0.2942 -0.3787  0.0680
  179MPD1     H 2729   4.431   2.526  16.374  0.9859  0.1541  0.3555
  179MPD1    H1 2730   4.486   2.249  16.699  0.8365 -1.6317 -3.3173
  179MPD1    H2 2731   4.227   2.588  16.743  0.8453  0.8881  0.1846
  179MPD1    H3 2732   4.337   2.397  16.840 -1.9277 -0.3439 -0.2009
  179MPD1     N 2733   4.547   2.292  16.464 -0.3736  0.2314  0.3670
  179MPD1    H5 2734   4.589   2.224  16.526  0.7528 -1.1713 -1.8981
  179MPD1    N1 2735   4.270   2.695  16.507  0.0787 -0.1298 -0.2596
  179MPD1    H6 2736   4.264   2.703  16.406 -1.7808  0.4230 -0.0965
  179MPD1    H7 2737   4.189   2.734  16.555  0.7890  1.0486 -0.0176
  180MPD1     C 2738   4.650   3.801  14.692 -0.5565  0.4630  0.1377
  180MPD1    C1 2739   4.709   3.792  14.564  0.5621  0.1598  0.2387
  180MPD1    C2 2740   4.639   3.727  14.465  0.0876 -0.0191  1.1934
  180MPD1    C3 2741   4.510   3.682  14.483  0.1063 -0.7310 -0.3301
  180MPD1    C4 2742   4.448   3.695  14.602 -0.9276 -0.1776 -0.6019
  180MPD1    C5 2743   4.524   3.748  14.707  0.2419 -0.2517  0.3567
  180MPD1     H 2744   4.680   3.708  14.367 -2.5086 -1.9827  0.4546
  180MPD1    H1 2745   4.346   3.665  14.622 -0.4839 -1.3833 -0.1413
  180MPD1    H2 2746   4.704   3.844  14.776  1.5397  3.3919 -2.6792
  180MPD1    H3 2747   4.479   3.767  14.803 -2.7261 -2.0040 -0.6983
  180MPD1     N 2748   4.444   3.621  14.376 -0.4798 -0.3347 -0.3520
  180MPD1    H5 2749   4.485   3.599  14.286 -2.5151 -0.2022 -1.3135
  180MPD1    N1 2750   0.125   3.828  14.562  0.4276 -0.1398  0.3260
  180MPD1    H6 2751   0.136   3.890  14.642  1.5483  2.1947 -1.6273
  180MPD1    H7 2752   0.156   3.867  14.473  3.3712 -2.2434  0.4257
  181MPD1     C 2753   1.374   4.519   9.854 -0.3876 -0.1905  0.2712
  181MPD1    C1 2754   1.298   4.633   9.840 -0.6701 -0.3251 -0.8540
  181MPD1    C2 2755   1.334   0.022   9.915  0.3789  0.2681  0.1074
  181MPD1    C3 2756   1.432   0.021  10.006 -0.3007  0.6873 -0.3119
  181MPD1    C4 2757   1.513   4.632  10.021  0.2472 -0.5114  0.1788
  181MPD1    C5 2758   1.483   4.522   9.939 -0.6311  0.1614 -0.4114
  181MPD1     H 2759   1.285   0.115   9.887 -0.5543  0.3568  2.0109
  181MPD1    H1 2760   1.592   4.631  10.095  1.0325 -2.0822 -0.6697
  181MPD1    H2 2761   1.355   4.421   9.810  1.5397  0.0963 -1.1851
  181MPD1    H3 2762   1.533   4.428   9.958 -2.4190 -0.8047 -0.5323
  181MPD1     N 2763   1.462   0.133  10.088  0.0219  0.0550  0.4857
  181MPD1    H5 2764   1.537   0.123  10.155  0.8429 -0.1912 -0.4774
  181MPD1    N1 2765   1.216   4.642   9.724 -0.1009  0.1127 -0.3065
  181MPD1    H6 2766   1.146   4.715   9.726  1.1355  1.2562  2.3433
  181MPD1    H7 2767   1.188   4.551   9.687  0.6099 -0.3695  0.3315
  182MPD1     C 2768   2.674   0.959   1.885 -0.4054  0.2626  0.5055
  182MPD1    C1 2769   2.725   0.961   1.759 -0.0196  0.4304  1.1993
  182MPD1    C2 2770   2.674   0.873   1.664  0.2345 -0.5023 -0.3572
  182MPD1    C3 2771   2.561   0.793   1.696  0.5875  0.9676  0.0059
  182MPD1    C4 2772   2.507   0.810   1.820  1.0059 -0.0707 -0.4366
  182MPD1    C5 2773   2.561   0.891   1.917  0.1840 -0.7022  0.4081
  182MPD1     H 2774   2.725   0.864   1.569  1.1052  0.5255  0.0070
  182MPD1    H1 2775   2.420   0.753   1.850  1.2903  0.6432  1.7280
  182MPD1    H2 2776   2.723   1.011   1.967 -0.5430  0.8243  0.2311
  182MPD1    H3 2777   2.519   0.880   2.017 -1.1043 -1.6762 -0.2413
  182MPD1     N 2778   2.494   0.704   1.609  0.8937 -0.3999 -0.3513
  182MPD1    H5 2779   2.422   0.645   1.648  0.3023  1.2729  1.0887
  182MPD1    N1 2780   2.850   1.037   1.736  0.3689 -0.1802 -1.0064
  182MPD1    H6 2781   2.861   1.116   1.799 -0.4466 -1.8944  1.2796
  182MPD1    H7 2782   2.861   1.068   1.639  2.7539 -0.1062 -0.7212
  183MPD1     C 2783   1.632   4.552   9.102  0.0362 -0.3354  0.3338
  183MPD1    C1 2784   1.769   4.572   9.128 -0.6174  0.5031  0.2516
  183MPD1    C2 2785   1.808   4.706   9.129  0.2349 -0.5376  0.3905
  183MPD1    C3 2786   1.727   0.088   9.090  0.6324  0.1125 -0.4533
  183MPD1    C4 2787   1.592   0.061   9.067  0.6616  0.0735  0.4350
  183MPD1    C5 2788   1.538   4.663   9.087 -0.3337  0.1842  0.8076
  183MPD1     H 2789   1.906   0.003   9.169  0.8350 -0.1106 -1.2897
  183MPD1    H1 2790   1.527   0.145   9.047 -0.7881 -1.1031  0.2282
  183MPD1    H2 2791   1.584   4.455   9.113 -0.1782 -0.1578  0.9542
  183MPD1    H3 2792   1.434   4.642   9.066  0.2956 -3.4935  1.4407
  183MPD1     N 2793   1.781   0.221   9.085  0.2784 -0.5987  0.4542
  183MPD1    H5 2794   1.874   0.225   9.125 -0.6651  2.6487  2.2801
  183MPD1    N1 2795   1.835   4.479   9.206 -0.0832 -0.2012  0.1789
  183MPD1    H6 2796   1.933   4.502   9.223  0.4531 -2.8617  0.7348
  183MPD1    H7 2797   1.826   4.386   9.167  1.9979 -1.0021  1.5970
  184MPD1     C 2798   1.458   2.721   9.619 -0.1113  0.2030 -0.1431
  184MPD1    C1 2799   1.426   2.691   9.482 -0.3983 -0.4744  0.7160
  184MPD1    C2 2800   1.476   2.781   9.382  0.4096 -0.1723  0.0710
  184MPD1    C3 2801   1.534   2.904   9.418 -0.5358  0.6139 -0.1610
  184MPD1    C4 2802   1.540   2.934   9.555 -0.0629  0.2632  0.1481
  184MPD1    C5 2803   1.499   2.845   9.652 -0.2525 -0.3175 -0.0428
  184MPD1     H 2804   1.468   2.747   9.280  0.2959  0.8363 -0.2530
  184MPD1    H1 2805   1.577   3.029   9.591 -3.2637  2.1173 -1.4089
  184MPD1    H2 2806   1.433   2.654   9.701 -0.2619  2.0309  1.3091
  184MPD1    H3 2807   1.499   2.868   9.758 -0.0826 -3.3722  0.6250
  184MPD1     N 2808   1.559   3.000   9.318  0.1541 -0.1751 -0.4736
  184MPD1    H5 2809   1.600   3.084   9.356  1.6877 -1.3494  0.4408
  184MPD1    N1 2810   1.389   2.560   9.441 -0.1017  0.7072 -0.3477
  184MPD1    H6 2811   1.351   2.513   9.523  0.9071 -1.8916 -1.3604
  184MPD1    H7 2812   1.314   2.552   9.373 -1.8769 -1.9135  1.9028
  185MPD1     C 2813   1.371   3.048   8.330 -0.5737  0.1080  0.1491
  185MPD1    C1 2814   1.461   3.144   8.352  0.2202 -0.6906  0.4379
  185MPD1    C2 2815   1.517   3.155   8.476 -0.4383 -0.9616 -0.3139
  185MPD1    C3 2816   1.478   3.081   8.583 -0.1193 -0.0162 -0.1802
  185MPD1    C4 2817   1.377   2.990   8.564  0.3076  0.2799  0.3283
  185MPD1    C5 2818   1.323   2.974   8.433  0.4315  0.1152  0.4621
  185MPD1     H 2819   1.596   3.226   8.495 -0.1788 -1.4592  0.4679
  185MPD1    H1 2820   1.347   2.923   8.644 -3.5956 -1.1556 -2.2957
  185MPD1    H2 2821   1.320   3.030   8.236  0.5217 -0.4451 -0.3498
  185MPD1    H3 2822   1.248   2.899   8.411  1.4935 -1.8632  3.5953
  185MPD1     N 2823   1.515   3.102   8.718 -0.1639 -0.3845 -0.3230
  185MPD1    H5 2824   1.501   3.028   8.786 -0.3015 -1.2880 -1.3318
  185MPD1    N1 2825   1.486   3.231   8.246 -0.1780 -0.0856  0.2609
  185MPD1    H6 2826   1.572   3.284   8.243  0.8037 -1.5623  2.5291
  185MPD1    H7 2827   1.478   3.181   8.157 -0.6780 -2.6329  1.7511
  186MPD1     C 2828   0.599   2.251  15.606 -0.1062 -0.3114  0.0117
  186MPD1    C1 2829   0.581   2.187  15.726  0.3587 -0.2721  0.5240
  186MPD1    C2 2830   0.535   2.265  15.830 -0.2095 -0.3918 -0.3094
  186MPD1    C3 2831   0.508   2.397  15.807  0.0062  0.7163 -0.4923
  186MPD1    C4 2832   0.530   2.452  15.682 -0.5579 -0.3444  1.0913
  186MPD1    C5 2833   0.573   2.375  15.580 -0.3145  0.0163 -0.0942
  186MPD1     H 2834   0.518   2.220  15.927 -1.3255 -0.2497 -0.4418
  186MPD1    H1 2835   0.505   2.553  15.654 -0.8265 -1.0381 -1.1605
  186MPD1    H2 2836   0.640   2.191  15.525 -0.1183 -1.3296  0.7577
  186MPD1    H3 2837   0.593   2.420  15.484  0.9815  0.4932  0.3982
  186MPD1     N 2838   0.454   2.486  15.904  0.0408  0.1518  0.1079
  186MPD1    H5 2839   0.454   2.587  15.893  0.2713  0.0229 -1.0682
  186MPD1    N1 2840   0.633   2.061  15.752  0.4333 -0.1842  0.2808
  186MPD1    H6 2841   0.629   1.993  15.677 -4.9121 -0.6150  0.9618
  186MPD1    H7 2842   0.588   2.016  15.832 -0.4328  1.1873  0.5777
  187MPD1     C 2843   4.123   3.098   0.282  0.3096 -1.0264 -0.6199
  187MPD1    C1 2844   4.202   3.158   0.378 -0.4957  0.3368  0.1033
  187MPD1    C2 2845   4.225   3.290   0.370  0.0015 -0.3033  0.4227
  187MPD1    C3 2846   4.158   3.369   0.279 -0.1278  0.2098 -0.6829
  187MPD1    C4 2847   4.068   3.317   0.196 -0.0542 -0.4764  0.7364
  187MPD1    C5 2848   4.053   3.178   0.199 -0.2083  0.7015  0.0861
  187MPD1     H 2849   4.311   3.329   0.423 -0.0340 -0.8464  0.8863
  187MPD1    H1 2850   3.994   3.368   0.135 -0.3242 -1.5007  0.1991
  187MPD1    H2 2851   4.107   2.991   0.279  0.1630 -1.0296  0.3496
  187MPD1    H3 2852   3.978   3.125   0.141  0.0489  0.7402 -0.2837
  187MPD1     N 2853   4.185   3.504   0.264  0.2969  0.0028 -0.1253
  187MPD1    H5 2854   4.132   3.545   0.187  0.8466 -2.7704 -1.9934
  187MPD1    N1 2855   4.287   3.073   0.450  0.0025 -0.8037  0.2524
  187MPD1    H6 2856   4.301   3.113   0.543  1.5858 -0.6687 -0.0386
  187MPD1    H7 2857   4.244   2.982   0.464 -3.0407  0.7486  0.9009
  188MPD1     C 2858   3.847   4.636  10.389 -0.1289 -0.8646  0.0165
  188MPD1    C1 2859   3.924   4.524  10.400  0.1214  0.2077  0.7923
  188MPD1    C2 2860   3.902   4.420  10.307 -0.8251 -0.0935  0.3273
  188MPD1    C3 2861   3.806   4.428  10.208 -0.3989 -0.6412  0.2654
  188MPD1    C4 2862   3.722   4.532  10.206 -0.4687 -0.3782  0.4855
  188MPD1    C5 2863   3.744   4.635  10.296 -0.6219 -0.2316 -0.6436
  188MPD1     H 2864   3.961   4.330  10.319 -1.1415 -0.3301  0.1070
  188MPD1    H1 2865   3.653   4.542  10.123  0.9640 -1.2687 -0.8380
  188MPD1    H2 2866   3.856   4.713  10.464  3.4076 -0.4317 -0.8822
  188MPD1    H3 2867   3.677   4.720  10.285 -1.7589 -1.0069  0.3178
  188MPD1     N 2868   3.782   4.331  10.104 -0.3778 -0.7986  0.4551
  188MPD1    H5 2869   3.694   4.340  10.053 -0.0229  0.2668  0.0341
  188MPD1    N1 2870   4.012   4.508  10.509  0.0002  0.1276  0.6180
  188MPD1    H6 2871   4.101   4.464  10.485 -0.4456  1.3855 -3.3194
  188MPD1    H7 2872   4.035   4.601  10.543 -1.3844 -0.5184  3.2905
  189MPD1     C 2873   1.588   4.691   0.164  0.4512 -0.1844  0.2581
  189MPD1    C1 2874   1.474   4.709   0.089 -0.9140  0.3048 -0.3588
  189MPD1    C2 2875   1.444   0.111   0.039  0.1401 -0.8390  0.5817
  189MPD1    C3 2876   1.509   0.227   0.084 -0.3879  0.3323  0.1763
  189MPD1    C4 2877   1.621   0.206   0.167  0.3657 -0.5091 -0.2353
  189MPD1    C5 2878   1.662   0.077   0.184 -0.1881  0.1733  0.2206
  189MPD1     H 2879   1.353   0.121  17.677  1.4847 -0.2359 -1.3567
  189MPD1    H1 2880   1.679   0.291   0.201  1.4581 -1.2219 -0.3207
  189MPD1    H2 2881   1.617   4.592   0.197  1.8908 -0.0911 -0.7261
  189MPD1    H3 2882   1.752   0.068   0.245 -1.7019  0.6635  2.5112
  189MPD1     N 2883   1.448   0.353   0.058  0.1711 -1.0506 -0.1127
  189MPD1    H5 2884   1.356   0.359   0.016  0.5629 -0.4894 -0.9028
  189MPD1    N1 2885   1.405   4.595   0.054 -0.5193 -0.3575 -0.6566
  189MPD1    H6 2886   1.306   4.614   0.047 -0.4470  0.5485  0.8321
  189MPD1    H7 2887   1.412   4.520   0.123  1.9755 -1.6046 -2.2404
  190MPD1     C 2888   4.023   3.668  15.762  0.3101 -0.3319  0.0554
  190MPD1    C1 2889   4.060   3.601  15.878  0.3051  0.1805 -0.0482
  190MPD1    C2 2890   4.195   3.575  15.887 -0.6521  0.7838 -0.0434
  190MPD1    C3 2891   4.293   3.627  15.801  0.0275  0.5699 -0.3442
  190MPD1    C4 2892   4.249   3.702  15.694  0.0535 -0.7191  0.3092
  190MPD1    C5 2893   4.115   3.712  15.669  0.2974  0.8561 -0.4354
  190MPD1     H 2894   4.232   3.511  15.966 -1.1813 -0.3808 -0.7466
  190MPD1    H1 2895   4.311   3.763  15.629  0.0570 -0.6470  0.3806
  190MPD1    H2 2896   3.920   3.697  15.745  0.1219 -0.5072  0.9042
  190MPD1    H3 2897   4.079   3.759  15.578 -2.3633  0.2970  0.3232
  190MPD1     N 2898   4.431   3.611  15.837 -0.3753  0.0622  0.4598
  190MPD1    H5 2899   4.444   3.560  15.924 -0.1282 -0.4883  0.0988
  190MPD1    N1 2900   3.968   3.570  15.985 -0.0815 -0.2114  0.4730
  190MPD1    H6 2901   3.868   3.579  15.967 -0.0649 -0.1711  0.4024
  190MPD1    H7 2902   3.985   3.486  16.040  1.7865 -0.3865 -0.3756
  191MPD1     C 2903   4.157   0.190  13.376 -0.3769 -0.2135 -0.6330
  191MPD1    C1 2904   4.045   0.156  13.304  0.9946  0.3198 -0.1589
  191MPD1    C2 2905   4.023   0.220  13.178  0.6610  0.4362  0.0459
  191MPD1    C3 2906   4.123   0.308  13.128  0.2550 -0.1078 -0.1162
  191MPD1    C4 2907   4.236   0.336  13.206  0.3132  0.2145 -0.0454
  191MPD1    C5 2908   4.246   0.281  13.329  0.3662  0.4384 -0.4119
  191MPD1     H 2909   3.938   0.202  13.113 -0.5840  1.3900  1.4306
  191MPD1    H1 2910   4.315   0.404  13.179 -0.4233  0.6429 -1.0853
  191MPD1    H2 2911   4.176   0.148  13.474  0.0035  3.0900  0.7042
  191MPD1    H3 2912   4.330   0.321  13.384  1.3186 -1.6057 -0.3999
  191MPD1     N 2913   4.101   0.370  13.004 -0.1691  0.7823  0.6662
  191MPD1    H5 2914   4.018   0.346  12.950  0.0540  0.6258  0.3914
  191MPD1    N1 2915   3.948   0.071  13.356 -0.6118  0.2188  0.6750
  191MPD1    H6 2916   3.898   0.025  13.281  1.6899 -1.1345 -0.0239
  191MPD1    H7 2917   3.978   4.715  13.411  1.7574  0.7315  0.1202
  192MPD1     C 2918   3.554   1.105  12.663 -0.6111 -0.6763 -0.3208
  192MPD1    C1 2919   3.551   1.002  12.756  0.3123 -0.1013 -0.3361
  192MPD1    C2 2920   3.652   0.904  12.740 -0.4122 -0.3406 -0.7340
  192MPD1    C3 2921   3.746   0.910  12.640  0.0861 -0.4732 -0.4723
  192MPD1    C4 2922   3.763   1.025  12.570 -0.0514 -0.3300  0.1323
  192MPD1    C5 2923   3.663   1.118  12.582 -0.4530 -0.0744  0.7430
  192MPD1     H 2924   3.646   0.819  12.807  0.1738  0.3807  0.2447
  192MPD1    H1 2925   3.839   1.047  12.496 -1.0603 -1.1105 -1.1349
  192MPD1    H2 2926   3.482   1.186  12.668 -1.6089 -1.5481 -0.4694
  192MPD1    H3 2927   3.670   1.209  12.524 -0.0156  0.3028  1.3891
  192MPD1     N 2928   3.846   0.811  12.637 -0.4691  0.3561  0.5395
  192MPD1    H5 2929   3.925   0.822  12.574 -0.2504 -0.6866  0.6409
  192MPD1    N1 2930   3.445   0.990  12.843  0.4562 -0.4098  0.1450
  192MPD1    H6 2931   3.400   1.075  12.875  0.2831  0.2467 -1.9120
  192MPD1    H7 2932   3.476   0.951  12.932  1.4711 -1.9326 -0.8810
  193MPD1     C 2933   3.895   0.662  16.502  0.2707  1.1885  0.6073
  193MPD1    C1 2934   3.845   0.723  16.621 -0.7244 -0.2659  0.6915
  193MPD1    C2 2935   3.938   0.776  16.707  0.0245 -0.2423  0.2972
  193MPD1    C3 2936   4.072   0.800  16.664  0.3602  0.1339 -0.5631
  193MPD1    C4 2937   4.118   0.741  16.550  0.8070 -0.5284 -0.2110
  193MPD1    C5 2938   4.028   0.674  16.473 -0.5947 -0.1204  0.0005
  193MPD1     H 2939   3.905   0.827  16.797 -1.5483 -0.8731  0.0863
  193MPD1    H1 2940   4.223   0.744  16.525  0.8162 -1.5733 -0.2720
  193MPD1    H2 2941   3.835   0.603  16.434  0.3055  0.7873  0.9225
  193MPD1    H3 2942   4.059   0.646  16.373  0.8511  3.4740 -0.5716
  193MPD1     N 2943   4.172   0.869  16.743  0.6856  0.4711  0.7570
  193MPD1    H5 2944   4.258   0.895  16.695  0.7609 -1.8338 -0.3590
  193MPD1    N1 2945   3.710   0.695  16.663 -0.4295 -0.0952  0.5459
  193MPD1    H6 2946   3.644   0.723  16.592 -1.7943 -2.2389  0.9725
  193MPD1    H7 2947   3.683   0.766  16.731  0.0901  0.2693  0.3744
  194MPD1     C 2948   3.349   3.690  16.870  0.1682  0.5963 -0.2212
  194MPD1    C1 2949   3.347   3.676  17.004  0.6127 -0.1054  0.5826
  194MPD1    C2 2950   3.261   3.590  17.062  0.1922 -0.5197  0.0295
  194MPD1    C3 2951   3.173   3.517  16.985  0.0286  0.0764 -0.1081
  194MPD1    C4 2952   3.180   3.532  16.850 -0.5754 -0.6787  0.4683
  194MPD1    C5 2953   3.262   3.626  16.789  0.3121  0.2053  0.9741
  194MPD1     H 2954   3.283   3.557  17.163  2.2686  0.5271 -0.0863
  194MPD1    H1 2955   3.102   3.491  16.786 -1.6226  0.3149  1.1028
  194MPD1    H2 2956   3.427   3.756  16.833  0.4048 -0.5698 -1.8012
  194MPD1    H3 2957   3.267   3.640  16.682 -1.5621  1.1146  1.0091
  194MPD1     N 2958   3.088   3.423  17.045  0.1293  0.0303 -0.2990
  194MPD1    H5 2959   3.044   3.364  16.975  0.0371 -0.2238 -0.0312
  194MPD1    N1 2960   3.454   3.732  17.075 -0.7490 -0.0065  0.2873
  194MPD1    H6 2961   3.428   3.759  17.170 -0.0594 -4.0706  1.6731
  194MPD1    H7 2962   3.493   3.809  17.022  0.5630 -2.1538 -1.8471
  195MPD1     C 2963   3.981   4.437  17.037  0.0801 -0.7898  0.8823
  195MPD1    C1 2964   4.061   4.426  17.151 -0.3751 -0.4875 -0.5669
  195MPD1    C2 2965   4.013   4.347  17.249 -0.2931 -0.8035 -0.1193
  195MPD1    C3 2966   3.912   4.254  17.230 -0.4767  0.0319  0.1783
  195MPD1    C4 2967   3.848   4.255  17.109 -0.0344 -0.2292 -0.4356
  195MPD1    C5 2968   3.880   4.349  17.018 -0.1379  0.7015  0.4570
  195MPD1     H 2969   4.067   4.355  17.343  0.0720 -1.5021 -0.2702
  195MPD1    H1 2970   3.760   4.195  17.093 -1.6372  2.0803 -0.2689
  195MPD1    H2 2971   3.998   4.511  16.960  0.5273  1.1980  2.8834
  195MPD1    H3 2972   3.825   4.354  16.925  1.2762 -0.1416 -0.4250
  195MPD1     N 2973   3.872   4.151  17.321 -0.6214  0.8357 -0.3855
  195MPD1    H5 2974   3.818   4.078  17.276  0.0246 -0.4930  0.9693
  195MPD1    N1 2975   4.159   4.527  17.165  0.6531  0.6754  0.6925
  195MPD1    H6 2976   4.123   4.609  17.215 -0.0234  1.0928 -0.4733
  195MPD1    H7 2977   4.195   4.556  17.075 -0.0175  0.6519  0.4195
  196MPD1     C 2978   3.200   0.470   1.494 -0.3475 -0.0338  0.0692
  196MPD1    C1 2979   3.171   0.345   1.448 -0.3152  0.7202  0.1407
  196MPD1    C2 2980   3.265   0.265   1.385  0.9586  0.1200 -0.0597
  196MPD1    C3 2981   3.384   0.326   1.347 -0.0392 -0.1616 -0.1155
  196MPD1    C4 2982   3.409   0.458   1.377 -0.5308 -0.5781  0.3226
  196MPD1    C5 2983   3.325   0.521   1.464  0.3532 -0.2035 -0.0855
  196MPD1     H 2984   3.237   0.163   1.363 -0.7854  0.6675 -0.3882
  196MPD1    H1 2985   3.495   0.518   1.351  0.5311 -1.1842  2.4006
  196MPD1    H2 2986   3.123   0.533   1.535  0.0207  0.2549  0.3138
  196MPD1    H3 2987   3.356   0.623   1.481 -1.0785  0.6562 -2.6148
  196MPD1     N 2988   3.491   0.262   1.275 -0.6019 -0.1975  0.1569
  196MPD1    H5 2989   3.568   0.327   1.265  0.9182 -1.8424  1.0712
  196MPD1    N1 2990   3.046   0.293   1.489 -0.2887  0.1865  0.5656
  196MPD1    H6 2991   2.979   0.364   1.519  1.3019  1.7780  0.3378
  196MPD1    H7 2992   2.999   0.240   1.415  0.4589  0.4542 -0.1059
  197MPD1     C 2993   3.317   0.803  17.525  0.4273 -0.0753  0.2173
  197MPD1    C1 2994   3.187   0.818  17.472  0.1461  0.0853  1.3836
  197MPD1    C2 2995   3.142   0.941  17.435  0.1728  0.0307  0.2797
  197MPD1    C3 2996   3.213   1.053  17.459  0.1925 -0.4024 -0.0216
  197MPD1    C4 2997   3.334   1.042  17.531 -0.5278  0.4371 -0.3264
  197MPD1    C5 2998   3.384   0.918  17.558 -0.1554  0.5481 -0.9327
  197MPD1     H 2999   3.042   0.946  17.392  0.3697 -2.5232 -0.4361
  197MPD1    H1 3000   3.394   1.130  17.551  2.3130 -1.4023 -0.6993
  197MPD1    H2 3001   3.365   0.709  17.550 -0.6557 -0.7935 -0.4002
  197MPD1    H3 3002   3.484   0.914  17.600 -1.1241  1.0911  1.3855
  197MPD1     N 3003   3.184   1.184  17.408 -0.1294  0.2121 -0.6934
  197MPD1    H5 3004   3.254   1.258  17.415  0.5113 -0.3537 -1.0827
  197MPD1    N1 3005   3.110   0.709  17.431 -0.5264  0.0872 -0.1208
  197MPD1    H6 3006   3.011   0.728  17.417 -0.8020 -0.8826  0.5151
  197MPD1    H7 3007   3.128   0.621  17.477  1.9481  1.2615  1.1397
  198MPD1     C 3008   0.744   4.164  16.829  0.4154  0.6446 -0.0454
  198MPD1    C1 3009   0.654   4.259  16.873 -0.4030 -0.3011  0.3396
  198MPD1    C2 3010   0.553   4.310  16.793 -0.4254  0.3984 -0.0608
  198MPD1    C3 3011   0.541   4.258  16.668  0.7439  0.3477  0.1121
  198MPD1    C4 3012   0.610   4.142  16.633  0.5680  0.2181  0.0219
  198MPD1    C5 3013   0.720   4.110  16.708  0.3155  0.6763 -0.8518
  198MPD1     H 3014   0.492   4.394  16.823 -2.6022 -1.0552 -0.3838
  198MPD1    H1 3015   0.592   4.091  16.540  0.5300  1.1504 -0.4883
  198MPD1    H2 3016   0.830   4.138  16.889 -0.5743  2.8463  2.2918
  198MPD1    H3 3017   0.791   4.033  16.677  3.1809  3.2216 -0.6377
  198MPD1     N 3018   0.442   4.318  16.582 -0.4121  0.6715 -0.2754
  198MPD1    H5 3019   0.390   4.389  16.633 -0.7188 -0.1780  0.5724
  198MPD1    N1 3020   0.687   4.314  17.003 -0.1915 -0.0746 -0.4568
  198MPD1    H6 3021   0.608   4.357  17.051  0.9065  0.8706  0.4920
  198MPD1    H7 3022   0.741   4.260  17.070 -0.9509 -0.5390 -0.2201
  199MPD1     C 3023   2.107   4.440   9.673 -0.1875  0.0141  0.5805
  199MPD1    C1 3024   2.092   4.511   9.787  0.5420 -0.5122 -0.3024
  199MPD1    C2 3025   2.025   4.633   9.779  0.3684  0.3998  0.1158
  199MPD1    C3 3026   1.945   4.664   9.672  0.5003  0.4520  0.0421
  199MPD1    C4 3027   1.957   4.583   9.559  0.1272  1.0863  1.0059
  199MPD1    C5 3028   2.031   4.470   9.565  0.1826 -0.2527 -0.0509
  199MPD1     H 3029   2.022   4.691   9.871 -0.0707 -1.7346  1.4472
  199MPD1    H1 3030   1.894   4.582   9.471  1.4055 -1.7740  0.1273
  199MPD1    H2 3031   2.180   4.361   9.666 -0.3489 -0.1593  0.8771
  199MPD1    H3 3032   2.035   4.399   9.483 -2.1219  1.4318 -1.6405
  199MPD1     N 3033   1.838   0.029   9.671 -0.0207  0.4127 -0.1937
  199MPD1    H5 3034   1.786   0.029   9.584 -0.2614  2.4349 -0.0390
  199MPD1    N1 3035   2.181   4.484   9.894  0.2626  0.2317 -0.1044
  199MPD1    H6 3036   2.141   4.519   9.981  0.0056 -2.5259  0.9049
  199MPD1    H7 3037   2.203   4.385   9.900  0.7960  0.2897 -1.2163
  200MPD1     C 3038   0.763   1.168  14.475 -0.3922  0.0678  0.0639
  200MPD1    C1 3039   0.762   1.203  14.340 -0.0865 -0.3701  0.3964
  200MPD1    C2 3040   0.875   1.237  14.274  0.0660  0.1270 -0.1054
  200MPD1    C3 3041   0.993   1.242  14.346 -0.1964  0.3852 -0.6659
  200MPD1    C4 3042   0.994   1.203  14.476  0.4259  0.4106 -0.1032
  200MPD1    C5 3043   0.884   1.162  14.536 -0.3100  0.7986  0.2472
  200MPD1     H 3044   0.867   1.249  14.167  0.8436  0.6336 -0.1102
  200MPD1    H1 3045   1.087   1.197  14.532  0.5982 -1.2318 -0.5629
  200MPD1    H2 3046   0.675   1.131  14.527 -0.5494 -0.9923 -0.9516
  200MPD1    H3 3047   0.897   1.115  14.633 -0.2135  0.3754  0.0341
  200MPD1     N 3048   1.111   1.264  14.275 -0.1271  0.2105  0.0339
  200MPD1    H5 3049   1.089   1.289  14.179  2.4588  2.3265 -0.0015
  200MPD1    N1 3050   0.646   1.177  14.265 -0.1649  0.6946 -0.4123
  200MPD1    H6 3051   0.558   1.168  14.315 -0.2218  0.6331 -0.5246
  200MPD1    H7 3052   0.632   1.247  14.193 -1.4327  1.3849  0.5132
  201MPD1     C 3053   2.672   4.461  13.295 -0.0074  0.7820 -0.8285
  201MPD1    C1 3054   2.788   4.379  13.300 -0.1968  0.1990  0.2776
  201MPD1    C2 3055   2.904   4.439  13.264  0.4564 -0.2196  0.8285
  201MPD1    C3 3056   2.906   4.571  13.213 -0.5802 -0.5291  1.3824
  201MPD1    C4 3057   2.786   4.641  13.195 -0.1175 -0.3051 -0.2588
  201MPD1    C5 3058   2.671   4.585  13.241  0.4780 -0.5588  0.4597
  201MPD1     H 3059   2.992   4.377  13.274  1.3575  0.9633  0.2895
  201MPD1    H1 3060   2.777   0.022  13.171  0.6966  0.1789  1.5770
  201MPD1    H2 3061   2.578   4.437  13.345  0.7404  0.2063  0.2897
  201MPD1    H3 3062   2.588   4.650  13.265  0.7512 -0.8871  2.2835
  201MPD1     N 3063   3.029   4.626  13.167  0.6745  0.4541  0.9441
  201MPD1    H5 3064   3.115   4.574  13.176  1.4199  1.3107 -1.0828
  201MPD1    N1 3065   2.791   4.254  13.362  0.6140 -0.2261 -0.5042
  201MPD1    H6 3066   2.790   4.261  13.464  1.5378  1.8635 -0.6374
  201MPD1    H7 3067   2.705   4.206  13.334 -0.9646  2.1045  0.3111
  202MPD1     C 3068   2.471   4.149   8.688  0.1657  0.2301 -0.3019
  202MPD1    C1 3069   2.382   4.242   8.739  0.2482 -0.3425 -0.4057
  202MPD1    C2 3070   2.430   4.317   8.848 -0.2414 -0.5850  0.0039
  202MPD1    C3 3071   2.542   4.279   8.917  0.1760 -0.4551 -0.1426
  202MPD1    C4 3072   2.618   4.170   8.877  0.2013 -0.0057 -0.2233
  202MPD1    C5 3073   2.581   4.104   8.762 -0.7685  0.2428  0.6603
  202MPD1     H 3074   2.388   4.415   8.870  1.7495  0.3576 -0.3658
  202MPD1    H1 3075   2.708   4.149   8.933  0.3932 -0.6295 -0.7665
  202MPD1    H2 3076   2.440   4.100   8.597  2.5533 -0.6429 -0.6592
  202MPD1    H3 3077   2.645   4.026   8.724  0.2148  1.1810  0.3716
  202MPD1     N 3078   2.580   4.346   9.033  0.0975 -0.2202 -0.0240
  202MPD1    H5 3079   2.672   4.322   9.070 -0.0327 -0.7144 -0.0237
  202MPD1    N1 3080   2.276   4.305   8.664 -0.7420 -0.5775 -0.3987
  202MPD1    H6 3081   2.230   4.237   8.604 -0.4967  0.1587 -1.4206
  202MPD1    H7 3082   2.219   4.358   8.730  0.9339 -1.7985  2.0258
  203MPD1     C 3083   1.978   0.914  12.568 -0.3043  0.6521 -0.4648
  203MPD1    C1 3084   1.971   0.833  12.462  0.0286 -0.5993 -1.4309
  203MPD1    C2 3085   2.013   0.702  12.486 -0.4961  0.5722 -0.1667
  203MPD1    C3 3086   2.066   0.655  12.605 -0.6984  0.1121  0.3428
  203MPD1    C4 3087   2.074   0.747  12.707  0.6607 -0.2276  0.1023
  203MPD1    C5 3088   2.034   0.874  12.681  0.3282  0.4939  0.8323
  203MPD1     H 3089   2.015   0.631  12.404 -1.8531  2.6806 -2.0392
  203MPD1    H1 3090   2.117   0.730  12.805  2.3929 -0.9076 -0.7875
  203MPD1    H2 3091   1.954   1.020  12.568  1.5172  1.0612 -0.4019
  203MPD1    H3 3092   2.037   0.935  12.771  0.8290  0.9617  0.4961
  203MPD1     N 3093   2.108   0.519  12.607  0.5233  0.3386  0.1439
  203MPD1    H5 3094   2.101   0.462  12.523 -0.5273  1.4415 -0.5102
  203MPD1    N1 3095   1.908   0.880  12.348  0.2647  0.1599  0.2480
  203MPD1    H6 3096   1.873   0.798  12.298  0.3363  0.9965 -1.1625
  203MPD1    H7 3097   1.819   0.924  12.371  0.1352  0.8942 -1.7090
  204MPD1     C 3098   1.922   1.942  17.569 -0.1368 -0.4600 -0.2197
  204MPD1    C1 3099   1.941   1.936  17.432  0.1246  0.6306 -0.5174
  204MPD1    C2 3100   1.899   1.826  17.367 -0.0783  0.2600  0.1693
  204MPD1    C3 3101   1.876   1.705  17.435 -0.3478  0.3376 -0.4955
  204MPD1    C4 3102   1.879   1.708  17.572 -0.0602  0.6127  0.6044
  204MPD1    C5 3103   1.892   1.828  17.640  0.1695  0.1274 -0.0925
  204MPD1     H 3104   1.893   1.816  17.259 -1.8927 -1.0814  0.3869
  204MPD1    H1 3105   1.871   1.614  17.626  0.2307 -0.4981 -1.2850
  204MPD1    H2 3106   1.923   2.038  17.619 -0.7421 -0.7857  0.4184
  204MPD1    H3 3107   1.894   1.848   0.048 -0.9959 -0.7203  0.0959
  204MPD1     N 3108   1.856   1.590  17.357  0.1332 -0.3877  0.5377
  204MPD1    H5 3109   1.864   1.599  17.256  2.2443  4.2693  1.1164
  204MPD1    N1 3110   1.964   2.061  17.371 -0.6911  0.2018  0.0989
  204MPD1    H6 3111   2.023   2.119  17.430 -0.8070 -0.8516  1.2473
  204MPD1    H7 3112   2.006   2.066  17.278  0.4978  0.4817  0.6571
  205MPD1     C 3113   0.924   4.590  17.229 -0.1074 -0.5153  0.4095
  205MPD1    C1 3114   0.939   4.717  17.184  0.0467  0.0042 -0.2853
  205MPD1    C2 3115   1.063   0.054  17.204  0.3870  0.4624  1.0584
  205MPD1    C3 3116   1.154   4.714  17.285 -0.0807 -0.7867 -0.1626
  205MPD1    C4 3117   1.132   4.587  17.335 -0.0316  0.0917  0.2238
  205MPD1    C5 3118   1.016   4.520  17.309  0.4235  0.4790 -0.5650
  205MPD1     H 3119   1.076   0.149  17.153  1.6672  0.7516  1.9350
  205MPD1    H1 3120   1.216   4.544  17.387  1.5057 -0.6277 -2.8608
  205MPD1    H2 3121   0.831   4.539  17.209 -1.1189  1.2070  0.7654
  205MPD1    H3 3122   1.005   4.422  17.352 -0.0729  0.4833 -0.6821
  205MPD1     N 3123   1.278   0.042  17.318  0.2035  0.6030 -0.2810
  205MPD1    H5 3124   1.342   4.710  17.373  1.5451  2.6538  0.2531
  205MPD1    N1 3125   0.846   0.052  17.097  0.5290  0.5860 -0.3695
  205MPD1    H6 3126   0.748   0.024  17.100  0.8774 -0.6251 -0.3802
  205MPD1    H7 3127   0.854   0.152  17.112  2.5905  0.5109 -0.9888
  206MPD1     C 3128   1.983   3.055  16.475  0.1530  0.1661 -0.4788
  206MPD1    C1 3129   1.854   3.090  16.512  0.4654  0.3927  0.5560
  206MPD1    C2 3130   1.777   3.156  16.416  0.5406  0.3295 -0.3130
  206MPD1    C3 3131   1.823   3.175  16.284  0.2413 -0.0772 -0.0116
  206MPD1    C4 3132   1.941   3.126  16.245 -0.1453 -0.4658  0.6223
  206MPD1    C5 3133   2.022   3.063  16.338 -0.5094  0.5387 -0.9131
  206MPD1     H 3134   1.693   3.214  16.453  0.3222 -1.9824  2.7343
  206MPD1    H1 3135   1.987   3.137  16.147 -1.1301  1.4789  0.3723
  206MPD1    H2 3136   2.055   3.016  16.546 -1.4253  0.0125  1.0581
  206MPD1    H3 3137   2.119   3.021  16.314 -0.3813 -0.7266  1.7684
  206MPD1     N 3138   1.743   3.226  16.178 -0.4066  0.5844  0.0365
  206MPD1    H5 3139   1.796   3.244  16.093 -0.8975 -0.1966 -0.4408
  206MPD1    N1 3140   1.819   3.102  16.646 -0.4501 -0.3516 -0.3629
  206MPD1    H6 3141   1.718   3.098  16.663  0.1570  1.3692  3.4953
  206MPD1    H7 3142   1.857   3.030  16.707  0.3963 -1.0109 -1.6622
  207MPD1     C 3143   3.611   0.880   9.795 -0.1246  0.2500  0.0850
  207MPD1    C1 3144   3.638   1.008   9.784  0.0787 -0.4659  0.4606
  207MPD1    C2 3145   3.745   1.061   9.849 -0.4869 -0.2668 -0.7766
  207MPD1    C3 3146   3.817   0.979   9.937  0.5204 -0.2486  0.1975
  207MPD1    C4 3147   3.776   0.850   9.958  0.3027 -0.2526  0.2631
  207MPD1    C5 3148   3.678   0.795   9.877  0.0254 -0.2959  0.7897
  207MPD1     H 3149   3.767   1.166   9.838 -0.6756  0.1543  3.1631
  207MPD1    H1 3150   3.833   0.789  10.028 -0.6646  0.6922  1.8860
  207MPD1    H2 3151   3.543   0.839   9.721 -0.3252  0.4623  0.1535
  207MPD1    H3 3152   3.661   0.691   9.904 -0.9983 -0.4578 -0.4738
  207MPD1     N 3153   3.933   1.023  10.005  0.0352 -0.1791 -0.2278
  207MPD1    H5 3154   3.994   0.961  10.056 -0.6840  0.0707  0.9373
  207MPD1    N1 3155   3.572   1.078   9.684  1.2554  0.3025  0.1087
  207MPD1    H6 3156   3.562   1.175   9.712 -2.3115 -0.1514  0.3338
  207MPD1    H7 3157   3.483   1.037   9.656  0.3370  1.2386  1.6768
  208MPD1     C 3158   3.130   0.094  17.634 -0.5792  1.0456  0.2347
  208MPD1    C1 3159   3.149   0.099   0.072  0.7276  0.0125 -0.4263
  208MPD1    C2 3160   3.034   0.105   0.148  0.0031  0.6333 -0.2463
  208MPD1    C3 3161   2.906   0.123   0.093  0.0762 -0.6836 -0.7742
  208MPD1    C4 3162   2.898   0.149  17.650  0.4933 -0.4973 -0.1841
  208MPD1    C5 3163   3.012   0.124  17.580  0.6537  0.0242  0.3533
  208MPD1     H 3164   3.046   0.091   0.255  1.9642 -0.2249 -0.5925
  208MPD1    H1 3165   2.806   0.148  17.593  0.9465  1.2015 -0.9448
  208MPD1    H2 3166   3.218   0.075  17.574 -1.1026 -1.7807  0.3660
  208MPD1    H3 3167   3.003   0.121  17.473 -0.6370  0.1526  0.4632
  208MPD1     N 3168   2.796   0.129   0.184  0.2861  0.0649 -0.3511
  208MPD1    H5 3169   2.811   0.108   0.282 -1.1699  0.1809 -0.1039
  208MPD1    N1 3170   3.272   0.049   0.129  0.5072 -0.5304 -0.4184
  208MPD1    H6 3171   3.297   0.070   0.225  2.6459 -0.6166 -0.9568
  208MPD1    H7 3172   3.349   0.061   0.065  0.8677  1.2658  0.3438
  209MPD1     C 3173   4.636   0.268  11.475  0.0264 -0.4371  0.1216
  209MPD1    C1 3174   4.585   0.224  11.351  0.1309  1.1111  0.4249
  209MPD1    C2 3175   4.563   0.319  11.248  0.4426 -0.5037  0.4077
  209MPD1    C3 3176   4.609   0.447  11.272 -0.2470 -0.3836 -0.1472
  209MPD1    C4 3177   4.626   0.488  11.408  1.0810  0.0144 -0.0323
  209MPD1    C5 3178   4.644   0.399  11.503  0.0946  0.0689  0.2328
  209MPD1     H 3179   4.532   0.282  11.151 -0.5993  0.5143  0.3459
  209MPD1    H1 3180   4.628   0.595  11.426 -2.2997  0.0184  0.4293
  209MPD1    H2 3181   4.647   0.207  11.565  0.5759 -0.8596 -0.2251
  209MPD1    H3 3182   4.677   0.422  11.604 -2.3673  2.0467  0.5814
  209MPD1     N 3183   4.613   0.534  11.165 -0.1840  0.0004 -0.2193
  209MPD1    H5 3184   4.600   0.488  11.075 -2.1889  1.8780 -0.8857
  209MPD1    N1 3185   4.559   0.084  11.334 -0.0915  0.1224 -0.5556
  209MPD1    H6 3186   4.615   0.030  11.400  1.5995  0.4449 -1.7123
  209MPD1    H7 3187   4.609   0.069  11.247  3.1734  1.9348  1.0161
  210MPD1     C 3188   0.526   1.098  10.506  0.1048 -1.0935  0.1160
  210MPD1    C1 3189   0.522   1.114  10.640 -0.2626  0.5665  0.1460
  210MPD1    C2 3190   0.422   1.048  10.711  0.3183  0.6706  0.5447
  210MPD1    C3 3191   0.311   0.993  10.647 -0.4896  0.0384 -0.7849
  210MPD1    C4 3192   0.317   0.990  10.510  0.2351 -0.3279 -0.0167
  210MPD1    C5 3193   0.420   1.041  10.437 -0.1284  0.3737 -0.1544
  210MPD1     H 3194   0.426   1.054  10.819  1.7561  0.3284  0.5079
  210MPD1    H1 3195   0.234   0.961  10.446 -0.6042 -4.6110  3.0095
  210MPD1    H2 3196   0.607   1.133  10.443  0.9151  0.3222  1.9485
  210MPD1    H3 3197   0.414   1.049  10.330  2.9053  0.3039 -0.3265
  210MPD1     N 3198   0.199   0.928  10.715  0.2868 -0.1005  0.4534
  210MPD1    H5 3199   0.112   0.919  10.664  0.1461 -0.4622  0.7555
  210MPD1    N1 3200   0.640   1.168  10.706 -0.0377  0.3500  0.4785
  210MPD1    H6 3201   0.670   1.255  10.662  0.9480  0.2538  0.9643
  210MPD1    H7 3202   0.615   1.191  10.802 -0.5070  1.5037  0.0737
  211MPD1     C 3203   2.141   4.142  16.086 -0.1841  0.7670  0.1852
  211MPD1    C1 3204   2.151   4.235  16.185  0.0118  0.1102  0.8075
  211MPD1    C2 3205   2.096   4.356  16.178 -0.6178 -0.2591 -0.2531
  211MPD1    C3 3206   2.019   4.386  16.068  0.1430  0.0933 -0.2885
  211MPD1    C4 3207   2.012   4.291  15.959  0.0411  0.5821  0.9907
  211MPD1    C5 3208   2.069   4.169  15.968  0.2446 -0.3438  0.6063
  211MPD1     H 3209   2.087   4.427  16.260  1.6692 -1.0350  0.6794
  211MPD1    H1 3210   1.958   4.309  15.867  1.2025 -1.2229 -0.0461
  211MPD1    H2 3211   2.185   4.044  16.100 -1.5408  0.2378  0.7259
  211MPD1    H3 3212   2.047   4.098  15.889  0.6329  0.7393 -0.4735
  211MPD1     N 3213   1.963   4.516  16.068  0.1912 -0.4113  0.1067
  211MPD1    H5 3214   1.972   4.575  16.150 -0.8377  1.8967 -1.4513
  211MPD1    N1 3215   2.222   4.194  16.300  0.3403 -0.1373 -0.2396
  211MPD1    H6 3216   2.272   4.106  16.288 -1.2579 -0.9949 -0.5782
  211MPD1    H7 3217   2.281   4.268  16.336  0.6454 -1.1605  1.3441
  212MPD1     C 3218   1.742   3.000  16.983  0.2500 -0.1455 -0.3339
  212MPD1    C1 3219   1.632   3.074  16.984 -0.0750 -1.0793 -0.4501
  212MPD1    C2 3220   1.515   3.007  16.991  0.6250  0.3510  0.3690
  212MPD1    C3 3221   1.507   2.874  16.995  0.5423 -0.5437 -0.9726
  212MPD1    C4 3222   1.619   2.797  16.971 -0.5497 -0.0553  0.4591
  212MPD1    C5 3223   1.742   2.864  16.965 -0.8024  0.3971 -0.1384
  212MPD1     H 3224   1.428   3.069  17.010  1.4195  0.7095  2.8295
  212MPD1    H1 3225   1.624   2.689  16.967  1.9971  0.1686 -2.1637
  212MPD1    H2 3226   1.839   3.048  16.989 -0.3851  1.0826  0.0852
  212MPD1    H3 3227   1.834   2.808  16.954 -0.5107  0.9949 -0.7410
  212MPD1     N 3228   1.384   2.802  17.005 -0.2833  0.2228 -0.2496
  212MPD1    H5 3229   1.382   2.702  16.986 -1.7317  0.1429  0.2927
  212MPD1    N1 3230   1.634   3.210  17.021 -0.7328  0.7977 -0.6479
  212MPD1    H6 3231   1.717   3.255  16.985 -0.7791  0.5258 -1.0861
  212MPD1    H7 3232   1.552   3.264  16.993 -0.5494  2.2744  1.5727
  213MPD1     C 3233   4.311   4.584  15.820 -0.4475 -0.2043 -0.6184
  213MPD1    C1 3234   4.188   4.528  15.815  0.7653  0.4303 -0.6188
  213MPD1    C2 3235   4.150   4.501  15.682 -0.2363  0.3533 -0.2247
  213MPD1    C3 3236   4.234   4.507  15.572  0.2387  0.3574  0.3598
  213MPD1    C4 3237   4.363   4.553  15.591 -0.5284  0.0613 -0.8415
  213MPD1    C5 3238   4.400   4.597  15.715  0.2161  0.0692  0.1926
  213MPD1     H 3239   4.045   4.478  15.668 -0.8736  2.4861  1.0861
  213MPD1    H1 3240   4.437   4.579  15.516 -0.2820  0.0270 -0.6107
  213MPD1    H2 3241   4.340   4.631  15.914  1.1196  0.1392 -1.2858
  213MPD1    H3 3242   4.485   4.664  15.723  0.8438 -0.7944  0.8675
  213MPD1     N 3243   4.181   4.472  15.445  0.8435  0.1308  0.7366
  213MPD1    H5 3244   4.079   4.465  15.439  0.8410  1.4736 -0.8354
  213MPD1    N1 3245   4.083   4.562  15.895  0.1464 -0.2727  0.2430
  213MPD1    H6 3246   4.114   4.576  15.991  0.0528  1.2440  0.0529
  213MPD1    H7 3247   4.013   4.489  15.887 -2.9928  2.6114  1.1106
  214MPD1     C 3248   3.726   3.720  15.044  0.6740  0.8132 -0.6376
  214MPD1    C1 3249   3.714   3.795  15.155 -0.5475  0.2664  0.4734
  214MPD1    C2 3250   3.772   3.920  15.164 -0.5211  0.3745 -0.1514
  214MPD1    C3 3251   3.861   3.959  15.063 -0.6280  0.1806  0.4713
  214MPD1    C4 3252   3.878   3.876  14.949  0.5649 -0.6795  0.1213
  214MPD1    C5 3253   3.813   3.757  14.947 -0.6339 -0.2952  0.0796
  214MPD1     H 3254   3.754   3.983  15.251  0.7511  1.6272 -0.7950
  214MPD1    H1 3255   3.951   3.908  14.875  0.2480  2.0010  0.9522
  214MPD1    H2 3256   3.667   3.630  15.032 -0.1352  1.7238 -3.3612
  214MPD1    H3 3257   3.815   3.702  14.854  2.6910 -0.7044  0.4001
  214MPD1     N 3258   3.923   4.084  15.052 -0.0086 -0.5901  0.4465
  214MPD1    H5 3259   4.000   4.100  14.987  0.1007 -1.1750  0.4334
  214MPD1    N1 3260   3.613   3.755  15.245  0.5371 -0.3066 -0.5393
  214MPD1    H6 3261   3.592   3.656  15.257  0.5878  0.0187  2.3721
  214MPD1    H7 3262   3.619   3.787  15.342 -0.3448 -2.3858  0.2031
  215MPD1     C 3263   4.169   0.111  10.226 -0.0132  0.1442  0.4397
  215MPD1    C1 3264   4.056   0.186  10.246 -0.4264 -0.0865 -0.1970
  215MPD1    C2 3265   4.041   0.256  10.361  0.4973 -0.3412 -0.4396
  215MPD1    C3 3266   4.123   0.230  10.472 -0.5202  0.4834  0.1308
  215MPD1    C4 3267   4.230   0.148  10.458 -0.2565  0.0977  0.1110
  215MPD1    C5 3268   4.254   0.088  10.334  0.1964  0.1806 -0.5720
  215MPD1     H 3269   3.963   0.330  10.370  0.8097  0.1089 -1.4214
  215MPD1    H1 3270   4.305   0.140  10.535 -0.9150  0.7424  0.8175
  215MPD1    H2 3271   4.210   0.077  10.131  1.0618  1.3992  0.4630
  215MPD1    H3 3272   4.346   0.030  10.331 -0.1007 -0.1445 -3.0685
  215MPD1     N 3273   4.097   0.293  10.594  0.8841  0.2688  0.3233
  215MPD1    H5 3274   4.018   0.356  10.593 -1.8101 -3.1044 -0.6180
  215MPD1    N1 3275   3.973   0.208  10.134 -0.6921 -0.5653  0.5264
  215MPD1    H6 3276   3.875   0.212  10.162 -0.8505 -1.4112  0.1114
  215MPD1    H7 3277   3.981   0.121  10.082  0.7547 -0.2182  0.1639
  216MPD1     C 3278   1.533   2.805  16.068  0.0931  1.3526  0.3661
  216MPD1    C1 3279   1.503   2.672  16.055 -0.0898 -0.1350  0.9733
  216MPD1    C2 3280   1.491   2.598  16.170  0.0433 -1.3043 -0.4335
  216MPD1    C3 3281   1.508   2.659  16.295 -0.1455  0.2129 -0.6314
  216MPD1    C4 3282   1.539   2.795  16.297  0.5979  0.3274 -0.0678
  216MPD1    C5 3283   1.553   2.866  16.183  0.2087 -0.6060 -0.1433
  216MPD1     H 3284   1.475   2.491  16.168 -4.7513 -0.5953  0.5560
  216MPD1    H1 3285   1.568   2.856  16.382  1.5058 -0.6647  0.3502
  216MPD1    H2 3286   1.529   2.867  15.979  1.1627 -0.5969 -1.0674
  216MPD1    H3 3287   1.578   2.971  16.188 -0.3112 -0.5582  1.4267
  216MPD1     N 3288   1.526   2.572  16.402 -0.3515  0.8119 -0.2874
  216MPD1    H5 3289   1.508   2.472  16.389  1.9945  0.5328 -1.4472
  216MPD1    N1 3290   1.503   2.625  15.923  0.4755 -0.1962  0.0472
  216MPD1    H6 3291   1.453   2.538  15.903 -1.5609  0.1722  3.7710
  216MPD1    H7 3292   1.458   2.697  15.868 -0.2874 -1.3055 -0.7813
  217MPD1     C 3293   1.979   0.603   8.652  0.1856 -0.2425  0.5722
  217MPD1    C1 3294   1.845   0.608   8.620  0.0224 -0.1617  0.1282
  217MPD1    C2 3295   1.769   0.498   8.622  0.7967 -0.0614 -0.4012
  217MPD1    C3 3296   1.820   0.378   8.673 -0.1162 -0.5406 -0.3651
  217MPD1    C4 3297   1.952   0.375   8.719  1.3640 -0.6711  0.4936
  217MPD1    C5 3298   2.029   0.487   8.704 -0.9052  0.4391  0.3198
  217MPD1     H 3299   1.665   0.517   8.595  0.0104  0.3208  2.9335
  217MPD1    H1 3300   1.995   0.291   8.773  0.5023 -1.3008  0.1979
  217MPD1    H2 3301   2.050   0.685   8.649 -1.4968  1.1426 -1.2472
  217MPD1    H3 3302   2.132   0.492   8.738 -1.2798 -0.1732  1.5318
  217MPD1     N 3303   1.751   0.263   8.696 -0.4365 -0.0169 -0.2601
  217MPD1    H5 3304   1.810   0.191   8.736 -0.9906 -1.7627 -2.5590
  217MPD1    N1 3305   1.790   0.731   8.580 -0.5787  0.5150  0.3259
  217MPD1    H6 3306   1.812   0.808   8.641 -1.4194  2.2041 -1.5080
  217MPD1    H7 3307   1.689   0.724   8.575 -0.5187 -1.1029  1.2267
  218MPD1     C 3308   3.216   0.543  12.734  0.2912  0.1807 -0.0084
  218MPD1    C1 3309   3.302   0.650  12.722 -0.5929  0.3376 -0.3234
  218MPD1    C2 3310   3.429   0.620  12.676  0.2605  0.5590  0.4596
  218MPD1    C3 3311   3.473   0.495  12.660 -0.4804  0.0681 -0.1529
  218MPD1    C4 3312   3.389   0.384  12.689 -0.3323  0.1708  0.3410
  218MPD1    C5 3313   3.256   0.413  12.722 -0.1538 -0.3994  0.4070
  218MPD1     H 3314   3.487   0.703  12.639  1.7580 -0.5753  0.2390
  218MPD1    H1 3315   3.418   0.280  12.685  0.6483  0.4348  0.6796
  218MPD1    H2 3316   3.119   0.552  12.783 -0.3997 -0.3716 -1.2544
  218MPD1    H3 3317   3.187   0.332  12.744  0.0418 -0.7242 -0.1856
  218MPD1     N 3318   3.600   0.480  12.598 -0.0226  0.6354 -0.3178
  218MPD1    H5 3319   3.638   0.563  12.554  0.1763  1.4197  1.3590
  218MPD1    N1 3320   3.255   0.779  12.743  0.1267  0.3684 -0.7110
  218MPD1    H6 3321   3.325   0.834  12.791 -0.0274 -0.0645  0.0078
  218MPD1    H7 3322   3.177   0.778  12.808 -0.9191  0.3874 -1.9687
  219MPD1     C 3323   3.825   0.778  11.832 -0.5095  0.8529  0.0711
  219MPD1    C1 3324   3.945   0.706  11.847  0.0364 -0.2848  0.5388
  219MPD1    C2 3325   3.954   0.630  11.966  0.1102 -0.2171 -0.2137
  219MPD1    C3 3326   3.846   0.616  12.049 -0.3604 -0.4574 -0.6786
  219MPD1    C4 3327   3.718   0.657  12.007  0.3445 -0.5132  0.3808
  219MPD1    C5 3328   3.709   0.739  11.901  0.6501  1.1379 -0.0039
  219MPD1     H 3329   4.053   0.599  11.996 -0.2237  0.5293  1.6967
  219MPD1    H1 3330   3.630   0.634  12.066  1.2816  0.8425  2.3020
  219MPD1    H2 3331   3.805   0.849  11.753 -2.7165  0.1976  0.0364
  219MPD1    H3 3332   3.616   0.788  11.878 -1.3768 -1.1961  3.3071
  219MPD1     N 3333   3.846   0.537  12.171  0.3231 -0.3001 -0.2207
  219MPD1    H5 3334   3.755   0.502  12.197  2.2554 -3.7464  1.8626
  219MPD1    N1 3335   4.072   0.731  11.785 -0.3472  0.4360  0.6844
  219MPD1    H6 3336   4.062   0.754  11.687  2.2813 -0.7546  0.1443
  219MPD1    H7 3337   4.128   0.647  11.793 -0.6480  0.0165 -1.6277
  220MPD1     C 3338   3.011   1.218   9.600 -0.2850 -0.2303  0.3598
  220MPD1    C1 3339   2.987   1.096   9.663 -0.6878 -0.3488 -0.4059
  220MPD1    C2 3340   3.074   1.054   9.765 -0.3158  0.0081 -0.0184
  220MPD1    C3 3341   3.179   1.141   9.808 -0.4323  0.0253 -0.0600
  220MPD1    C4 3342   3.198   1.262   9.739  0.3003  0.3416  0.3115
  220MPD1    C5 3343   3.115   1.300   9.636  0.4107  0.5064  0.7856
  220MPD1     H 3344   3.059   0.963   9.823  0.0742 -1.0746 -1.6044
  220MPD1    H1 3345   3.284   1.325   9.761  0.0961  0.5422  0.5436
  220MPD1    H2 3346   2.950   1.244   9.514  1.0674 -0.1137 -0.5509
  220MPD1    H3 3347   3.140   1.394   9.588 -1.7104  0.3328 -0.7100
  220MPD1     N 3348   3.260   1.093   9.916 -0.7499  0.0349 -0.5901
  220MPD1    H5 3349   3.243   0.994   9.931  0.9733 -0.0923  0.3894
  220MPD1    N1 3350   2.890   1.006   9.620  0.0272  0.2586  0.5966
  220MPD1    H6 3351   2.831   1.036   9.543  0.2578  0.2990  0.4356
  220MPD1    H7 3352   2.858   0.920   9.663  0.3433 -1.2285 -2.1218
  221MPD1     C 3353   1.028   4.024  17.089 -0.3209 -0.1045  0.3867
  221MPD1    C1 3354   1.124   4.073  17.179  0.1650  0.0860 -0.3837
  221MPD1    C2 3355   1.257   4.044  17.157 -0.2811  0.3430  0.2962
  221MPD1    C3 3356   1.287   3.932  17.072  0.2041  0.4009 -0.3022
  221MPD1    C4 3357   1.186   3.875  16.996 -0.6515 -0.3598  0.6712
  221MPD1    C5 3358   1.056   3.918  17.002 -0.4121 -0.4749 -0.6522
  221MPD1     H 3359   1.326   4.100  17.220  0.5965  1.2917 -1.5078
  221MPD1    H1 3360   1.209   3.795  16.927  1.6731  0.4519  0.4862
  221MPD1    H2 3361   0.929   4.068  17.093 -0.2722 -0.0861  1.3962
  221MPD1    H3 3362   0.977   3.869  16.946 -1.5321  1.3940 -0.7409
  221MPD1     N 3363   1.422   3.887  17.058 -0.2831 -0.7202  0.2781
  221MPD1    H5 3364   1.438   3.808  16.996  0.4363 -0.3145 -0.0480
  221MPD1    N1 3365   1.094   4.197  17.248 -0.2949  1.3826 -0.5959
  221MPD1    H6 3366   1.159   4.209  17.325 -2.5627  2.2758  1.1573
  221MPD1    H7 3367   1.004   4.177  17.290 -0.5503  0.5360 -1.5358
  222MPD1     C 3368   1.624   2.672  17.297 -0.1281 -0.7060  0.8895
  222MPD1    C1 3369   1.521   2.584  17.305 -0.0940  0.5232 -0.5521
  222MPD1    C2 3370   1.394   2.630  17.344  0.2540 -0.0208  0.9547
  222MPD1    C3 3371   1.375   2.763  17.379  0.5440 -0.5031 -0.1021
  222MPD1    C4 3372   1.483   2.847  17.373  0.2792  0.1028  0.3852
  222MPD1    C5 3373   1.601   2.802  17.329  0.4904 -0.6092 -1.3006
  222MPD1     H 3374   1.319   2.554  17.358  0.3366 -0.5258 -1.2536
  222MPD1    H1 3375   1.471   2.953  17.390  1.7293 -0.0656  2.4889
  222MPD1    H2 3376   1.724   2.650  17.261 -0.7676  1.8423 -2.3513
  222MPD1    H3 3377   1.671   2.882  17.311 -0.6936  0.3843 -1.4571
  222MPD1     N 3378   1.253   2.818  17.421 -0.6125 -0.7107 -0.2313
  222MPD1    H5 3379   1.262   2.918  17.436  2.9379 -1.0519 -0.1740
  222MPD1    N1 3380   1.536   2.458  17.250  0.1622  0.1606 -0.8718
  222MPD1    H6 3381   1.465   2.394  17.283  0.4014 -0.5210 -1.6739
  222MPD1    H7 3382   1.624   2.414  17.276  0.1809  1.0741  0.6040
  223MPD1     C 3383   0.620   2.342   0.346  0.1748 -0.1132 -0.2590
  223MPD1    C1 3384   0.633   2.301   0.215 -0.6883  0.2574 -1.0781
  223MPD1    C2 3385   0.680   2.393   0.117 -0.1531 -0.2358  0.3036
  223MPD1    C3 3386   0.710   2.523   0.147  0.6469  0.2565 -0.3485
  223MPD1    C4 3387   0.690   2.560   0.279 -0.1374 -0.3753 -0.0604
  223MPD1    C5 3388   0.657   2.470   0.374 -0.9060  0.8698 -0.6863
  223MPD1     H 3389   0.685   2.368   0.012  1.7895 -1.3647  0.6648
  223MPD1    H1 3390   0.701   2.664   0.308  0.3217 -0.8059  1.3396
  223MPD1    H2 3391   0.567   2.279   0.417  1.3890  1.9705  2.4917
  223MPD1    H3 3392   0.646   2.515   0.472  0.0429  0.1480 -0.2418
  223MPD1     N 3393   0.746   2.620   0.044 -0.2551 -0.0749 -0.2213
  223MPD1    H5 3394   0.772   2.574  17.656  0.1282 -0.4052  0.0683
  223MPD1    N1 3395   0.625   2.166   0.191 -0.8274  0.3300 -0.0669
  223MPD1    H6 3396   0.578   2.115   0.265  1.4661  0.1458  1.2568
  223MPD1    H7 3397   0.594   2.143   0.097 -0.1884  1.1146 -0.4752
  224MPD1     C 3398   1.507   0.524   9.293  0.3621  0.0625 -0.2390
  224MPD1    C1 3399   1.519   0.387   9.301 -0.9183  0.1815 -0.2730
  224MPD1    C2 3400   1.632   0.338   9.363  0.3123 -0.6904 -0.4944
  224MPD1    C3 3401   1.730   0.421   9.417  0.7347 -0.6075  0.3489
  224MPD1    C4 3402   1.707   0.558   9.413 -0.2200  0.4543 -0.2150
  224MPD1    C5 3403   1.607   0.607   9.340 -0.2144  0.9188 -0.2729
  224MPD1     H 3404   1.634   0.230   9.368  0.6056 -0.6269  0.8868
  224MPD1    H1 3405   1.779   0.623   9.462 -0.6406  0.4777  0.3809
  224MPD1    H2 3406   1.422   0.575   9.250  0.6802 -0.3087 -1.3136
  224MPD1    H3 3407   1.600   0.715   9.346 -0.1028  0.9423 -0.5849
  224MPD1     N 3408   1.853   0.388   9.470  0.2705 -0.2086  0.1770
  224MPD1    H5 3409   1.906   0.466   9.506 -0.1823 -0.1667  0.7564
  224MPD1    N1 3410   1.414   0.304   9.268 -0.4189  0.3130  0.4392
  224MPD1    H6 3411   1.375   0.358   9.191  1.2599  1.3828  0.3119
  224MPD1    H7 3412   1.441   0.208   9.252  2.6600  1.1383  0.6149
  225MPD1     C 3413   3.743   1.714  12.450 -0.4827  0.2541 -0.0138
  225MPD1    C1 3414   3.754   1.588  12.406  0.5331 -0.0101 -0.3567
  225MPD1    C2 3415   3.639   1.528  12.365 -0.1507 -0.1688  0.4388
  225MPD1    C3 3416   3.530   1.603  12.323 -0.2647  0.3202  0.1831
  225MPD1    C4 3417   3.525   1.733  12.356  0.6903  0.3582 -0.1321
  225MPD1    C5 3418   3.628   1.786  12.426  0.1792  0.1488 -0.2717
  225MPD1     H 3419   3.633   1.421  12.352 -0.4776  0.1292 -1.9486
  225MPD1    H1 3420   3.449   1.810  12.346 -0.6471 -0.5697  3.0234
  225MPD1    H2 3421   3.816   1.762  12.515  0.7704 -1.3737 -0.1978
  225MPD1    H3 3422   3.623   1.887  12.467 -3.7521 -0.4367  0.6996
  225MPD1     N 3423   3.422   1.549  12.253  0.0079 -0.1965 -0.8487
  225MPD1    H5 3424   3.354   1.604  12.202  2.2575 -0.4042 -4.0562
  225MPD1    N1 3425   3.863   1.508  12.447  0.3257 -0.6275 -0.4148
  225MPD1    H6 3426   3.880   1.434  12.380  0.5519  0.3883 -1.4737
  225MPD1    H7 3427   3.947   1.565  12.447  3.0257 -4.6690 -0.1683
  226MPD1     C 3428   1.087   2.091   9.519  0.5353  0.2403  0.4459
  226MPD1    C1 3429   1.180   2.079   9.420  0.3672 -0.0254 -0.3135
  226MPD1    C2 3430   1.180   1.955   9.345  0.9832  0.0662  0.4862
  226MPD1    C3 3431   1.097   1.848   9.380 -0.4335  0.2487  0.8471
  226MPD1    C4 3432   1.010   1.866   9.491  0.4566  0.3547  0.9771
  226MPD1    C5 3433   1.011   1.983   9.553  0.0974  0.0295 -0.6363
  226MPD1     H 3434   1.250   1.942   9.263  0.7056 -0.8013  0.3923
  226MPD1    H1 3435   0.945   1.793   9.539  0.9264 -0.6688  0.0633
  226MPD1    H2 3436   1.066   2.186   9.567  3.6675  0.1378  1.9651
  226MPD1    H3 3437   0.955   1.997   9.644 -0.5893 -0.7339 -0.9491
  226MPD1     N 3438   1.107   1.723   9.318 -0.5595 -0.6542 -0.1401
  226MPD1    H5 3439   1.174   1.722   9.242 -0.3211  2.0339  0.0312
  226MPD1    N1 3440   1.246   2.191   9.375  0.5726 -0.0699  0.8185
  226MPD1    H6 3441   1.265   2.249   9.456  1.5888 -1.4027  1.5515
  226MPD1    H7 3442   1.329   2.174   9.318 -0.9226 -1.0616 -1.0648
  227MPD1     C 3443   0.586   0.841   9.247  0.5677  0.0001 -0.3208
  227MPD1    C1 3444   0.541   0.966   9.273  0.1868  0.7222  0.5684
  227MPD1    C2 3445   0.641   1.065   9.284  0.4068  0.6337 -0.1189
  227MPD1    C3 3446   0.777   1.036   9.264  0.4200  0.0049  0.2889
  227MPD1    C4 3447   0.810   0.901   9.252 -0.2768 -0.4400  0.5654
  227MPD1    C5 3448   0.714   0.805   9.243  0.4738  0.0612  0.6840
  227MPD1     H 3449   0.605   1.167   9.286  2.6889  1.4387 -0.3381
  227MPD1    H1 3450   0.912   0.867   9.254 -0.7428 -1.7842  1.3324
  227MPD1    H2 3451   0.518   0.758   9.235 -0.5885  0.8718  0.2239
  227MPD1    H3 3452   0.751   0.703   9.240 -1.6198 -0.7247  1.5451
  227MPD1     N 3453   0.871   1.143   9.272  0.0653  0.4474 -0.6586
  227MPD1    H5 3454   0.825   1.231   9.293  1.3586  0.9820 -0.0991
  227MPD1    N1 3455   0.403   1.003   9.256  0.3135 -0.1872 -0.4705
  227MPD1    H6 3456   0.387   1.094   9.300 -0.6127  0.2947 -1.8114
  227MPD1    H7 3457   0.332   0.941   9.294  0.8021 -0.3491  0.1858
  228MPD1     C 3458   0.475   3.665  12.807  0.3086  0.0626  0.4180
  228MPD1    C1 3459   0.438   3.611  12.689  0.1504 -0.0104  0.0669
  228MPD1    C2 3460   0.300   3.596  12.669 -0.0627  0.2651 -0.3033
  228MPD1    C3 3461   0.213   3.624  12.770 -0.2371 -0.3388  0.8576
  228MPD1    C4 3462   0.258   3.672  12.890  0.6203  0.3766 -0.1508
  228MPD1    C5 3463   0.391   3.706  12.907 -0.0844 -0.5510 -0.6491
  228MPD1     H 3464   0.260   3.557  12.576  0.8772  0.4404 -0.7733
  228MPD1    H1 3465   0.197   3.694  12.977 -0.9999  1.8331 -1.6577
  228MPD1    H2 3466   0.578   3.692  12.828  0.0166  1.0078  0.6570
  228MPD1    H3 3467   0.422   3.751  13.000 -0.6615 -0.4593 -0.4976
  228MPD1     N 3468   0.073   3.598  12.758 -0.4231  0.9253 -0.4917
  228MPD1    H5 3469   0.036   3.574  12.666 -1.0397  0.5398 -0.1395
  228MPD1    N1 3470   0.515   3.606  12.569 -0.7841  0.0172  0.2918
  228MPD1    H6 3471   0.500   3.524  12.511 -2.6102 -0.0383  0.8198
  228MPD1    H7 3472   0.614   3.591  12.586 -0.6525  1.1651  0.5438
  229MPD1     C 3473   4.524   2.217  15.077  0.2448  0.3796 -0.5557
  229MPD1    C1 3474   4.592   2.241  15.192 -0.4959  0.3495  0.0204
  229MPD1    C2 3475   4.694   2.151  15.219  0.8786 -1.0123  0.1193
  229MPD1    C3 3476   0.010   2.060  15.119  0.1255 -0.4528  0.5079
  229MPD1    C4 3477   4.658   2.045  15.005  0.3877 -0.3777  0.1219
  229MPD1    C5 3478   4.554   2.120  14.984  0.1526  0.4517  0.1971
  229MPD1     H 3479   0.019   2.155  15.316  1.1086 -1.8297  0.0415
  229MPD1    H1 3480   4.683   1.967  14.935  2.9085  1.1039 -0.6604
  229MPD1    H2 3481   4.438   2.279  15.054 -0.5727  0.1337  1.8066
  229MPD1    H3 3482   4.489   2.110  14.897 -0.5391 -0.5762  0.8265
  229MPD1     N 3483   0.127   1.978  15.132 -0.2088 -0.1130 -0.2299
  229MPD1    H5 3484   0.142   1.921  15.049 -1.0383 -0.8844  0.1429
  229MPD1    N1 3485   4.536   2.322  15.298 -0.0517 -0.1124 -0.3854
  229MPD1    H6 3486   4.614   2.347  15.358  1.6669  0.8886 -3.0324
  229MPD1    H7 3487   4.495   2.411  15.272  0.1201 -0.4482 -1.8342
  230MPD1     C 3488   1.038   1.656  15.653 -0.5113  0.2639 -0.1390
  230MPD1    C1 3489   1.052   1.612  15.521  0.1521  0.3332 -0.7249
  230MPD1    C2 3490   0.941   1.619  15.439  0.3489 -1.1752 -0.6336
  230MPD1    C3 3491   0.829   1.682  15.478  0.8243  0.0227 -0.5149
  230MPD1    C4 3492   0.824   1.739  15.602  0.3773  0.0707  0.0484
  230MPD1    C5 3493   0.922   1.718  15.695  0.4141 -0.0859 -0.7701
  230MPD1     H 3494   0.944   1.581  15.337  0.2115 -0.4883 -0.8986
  230MPD1    H1 3495   0.732   1.788  15.631  1.0185  0.9010  0.6719
  230MPD1    H2 3496   1.105   1.627  15.734 -0.5915  1.9593  0.5452
  230MPD1    H3 3497   0.925   1.749  15.799  0.0648  0.6027 -0.9700
  230MPD1     N 3498   0.715   1.687  15.388 -0.3317 -0.1782  0.4716
  230MPD1    H5 3499   0.710   1.614  15.318  0.5549  0.4716 -0.2745
  230MPD1    N1 3500   1.169   1.531  15.483  0.2374  0.3085  0.2904
  230MPD1    H6 3501   1.189   1.539  15.383  1.0692 -1.3315  0.3186
  230MPD1    H7 3502   1.153   1.432  15.499 -2.4357  0.4252 -1.6429
  231MPD1     C 3503   2.883   3.983  15.454 -0.1613 -0.1486  0.1948
  231MPD1    C1 3504   2.952   3.911  15.353  0.3676  0.2090  0.3379
  231MPD1    C2 3505   3.066   3.958  15.292  0.0952  0.5621  0.3590
  231MPD1    C3 3506   3.120   4.082  15.331  0.0566  0.7799  0.6238
  231MPD1    C4 3507   3.047   4.153  15.423  0.4085  0.2320  0.1214
  231MPD1    C5 3508   2.935   4.107  15.482  0.8575  0.0397  0.6614
  231MPD1     H 3509   3.116   3.886  15.229  1.6999  0.5466  1.6554
  231MPD1    H1 3510   3.079   4.255  15.444  1.2742  0.1876 -0.9569
  231MPD1    H2 3511   2.790   3.951  15.499 -0.6896  0.8496 -0.1772
  231MPD1    H3 3512   2.881   4.170  15.552  0.9669  1.0986 -0.2117
  231MPD1     N 3513   3.250   4.108  15.283 -1.0555 -0.5765  0.4132
  231MPD1    H5 3514   3.286   4.039  15.218  1.1601 -0.7047  1.8237
  231MPD1    N1 3515   2.888   3.794  15.302  0.4423  0.5139 -0.3827
  231MPD1    H6 3516   2.830   3.744  15.369  2.6194 -1.8501 -0.2773
  231MPD1    H7 3517   2.957   3.729  15.265 -1.1448 -0.7175 -1.1968
  232MPD1     C 3518   1.244   2.139   1.437 -0.3644  0.3080 -0.6637
  232MPD1    C1 3519   1.111   2.138   1.446 -0.3878  0.5299  0.0773
  232MPD1    C2 3520   1.044   2.036   1.380  0.0477  0.3018 -0.0711
  232MPD1    C3 3521   1.103   1.940   1.307 -0.2752 -0.1914  0.1478
  232MPD1    C4 3522   1.236   1.946   1.282 -0.0454  0.4703 -0.6965
  232MPD1    C5 3523   1.308   2.043   1.349  0.1875 -0.1153 -0.5908
  232MPD1     H 3524   0.936   2.035   1.373  0.2234  0.8930 -2.7390
  232MPD1    H1 3525   1.295   1.883   1.217  0.1337 -1.6330  1.5131
  232MPD1    H2 3526   1.302   2.218   1.483 -0.1993 -0.8168  1.0956
  232MPD1    H3 3527   1.413   2.049   1.323  0.0680  0.0942 -1.0269
  232MPD1     N 3528   1.018   1.843   1.248 -0.2744  0.3762  0.0523
  232MPD1    H5 3529   0.917   1.848   1.258 -0.5239  0.1727 -2.6118
  232MPD1    N1 3530   1.045   2.255   1.507  0.7512 -0.0739 -0.4770
  232MPD1    H6 3531   0.945   2.236   1.516  1.0942 -1.8393 -0.2881
  232MPD1    H7 3532   1.098   2.283   1.589 -0.0417 -1.3885  0.4846
  233MPD1     C 3533   1.223   4.417   2.151 -0.6882  0.7667  0.0431
  233MPD1    C1 3534   1.217   4.531   2.234 -0.1355 -0.2579 -0.6169
  233MPD1    C2 3535   1.343   4.598   2.256  0.4127  0.7471 -0.3326
  233MPD1    C3 3536   1.452   4.552   2.182 -0.4459 -0.9840  0.9243
  233MPD1    C4 3537   1.449   4.443   2.097  0.2902 -0.2581 -0.0019
  233MPD1    C5 3538   1.331   4.381   2.072 -0.2668 -0.0788 -0.5373
  233MPD1     H 3539   1.352   4.685   2.320  0.9687  0.5764 -0.1722
  233MPD1    H1 3540   1.536   4.424   2.036 -0.7333  0.0541 -1.5428
  233MPD1    H2 3541   1.130   4.363   2.139  0.0853 -0.8197  1.2563
  233MPD1    H3 3542   1.336   4.290   2.013 -3.4696 -0.8273  0.3753
  233MPD1     N 3543   1.572   4.634   2.172 -0.3529  0.3711  0.6404
  233MPD1    H5 3544   1.632   4.610   2.094  1.1252 -0.7814  2.1468
  233MPD1    N1 3545   1.105   4.560   2.311  0.0090  0.2958 -0.4735
  233MPD1    H6 3546   1.019   4.534   2.263  1.0970  0.8796 -2.7378
  233MPD1    H7 3547   1.099   4.661   2.311  1.3906  0.3650 -3.0658
  234MPD1     C 3548   2.390   3.223   9.183 -0.2649 -0.0883  0.4479
  234MPD1    C1 3549   2.445   3.308   9.278 -0.3206  0.4783  0.2562
  234MPD1    C2 3550   2.447   3.439   9.250  0.1132  0.3261 -0.4516
  234MPD1    C3 3551   2.373   3.496   9.147  0.0130 -0.7178  0.7813
  234MPD1    C4 3552   2.306   3.411   9.058 -0.4119  0.4103  0.5886
  234MPD1    C5 3553   2.320   3.278   9.079 -0.2640 -0.7359 -0.3289
  234MPD1     H 3554   2.505   3.507   9.312  0.5797  0.7726 -1.3863
  234MPD1    H1 3555   2.248   3.442   8.972 -0.5109  0.8488  0.8179
  234MPD1    H2 3556   2.414   3.118   9.193  0.6183  0.0158 -0.5442
  234MPD1    H3 3557   2.280   3.209   9.006 -1.6903  0.2532 -0.4881
  234MPD1     N 3558   2.376   3.636   9.126 -0.1047  0.1206 -0.6855
  234MPD1    H5 3559   2.426   3.688   9.198 -2.5134  0.3755  0.8173
  234MPD1    N1 3560   2.516   3.247   9.384  0.6781 -0.1976 -0.6376
  234MPD1    H6 3561   2.508   3.149   9.412  1.2822 -0.3510 -1.0003
  234MPD1    H7 3562   2.531   3.306   9.466  1.1262  0.4284 -1.1812
  235MPD1     C 3563   4.296   1.595  10.595  0.2419  0.0875  0.0704
  235MPD1    C1 3564   4.224   1.556  10.485  0.2893  0.2467  0.2479
  235MPD1    C2 3565   4.227   1.627  10.364 -0.1675 -0.1956 -0.6923
  235MPD1    C3 3566   4.309   1.738  10.358 -0.0137  0.0498 -0.6007
  235MPD1    C4 3567   4.386   1.779  10.469  0.4204  0.3517  0.0413
  235MPD1    C5 3568   4.378   1.697  10.583  0.6291 -1.3124  0.5864
  235MPD1     H 3569   4.181   1.584  10.276  0.6686 -0.7981 -0.8266
  235MPD1    H1 3570   4.459   1.858  10.477  0.0962  0.6919 -0.3187
  235MPD1    H2 3571   4.295   1.538  10.687  0.7484  2.5533  1.5850
  235MPD1    H3 3572   4.420   1.731  10.677  0.4224  0.6559 -0.0259
  235MPD1     N 3573   4.320   1.798  10.229 -0.0841  0.0384 -0.8222
  235MPD1    H5 3574   4.257   1.755  10.160  1.1345 -1.1906 -1.1781
  235MPD1    N1 3575   4.178   1.425  10.491  0.0249 -0.0235  0.3823
  235MPD1    H6 3576   4.142   1.401  10.582  1.6692  0.8614  1.2681
  235MPD1    H7 3577   4.101   1.414  10.425 -0.8166  0.0278  1.3690
  236MPD1     C 3578   3.102   3.208   9.937  0.6179 -0.4868 -0.6570
  236MPD1    C1 3579   3.095   3.070   9.965 -0.0935 -0.5954 -0.4383
  236MPD1    C2 3580   3.212   3.009   9.998  0.0171 -0.1059 -0.4996
  236MPD1    C3 3581   3.332   3.077  10.015  0.8433 -0.3610  0.0460
  236MPD1    C4 3582   3.337   3.212   9.990 -0.2080 -0.1551  0.3231
  236MPD1    C5 3583   3.223   3.277   9.953 -0.1720 -0.3855  0.6495
  236MPD1     H 3584   3.205   2.901   9.994  0.3294 -0.2224  1.7540
  236MPD1    H1 3585   3.431   3.264   9.974 -0.6844  0.2507 -1.1666
  236MPD1    H2 3586   3.010   3.248   9.896  0.2963 -0.1035  0.4627
  236MPD1    H3 3587   3.237   3.379   9.918  1.8062 -0.5390  0.9781
  236MPD1     N 3588   3.454   3.006  10.029 -0.3591 -0.2660 -0.2588
  236MPD1    H5 3589   3.536   3.052   9.990 -0.5027  0.5368  0.3913
  236MPD1    N1 3590   2.978   2.992   9.948  0.5030  0.2363 -0.1645
  236MPD1    H6 3591   2.886   3.034   9.959 -0.2906 -1.4193 -0.5326
  236MPD1    H7 3592   2.983   2.917  10.017 -1.5408 -0.0173 -0.3035
  237MPD1     C 3593   3.318   0.898  16.685 -0.0683  0.5005  0.1079
  237MPD1    C1 3594   3.283   0.967  16.577  0.2065 -0.5570  0.0255
  237MPD1    C2 3595   3.260   0.901  16.459  0.1749 -0.0323 -0.0626
  237MPD1    C3 3596   3.277   0.763  16.449 -0.5614  1.2031  0.3375
  237MPD1    C4 3597   3.298   0.689  16.560 -0.0880  0.0853  0.0728
  237MPD1    C5 3598   3.319   0.759  16.678 -0.4645 -0.3920 -0.5729
  237MPD1     H 3599   3.230   0.958  16.372  0.5509 -0.5873 -0.5507
  237MPD1    H1 3600   3.299   0.581  16.560  0.7507  0.0880 -0.6463
  237MPD1    H2 3601   3.324   0.947  16.782  2.3323  0.5885 -0.0753
  237MPD1    H3 3602   3.326   0.703  16.771 -0.8552  0.7155  0.1150
  237MPD1     N 3603   3.245   0.695  16.330  0.1983  0.2180 -0.2750
  237MPD1    H5 3604   3.252   0.594  16.332 -3.1613 -0.0602 -1.6648
  237MPD1    N1 3605   3.253   1.105  16.590 -0.9160  0.1121 -0.3525
  237MPD1    H6 3606   3.309   1.150  16.662 -0.9614  0.3959 -0.4938
  237MPD1    H7 3607   3.283   1.155  16.506  0.9468 -1.7991 -0.8393
  238MPD1     C 3608   0.471   3.738  14.209 -0.0218 -0.0851 -0.4362
  238MPD1    C1 3609   0.447   3.872  14.224 -0.0010 -0.1424  0.1471
  238MPD1    C2 3610   0.314   3.916  14.224 -0.7973  0.4903 -0.6380
  238MPD1    C3 3611   0.206   3.833  14.209 -0.2390 -0.3465 -0.0976
  238MPD1    C4 3612   0.238   3.701  14.184  0.4062 -0.5230  0.2407
  238MPD1    C5 3613   0.366   3.654  14.189  0.5976  0.0497  0.1801
  238MPD1     H 3614   0.283   4.016  14.251  1.9112  0.8288  1.1890
  238MPD1    H1 3615   0.154   3.637  14.160  0.6893 -1.1478  0.9420
  238MPD1    H2 3616   0.570   3.696  14.192  0.3194  0.2826  0.6448
  238MPD1    H3 3617   0.392   3.552  14.162 -0.7740 -0.9496  2.7033
  238MPD1     N 3618   0.071   3.874  14.211 -0.0647 -0.4767  0.4941
  238MPD1    H5 3619   4.722   3.810  14.180 -0.2178  0.5105 -1.1807
  238MPD1    N1 3620   0.556   3.959  14.227 -0.1802 -0.5078 -0.0147
  238MPD1    H6 3621   0.641   3.904  14.236 -0.3680 -0.8551 -0.3956
  238MPD1    H7 3622   0.552   4.034  14.297  2.5965 -1.1001  0.7788
  239MPD1     C 3623   1.032   0.396  14.954  0.4603  0.3813  0.2450
  239MPD1    C1 3624   1.098   0.344  14.845  0.1835 -0.0804 -0.2328
  239MPD1    C2 3625   1.043   0.363  14.722  0.5334 -0.5358  1.3510
  239MPD1    C3 3626   0.928   0.432  14.706  0.7170  0.2680 -0.3093
  239MPD1    C4 3627   0.858   0.483  14.812 -0.0593 -0.1456 -0.5363
  239MPD1    C5 3628   0.920   0.474  14.939 -0.3083  0.8829  0.2779
  239MPD1     H 3629   1.096   0.321  14.637 -2.9267  0.3654 -1.2445
  239MPD1    H1 3630   0.761   0.531  14.808  0.2834  0.5410 -0.5403
  239MPD1    H2 3631   1.070   0.376  15.053 -3.1644  0.3820  1.6348
  239MPD1    H3 3632   0.866   0.516  15.024 -1.2250  0.5031 -0.1133
  239MPD1     N 3633   0.858   0.434  14.585 -0.8368  0.1417 -0.0138
  239MPD1    H5 3634   0.759   0.453  14.592 -1.3321 -3.0054  1.3893
  239MPD1    N1 3635   1.197   0.246  14.870  0.1843 -0.1200 -0.4509
  239MPD1    H6 3636   1.271   0.263  14.939 -0.8049  1.6783  0.1569
  239MPD1    H7 3637   1.253   0.217  14.790 -1.2258  2.7896 -2.4504
  240MPD1     C 3638   0.049   0.390  13.777  0.3405 -0.3474  0.2577
  240MPD1    C1 3639   0.048   0.441  13.899  0.3971 -0.3991 -0.0942
  240MPD1    C2 3640   0.028   0.342  13.996 -0.1865 -0.2312  0.3791
  240MPD1    C3 3641   0.024   0.203  13.956 -1.0080 -0.2056  0.9319
  240MPD1    C4 3642   0.061   0.164  13.831 -0.4598  0.5976 -0.1938
  240MPD1    C5 3643   0.079   0.263  13.740  0.5902 -0.6450  0.5359
  240MPD1     H 3644   0.008   0.365  14.100  2.0411  0.6934  0.5967
  240MPD1    H1 3645   0.050   0.063  13.793  0.7175  0.6523 -0.6982
  240MPD1    H2 3646   0.056   0.449  13.687 -0.9028 -0.6420 -0.0333
  240MPD1    H3 3647   0.081   0.242  13.634 -0.5571  0.2679  0.3260
  240MPD1     N 3648   4.700   0.108  14.052  0.2219  1.0198  0.2872
  240MPD1    H5 3649   4.677   0.161  14.136  1.5298 -0.5325  1.6297
  240MPD1    N1 3650   0.036   0.577  13.917  0.0961  0.6870  0.8035
  240MPD1    H6 3651   0.072   0.610  14.006  1.5359  2.0839 -0.3059
  240MPD1    H7 3652   0.091   0.628  13.848  0.4780 -2.3483 -1.1738
  241MPD1     C 3653   0.085   0.218  14.901 -0.3785 -0.6334  0.7811
  241MPD1    C1 3654   0.021   0.101  14.908  0.1145 -0.9444  0.7721
  241MPD1    C2 3655   4.716   0.026  14.792  0.0099  0.0918 -0.0918
  241MPD1    C3 3656   0.005   0.085  14.668  0.1109  0.2918 -0.5552
  241MPD1    C4 3657   0.053   0.213  14.668 -0.4680 -0.1439 -0.1656
  241MPD1    C5 3658   0.110   0.276  14.780 -0.0492  0.1758 -0.5474
  241MPD1     H 3659   4.684   4.646  14.793  0.3807  0.0047  3.3455
  241MPD1    H1 3660   0.053   0.260  14.570  1.2888 -0.3480 -0.2783
  241MPD1    H2 3661   0.096   0.282  14.987  0.2257 -1.0933  1.0444
  241MPD1    H3 3662   0.153   0.376  14.781 -0.8794  0.5179  1.3532
  241MPD1     N 3663   4.720   0.019  14.544 -0.9660 -0.1780 -0.0647
  241MPD1    H5 3664   4.714   0.079  14.462 -0.3875 -1.1333 -0.8035
  241MPD1    N1 3665   0.004   0.039  15.033  0.1201 -0.1395 -0.0727
  241MPD1    H6 3666   4.638   4.717  15.033 -0.0241  0.1383 -0.4448
  241MPD1    H7 3667   4.722   0.094  15.119  1.2163  0.6564 -0.4962
  242MPD1     C 3668   4.443   3.472  15.431  0.0183 -0.5937  0.3946
  242MPD1    C1 3669   4.321   3.414  15.421 -0.0195  0.2039  0.1154
  242MPD1    C2 3670   4.312   3.335  15.307  0.2202 -0.0118  0.7023
  242MPD1    C3 3671   4.400   3.332  15.206  0.3116 -0.5627 -0.0957
  242MPD1    C4 3672   4.520   3.389  15.223 -0.0211  0.0517  0.4940
  242MPD1    C5 3673   4.540   3.470  15.329  0.3163 -0.6407 -0.3681
  242MPD1     H 3674   4.220   3.278  15.307  0.7194 -0.7910 -2.7661
  242MPD1    H1 3675   4.601   3.372  15.153  0.0468 -1.9829  1.0694
  242MPD1    H2 3676   4.463   3.547  15.507 -1.8968 -0.2419  0.5512
  242MPD1    H3 3677   4.631   3.528  15.324 -0.7516  1.1585  1.1090
  242MPD1     N 3678   4.386   3.245  15.090  0.0349  0.6354  0.3203
  242MPD1    H5 3679   4.462   3.238  15.023 -2.0239 -0.1295 -1.9023
  242MPD1    N1 3680   4.249   3.396  15.543  0.3221 -0.2723  1.0583
  242MPD1    H6 3681   4.260   3.481  15.598  0.7889 -0.5660  1.4142
  242MPD1    H7 3682   4.147   3.393  15.534  0.5956  1.3263 -2.6579
  243MPD1     C 3683   1.947   2.401  16.534 -0.2674  0.2005  0.3947
  243MPD1    C1 3684   1.855   2.346  16.449  0.6119  0.2078 -0.8652
  243MPD1    C2 3685   1.822   2.216  16.459  0.3686  0.0162  0.3162
  243MPD1    C3 3686   1.863   2.134  16.559 -0.0322  0.2555  1.1076
  243MPD1    C4 3687   1.958   2.189  16.643 -0.3006  0.2335  0.4954
  243MPD1    C5 3688   1.994   2.321  16.633  0.4213 -0.0937 -0.3244
  243MPD1     H 3689   1.746   2.180  16.391 -0.1277  0.0072  0.8797
  243MPD1    H1 3690   2.014   2.135  16.718 -0.0383  0.1188  0.2155
  243MPD1    H2 3691   2.003   2.492  16.513 -2.0895  0.9848 -1.1104
  243MPD1    H3 3692   2.076   2.351  16.697  1.1103 -1.0754 -0.7485
  243MPD1     N 3693   1.823   1.994  16.559 -0.1805  0.4404 -0.4503
  243MPD1    H5 3694   1.779   1.956  16.476  1.2659  1.0890 -1.5192
  243MPD1    N1 3695   1.816   2.422  16.337 -0.4389 -0.2943  0.0683
  243MPD1    H6 3696   1.740   2.384  16.280 -0.0556  1.4760 -1.6305
  243MPD1    H7 3697   1.801   2.520  16.358  0.4785 -0.8398  3.3025
  244MPD1     C 3698   1.444   1.545  17.313  0.5377 -0.5375  0.1643
  244MPD1    C1 3699   1.529   1.650  17.295  0.1258 -0.4698 -0.7662
  244MPD1    C2 3700   1.583   1.662  17.169  0.1202  0.1554 -0.4738
  244MPD1    C3 3701   1.569   1.565  17.068 -0.0780  0.3878 -0.4350
  244MPD1    C4 3702   1.489   1.456  17.097 -0.3726 -0.0898 -0.8871
  244MPD1    C5 3703   1.435   1.446  17.220  0.7912 -0.2045 -0.2187
  244MPD1     H 3704   1.649   1.747  17.152  0.1204  0.1502 -0.4994
  244MPD1    H1 3705   1.489   1.372  17.028 -1.0792 -0.6592 -0.1982
  244MPD1    H2 3706   1.391   1.537  17.406 -0.5855  1.1738 -0.3476
  244MPD1    H3 3707   1.397   1.349  17.249 -1.3557  0.8416  0.4358
  244MPD1     N 3708   1.641   1.587  16.946 -0.0618 -0.4176  0.5185
  244MPD1    H5 3709   1.685   1.679  16.937 -2.5103  0.8435  1.3745
  244MPD1    N1 3710   1.523   1.752  17.386  0.5075 -0.0444  0.3143
  244MPD1    H6 3711   1.521   1.707  17.477 -2.4482 -1.4633 -0.4305
  244MPD1    H7 3712   1.607   1.808  17.381  0.1265  0.6319  1.5393
  245MPD1     C 3713   2.869   2.177  12.908 -0.0065 -0.4438  0.3264
  245MPD1    C1 3714   2.859   2.159  13.046 -0.0076 -1.0076 -0.1323
  245MPD1    C2 3715   2.885   2.265  13.133  0.2419 -0.7261 -0.5501
  245MPD1    C3 3716   2.937   2.380  13.073 -0.1738 -0.6284  0.5547
  245MPD1    C4 3717   2.951   2.398  12.937 -0.0030  0.7083 -0.4798
  245MPD1    C5 3718   2.924   2.294  12.859  0.1111  1.0493 -0.3595
  245MPD1     H 3719   2.869   2.267  13.240 -0.2456  1.2055 -0.6566
  245MPD1    H1 3720   2.991   2.491  12.897  0.1612  1.0230  0.4176
  245MPD1    H2 3721   2.836   2.101  12.838 -2.6381  1.0527 -0.0404
  245MPD1    H3 3722   2.957   2.297  12.756  0.2354  0.8716 -0.3256
  245MPD1     N 3723   2.985   2.473  13.166 -0.5941  0.7187 -0.2467
  245MPD1    H5 3724   2.982   2.445  13.263 -1.0957  0.7801 -0.2470
  245MPD1    N1 3725   2.781   2.052  13.099  0.8578  0.6279  0.0640
  245MPD1    H6 3726   2.821   2.009  13.182  0.0060  0.2196  0.2726
  245MPD1    H7 3727   2.777   1.980  13.027  0.1061  0.9495 -0.2297
  246MPD1     C 3728   4.447   3.174   8.707 -0.1346 -0.1379 -0.1492
  246MPD1    C1 3729   4.486   3.310   8.720  0.5574  0.1165 -0.1826
  246MPD1    C2 3730   4.399   3.386   8.797 -0.1385 -0.3734  0.1715
  246MPD1    C3 3731   4.270   3.341   8.825  0.7703 -0.1737 -0.1290
  246MPD1    C4 3732   4.237   3.212   8.805 -0.9575  0.2084  0.7815
  246MPD1    C5 3733   4.329   3.121   8.751  0.1536 -0.6634 -0.1229
  246MPD1     H 3734   4.422   3.492   8.804  0.2163 -0.5101  1.1148
  246MPD1    H1 3735   4.134   3.182   8.822 -0.8142 -1.3373 -1.0803
  246MPD1    H2 3736   4.524   3.103   8.681  0.1272 -0.5142  1.6824
  246MPD1    H3 3737   4.304   3.017   8.733 -0.6644 -0.7258  1.3895
  246MPD1     N 3738   4.176   3.441   8.866 -0.5671 -0.0621 -0.5387
  246MPD1    H5 3739   4.211   3.535   8.854 -0.5999  0.1227  0.7996
  246MPD1    N1 3740   4.616   3.352   8.699 -0.0223  0.7135 -0.4047
  246MPD1    H6 3741   4.627   3.452   8.683  1.5851  0.8234  1.3969
  246MPD1    H7 3742   4.660   3.301   8.622 -0.9553 -0.3474 -0.2258
  247MPD1     C 3743   3.236   3.216  16.695 -0.1765 -0.0467  0.2296
  247MPD1    C1 3744   3.255   3.173  16.828 -0.1358  0.0211 -0.1800
  247MPD1    C2 3745   3.213   3.040  16.852  0.1526  0.4573 -0.3917
  247MPD1    C3 3746   3.164   2.953  16.753 -0.2638  0.0500  0.3902
  247MPD1    C4 3747   3.156   3.002  16.626 -0.1590  0.0936  0.2106
  247MPD1    C5 3748   3.181   3.135  16.598 -0.1480  0.3449 -0.1649
  247MPD1     H 3749   3.229   3.004  16.953 -3.4239 -1.7797 -0.6349
  247MPD1    H1 3750   3.123   2.944  16.540  0.0471  0.0392  0.1686
  247MPD1    H2 3751   3.264   3.313  16.657 -2.6149  0.3981 -0.4371
  247MPD1    H3 3752   3.160   3.176  16.500 -0.1585  0.7555  0.0071
  247MPD1     N 3753   3.127   2.816  16.775  0.0588 -0.6307  0.1725
  247MPD1    H5 3754   3.113   2.768  16.686  0.1144  2.1740 -1.3772
  247MPD1    N1 3755   3.352   3.235  16.910 -0.2879  0.4088  0.4556
  247MPD1    H6 3756   3.350   3.337  16.916  0.1094  0.3708  1.2848
  247MPD1    H7 3757   3.343   3.208  17.007  1.3550  1.7479  0.9894
  248MPD1     C 3758   4.326   2.329   0.249  0.0717 -0.1976  0.1994
  248MPD1    C1 3759   4.235   2.229   0.277  0.1210 -0.2237  0.0739
  248MPD1    C2 3760   4.136   2.251   0.359 -0.3322 -0.8022  0.1844
  248MPD1    C3 3761   4.126   2.361   0.432 -0.1891  0.0186 -0.0945
  248MPD1    C4 3762   4.221   2.458   0.421 -1.0397  0.2930  0.0781
  248MPD1    C5 3763   4.325   2.437   0.333  0.2892 -0.3914  0.3340
  248MPD1     H 3764   4.071   2.167   0.383  0.0728 -1.4537 -1.0483
  248MPD1    H1 3765   4.217   2.556   0.467 -2.8008 -0.4099  1.4182
  248MPD1    H2 3766   4.409   2.316   0.181  0.0530  1.7239 -0.1989
  248MPD1    H3 3767   4.400   2.514   0.321 -1.6956  1.4174 -0.5432
  248MPD1     N 3768   4.005   2.388   0.500 -0.2473  0.2194  0.8111
  248MPD1    H5 3769   3.939   2.311   0.499 -0.2334  0.2170  0.0232
  248MPD1    N1 3770   4.226   2.120   0.185  0.0140 -1.0514 -0.5563
  248MPD1    H6 3771   4.176   2.046   0.234  1.4042 -1.1111  0.7884
  248MPD1    H7 3772   4.321   2.101   0.153  0.3448  1.4181 -1.0560
  249MPD1     C 3773   4.167   0.377   9.085  0.1642  0.6802  0.1545
  249MPD1    C1 3774   4.214   0.507   9.085 -0.1068 -0.2545 -0.1755
  249MPD1    C2 3775   4.207   0.577   9.199  0.5180  0.2974 -0.4057
  249MPD1    C3 3776   4.181   0.520   9.321 -0.4435  0.3133  0.3884
  249MPD1    C4 3777   4.153   0.388   9.326 -0.2305 -0.2874  0.1954
  249MPD1    C5 3778   4.132   0.325   9.205  0.0019  0.2073 -0.4563
  249MPD1     H 3779   4.235   0.681   9.197 -2.1519  1.0068 -0.1205
  249MPD1    H1 3780   4.123   0.330   9.413 -4.0022  2.7462  0.8707
  249MPD1    H2 3781   4.164   0.318   8.995  0.4670  1.0138 -0.0742
  249MPD1    H3 3782   4.100   0.221   9.202  1.9204 -0.4392  1.3223
  249MPD1     N 3783   4.169   0.611   9.435  0.5082  0.3937 -0.6200
  249MPD1    H5 3784   4.187   0.710   9.416 -1.0715  1.1594  1.9556
  249MPD1    N1 3785   4.232   0.567   8.961 -0.6183  0.1632 -0.3671
  249MPD1    H6 3786   4.293   0.648   8.968  0.4801 -0.6500 -0.4560
  249MPD1    H7 3787   4.277   0.504   8.894  0.6347  0.9207 -0.2344
  250MPD2     C 3788   1.580   0.591  13.088 -0.0122 -0.0047 -0.3511
  250MPD2    C1 3789   1.464   0.650  13.052  0.5966 -0.0224  0.6343
  250MPD2    C2 3790   1.355   0.565  13.030  0.0911  0.4171  0.2259
  250MPD2    C3 3791   1.362   0.427  13.050  0.0359  0.3153  0.1646
  250MPD2    C4 3792   1.481   0.373  13.080  0.2616 -0.1147 -0.8220
  250MPD2    C5 3793   1.584   0.455  13.104 -1.4538  0.4949 -0.7582
  250MPD2     H 3794   1.257   0.606  13.007 -0.2286 -0.6271 -0.2875
  250MPD2    H1 3795   1.490   0.265  13.077 -1.6668 -0.2824 -0.3157
  250MPD2    H2 3796   1.671   0.646  13.108 -0.9332  1.6322 -0.5767
  250MPD2    H3 3797   1.682   0.411  13.124 -1.2945  0.4270 -1.6821
  250MPD2     N 3798   1.248   0.344  13.026  0.1437 -0.5666  0.3416
  250MPD2    H5 3799   1.260   0.247  13.052 -2.0616 -1.1592 -0.8334
  250MPD2    N1 3800   1.471   0.789  13.036 -0.3340  0.0329 -0.6880
  250MPD2    H7 3801   1.559   0.838  13.048 -0.9447  0.7918  0.6795
  251TMC3    C1 3802   1.395   0.995  12.957 -0.2402 -0.5261 -0.2366
  251TMC3    C2 3803   1.281   1.076  12.934  0.3480 -0.3773  0.1403
  251TMC3    C3 3804   1.311   1.208  12.892 -0.1237 -0.5588 -0.2558
  251TMC3    C4 3805   1.516   1.031  12.919 -0.7684  0.1516 -0.2804
  251TMC3    C5 3806   1.532   1.155  12.869 -0.3369 -0.2818 -0.0902
  251TMC3    C6 3807   1.436   1.253  12.871  1.0701  0.2222  0.2010
  251TMC3     C 3808   1.368   0.858  12.981  0.1961 -0.0470 -0.8257
  251TMC3     O 3809   1.253   0.823  12.956 -0.1368  0.0380 -0.0538
  251TMC3     H 3810   1.178   1.046  12.953 -0.1204  1.5782  0.6808
  251TMC3    H1 3811   1.605   0.969  12.920  0.2946  1.6803  0.4690
  251TMC3    H2 3812   1.457   1.356  12.843 -0.8679 -0.0504 -2.3013
  251TMC3    C7 3813   1.668   1.210  12.884  0.8124 -0.3388 -0.0063
  251TMC3    C8 3814   1.216   1.308  12.936  0.5245 -0.7865 -0.3371
  251TMC3    O1 3815   1.728   1.162  12.979  0.3862  0.2699 -0.3623
  251TMC3    O2 3816   1.258   1.398  13.006  0.5341  0.6443  0.1426
  252TMC3    C1 3817   1.550   1.369   9.492 -0.7947  0.2971  1.7924
  252TMC3    C2 3818   1.619   1.479   9.445  0.7188 -0.1921 -0.6310
  252TMC3    C3 3819   1.747   1.464   9.415  0.3286 -0.5351  0.5721
  252TMC3    C4 3820   1.618   1.248   9.513 -0.1651 -0.0949 -0.3339
  252TMC3    C5 3821   1.747   1.232   9.466  0.5755  0.4591 -0.4864
  252TMC3    C6 3822   1.811   1.345   9.419  0.0200  0.1479 -0.2020
  252TMC3     C 3823   1.415   1.401   9.544  0.7931  0.1325 -0.9496
  252TMC3     O 3824   1.369   1.513   9.529  0.1299  0.1488  0.6116
  252TMC3     H 3825   1.579   1.575   9.417  1.0529  0.9915  2.9812
  252TMC3    H1 3826   1.585   1.171   9.581  1.6026 -0.0926  0.5236
  252TMC3    H2 3827   1.908   1.339   9.369 -0.7585 -1.0111 -1.5647
  252TMC3    C7 3828   1.831   1.123   9.514  0.6095 -0.0404  0.4198
  252TMC3    C8 3829   1.813   1.582   9.351 -0.5856 -0.3101 -0.4382
  252TMC3    O1 3830   1.955   1.146   9.504  0.2258  0.5387  0.4113
  252TMC3    O2 3831   1.904   1.555   9.270  0.0068 -0.2194 -0.4295
  253MPD2     C 3832   2.774   0.317  15.219 -0.7889  0.3688 -0.6008
  253MPD2    C1 3833   2.677   0.414  15.218 -0.5136  0.0323 -0.5643
  253MPD2    C2 3834   2.652   0.492  15.328 -0.7902  0.0591  0.1163
  253MPD2    C3 3835   2.739   0.485  15.446  0.1072  0.4451  0.0608
  253MPD2    C4 3836   2.831   0.388  15.451  0.0736 -0.3288 -0.4160
  253MPD2    C5 3837   2.838   0.305  15.344  0.0197 -0.2641 -0.2211
  253MPD2     H 3838   2.583   0.574  15.318  1.1131  1.6310 -0.1294
  253MPD2    H1 3839   2.883   0.359  15.542 -1.6927 -1.1834  0.3343
  253MPD2    H2 3840   2.789   0.245  15.139  1.4774 -2.5768  2.4958
  253MPD2    H3 3841   2.897   0.215  15.359  0.2758  0.2133  1.6582
  253MPD2     N 3842   2.733   0.578  15.549  0.1270 -0.4604  0.2368
  253MPD2    H5 3843   2.811   0.572  15.614  0.5476  0.9560 -0.1316
  253MPD2    N1 3844   2.602   0.438  15.098 -0.2224 -0.0578  0.4219
  253MPD2    H7 3845   2.513   0.486  15.105 -0.4585 -0.3469 -0.5546
  254TMC3    C1 3846   2.683   0.759  15.678  0.1987 -0.3031 -0.5070
  254TMC3    C2 3847   2.643   0.889  15.677 -0.4224  0.4919  0.5091
  254TMC3    C3 3848   2.642   0.943  15.802  1.2362 -0.0167 -0.4177
  254TMC3    C4 3849   2.712   0.685  15.789  0.7222  0.6391  0.1184
  254TMC3    C5 3850   2.708   0.747  15.910  0.0285 -0.2069  0.5272
  254TMC3    C6 3851   2.680   0.883  15.920 -0.2688 -0.3076  0.0056
  254TMC3     C 3852   2.655   0.690  15.556  0.6501  1.2873  0.4569
  254TMC3     O 3853   2.555   0.729  15.496 -0.3718  0.0227 -0.1213
  254TMC3     H 3854   2.631   0.937  15.581  1.4083  1.0097  0.5460
  254TMC3    H1 3855   2.697   0.578  15.784 -1.3722  1.0599 -2.1769
  254TMC3    H2 3856   2.647   0.923  16.014 -3.1913  1.0102 -1.5903
  254TMC3    C7 3857   2.737   0.670  16.032 -0.3774 -0.1878  1.1171
  254TMC3    C8 3858   2.598   1.081  15.816 -0.8199 -0.1848  0.2777
  254TMC3    O1 3859   2.750   0.549  16.027  0.6022 -0.1814 -0.1070
  254TMC3    O2 3860   2.634   1.122  15.929 -0.0940  0.2517  0.3223
  255MPD2     C 3861   0.522   2.919   9.810  0.5484  0.7328 -1.0273
  255MPD2    C1 3862   0.588   3.037   9.770  0.2132  0.4267 -0.5952
  255MPD2    C2 3863   0.722   3.028   9.746 -1.3127  0.1779 -0.3626
  255MPD2    C3 3864   0.788   2.904   9.748 -0.3099  0.2779  0.0967
  255MPD2    C4 3865   0.723   2.793   9.777  0.4236  0.0218  0.4203
  255MPD2    C5 3866   0.588   2.797   9.812  0.4057 -0.9733 -0.4028
  255MPD2     H 3867   0.773   3.122   9.726  0.5433 -1.5663 -3.7664
  255MPD2    H1 3868   0.769   2.699   9.805  0.2637  0.4560  2.1562
  255MPD2    H2 3869   0.416   2.924   9.833  0.4017  1.6378 -1.9234
  255MPD2    H3 3870   0.535   2.706   9.834  1.2703 -1.2019  0.7245
  255MPD2     N 3871   0.927   2.908   9.727 -0.7241 -0.0618 -0.1947
  255MPD2    H5 3872   0.964   3.002   9.723  1.5735 -0.8835  1.9203
  255MPD2    N1 3873   0.507   3.153   9.759  0.1218 -0.0057  0.2000
  255MPD2    H7 3874   0.407   3.136   9.767 -0.0433  0.7036 -0.3670
  256TMC3    C1 3875   0.468   3.383   9.692 -0.2283  0.5117  0.1215
  256TMC3    C2 3876   0.523   3.509   9.684  0.0629  0.6532 -0.0518
  256TMC3    C3 3877   0.479   3.600   9.591  0.4288 -0.7172  0.4620
  256TMC3    C4 3878   0.375   3.340   9.606  0.1524  0.3066  0.0230
  256TMC3    C5 3879   0.323   3.443   9.519  0.2223  0.0148 -0.7938
  256TMC3    C6 3880   0.376   3.568   9.510 -0.0668 -0.2279 -0.4490
  256TMC3     C 3881   0.563   3.281   9.743  0.5003  0.1015 -1.3293
  256TMC3     O 3882   0.680   3.321   9.759  0.2035 -0.5426  0.2192
  256TMC3     H 3883   0.601   3.543   9.751  0.7319  2.4427 -1.7496
  256TMC3    H1 3884   0.342   3.237   9.604 -0.1922  0.3943  1.5939
  256TMC3    H2 3885   0.342   3.639   9.436 -0.7476  1.1470  1.1778
  256TMC3    C7 3886   0.233   3.396   9.415  0.2149 -0.1907 -0.5127
  256TMC3    C8 3887   0.593   3.666   9.534 -0.2971  0.0545 -0.1718
  256TMC3    O1 3888   0.238   3.279   9.378  0.2290  0.1316 -0.8221
  256TMC3    O2 3889   0.706   3.622   9.547 -0.4787  0.1387  0.0164
  257MPD2     C 3890   0.612   1.012  13.325  0.3287  0.1912  0.3490
  257MPD2    C1 3891   0.532   0.908  13.276  0.3256 -0.7816 -0.1664
  257MPD2    C2 3892   0.498   0.807  13.360 -0.0360 -0.1700  0.3168
  257MPD2    C3 3893   0.524   0.809  13.495  0.3566  0.2514 -0.4426
  257MPD2    C4 3894   0.602   0.913  13.542 -0.0582  0.7541  0.1977
  257MPD2    C5 3895   0.643   1.015  13.457  0.1509 -0.1212 -0.3698
  257MPD2     H 3896   0.444   0.719  13.326 -0.2797  0.2195 -0.2961
  257MPD2    H1 3897   0.641   0.910  13.643 -0.2291  2.1485  0.3022
  257MPD2    H2 3898   0.635   1.093  13.257 -0.1322  0.3490  0.3798
  257MPD2    H3 3899   0.708   1.094  13.494 -0.1375 -0.7684  1.5147
  257MPD2     N 3900   0.494   0.692  13.572  0.2665 -0.6551 -0.5196
  257MPD2    H5 3901   0.458   0.615  13.515  0.0083 -0.2163 -0.9467
  257MPD2    N1 3902   0.506   0.920  13.139 -0.9435  0.0650 -0.1398
  257MPD2    H7 3903   0.558   0.989  13.085 -1.2780 -0.5106 -1.1786
  258TMC3    C1 3904   0.426   0.546  13.730  0.0324  0.6126 -0.5126
  258TMC3    C2 3905   0.435   0.439  13.642 -0.3186 -0.2618  0.7266
  258TMC3    C3 3906   0.433   0.315  13.689 -0.0638 -0.3272  0.4030
  258TMC3    C4 3907   0.409   0.516  13.864 -0.1242 -0.0156  0.2951
  258TMC3    C5 3908   0.407   0.388  13.902 -0.5881 -0.2579  0.2162
  258TMC3    C6 3909   0.412   0.280  13.818 -0.6503 -0.2294 -0.0413
  258TMC3     C 3910   0.478   0.684  13.706 -0.1390  0.5760 -0.3895
  258TMC3     O 3911   0.477   0.770  13.795 -0.4352  0.2768  0.2740
  258TMC3     H 3912   0.480   0.449  13.544 -1.1887  0.4110  0.3912
  258TMC3    H1 3913   0.435   0.586  13.942 -1.4040 -0.4612  1.1322
  258TMC3    H2 3914   0.421   0.177  13.850 -1.6055 -0.7324 -1.4205
  258TMC3    C7 3915   0.387   0.380  14.046 -0.4827 -0.3705  0.0549
  258TMC3    C8 3916   0.436   0.202  13.598 -1.0247 -0.2309 -0.4763
  258TMC3    O1 3917   0.327   0.472  14.100  0.6108  0.1198 -0.1909
  258TMC3    O2 3918   0.439   0.087  13.644 -0.2648  0.6604  0.4699
  259MPD2     C 3919   4.462   1.564   0.998  0.7251  0.4654 -0.9351
  259MPD2    C1 3920   4.488   1.696   0.957  0.0466 -0.1628 -0.4836
  259MPD2    C2 3921   4.571   1.717   0.845 -0.0278 -0.1252 -1.6123
  259MPD2    C3 3922   4.637   1.616   0.784  0.4953  0.5184  0.3924
  259MPD2    C4 3923   4.611   1.488   0.824  0.2474  0.6620 -0.0220
  259MPD2    C5 3924   4.524   1.464   0.925 -0.2826  1.0600 -0.9894
  259MPD2     H 3925   4.592   1.820   0.817 -2.9664  0.6713 -0.8907
  259MPD2    H1 3926   4.657   1.398   0.784 -0.0661 -0.4200  2.0601
  259MPD2    H2 3927   4.403   1.533   1.083  1.0799  1.8549 -0.1789
  259MPD2    H3 3928   4.509   1.362   0.958 -0.7439  0.7576 -2.1427
  259MPD2     N 3929   4.723   1.651   0.673  0.0651  0.9692 -0.9455
  259MPD2    H5 3930   0.006   1.747   0.642 -0.8137  2.0114  2.0670
  259MPD2    N1 3931   4.439   1.804   1.035 -0.2204 -0.3434  0.2236
  259MPD2    H7 3932   4.381   1.776   1.114 -1.8761 -2.4672 -1.7474
  260TMC3    C1 3933   0.088   1.617   0.462  0.3867  0.3770 -0.2419
  260TMC3    C2 3934   0.163   1.730   0.474  0.1055  0.3228  0.1620
  260TMC3    C3 3935   0.226   1.782   0.364  0.3414  0.5915 -0.2844
  260TMC3    C4 3936   0.076   1.552   0.347  1.1021  0.5610  0.3642
  260TMC3    C5 3937   0.121   1.613   0.234 -0.0138 -0.2495  0.2876
  260TMC3    C6 3938   0.192   1.729   0.236 -0.0338  0.4292 -0.5379
  260TMC3     C 3939   0.045   1.558   0.584  0.6965 -0.8292 -1.0736
  260TMC3     O 3940   0.052   1.437   0.599 -0.2158 -0.8202 -0.1911
  260TMC3     H 3941   0.187   1.773   0.570 -1.6088  0.2908  0.6105
  260TMC3    H1 3942   0.009   1.467   0.338  2.9958 -0.9564  0.5481
  260TMC3    H2 3943   0.229   1.776   0.145  0.3307 -0.8535 -1.0543
  260TMC3    C7 3944   0.119   1.535   0.111 -0.8362 -0.0856 -1.5232
  260TMC3    C8 3945   0.344   1.865   0.378 -0.2971  0.8489  0.1299
  260TMC3    O1 3946   0.157   1.421   0.123  0.1922  0.9678  0.0423
  260TMC3    O2 3947   0.386   1.908   0.270  0.0601 -0.4070  0.4798
  261MPD2     C 3948   0.678   0.257  12.446 -0.5382  0.1365 -0.4396
  261MPD2    C1 3949   0.765   0.336  12.514 -0.6831 -0.4698  0.2409
  261MPD2    C2 3950   0.843   0.418  12.434  0.4473  0.1563 -0.2087
  261MPD2    C3 3951   0.838   0.403  12.299 -0.5601 -0.1316  0.2799
  261MPD2    C4 3952   0.752   0.322  12.233  0.2701  0.0375  0.6507
  261MPD2    C5 3953   0.677   0.245  12.313 -0.2914  0.3534  0.1648
  261MPD2     H 3954   0.911   0.489  12.481 -0.6168  1.4093 -0.5593
  261MPD2    H1 3955   0.753   0.312  12.125  1.2461  0.8960  0.5733
  261MPD2    H2 3956   0.627   0.181  12.504  2.5156 -0.8179  0.9737
  261MPD2    H3 3957   0.607   0.170  12.278  1.5078 -1.6416  0.8080
  261MPD2     N 3958   0.935   0.474  12.227 -0.1665  0.2822 -0.2131
  261MPD2    H5 3959   0.989   0.541  12.281  0.7712  0.3028 -1.1687
  261MPD2    N1 3960   0.791   0.332  12.652  0.4773  0.3367  0.5423
  261MPD2    H7 3961   0.873   0.379  12.690  1.8576 -0.0661 -1.9002
  262TMC3    C1 3962   1.044   0.592  12.062  0.5808  0.2593  0.4980
  262TMC3    C2 3963   1.011   0.710  12.125  0.5616  0.3044 -0.3929
  262TMC3    C3 3964   1.088   0.816  12.090 -0.9247  0.4487  0.2060
  262TMC3    C4 3965   1.132   0.575  11.960  0.0421  0.1615 -0.8642
  262TMC3    C5 3966   1.204   0.686  11.928  0.4188 -0.3267  0.1293
  262TMC3    C6 3967   1.182   0.803  11.994 -0.3726  0.0311 -0.0327
  262TMC3     C 3968   0.964   0.475  12.093  0.1177  0.2051  0.7783
  262TMC3     O 3969   0.948   0.381  12.017  0.2779  0.4134  0.5917
  262TMC3     H 3970   0.924   0.723  12.189 -0.1568 -0.3043 -1.2425
  262TMC3    H1 3971   1.161   0.478  11.922 -0.4606 -0.2149 -0.2893
  262TMC3    H2 3972   1.230   0.894  11.959 -1.4240  0.6605  0.1596
  262TMC3    C7 3973   1.253   0.683  11.794 -0.1904  0.1407  0.1034
  262TMC3    C8 3974   1.015   0.939  12.066  0.0356 -0.2211  0.4811
  262TMC3    O1 3975   1.306   0.578  11.761 -0.3067 -0.4093  0.2647
  262TMC3    O2 3976   1.086   1.038  12.058 -0.0695  0.0321 -0.0120
  263MPD2     C 3977   1.862   4.713  11.549 -0.0108  0.1819  0.0021
  263MPD2    C1 3978   1.983   0.026  11.497  0.0800  0.4081  0.1044
  263MPD2    C2 3979   1.986   0.116  11.388  0.1169 -0.7831  0.2198
  263MPD2    C3 3980   1.870   0.153  11.324  0.0512 -0.1323 -0.3250
  263MPD2    C4 3981   1.748   0.111  11.368 -0.5943 -0.1468  0.4471
  263MPD2    C5 3982   1.747   0.032  11.481 -0.2101  0.0928  0.6248
  263MPD2     H 3983   2.082   0.142  11.346 -0.2838  1.6694  0.7847
  263MPD2    H1 3984   1.657   0.123  11.312 -0.9945 -0.0444  1.1191
  263MPD2    H2 3985   1.857   4.639  11.628 -4.1918  0.1252 -0.2733
  263MPD2    H3 3986   1.650   0.007  11.523 -1.0056  2.0923 -0.0253
  263MPD2     N 3987   1.882   0.236  11.215  0.2276  0.8384  0.0228
  263MPD2    H5 3988   1.978   0.253  11.186  0.5799  0.8725  1.2147
  263MPD2    N1 3989   2.099   4.703  11.559 -0.3953 -0.1473 -0.2760
  263MPD2    H7 3990   2.089   4.629  11.627 -4.3401 -1.0767 -1.8910
  264TMC3    C1 3991   1.824   0.393  11.039  0.5371 -0.2212  0.1710
  264TMC3    C2 3992   1.760   0.512  11.028 -0.2630  0.2711  0.3317
  264TMC3    C3 3993   1.808   0.595  10.934 -0.3510  0.1264  0.3047
  264TMC3    C4 3994   1.934   0.359  10.964 -0.0081  0.0167 -0.2577
  264TMC3    C5 3995   1.966   0.431  10.858  0.4883 -0.0975  0.8544
  264TMC3    C6 3996   1.905   0.555  10.845  0.1758 -0.3103 -0.3175
  264TMC3     C 3997   1.780   0.305  11.143 -0.3209  0.3256 -0.5309
  264TMC3     O 3998   1.658   0.308  11.167 -0.5875 -0.0038 -0.0732
  264TMC3     H 3999   1.695   0.538  11.111  1.0057  6.0886 -0.4968
  264TMC3    H1 4000   1.977   0.260  10.978 -2.3530 -1.3436 -2.4734
  264TMC3    H2 4001   1.929   0.630  10.771  3.7415  0.5183  1.7096
  264TMC3    C7 4002   2.054   0.397  10.746  0.6308 -0.0963 -0.2557
  264TMC3    C8 4003   1.757   0.729  10.916  0.1025 -0.3214 -0.2084
  264TMC3    O1 4004   2.067   0.491  10.666 -0.5002 -0.5567 -0.0819
  264TMC3    O2 4005   1.760   0.779  10.807  0.7391  0.3585 -0.0528
  265MPD2     C 4006   4.004   0.640  15.253  0.1254  0.3438  0.4046
  265MPD2    C1 4007   4.114   0.720  15.270 -0.4198  0.2570  0.3494
  265MPD2    C2 4008   4.219   0.713  15.176 -0.5453  0.3002  0.3275
  265MPD2    C3 4009   4.211   0.639  15.060  0.8954 -0.3487 -0.0466
  265MPD2    C4 4010   4.099   0.564  15.043 -0.5241  0.3112 -0.3654
  265MPD2    C5 4011   4.003   0.567  15.136  0.2915  0.1220 -0.7102
  265MPD2     H 4012   4.298   0.786  15.192 -2.6568  2.4036  1.3173
  265MPD2    H1 4013   4.085   0.504  14.954  0.0120  1.2755 -1.1026
  265MPD2    H2 4014   3.923   0.625  15.323  0.3406 -2.0866  0.1628
  265MPD2    H3 4015   3.912   0.509  15.126  1.7933 -2.1752 -1.1665
  265MPD2     N 4016   4.321   0.617  14.964 -0.6858  0.4206 -0.1084
  265MPD2    H5 4017   4.301   0.552  14.888  0.1754  0.1862 -0.1343
  265MPD2    N1 4018   4.133   0.802  15.377  0.8952 -0.3260  0.4309
  265MPD2    H7 4019   4.198   0.879  15.362  1.3967 -0.9541 -0.6745
  266TMC3    C1 4020   4.091   0.904  15.579 -0.2613  0.0683  0.2233
  266TMC3    C2 4021   4.064   0.874  15.710 -0.4324 -0.5598 -0.4783
  266TMC3    C3 4022   4.068   0.975  15.801 -0.3737  0.6015  0.0703
  266TMC3    C4 4023   4.121   1.028  15.524  0.5049  0.1755 -0.1303
  266TMC3    C5 4024   4.111   1.128  15.612  0.5185 -0.2908  0.1682
  266TMC3    C6 4025   4.091   1.101  15.754  0.4608  0.2326  1.2644
  266TMC3     C 4026   4.054   0.797  15.490  0.2343 -0.2304 -0.2928
  266TMC3     O 4027   3.973   0.714  15.521  0.2426  0.6504  0.0600
  266TMC3     H 4028   4.042   0.775  15.747 -0.0172 -0.7472 -0.7350
  266TMC3    H1 4029   4.132   1.053  15.419 -3.2754 -0.3366 -0.6584
  266TMC3    H2 4030   4.083   1.184  15.823 -0.5939  0.8564  0.3909
  266TMC3    C7 4031   4.156   1.253  15.565 -0.3091  0.7467 -0.1764
  266TMC3    C8 4032   4.026   0.955  15.939 -0.2403 -1.1326  0.4494
  266TMC3    O1 4033   4.135   1.276  15.448  0.2367 -0.4331 -0.5583
  266TMC3    O2 4034   3.954   0.860  15.958 -0.4023 -0.2342  0.2710
  267MPD2     C 4035   2.197   2.685  17.132 -0.9757 -0.0525  1.2040
  267MPD2    C1 4036   2.101   2.603  17.187  0.1045 -0.6495  0.4327
  267MPD2    C2 4037   2.004   2.557  17.104  0.4381  0.8061  0.1904
  267MPD2    C3 4038   1.999   2.588  16.972  0.0531  1.0708  0.1249
  267MPD2    C4 4039   2.105   2.666  16.915  0.2280 -0.5368 -0.6104
  267MPD2    C5 4040   2.201   2.714  16.996 -0.0534 -0.8231  0.1592
  267MPD2     H 4041   1.922   2.498  17.143 -0.5080  1.7866 -0.3184
  267MPD2    H1 4042   2.106   2.715  16.819  3.0623  0.1101 -0.2656
  267MPD2    H2 4043   2.281   2.725  17.188 -1.3407  1.1599  0.8918
  267MPD2    H3 4044   2.281   2.777  16.959  0.0272  1.0781  3.5435
  267MPD2     N 4045   1.899   2.535  16.881 -0.1508 -0.4587 -0.1300
  267MPD2    H5 4046   1.903   2.571  16.786  0.2715  1.8286  0.7461
  267MPD2    N1 4047   2.099   2.596  17.332  0.2851  0.6808  0.2422
  267MPD2    H7 4048   2.173   2.638  17.387  1.4361 -0.7345 -0.1976
  268TMC3    C1 4049   2.039   2.541  17.544 -0.4730  0.4505 -0.6799
  268TMC3    C2 4050   2.130   2.638  17.586 -0.4896 -0.0008 -0.7798
  268TMC3    C3 4051   2.187   2.630   0.016 -0.2455  0.2158  0.3671
  268TMC3    C4 4052   2.006   2.434  17.626  0.0215  0.2373 -0.5759
  268TMC3    C5 4053   2.067   2.423   0.053 -0.4624 -0.1606 -0.3797
  268TMC3    C6 4054   2.162   2.516   0.097 -0.6679  0.3403 -0.2035
  268TMC3     C 4055   2.007   2.529  17.405  0.0551  0.5264 -0.1045
  268TMC3     O 4056   1.932   2.439  17.368 -0.2095  0.0718 -0.3584
  268TMC3     H 4057   2.157   2.727  17.531  0.9169 -0.5350 -0.9596
  268TMC3    H1 4058   1.943   2.361  17.577  0.0047  0.1696 -0.4543
  268TMC3    H2 4059   2.214   2.503   0.191 -0.2553 -1.0602 -0.6205
  268TMC3    C7 4060   2.034   2.308   0.134  0.3802  0.1155 -0.1152
  268TMC3    C8 4061   2.280   2.732   0.066 -0.5468 -0.9536  0.5088
  268TMC3    O1 4062   2.112   2.282   0.225 -0.3707 -0.3918 -0.5825
  268TMC3    O2 4063   2.278   2.749   0.188  0.4378 -0.5562  0.0372
  269MPD2     C 4064   1.964   1.070  15.572  0.4673  0.3420  0.4302
  269MPD2    C1 4065   1.848   1.118  15.614 -0.2681  0.1522  0.2347
  269MPD2    C2 4066   1.812   1.244  15.574  0.3535 -0.1372  0.1351
  269MPD2    C3 4067   1.887   1.322  15.487 -0.4416 -0.6796 -0.1785
  269MPD2    C4 4068   2.002   1.262  15.431  0.6360 -0.3484 -0.0151
  269MPD2    C5 4069   2.041   1.145  15.488  0.3250  0.4308 -0.1870
  269MPD2     H 4070   1.720   1.285  15.613 -0.9579 -2.3888 -0.6576
  269MPD2    H1 4071   2.072   1.300  15.358  1.9067 -0.6254  1.0697
  269MPD2    H2 4072   1.991   0.971  15.605  0.5763  0.2805  0.1544
  269MPD2    H3 4073   2.129   1.091  15.455  0.9004  1.6909 -0.7006
  269MPD2     N 4074   1.834   1.452  15.454  0.6467  0.2279  0.0561
  269MPD2    H5 4075   1.747   1.478  15.498 -0.8090 -4.0966 -0.2831
  269MPD2    N1 4076   1.767   1.033  15.686 -0.8010  0.3535 -0.6363
  269MPD2    H7 4077   1.803   0.945  15.723 -0.4402 -0.2465 -2.4365
  270TMC3    C1 4078   1.588   0.938  15.791 -0.0661 -0.4485 -0.3479
  270TMC3    C2 4079   1.464   0.914  15.742 -0.7101  0.3182  0.0165
  270TMC3    C3 4080   1.437   0.789  15.696 -0.0762  0.4178 -0.5263
  270TMC3    C4 4081   1.676   0.830  15.790 -0.0546  0.0970 -0.2341
  270TMC3    C5 4082   1.637   0.709  15.742  0.4654  0.6571 -0.8067
  270TMC3    C6 4083   1.522   0.682  15.684 -0.0569 -1.0736 -0.1465
  270TMC3     C 4084   1.643   1.060  15.732 -0.2554 -0.0739  0.1773
  270TMC3     O 4085   1.563   1.147  15.699  0.5242 -0.1786 -0.1103
  270TMC3     H 4086   1.389   0.991  15.723 -1.8458 -0.9892 -0.8655
  270TMC3    H1 4087   1.770   0.836  15.844  1.8224 -2.5810 -3.2049
  270TMC3    H2 4088   1.486   0.583  15.658  1.0914 -0.9895 -2.0549
  270TMC3    C7 4089   1.736   0.609  15.722  0.2321 -0.2693 -0.1936
  270TMC3    C8 4090   1.310   0.762  15.642  0.1524  0.5306 -0.0268
  270TMC3    O1 4091   1.818   0.594  15.810  0.1260  0.1993 -0.1821
  270TMC3    O2 4092   1.213   0.828  15.675  0.5901  0.3978  0.2608
  271MPD2     C 4093   0.889   1.100  13.854 -0.3932  0.3381  0.0724
  271MPD2    C1 4094   0.795   1.052  13.949 -0.2134 -0.5926  0.2292
  271MPD2    C2 4095   0.665   1.090  13.926 -0.7348  0.5485  0.1134
  271MPD2    C3 4096   0.620   1.162  13.814  0.0877 -0.3693  0.1063
  271MPD2    C4 4097   0.718   1.209  13.725  0.3541 -0.4326 -0.3590
  271MPD2    C5 4098   0.846   1.173  13.748  0.0550  0.0348  0.1359
  271MPD2     H 4099   0.598   1.058  14.005 -0.4442 -0.2991  0.0208
  271MPD2    H1 4100   0.687   1.266  13.639  1.1416  0.2783 -0.1627
  271MPD2    H2 4101   0.996   1.085  13.863 -0.0967  2.5941  0.2565
  271MPD2    H3 4102   0.924   1.187  13.674  0.2553  1.2547  0.5748
  271MPD2     N 4103   0.483   1.188  13.796  0.3526 -0.0008 -0.7678
  271MPD2    H5 4104   0.419   1.152  13.866 -0.2793 -0.7111 -1.7078
  271MPD2    N1 4105   0.831   0.968  14.054  0.2659 -0.4237  0.2273
  271MPD2    H7 4106   0.762   0.946  14.125  0.9331  1.0086  1.3159
  272TMC3    C1 4107   0.968   0.823  14.183 -0.3336 -0.0676 -0.3401
  272TMC3    C2 4108   1.062   0.724  14.157  0.2192 -0.3138  0.3964
  272TMC3    C3 4109   1.120   0.659  14.268 -0.6213  0.9882 -0.6173
  272TMC3    C4 4110   0.949   0.853  14.309 -0.2698  1.0642 -0.0836
  272TMC3    C5 4111   1.000   0.778  14.419  0.6024 -0.1151 -0.1292
  272TMC3    C6 4112   1.090   0.680  14.403 -0.8762 -0.1848  0.6704
  272TMC3     C 4113   0.959   0.925  14.074  0.6057  0.1152 -0.0431
  272TMC3     O 4114   1.066   0.936  14.020  0.5708  0.5900  0.2069
  272TMC3     H 4115   1.108   0.722  14.059  0.5750  0.9683  0.5273
  272TMC3    H1 4116   0.901   0.948  14.332 -0.9197  1.1318 -1.6898
  272TMC3    H2 4117   1.129   0.627  14.488  0.8293 -1.3931 -0.8750
  272TMC3    C7 4118   0.952   0.801  14.551 -0.3440 -0.0646 -0.1550
  272TMC3    C8 4119   1.249   0.600  14.246  0.2403 -0.6232  0.2361
  272TMC3    O1 4120   0.836   0.759  14.572  0.1679  0.7399  0.4727
  272TMC3    O2 4121   1.310   0.622  14.142 -0.3479  0.3080  0.4336
  273MPD2     C 4122   2.337   3.228  12.031 -0.9762 -0.6291  0.4160
  273MPD2    C1 4123   2.460   3.210  11.970 -0.0539 -0.1906  0.0996
  273MPD2    C2 4124   2.478   3.254  11.844 -0.1763  0.1418  0.4653
  273MPD2    C3 4125   2.368   3.299  11.770 -0.3918  0.1920  0.3210
  273MPD2    C4 4126   2.250   3.302  11.829  0.2429  0.2943  0.4151
  273MPD2    C5 4127   2.227   3.269  11.959  0.0291  0.0379  0.4527
  273MPD2     H 4128   2.570   3.222  11.796 -0.7386 -1.7873  0.6855
  273MPD2    H1 4129   2.164   3.334  11.771 -0.4365 -0.9629  0.7365
  273MPD2    H2 4130   2.322   3.191  12.132  3.0635 -1.2885  0.7532
  273MPD2    H3 4131   2.125   3.266  11.997  0.2746 -0.9254  1.0352
  273MPD2     N 4132   2.374   3.343  11.632  0.0354  0.9762  0.4232
  273MPD2    H5 4133   2.297   3.400  11.598 -0.2405 -0.5697 -1.5532
  273MPD2    N1 4134   2.562   3.156  12.054 -0.1111 -0.1770  0.5575
  273MPD2    H7 4135   2.536   3.129  12.148 -4.3349 -2.2297 -1.1657
  274TMC3    C1 4136   2.480   3.462  11.469 -0.6174 -0.3202  0.1294
  274TMC3    C2 4137   2.355   3.488  11.428  0.4864  0.1701  0.3832
  274TMC3    C3 4138   2.340   3.621  11.393 -0.1146  0.4291 -0.2139
  274TMC3    C4 4139   2.588   3.545  11.470 -0.2781  0.0085 -0.3065
  274TMC3    C5 4140   2.567   3.675  11.439 -0.2716 -0.2025 -0.4503
  274TMC3    C6 4141   2.440   3.718  11.405  1.0779  0.0441 -0.7876
  274TMC3     C 4142   2.492   3.361  11.567  0.0067 -0.9185  0.1420
  274TMC3     O 4143   2.606   3.311  11.581 -0.1047  0.2274  0.1459
  274TMC3     H 4144   2.289   3.402  11.423 -1.2884  1.6609 -1.5417
  274TMC3    H1 4145   2.682   3.525  11.519 -1.1330 -3.1420  0.0088
  274TMC3    H2 4146   2.426   3.809  11.348  1.1246 -0.4552 -1.5971
  274TMC3    C7 4147   2.673   3.762  11.479  0.1735 -0.8347 -0.2488
  274TMC3    C8 4148   2.253   3.657  11.290  0.2162  0.6814 -0.0559
  274TMC3    O1 4149   2.786   3.720  11.462  0.5354 -0.0460 -0.2978
  274TMC3    O2 4150   2.284   3.752  11.216  0.7347 -0.0623  0.4827
  275MPD2     C 4151   2.632   1.774  14.629 -0.2730 -0.6819 -0.5918
  275MPD2    C1 4152   2.574   1.673  14.702  0.3486  0.0053  0.6843
  275MPD2    C2 4153   2.452   1.618  14.654  0.9884  0.1534 -0.5109
  275MPD2    C3 4154   2.393   1.661  14.540 -0.1835  0.2413 -0.5014
  275MPD2    C4 4155   2.462   1.756  14.465  0.5691 -0.0181 -0.9250
  275MPD2    C5 4156   2.580   1.814  14.512  0.5146  1.1043  0.4480
  275MPD2     H 4157   2.405   1.541  14.713 -0.0556  1.9575  0.9922
  275MPD2    H1 4158   2.411   1.805  14.382  0.4290  2.0442  0.3911
  275MPD2    H2 4159   2.717   1.831  14.663 -0.0587 -1.9121  0.9483
  275MPD2    H3 4160   2.628   1.894  14.456 -0.2619  0.0386 -1.7450
  275MPD2     N 4161   2.262   1.628  14.501  0.1041  0.5248 -0.2602
  275MPD2    H5 4162   2.235   1.660  14.409 -1.8142 -2.2395 -0.6745
  275MPD2    N1 4163   2.633   1.626  14.822 -0.6448 -0.0626 -0.2947
  275MPD2    H7 4164   2.594   1.542  14.864  1.5780  0.1885  2.2493
  276TMC3    C1 4165   2.752   1.643  15.012 -0.4066  0.2843  0.3067
  276TMC3    C2 4166   2.776   1.513  15.011 -0.4540  0.1228  0.5608
  276TMC3    C3 4167   2.834   1.456  15.117  0.6591 -0.7247 -0.1432
  276TMC3    C4 4168   2.790   1.727  15.112 -0.5148 -0.3152 -0.2945
  276TMC3    C5 4169   2.853   1.669  15.218 -1.0296  0.0604  0.3065
  276TMC3    C6 4170   2.870   1.535  15.224  0.7507  0.5795  0.0023
  276TMC3     C 4171   2.718   1.702  14.888 -1.5243 -0.1647 -0.4411
  276TMC3     O 4172   2.741   1.823  14.890 -0.1148 -0.8063 -0.1345
  276TMC3     H 4173   2.779   1.454  14.920  0.4080 -0.8500  1.2242
  276TMC3    H1 4174   2.754   1.829  15.107 -1.6019 -0.7498 -1.4463
  276TMC3    H2 4175   2.923   1.488  15.306 -1.8307  0.0752  1.3542
  276TMC3    C7 4176   2.924   1.759  15.307 -0.7486 -0.0743  0.6931
  276TMC3    C8 4177   2.882   1.323  15.097 -0.5837 -0.1880  0.7353
  276TMC3    O1 4178   3.001   1.715  15.392  0.2408  0.4280 -0.5068
  276TMC3    O2 4179   2.988   1.296  15.149  0.2096  0.4777  0.6003
  277MPD2     C 4180   4.191   0.587  13.527 -0.5471 -0.5196  0.3219
  277MPD2    C1 4181   4.064   0.546  13.504  0.3802  0.1226 -0.1627
  277MPD2    C2 4182   3.991   0.483  13.604  0.3249  0.3067  0.1171
  277MPD2    C3 4183   4.037   0.467  13.733  0.0870  0.6245  0.6277
  277MPD2    C4 4184   4.157   0.534  13.766 -1.0356 -0.1054  0.1937
  277MPD2    C5 4185   4.233   0.580  13.658 -0.4589 -0.2646  0.8630
  277MPD2     H 4186   3.888   0.452  13.588 -1.0189  3.1228  3.2544
  277MPD2    H1 4187   4.210   0.527  13.860  0.3454  2.7133 -0.3723
  277MPD2    H2 4188   4.248   0.637  13.450  0.6799 -1.2195  0.7908
  277MPD2    H3 4189   4.329   0.615  13.694  0.0682  0.6527 -1.4404
  277MPD2     N 4190   3.959   0.387  13.822  0.3365 -0.0616  0.1929
  277MPD2    H5 4191   3.882   0.342  13.772  0.7228 -1.7503  1.0977
  277MPD2    N1 4192   4.016   0.569  13.373  0.0496 -0.4813 -0.3327
  277MPD2    H7 4193   4.081   0.631  13.327  1.6613 -2.4643 -0.7236
  278TMC3    C1 4194   3.885   0.270  14.006  0.6327  0.5426  0.2785
  278TMC3    C2 4195   3.817   0.182  13.932  0.2717 -0.1891  0.9419
  278TMC3    C3 4196   3.723   0.098  13.988 -0.5446  0.6870  0.1257
  278TMC3    C4 4197   3.862   0.278  14.142 -0.1782  0.0670  0.2051
  278TMC3    C5 4198   3.759   0.203  14.191 -0.0547  0.2891  0.3812
  278TMC3    C6 4199   3.680   0.119  14.117 -0.9780  0.4204 -0.2175
  278TMC3     C 4200   3.987   0.354  13.955  0.4826 -0.3121  0.0303
  278TMC3     O 4201   4.074   0.384  14.032 -0.2209  0.1888  0.2376
  278TMC3     H 4202   3.859   0.167  13.833 -2.2981  2.2523 -0.5370
  278TMC3    H1 4203   3.907   0.351  14.208 -1.4830  1.2758 -0.2337
  278TMC3    H2 4204   3.608   0.058  14.170  0.8945 -2.0980 -0.5590
  278TMC3    C7 4205   3.699   0.264  14.305 -0.4887 -0.2434 -0.4092
  278TMC3    C8 4206   3.678   4.707  13.918 -0.4877  0.0541 -0.3304
  278TMC3    O1 4207   3.773   0.300  14.395  0.5949  0.4052  0.1647
  278TMC3    O2 4208   3.646   4.604  13.976  0.1548 -0.1524  0.3469
  279MPD2     C 4209   3.707   0.817   0.022 -0.0639  0.0309 -0.1017
  279MPD2    C1 4210   3.634   0.709  17.686  0.6327 -0.2627  0.0930
  279MPD2    C2 4211   3.643   0.652  17.561 -0.8851  0.1671 -0.0947
  279MPD2    C3 4212   3.745   0.691  17.475  0.5170 -0.4544 -0.2156
  279MPD2    C4 4213   3.820   0.801  17.511 -0.2057  0.4177 -0.7823
  279MPD2    C5 4214   3.806   0.868  17.640  0.1102 -0.8852 -0.7512
  279MPD2     H 4215   3.576   0.569  17.542 -2.9997  1.7488  0.4995
  279MPD2    H1 4216   3.893   0.841  17.442  0.3989  0.5239 -0.0782
  279MPD2    H2 4217   3.697   0.854   0.124 -2.1188  1.4309 -0.8203
  279MPD2    H3 4218   3.875   0.946  17.670  0.1826 -0.8762 -0.9432
  279MPD2     N 4219   3.769   0.637  17.347 -0.8151 -0.9143  0.2703
  279MPD2    H5 4220   3.856   0.659  17.299 -1.6458  0.6649 -0.4932
  279MPD2    N1 4221   3.542   0.670   0.083 -0.0700 -0.1631 -0.1576
  279MPD2    H7 4222   3.544   0.720   0.171 -2.8682  1.7447 -1.1910
  280TMC3    C1 4223   3.358   0.580   0.170 -0.0051 -0.3110  0.2273
  280TMC3    C2 4224   3.259   0.489   0.136 -0.8340  0.2158  0.1037
  280TMC3    C3 4225   3.134   0.536   0.094 -0.4755  0.0114  0.3284
  280TMC3    C4 4226   3.328   0.717   0.174 -0.4839  0.5105  0.0734
  280TMC3    C5 4227   3.201   0.760   0.130  0.5586 -0.5225 -0.3216
  280TMC3    C6 4228   3.106   0.669   0.091  0.1284  0.6606 -0.0060
  280TMC3     C 4229   3.472   0.551   0.096  0.2693 -0.0963 -0.3265
  280TMC3     O 4230   3.460   0.463   0.014  0.4009 -0.2911 -0.3493
  280TMC3     H 4231   3.280   0.383   0.146 -1.2157  0.2392  1.2026
  280TMC3    H1 4232   3.400   0.798   0.184  1.1270 -0.5417 -2.8267
  280TMC3    H2 4233   3.011   0.702   0.052  0.8810 -0.0784 -2.4941
  280TMC3    C7 4234   3.164   0.902   0.153  0.9635  0.4151 -0.3795
  280TMC3    C8 4235   3.098   0.479  17.669 -0.2934  0.4573  0.5376
  280TMC3    O1 4236   3.214   0.950   0.252  0.0769 -0.0374  0.4224
  280TMC3    O2 4237   2.988   0.512  17.622  0.3850 -0.3276  0.6908
  281TMC3    C1 4238   2.117   1.320  13.376  0.0230 -0.3686  0.4520
  281TMC3    C2 4239   2.143   1.376  13.258  0.4942  0.2235 -0.5871
  281TMC3    C3 4240   2.224   1.304  13.176  0.0647  0.9580  0.0822
  281TMC3    C4 4241   2.179   1.203  13.425 -0.0410 -0.6836  0.0653
  281TMC3    C5 4242   2.250   1.130  13.333 -0.3947 -0.1772  0.5437
  281TMC3    C6 4243   2.276   1.181  13.215 -0.5851  0.4354 -0.4156
  281TMC3     C 4244   1.977   1.315  13.402 -0.3643 -0.1968  0.2242
  281TMC3     O 4245   1.941   1.243  13.492 -0.3212  0.0562  0.6090
  281TMC3     H 4246   2.091   1.460  13.215  1.4196  0.8349 -0.5145
  281TMC3    H1 4247   2.148   1.169  13.523  0.7086 -1.6346 -0.0283
  281TMC3    H2 4248   2.337   1.130  13.141 -2.1773 -2.3952  0.2193
  281TMC3    C7 4249   2.208   0.994  13.322 -0.0200  0.2678 -0.8109
  281TMC3    C8 4250   2.156   1.288  13.049  0.7398 -0.3411  0.0274
  281TMC3    O1 4251   2.247   0.933  13.227  0.3041  0.2627 -0.3819
  281TMC3    O2 4252   2.112   1.172  13.027  0.0990 -0.3237 -0.1245
  282MPD2     C 4253   4.276   2.553  15.157  0.1261  0.3963  0.4039
  282MPD2    C1 4254   4.150   2.588  15.197 -0.7059 -0.3790  0.5827
  282MPD2    C2 4255   4.043   2.590  15.113 -0.3866  0.0033 -0.0058
  282MPD2    C3 4256   4.068   2.569  14.981 -0.0158  0.0896 -0.8514
  282MPD2    C4 4257   4.190   2.521  14.937 -0.5823  0.3259  0.1341
  282MPD2    C5 4258   4.292   2.519  15.031  0.1234  0.3631 -0.6005
  282MPD2     H 4259   3.947   2.626  15.149 -0.2439 -0.2190  0.5871
  282MPD2    H1 4260   4.214   2.483  14.838 -4.1611 -1.8574  0.1153
  282MPD2    H2 4261   4.363   2.560  15.220  0.9223  0.4056 -0.6994
  282MPD2    H3 4262   4.387   2.478  15.000  0.5004  1.2951 -0.6863
  282MPD2     N 4263   3.962   2.590  14.885  0.0190  0.0351 -0.4612
  282MPD2    H5 4264   3.876   2.626  14.924  0.5603  0.1794  0.6022
  282MPD2    N1 4265   4.121   2.594  15.335  0.4214 -0.1304  0.1615
  282MPD2    H7 4266   4.025   2.622  15.352  0.2555 -0.8949  0.4821
  283TMC3    C1 4267   4.152   2.608  15.563 -0.4420  0.3819  0.4426
  283TMC3    C2 4268   4.095   2.731  15.556 -0.2753  0.7095  0.1602
  283TMC3    C3 4269   4.039   2.767  15.677 -0.4709  0.3234  0.5153
  283TMC3    C4 4270   4.165   2.523  15.668 -0.1520  0.0432  0.4080
  283TMC3    C5 4271   4.089   2.562  15.774  0.0062  0.4376 -0.3140
  283TMC3    C6 4272   4.032   2.683  15.787 -0.4752 -0.3972  0.5224
  283TMC3     C 4273   4.198   2.556  15.439  0.1574  0.2185  0.0562
  283TMC3     O 4274   4.315   2.521  15.438 -0.0931 -0.5233 -0.2143
  283TMC3     H 4275   4.107   2.799  15.472 -1.5184 -0.5883 -1.0679
  283TMC3    H1 4276   4.230   2.437  15.671 -0.1696  0.0576  1.0635
  283TMC3    H2 4277   3.978   2.717  15.875  0.5881 -0.4043  1.1685
  283TMC3    C7 4278   4.046   2.459  15.872 -0.5883  0.8394 -0.7711
  283TMC3    C8 4279   4.022   2.909  15.709 -0.2951  0.2246 -0.0968
  283TMC3    O1 4280   3.995   2.503  15.973 -0.4137 -0.1743  0.4182
  283TMC3    O2 4281   4.044   2.941  15.827 -0.2983 -0.2880  0.0565
  284MPD2     C 4282   2.145   1.822  11.874 -0.1685  0.1867 -0.7000
  284MPD2    C1 4283   2.161   1.752  11.759  0.4277  0.3302 -0.1079
  284MPD2    C2 4284   2.089   1.642  11.736  0.2090  0.5976  0.1120
  284MPD2    C3 4285   2.014   1.585  11.835 -0.4583 -0.4065 -0.4522
  284MPD2    C4 4286   1.991   1.649  11.954 -0.4925  0.4314 -0.5588
  284MPD2    C5 4287   2.060   1.768  11.968  0.1754  0.3516  0.3706
  284MPD2     H 4288   2.096   1.595  11.639  1.4440 -0.7767  0.8677
  284MPD2    H1 4289   1.923   1.599  12.022 -1.1007  0.4138 -1.1736
  284MPD2    H2 4290   2.188   1.921  11.887 -2.3980  0.9057  1.2664
  284MPD2    H3 4291   2.049   1.819  12.063 -1.8488 -2.2926  1.5664
  284MPD2     N 4292   1.941   1.463  11.821 -0.5033  0.3316  0.1146
  284MPD2    H5 4293   1.882   1.440  11.900 -0.6768  0.1337 -0.0726
  284MPD2    N1 4294   2.246   1.793  11.657 -0.1490 -0.3622 -0.4559
  284MPD2    H7 4295   2.246   1.729  11.577 -0.6859  1.3374 -1.8148
  285TMC3    C1 4296   2.408   1.924  11.537 -0.1480  0.5357 -0.7514
  285TMC3    C2 4297   2.339   1.907  11.423 -0.3907 -0.1026 -0.7784
  285TMC3    C3 4298   2.411   1.941  11.310 -0.2890 -0.3525 -0.4472
  285TMC3    C4 4299   2.533   1.982  11.548 -0.2969  0.3275 -0.2646
  285TMC3    C5 4300   2.593   2.022  11.435 -0.3017 -0.5173 -0.0112
  285TMC3    C6 4301   2.533   2.005  11.314 -0.2421 -0.4474  0.6609
  285TMC3     C 4302   2.336   1.902  11.656  0.2005  0.4020  0.2735
  285TMC3     O 4303   2.355   1.988  11.740 -0.2594 -0.4774 -0.0003
  285TMC3     H 4304   2.234   1.880  11.416  0.2504 -2.6457 -0.4645
  285TMC3    H1 4305   2.573   2.000  11.647  0.2109 -1.2894 -0.1710
  285TMC3    H2 4306   2.595   2.021  11.226 -0.7482 -0.4685  0.3032
  285TMC3    C7 4307   2.687   2.133  11.444 -0.1801  0.2561 -0.4423
  285TMC3    C8 4308   2.350   1.893  11.180 -0.4503  0.4674 -0.1730
  285TMC3    O1 4309   2.786   2.122  11.516 -0.5754  0.7276  0.5988
  285TMC3    O2 4310   2.257   1.814  11.193 -0.5672  0.4514 -0.0312
  286MPD2     C 4311   3.112   1.400   1.634 -0.0152  0.2701 -0.2988
  286MPD2    C1 4312   3.053   1.321   1.536  0.7288  0.2077  0.2401
  286MPD2    C2 4313   3.145   1.238   1.471  0.3600  0.0210 -0.1491
  286MPD2    C3 4314   3.273   1.223   1.511  0.0548 -0.2064 -0.4138
  286MPD2    C4 4315   3.317   1.300   1.619  0.5059 -0.7333  0.8096
  286MPD2    C5 4316   3.242   1.397   1.670  0.2505  0.2204  0.2144
  286MPD2     H 4317   3.116   1.186   1.380 -1.5059  0.8014  0.0175
  286MPD2    H1 4318   3.416   1.285   1.662  0.9391 -2.9531 -0.9108
  286MPD2    H2 4319   3.056   1.471   1.694  1.2855  1.4213 -0.4469
  286MPD2    H3 4320   3.274   1.461   1.752 -2.8827 -0.4204  1.9356
  286MPD2     N 4321   3.369   1.141   1.446  0.6712  0.2296  0.1064
  286MPD2    H5 4322   3.467   1.153   1.471  0.1207  1.9456  1.4705
  286MPD2    N1 4323   2.920   1.325   1.495  0.0205 -0.3007  0.5656
  286MPD2    H7 4324   2.896   1.269   1.414  0.3977 -1.5332  1.2976
  287TMC3    C1 4325   3.447   0.962   1.305  0.3946  0.3158  0.2895
  287TMC3    C2 4326   3.427   0.872   1.204  0.0480 -0.4888  0.1179
  287TMC3    C3 4327   3.518   0.786   1.167  0.4154 -0.5562  0.5661
  287TMC3    C4 4328   3.565   0.956   1.374 -0.2534 -0.1038 -0.3384
  287TMC3    C5 4329   3.656   0.853   1.347 -0.0343  0.7170 -0.4339
  287TMC3    C6 4330   3.637   0.773   1.236 -0.0916  0.5602 -0.2802
  287TMC3     C 4331   3.339   1.055   1.342  0.2768  0.4477 -0.2150
  287TMC3     O 4332   3.229   1.038   1.291  0.2762  0.3303 -0.0894
  287TMC3     H 4333   3.337   0.875   1.144 -0.5942 -0.2103  1.0979
  287TMC3    H1 4334   3.583   1.008   1.467 -0.3337 -0.0468 -0.3551
  287TMC3    H2 4335   3.712   0.700   1.209 -1.0356 -0.9914  1.3080
  287TMC3    C7 4336   3.771   0.837   1.436 -0.5269  0.3613  0.1535
  287TMC3    C8 4337   3.457   0.667   1.098 -0.1220 -0.1856  0.3417
  287TMC3    O1 4338   3.786   0.920   1.521  0.0744  0.2199  0.3576
  287TMC3    O2 4339   3.331   0.666   1.091 -0.4609 -0.3660 -0.0906
  288TMC3    C1 4340   4.132   0.245  14.393  0.8344  0.0169  0.6309
  288TMC3    C2 4341   4.086   0.212  14.521  0.0684  0.0420 -0.0528
  288TMC3    C3 4342   4.071   0.304  14.615  0.2835  0.0378  0.3885
  288TMC3    C4 4343   4.172   0.371  14.367 -0.0220  0.2210  0.3291
  288TMC3    C5 4344   4.165   0.465  14.466 -0.7981  0.0493  0.4423
  288TMC3    C6 4345   4.108   0.433  14.589 -0.1174  0.4621  0.4605
  288TMC3     C 4346   4.165   0.149  14.284 -0.4088 -0.5299 -0.3389
  288TMC3     O 4347   4.258   0.185  14.210 -0.4555 -0.6048 -0.1641
  288TMC3     H 4348   4.065   0.107  14.539 -0.2672  0.5359  2.4523
  288TMC3    H1 4349   4.193   0.398  14.265 -1.8535  1.0634  0.1817
  288TMC3    H2 4350   4.090   0.509  14.664  2.8770 -2.0142  3.6431
  288TMC3    C7 4351   4.244   0.584  14.469  0.1567 -1.0376 -0.5283
  288TMC3    C8 4352   4.076   0.261  14.752  0.6759 -0.0535  0.1788
  288TMC3    O1 4353   4.231   0.661  14.564 -0.6799  0.3271 -0.1819
  288TMC3    O2 4354   4.162   0.314  14.823 -0.8020 -0.0028  0.1845
  289MPD2     C 4355   4.326   4.197  13.938  0.2581  0.0709  0.0551
  289MPD2    C1 4356   4.301   4.247  14.063  0.8470  0.3767 -0.2110
  289MPD2    C2 4357   4.184   4.233  14.134  0.1610 -0.3694 -0.5217
  289MPD2    C3 4358   4.078   4.184  14.066 -0.5184 -0.8983  0.3339
  289MPD2    C4 4359   4.097   4.141  13.931 -0.1297 -0.6327  0.3428
  289MPD2    C5 4360   4.221   4.145  13.873  0.6270  0.0920  0.6619
  289MPD2     H 4361   4.165   4.261  14.237 -0.0431  0.7146 -0.8585
  289MPD2    H1 4362   4.017   4.093  13.876  0.4882 -1.2853  0.0218
  289MPD2    H2 4363   4.421   4.217  13.888  0.3718 -0.3716  0.0928
  289MPD2    H3 4364   4.238   4.113  13.771  1.3007 -0.6076  0.9980
  289MPD2     N 4365   3.946   4.154  14.119 -0.2327 -0.6907 -0.2554
  289MPD2    H5 4366   3.869   4.122  14.061 -0.3721  2.7182 -1.9222
  289MPD2    N1 4367   4.416   4.299  14.120 -0.4129 -0.6845 -0.3671
  289MPD2    H7 4368   4.504   4.286  14.072 -0.6231 -1.0049 -0.6652
  290TMC3    C1 4369   3.769   4.185  14.268  0.3017  0.8728 -1.0772
  290TMC3    C2 4370   3.707   4.290  14.335  0.1448  0.3942  0.5565
  290TMC3    C3 4371   3.570   4.270  14.348  0.5814  0.0339  0.2448
  290TMC3    C4 4372   3.706   4.066  14.231 -0.2101 -0.0136  0.1626
  290TMC3    C5 4373   3.576   4.054  14.268  0.3654  0.2089 -0.3217
  290TMC3    C6 4374   3.505   4.157  14.314 -0.2677  0.0146  0.8412
  290TMC3     C 4375   3.909   4.188  14.245 -0.1331  0.4499  0.3668
  290TMC3     O 4376   3.970   4.246  14.336  0.2808  0.5641 -0.2918
  290TMC3     H 4377   3.763   4.378  14.365  0.2636  1.4288 -2.6934
  290TMC3    H1 4378   3.760   3.990  14.176  0.1098  1.0456 -0.9843
  290TMC3    H2 4379   3.398   4.156  14.330 -0.5341 -0.1478 -1.0470
  290TMC3    C7 4380   3.495   3.933  14.270  1.1822  0.3841  0.6308
  290TMC3    C8 4381   3.482   4.384  14.374  0.1469 -0.1601  0.1632
  290TMC3    O1 4382   3.379   3.950  14.287 -0.3537 -0.0376 -0.3694
  290TMC3    O2 4383   3.375   4.384  14.313 -0.9858  0.1545  0.0727
  291MPD2     C 4384   4.003   3.947   0.648  0.0317  0.8329  0.3870
  291MPD2    C1 4385   3.935   3.855   0.577  0.0239  0.1090  0.0259
  291MPD2    C2 4386   3.944   3.855   0.442  0.1652  0.9464  0.0807
  291MPD2    C3 4387   4.011   3.949   0.370 -0.0442 -0.0675  0.1749
  291MPD2    C4 4388   4.087   4.041   0.445  0.1189  0.1659 -0.1286
  291MPD2    C5 4389   4.077   4.045   0.581  0.2986 -0.0077 -0.1007
  291MPD2     H 4390   3.889   3.778   0.390  1.7270  0.1753 -0.4328
  291MPD2    H1 4391   4.151   4.115   0.399 -0.4561  0.2327 -0.8305
  291MPD2    H2 4392   4.001   3.951   0.757 -0.0127  1.9704  0.3410
  291MPD2    H3 4393   4.147   4.107   0.636  0.4994  0.7021 -1.1714
  291MPD2     N 4394   4.007   3.963   0.232 -0.7742  0.2435  0.7597
  291MPD2    H5 4395   4.029   4.056   0.199 -0.2672 -0.6202 -1.3720
  291MPD2    N1 4396   3.852   3.757   0.635  0.3153 -1.3201  0.2421
  291MPD2    H7 4397   3.809   3.688   0.575 -1.5720  0.8584 -0.9174
  292TMC3    C1 4398   3.706   3.660   0.798  0.7994  0.5753 -0.3612
  292TMC3    C2 4399   3.643   3.659   0.920  0.9800  0.7433 -0.1332
  292TMC3    C3 4400   3.546   3.566   0.947  0.9901  0.1321  0.3987
  292TMC3    C4 4401   3.674   3.560   0.702  0.8429  0.2212 -0.1015
  292TMC3    C5 4402   3.565   3.482   0.735 -0.3075 -0.7323 -0.2488
  292TMC3    C6 4403   3.500   3.479   0.854 -0.0549 -0.3910  0.2905
  292TMC3     C 4404   3.814   3.756   0.769  0.2127  0.1102  1.0238
  292TMC3     O 4405   3.852   3.828   0.859 -0.4960 -0.5152  0.2809
  292TMC3     H 4406   3.672   3.736   0.990  1.0994  0.1628  0.4559
  292TMC3    H1 4407   3.708   3.560   0.599 -0.3708  1.2112 -0.5148
  292TMC3    H2 4408   3.427   3.402   0.875  0.6785  0.0430  4.3410
  292TMC3    C7 4409   3.535   3.380   0.633  0.5202 -0.2737 -0.4488
  292TMC3    C8 4410   3.449   3.595   1.052 -0.3193 -1.1154  0.2900
  292TMC3    O1 4411   3.612   3.353   0.545  0.2133 -0.1334 -0.1236
  292TMC3    O2 4412   3.335   3.554   1.030  0.0223  0.1717  0.5202
  293MPD2     C 4413   0.663   0.715  12.406  0.8678  0.1332  0.1980
  293MPD2    C1 4414   0.572   0.646  12.483  0.3417  0.2595  0.2885
  293MPD2    C2 4415   0.611   0.618  12.615  0.1400  0.2918 -0.1756
  293MPD2    C3 4416   0.731   0.666  12.667 -0.5544 -0.4397  0.0809
  293MPD2    C4 4417   0.820   0.725  12.583 -0.2924 -0.1730 -0.2480
  293MPD2    C5 4418   0.788   0.755  12.454 -0.4050 -0.3308 -0.1617
  293MPD2     H 4419   0.541   0.573  12.684  1.4922 -0.0203  1.0018
  293MPD2    H1 4420   0.921   0.758  12.603 -0.4728 -0.5478  1.3226
  293MPD2    H2 4421   0.640   0.763  12.312  1.1742 -1.2316 -0.5802
  293MPD2    H3 4422   0.850   0.815  12.389 -0.5250 -0.5097 -0.4418
  293MPD2     N 4423   0.758   0.654  12.806  0.3632 -0.1172  0.1973
  293MPD2    H5 4424   0.691   0.598  12.858  1.7300 -1.4790  0.5139
  293MPD2    N1 4425   0.446   0.621  12.427 -0.8507 -0.4351 -0.2616
  293MPD2    H7 4426   0.433   0.652  12.331 -1.9328  0.2815  0.1194
  294TMC3    C1 4427   0.256   0.491  12.388 -0.6563  0.2486 -0.0484
  294TMC3    C2 4428   0.212   0.364  12.376  0.3096  0.5540  0.1980
  294TMC3    C3 4429   0.118   0.333  12.273  0.1312 -0.3505 -0.0428
  294TMC3    C4 4430   0.216   0.588  12.296 -0.4461  0.5051  0.1117
  294TMC3    C5 4431   0.135   0.551  12.191  0.2683 -0.0813  0.5852
  294TMC3    C6 4432   0.092   0.422  12.175  0.3315  0.2396  0.4982
  294TMC3     C 4433   0.362   0.528  12.481  0.1513 -0.7581 -1.0336
  294TMC3     O 4434   0.366   0.460  12.585 -0.1460  0.8533  0.4407
  294TMC3     H 4435   0.242   0.286  12.446  1.9432  1.5363  0.5860
  294TMC3    H1 4436   0.231   0.695  12.311  3.1359  0.0183  0.1605
  294TMC3    H2 4437   0.018   0.398  12.099 -0.6747  0.3945  1.4177
  294TMC3    C7 4438   0.132   0.637  12.079  0.0030  0.0269 -0.7787
  294TMC3    C8 4439   0.068   0.195  12.273 -0.9483  0.4707 -0.7215
  294TMC3    O1 4440   0.131   0.758  12.093  0.8098  0.2789  0.4730
  294TMC3    O2 4441   0.132   0.110  12.333 -0.1835 -0.2575 -0.1645
  295MPD2     C 4442   0.248   3.655   0.444 -0.4266 -0.0193 -0.1563
  295MPD2    C1 4443   0.359   3.737   0.456  0.3822  0.1570 -0.0538
  295MPD2    C2 4444   0.409   3.762   0.586 -0.0628 -0.2005 -0.7169
  295MPD2    C3 4445   0.335   3.732   0.695  0.1609 -0.2168  0.1636
  295MPD2    C4 4446   0.219   3.663   0.676 -0.6396 -0.0463  0.1941
  295MPD2    C5 4447   0.182   3.616   0.556 -0.3785  0.7876 -0.8561
  295MPD2     H 4448   0.504   3.813   0.599  0.1955 -1.4774  2.4873
  295MPD2    H1 4449   0.162   3.641   0.765 -1.4132  0.7570 -0.0998
  295MPD2    H2 4450   0.206   3.630   0.348  0.8736  1.1861 -1.0332
  295MPD2    H3 4451   0.099   3.547   0.546 -0.8756  1.5105 -1.6727
  295MPD2     N 4452   0.375   3.756   0.834 -0.8102  0.0336  0.5799
  295MPD2    H5 4453   0.314   3.734   0.912  0.5347 -0.0342  1.6059
  295MPD2    N1 4454   0.437   3.783   0.346  0.8842 -0.2388  0.2007
  295MPD2    H7 4455   0.520   3.835   0.374  0.9891  0.3626 -1.2344
  296TMC3    C1 4456   0.502   3.869   1.008 -0.5868  0.4034 -0.2857
  296TMC3    C2 4457   0.623   3.921   1.048 -1.1950  0.5256  0.1635
  296TMC3    C3 4458   0.631   4.013   1.155  0.7731  0.3135 -0.8350
  296TMC3    C4 4459   0.389   3.896   1.076 -0.5208  0.9297 -0.1587
  296TMC3    C5 4460   0.394   3.989   1.172 -0.0370  0.0277 -0.4581
  296TMC3    C6 4461   0.509   4.053   1.212 -0.6264 -1.2939 -0.3964
  296TMC3     C 4462   0.494   3.817   0.870 -0.2057  0.2663 -0.5870
  296TMC3     O 4463   0.594   3.843   0.802 -0.5366 -0.2801  0.5877
  296TMC3     H 4464   0.721   3.894   1.010 -0.9567 -1.0404  1.8708
  296TMC3    H1 4465   0.293   3.864   1.038 -1.4359  3.3088  0.1551
  296TMC3    H2 4466   0.502   4.134   1.284  1.8245 -0.1937 -1.3892
  296TMC3    C7 4467   0.284   3.981   1.267  0.3072 -0.5154  0.1179
  296TMC3    C8 4468   0.742   4.098   1.133 -0.1276 -0.6518  0.3841
  296TMC3    O1 4469   0.176   3.961   1.214  0.7566  0.2753  0.1882
  296TMC3    O2 4470   0.790   4.092   1.018 -0.5455 -0.4894 -0.0368
  297MPD2     C 4471   3.282   1.171  16.150  0.1476 -0.4627  0.9367
  297MPD2    C1 4472   3.280   1.305  16.132 -0.3310 -0.2083 -0.8445
  297MPD2    C2 4473   3.374   1.387  16.192  0.5602 -0.0800 -0.3202
  297MPD2    C3 4474   3.469   1.344  16.281  0.2640 -0.5101  0.3820
  297MPD2    C4 4475   3.477   1.208  16.288  0.4330 -0.5570 -0.0150
  297MPD2    C5 4476   3.389   1.128  16.223 -0.4549 -0.6587 -0.9047
  297MPD2     H 4477   3.365   1.492  16.165 -1.4739  0.3345  1.9043
  297MPD2    H1 4478   3.554   1.172  16.355  1.1191  0.5678 -0.2009
  297MPD2    H2 4479   3.213   1.100  16.106  3.2003 -1.5368 -2.1014
  297MPD2    H3 4480   3.406   1.021  16.223 -1.6838 -0.8584 -0.6732
  297MPD2     N 4481   3.557   1.438  16.343 -0.3836 -0.0708 -1.2373
  297MPD2    H5 4482   3.542   1.537  16.330 -0.8896  0.2961  2.0069
  297MPD2    N1 4483   3.179   1.369  16.053  1.0584  0.2774 -0.2677
  297MPD2    H7 4484   3.190   1.470  16.050 -4.0889  0.8050 -0.1029
  298TMC3    C1 4485   2.975   1.391  15.926  0.3802 -0.2676 -0.4548
  298TMC3    C2 4486   2.931   1.369  15.800  0.5776  0.0246  0.3077
  298TMC3    C3 4487   2.842   1.461  15.748 -0.1744 -0.2681 -0.3633
  298TMC3    C4 4488   2.927   1.482  16.016 -0.3048 -0.2659 -0.5490
  298TMC3    C5 4489   2.838   1.573  15.960 -0.6179  0.0862  0.2852
  298TMC3    C6 4490   2.796   1.561  15.831  0.2480 -0.2532 -0.0165
  298TMC3     C 4491   3.081   1.307  15.970  0.1996  0.2345  0.2470
  298TMC3     O 4492   3.072   1.191  15.938 -0.1515 -0.4534  0.0736
  298TMC3     H 4493   2.980   1.300  15.733 -0.5504  0.6958 -1.2091
  298TMC3    H1 4494   2.974   1.493  16.114  0.7330 -0.3971 -1.0322
  298TMC3    H2 4495   2.729   1.632  15.784 -0.4223  0.2563  1.7034
  298TMC3    C7 4496   2.839   1.700  16.021  0.1664 -0.2242 -0.2679
  298TMC3    C8 4497   2.775   1.442  15.621  0.2911 -0.4970 -0.6035
  298TMC3    O1 4498   2.878   1.708  16.136  0.4063  0.3478  0.1882
  298TMC3    O2 4499   2.680   1.521  15.593  0.2478 -0.3182  0.2440
  299MPD2     C 4500   3.104   1.226  10.533 -0.7282 -0.1801 -0.3198
  299MPD2    C1 4501   3.181   1.278  10.430 -0.3982  0.1239  0.1570
  299MPD2    C2 4502   3.134   1.293  10.300 -0.0723 -0.5260 -0.2117
  299MPD2    C3 4503   3.020   1.223  10.261  0.9667 -0.5937 -0.1863
  299MPD2    C4 4504   2.954   1.155  10.361  0.0602  0.6409  0.6884
  299MPD2    C5 4505   2.988   1.172  10.491  0.3654  0.6110 -0.0897
  299MPD2     H 4506   3.188   1.347  10.223 -3.0306  0.8477 -1.3397
  299MPD2    H1 4507   2.865   1.099  10.333  0.0629  1.0098 -0.0472
  299MPD2    H2 4508   3.122   1.213  10.639 -0.8848 -3.2566 -0.6686
  299MPD2    H3 4509   2.917   1.125  10.559 -1.0830  0.4954 -1.7024
  299MPD2     N 4510   2.958   1.235  10.127 -0.5849 -0.2699  0.4607
  299MPD2    H5 4511   2.888   1.168  10.101 -1.4643  0.0901  1.9042
  299MPD2    N1 4512   3.309   1.312  10.473  0.2479  0.2999  0.0938
  299MPD2    H7 4513   3.330   1.279  10.567  2.6846  1.6886  0.0417
  300TMC3    C1 4514   2.893   1.313   9.925  0.3718 -0.2279 -0.2933
  300TMC3    C2 4515   2.837   1.434   9.899  0.1691 -0.4464 -0.7885
  300TMC3    C3 4516   2.700   1.437   9.897  0.0594  0.1903 -0.1289
  300TMC3    C4 4517   2.817   1.191   9.937 -0.0133 -0.0449  0.2994
  300TMC3    C5 4518   2.678   1.208   9.931  0.7105 -0.0957  0.1452
  300TMC3    C6 4519   2.619   1.329   9.915  0.0808 -0.0994  0.4575
  300TMC3     C 4520   2.987   1.331  10.035  0.2022 -0.2904 -0.3345
  300TMC3     O 4521   3.057   1.427  10.045 -0.0728 -0.3207  0.5981
  300TMC3     H 4522   2.896   1.525   9.905  0.0530 -0.4757  0.8782
  300TMC3    H1 4523   2.856   1.093   9.959  0.6648 -0.0812 -1.0145
  300TMC3    H2 4524   2.512   1.331   9.926  0.5759  3.0152  4.6725
  300TMC3    C7 4525   2.604   1.107  10.001 -0.3269  0.0320 -0.0620
  300TMC3    C8 4526   2.650   1.573   9.904 -0.2692 -0.4046 -0.6329
  300TMC3    O1 4527   2.632   0.993   9.972  0.9176  0.0030  1.0339
  300TMC3    O2 4528   2.729   1.661   9.882  0.3670 -0.4288 -0.0802
  301MPD2     C 4529   0.910   2.373   1.982 -0.3401  0.1753 -0.7037
  301MPD2    C1 4530   0.830   2.322   1.886  0.3136  0.0763 -0.0922
  301MPD2    C2 4531   0.861   2.204   1.828 -0.3170  0.7614  0.2048
  301MPD2    C3 4532   0.975   2.139   1.864  0.0796  0.5548  1.0006
  301MPD2    C4 4533   1.057   2.195   1.958  0.2955  0.6469  0.2888
  301MPD2    C5 4534   1.024   2.319   2.007 -0.0583 -0.4986  0.2677
  301MPD2     H 4535   0.793   2.164   1.753  0.7848  2.8948 -1.9208
  301MPD2    H1 4536   1.148   2.149   1.992 -1.1614 -2.8609 -0.6089
  301MPD2    H2 4537   0.894   2.470   2.027 -0.6781 -0.1979 -0.0111
  301MPD2    H3 4538   1.095   2.366   2.074 -1.1884  1.6530 -0.0568
  301MPD2     N 4539   1.007   2.012   1.804 -0.2402 -0.2167  0.1628
  301MPD2    H5 4540   1.101   1.983   1.828  0.1647 -0.5257 -1.8616
  301MPD2    N1 4541   0.713   2.387   1.844  0.0061 -0.6715 -0.0908
  301MPD2    H7 4542   0.652   2.336   1.780  0.8427 -3.3569  1.2429
  302TMC3    C1 4543   0.994   1.822   1.663 -0.2114 -0.0696  0.6739
  302TMC3    C2 4544   1.129   1.839   1.643  0.6276 -0.4083  0.1442
  302TMC3    C3 4545   1.185   1.746   1.558 -0.8113  0.4608  0.2550
  302TMC3    C4 4546   0.917   1.731   1.604  0.8049  0.5313  0.6845
  302TMC3    C5 4547   0.986   1.634   1.527 -0.2247 -0.1164  0.3570
  302TMC3    C6 4548   1.119   1.633   1.503 -0.0060  0.0395 -0.0967
  302TMC3     C 4549   0.922   1.935   1.721 -0.2808 -0.2631  0.6889
  302TMC3     O 4550   0.800   1.941   1.709  0.1171 -0.1718 -0.0452
  302TMC3     H 4551   1.187   1.918   1.688  0.0252  1.2876 -2.0520
  302TMC3    H1 4552   0.811   1.720   1.625  0.2550  1.9030 -1.3701
  302TMC3    H2 4553   1.167   1.556   1.444 -1.4542 -0.0221 -1.1949
  302TMC3    C7 4554   0.895   1.533   1.467  0.5431  0.2637 -0.6867
  302TMC3    C8 4555   1.331   1.740   1.559  0.1719 -0.6504  0.7738
  302TMC3    O1 4556   0.953   1.428   1.440  0.0140  0.2978  0.3600
  302TMC3    O2 4557   1.382   1.638   1.510  0.3138  0.3417 -0.4647
  303MPD2     C 4558   0.837   0.712   9.674 -0.1283  0.3558 -0.1117
  303MPD2    C1 4559   0.710   0.696   9.629 -0.8437  0.6557 -0.5370
  303MPD2    C2 4560   0.673   0.596   9.542 -0.5714  0.4263  0.5467
  303MPD2    C3 4561   0.769   0.499   9.507 -0.2569 -0.0748  0.1160
  303MPD2    C4 4562   0.897   0.509   9.566 -0.5140  0.4088 -0.9348
  303MPD2    C5 4563   0.931   0.621   9.641 -1.3571  0.4476 -0.9936
  303MPD2     H 4564   0.571   0.601   9.508  0.4036 -1.6947 -2.6845
  303MPD2    H1 4565   0.968   0.434   9.534 -0.0237  0.5406 -0.1463
  303MPD2    H2 4566   0.863   0.791   9.744  1.3546  0.6676 -1.0357
  303MPD2    H3 4567   1.033   0.627   9.679 -1.4972 -0.1662 -0.5200
  303MPD2     N 4568   0.744   0.378   9.434 -0.5180 -0.0727 -0.3009
  303MPD2    H5 4569   0.830   0.330   9.409 -1.1011 -1.1270 -0.2586
  303MPD2    N1 4570   0.620   0.793   9.675  0.1449 -0.4062  0.6200
  303MPD2    H7 4571   0.653   0.859   9.745 -0.7961  2.7219 -1.8894
  304TMC3    C1 4572   0.407   0.891   9.723  0.0297 -1.2283  0.0099
  304TMC3    C2 4573   0.273   0.910   9.684  0.1451 -0.1517  0.1304
  304TMC3    C3 4574   0.180   0.966   9.765  0.4512  0.1694 -0.1433
  304TMC3    C4 4575   0.438   0.908   9.861  0.0616  0.1602  0.4482
  304TMC3    C5 4576   0.330   0.935   9.942 -0.2929 -0.2728 -0.4936
  304TMC3    C6 4577   0.213   0.983   9.896 -0.3794  0.3868 -0.1608
  304TMC3     C 4578   0.486   0.801   9.644 -0.2205 -0.2412  0.5314
  304TMC3     O 4579   0.423   0.744   9.559  0.0149 -0.0270  0.7257
  304TMC3     H 4580   0.250   0.878   9.583 -0.5402  3.0817 -0.7127
  304TMC3    H1 4581   0.525   0.859   9.904  1.1446  1.0608 -0.7025
  304TMC3    H2 4582   0.144   1.016   9.973 -0.9063  3.8278 -2.0851
  304TMC3    C7 4583   0.335   0.865  10.068 -0.2121  0.1048 -0.6308
  304TMC3    C8 4584   0.056   0.885   9.763 -0.0978  0.1847  0.4211
  304TMC3    O1 4585   0.440   0.855  10.131  0.0561  0.3188 -0.2842
  304TMC3    O2 4586   0.032   0.829   9.868  0.1539  0.3144  0.1330
  305MPD2     C 4587   4.289   2.331  13.627 -0.4925  0.1524  0.3909
  305MPD2    C1 4588   4.156   2.361  13.626  0.3302 -0.1503  0.5982
  305MPD2    C2 4589   4.092   2.349  13.509  0.6452 -0.7166  0.0104
  305MPD2    C3 4590   4.161   2.319  13.392  0.2906 -0.5081 -0.0643
  305MPD2    C4 4591   4.295   2.280  13.395  0.9103 -0.7444  0.3475
  305MPD2    C5 4592   4.361   2.298  13.516  0.0367  0.2795  0.7628
  305MPD2     H 4593   3.986   2.372  13.509  1.0202  0.9775 -0.8194
  305MPD2    H1 4594   4.360   2.256  13.312  1.1246 -1.9463  0.8531
  305MPD2    H2 4595   4.344   2.338  13.720  1.6096  0.2377 -0.8535
  305MPD2    H3 4596   4.468   2.289  13.529  0.2860 -1.0613 -2.1417
  305MPD2     N 4597   4.106   2.318  13.257  0.2166 -0.3436 -0.4389
  305MPD2    H5 4598   4.167   2.280  13.185  0.7509 -2.2125  0.9845
  305MPD2    N1 4599   4.095   2.382  13.749  0.2457 -0.3688  0.7553
  305MPD2    H7 4600   4.163   2.400  13.822  1.0111 -1.6311  0.3532
  306TMC3    C1 4601   3.953   2.431  13.924  0.1532 -0.0000 -0.2308
  306TMC3    C2 4602   4.045   2.356  13.999  0.6550  0.1251 -0.4746
  306TMC3    C3 4603   4.035   2.364  14.135 -0.4758 -0.3440 -0.1390
  306TMC3    C4 4604   3.867   2.522  13.980 -0.3312  0.2110  0.2089
  306TMC3    C5 4605   3.867   2.527  14.116 -1.2195  0.3187  0.2575
  306TMC3    C6 4606   3.954   2.455  14.198 -0.5354  0.2097  0.2493
  306TMC3     C 4607   3.963   2.410  13.781 -0.5231  0.5448 -0.1056
  306TMC3     O 4608   3.865   2.423  13.706  0.5441  0.0063 -0.6709
  306TMC3     H 4609   4.110   2.281  13.957 -0.6892  0.4809 -3.1718
  306TMC3    H1 4610   3.802   2.581  13.918 -2.0582  0.8531  2.6409
  306TMC3    H2 4611   3.955   2.473  14.305 -1.5852  2.5698 -0.1382
  306TMC3    C7 4612   3.821   2.654  14.163  0.5515  0.2911 -0.1923
  306TMC3    C8 4613   4.106   2.268  14.219 -0.0572  0.8449  0.0022
  306TMC3    O1 4614   3.713   2.691  14.118 -0.2763 -0.4144  0.3132
  306TMC3    O2 4615   4.209   2.226  14.177 -0.0969  0.6373  0.3783
  307MPD2     C 4616   2.007   0.617  17.176  0.0566  0.6929 -0.3477
  307MPD2    C1 4617   2.062   0.712  17.256  0.4763 -0.0440  0.4675
  307MPD2    C2 4618   2.099   0.674  17.384  0.1154  0.1210  0.1473
  307MPD2    C3 4619   2.058   0.555  17.440 -0.6431  0.1246 -0.3577
  307MPD2    C4 4620   2.010   0.460  17.354  0.2505  0.7212 -0.2065
  307MPD2    C5 4621   1.981   0.489  17.226  0.0604  0.9278  0.8706
  307MPD2     H 4622   2.144   0.745  17.452  0.4893 -1.5200  1.6138
  307MPD2    H1 4623   1.991   0.357  17.380  1.2255  0.3765 -0.8862
  307MPD2    H2 4624   1.981   0.630  17.071  1.0813 -0.0337 -0.6913
  307MPD2    H3 4625   1.933   0.412  17.168 -0.4823  1.0763  1.1267
  307MPD2     N 4626   2.085   0.520  17.574 -0.4379 -0.0944 -0.0769
  307MPD2    H5 4627   2.123   0.592  17.635  1.6592 -1.0477 -0.2542
  307MPD2    N1 4628   2.091   0.846  17.209 -0.0558  0.3041  0.8659
  307MPD2    H7 4629   2.147   0.903  17.272 -0.9406  0.0643  1.8810
  308TMC3    C1 4630   2.075   0.279   0.281  0.0952 -0.2972  0.1372
  308TMC3    C2 4631   2.197   0.327   0.312  0.1686 -0.0370  0.0700
  308TMC3    C3 4632   2.261   0.406   0.220 -0.8635  0.3040 -0.3070
  308TMC3    C4 4633   2.014   0.314   0.165  0.4584  0.3546 -0.4346
  308TMC3    C5 4634   2.080   0.400   0.083 -0.2586  0.9836 -0.1476
  308TMC3    C6 4635   2.206   0.453   0.101  0.0030  0.7574 -0.6006
  308TMC3     C 4636   1.987   0.256   0.388  0.2033  0.3262 -0.8732
  308TMC3     O 4637   2.000   0.162   0.467 -0.4644 -0.1505 -0.4105
  308TMC3     H 4638   2.233   0.323   0.414 -1.9364 -2.0702  0.7179
  308TMC3    H1 4639   1.918   0.271   0.140  0.5044 -0.9153  1.5709
  308TMC3    H2 4640   2.272   0.489   0.023 -1.9705 -0.2202 -2.7330
  308TMC3    C7 4641   2.036   0.408  17.641 -0.0454 -0.6265 -0.7222
  308TMC3    C8 4642   2.360   0.489   0.280 -0.1805  0.3497  0.6890
  308TMC3    O1 4643   1.966   0.312  17.607  0.2742  0.1657 -0.3845
  308TMC3    O2 4644   2.436   0.438   0.360  0.1825 -0.0048  0.3669
  309MPD2     C 4645   1.421   1.031  17.125  0.5477 -0.1986 -0.7632
  309MPD2    C1 4646   1.328   1.043  17.024 -0.3307  0.1259 -0.0540
  309MPD2    C2 4647   1.198   1.079  17.058 -0.0753  0.0027 -0.5678
  309MPD2    C3 4648   1.152   1.104  17.189 -0.5807 -0.5088 -0.4413
  309MPD2    C4 4649   1.254   1.108  17.279  0.0150 -0.1917 -0.0483
  309MPD2    C5 4650   1.384   1.070  17.252  0.2823  0.0400 -0.8189
  309MPD2     H 4651   1.125   1.074  16.978 -0.9777 -0.7326  0.3023
  309MPD2    H1 4652   1.236   1.112  17.386 -0.7004  0.4973 -0.1898
  309MPD2    H2 4653   1.520   0.988  17.119  0.7308 -0.0546  1.3391
  309MPD2    H3 4654   1.453   1.057  17.334 -1.7906 -2.6791  0.4977
  309MPD2     N 4655   1.025   1.143  17.232  0.0459 -0.0125  0.4835
  309MPD2    H5 4656   1.027   1.176  17.328  1.8444  0.7565  0.1885
  309MPD2    N1 4657   1.359   1.013  16.888  0.1630 -0.1921 -0.7156
  309MPD2    H7 4658   1.278   1.019  16.827  0.8383  2.1681 -1.3756
  310TMC3    C1 4659   1.469   0.955  16.703  0.3079  0.1072  0.4171
  310TMC3    C2 4660   1.397   1.040  16.630  0.2521  0.1681 -0.5203
  310TMC3    C3 4661   1.411   1.021  16.492  0.1848  0.2579 -0.6723
  310TMC3    C4 4662   1.565   0.869  16.663 -0.1920  0.0470 -0.1526
  310TMC3    C5 4663   1.577   0.855  16.533 -0.2626  0.0355 -0.7856
  310TMC3    C6 4664   1.505   0.930  16.441 -0.7467  0.0638 -0.4689
  310TMC3     C 4665   1.479   0.984  16.840 -0.3609  0.0825  0.1861
  310TMC3     O 4666   1.579   0.958  16.901  0.2089 -0.3144  0.0036
  310TMC3     H 4667   1.328   1.113  16.671 -1.4971 -2.8083  1.7704
  310TMC3    H1 4668   1.635   0.818  16.728 -1.3119 -2.0517 -0.5870
  310TMC3    H2 4669   1.519   0.927  16.333  0.3332 -0.6161 -0.3129
  310TMC3    C7 4670   1.647   0.743  16.470  0.3999 -0.5133  0.3812
  310TMC3    C8 4671   1.322   1.084  16.401 -0.3434  0.2063 -0.1865
  310TMC3    O1 4672   1.599   0.691  16.372  0.0615  0.2292  0.3565
  310TMC3    O2 4673   1.355   1.093  16.283  0.2722 -0.3875  0.7944
  311MPD2     C 4674   2.978   2.263  12.333  0.2851  0.7227  0.2841
  311MPD2    C1 4675   2.950   2.392  12.380  0.7185  0.3570 -0.3269
  311MPD2    C2 4676   2.852   2.395  12.478  0.5310 -0.3126  0.0741
  311MPD2    C3 4677   2.791   2.283  12.537  0.1666 -0.2850 -0.4692
  311MPD2    C4 4678   2.829   2.157  12.489 -0.4507 -0.5403 -0.3945
  311MPD2    C5 4679   2.919   2.147  12.385 -0.4162 -0.0503 -0.4561
  311MPD2     H 4680   2.827   2.488  12.529  1.7084 -1.0924  2.0638
  311MPD2    H1 4681   2.793   2.067  12.538 -2.1575  2.2133  3.3731
  311MPD2    H2 4682   3.033   2.261  12.240 -0.0705  0.2744  0.0904
  311MPD2    H3 4683   2.947   2.051  12.342 -0.5291  0.5194 -1.7996
  311MPD2     N 4684   2.690   2.302  12.636  0.1256 -0.7364 -0.3078
  311MPD2    H5 4685   2.668   2.394  12.674  0.0996 -1.0428  0.4219
  311MPD2    N1 4686   3.025   2.508  12.342 -0.6835 -0.1903 -0.0907
  311MPD2    H7 4687   2.997   2.591  12.394 -0.0005 -0.3103  0.4631
  312TMC3    C1 4688   2.522   2.248  12.784 -0.3064 -0.4162 -0.7779
  312TMC3    C2 4689   2.394   2.224  12.759 -0.1467  0.1276 -0.5070
  312TMC3    C3 4690   2.306   2.324  12.792  0.2015  0.6941  0.1802
  312TMC3    C4 4691   2.568   2.352  12.859  0.4163 -0.1278  1.1776
  312TMC3    C5 4692   2.479   2.445  12.892  0.3291 -0.3902 -0.1800
  312TMC3    C6 4693   2.340   2.435  12.865  0.2525  0.5882 -0.7718
  312TMC3     C 4694   2.614   2.198  12.682 -0.2117  0.4474  0.3879
  312TMC3     O 4695   2.597   2.083  12.647 -0.6784  0.5163 -0.2079
  312TMC3     H 4696   2.363   2.142  12.696 -0.0571  1.1312 -1.8727
  312TMC3    H1 4697   2.673   2.365  12.882  0.0890  0.6757  2.2474
  312TMC3    H2 4698   2.277   2.513  12.907  0.6171 -1.2312  3.1303
  312TMC3    C7 4699   2.523   2.561  12.970 -0.5985  0.6436  0.2578
  312TMC3    C8 4700   2.168   2.305  12.755  0.7835  0.4701  0.3333
  312TMC3    O1 4701   2.453   2.662  12.950  0.2348 -0.0263  0.3948
  312TMC3    O2 4702   2.139   2.186  12.729  0.1704  0.3830 -0.1926
  313MPD2     C 4703   1.603   1.602  10.708  0.0912 -0.2402  0.0279
  313MPD2    C1 4704   1.664   1.719  10.665  0.4608 -0.4436 -0.9119
  313MPD2    C2 4705   1.730   1.718  10.544 -0.4134 -0.3076 -0.1199
  313MPD2    C3 4706   1.748   1.598  10.471 -0.1772 -0.0789  0.7169
  313MPD2    C4 4707   1.682   1.481  10.516 -0.1910  0.2397  0.0295
  313MPD2    C5 4708   1.605   1.486  10.630  0.4772 -0.7271  0.3266
  313MPD2     H 4709   1.761   1.811  10.500 -1.8315 -0.0124 -0.4977
  313MPD2    H1 4710   1.686   1.391  10.455  1.6871 -0.2570  0.8762
  313MPD2    H2 4711   1.539   1.602  10.796  1.6225 -1.0666  1.1355
  313MPD2    H3 4712   1.547   1.401  10.666 -0.9349 -0.2906 -0.9087
  313MPD2     N 4713   1.819   1.599  10.355 -0.0033 -0.1193 -0.9689
  313MPD2    H5 4714   1.851   1.693  10.333  2.1393 -0.8956 -1.1169
  313MPD2    N1 4715   1.652   1.843  10.736  0.0163 -0.2563 -0.1703
  313MPD2    H7 4716   1.670   1.925  10.679 -3.2965  0.5899  0.0279
  314TMC3    C1 4717   1.617   1.981  10.916  0.4793 -0.3157  0.0695
  314TMC3    C2 4718   1.701   2.051  10.998 -0.3744  0.0535 -0.8504
  314TMC3    C3 4719   1.731   2.178  10.968  0.1524 -0.0456 -0.4409
  314TMC3    C4 4720   1.539   2.055  10.832 -0.1126 -0.2267  0.3087
  314TMC3    C5 4721   1.552   2.193  10.817 -0.3396  0.9235  0.1209
  314TMC3    C6 4722   1.662   2.257  10.879 -0.3724 -0.1295 -0.5197
  314TMC3     C 4723   1.650   1.850  10.875  0.3793 -0.5565 -0.0346
  314TMC3     O 4724   1.671   1.765  10.960  0.5252  0.3986  0.1603
  314TMC3     H 4725   1.770   1.998  11.063 -0.8329  1.1246  0.4790
  314TMC3    H1 4726   1.462   1.995  10.787 -1.1759  1.6945 -0.4374
  314TMC3    H2 4727   1.699   2.355  10.853 -0.3840  0.3097  1.1121
  314TMC3    C7 4728   1.563   2.222  10.674  0.0182 -0.2201  0.4670
  314TMC3    C8 4729   1.866   2.230  11.002 -0.0397 -0.6118  0.3188
  314TMC3    O1 4730   1.663   2.285  10.646 -0.6859  0.3150 -0.2263
  314TMC3    O2 4731   1.901   2.325  10.938 -0.0652  1.0504  0.2707
  315MPD2     C 4732   2.442   0.789  17.016  0.3428  0.0355  0.0258
  315MPD2    C1 4733   2.470   0.805  17.149  0.1967  1.1221 -0.3762
  315MPD2    C2 4734   2.512   0.925  17.201  0.2989  0.6683  0.1461
  315MPD2    C3 4735   2.538   1.027  17.113  0.3473  0.2932 -0.4704
  315MPD2    C4 4736   2.512   1.015  16.978  0.2671  0.5353  0.2278
  315MPD2    C5 4737   2.466   0.892  16.934 -0.4859 -0.1424  0.0429
  315MPD2     H 4738   2.528   0.934  17.308 -0.4259 -1.2335  0.4199
  315MPD2    H1 4739   2.519   1.101  16.913  0.8994  1.0901  1.0444
  315MPD2    H2 4740   2.414   0.692  16.977 -0.1588  0.1207  0.1835
  315MPD2    H3 4741   2.438   0.870  16.832 -3.4966  2.3617  0.3225
  315MPD2     N 4742   2.575   1.154  17.163  0.0471 -0.1459 -0.6375
  315MPD2    H5 4743   2.575   1.155  17.265 -1.2102  0.7252 -0.6481
  315MPD2    N1 4744   2.452   0.706  17.250  0.0791 -0.3107 -0.5320
  315MPD2    H7 4745   2.473   0.743  17.342  1.1693  0.1402 -0.9514
  316TMC3    C1 4746   2.624   1.381  17.188  0.1310 -0.0634 -0.1243
  316TMC3    C2 4747   2.678   1.349  17.312  0.0631 -0.2660 -0.7989
  316TMC3    C3 4748   2.706   1.453  17.395 -0.6706 -0.8747 -0.7927
  316TMC3    C4 4749   2.588   1.507  17.154 -0.3150  0.7804  0.1392
  316TMC3    C5 4750   2.621   1.603  17.244 -0.3654  0.7591  0.2039
  316TMC3    C6 4751   2.681   1.583  17.364 -0.4208 -0.3976 -0.0634
  316TMC3     C 4752   2.601   1.274  17.094 -0.4357 -0.8673 -0.9319
  316TMC3     O 4753   2.592   1.304  16.976  0.6677  0.0470  0.0301
  316TMC3     H 4754   2.711   1.249  17.340 -0.5130 -0.0245  0.7297
  316TMC3    H1 4755   2.532   1.532  17.064 -0.2699  3.7035  0.9350
  316TMC3    H2 4756   2.709   1.659  17.435 -1.9562 -0.8401  1.0251
  316TMC3    C7 4757   2.561   1.736  17.217 -0.0091  0.2247  0.0668
  316TMC3    C8 4758   2.763   1.431  17.528 -0.3167 -0.1373  0.1717
  316TMC3    O1 4759   2.556   1.802  17.320  0.5962  0.1027  0.1456
  316TMC3    O2 4760   2.762   1.525  17.606 -0.5909  0.0421 -0.1365
  317MPD2     C 4761   4.181   4.509  12.508  0.3879  0.3588  0.4851
  317MPD2    C1 4762   4.118   4.394  12.502 -0.7429  0.0938 -1.0676
  317MPD2    C2 4763   4.113   4.309  12.611 -0.0692 -0.4952  0.5755
  317MPD2    C3 4764   4.173   4.352  12.726  0.3455  0.2704  0.0188
  317MPD2    C4 4765   4.231   4.480  12.738 -0.1431 -0.2871  0.1671
  317MPD2    C5 4766   4.216   4.559  12.630 -0.4815 -0.1587 -0.1750
  317MPD2     H 4767   4.077   4.206  12.612 -1.1238 -0.1710 -4.6861
  317MPD2    H1 4768   4.262   4.540  12.822  2.1778 -2.9232  1.1850
  317MPD2    H2 4769   4.181   4.573  12.421  2.0704  0.6004  0.6622
  317MPD2    H3 4770   4.254   4.660  12.629  0.4559 -0.5149 -0.4664
  317MPD2     N 4771   4.171   4.261  12.840 -0.0944 -0.2712  0.2777
  317MPD2    H5 4772   4.112   4.179  12.836 -0.3895 -0.1010  1.0572
  317MPD2    N1 4773   4.074   4.341  12.379  0.0813  0.6202 -0.4121
  317MPD2    H7 4774   4.040   4.245  12.383  0.8083  0.3549 -0.5084
  318TMC3    C1 4775   4.261   4.171  13.042 -0.1333 -0.0766 -0.1142
  318TMC3    C2 4776   4.142   4.107  13.071 -0.3854  0.0889  0.1996
  318TMC3    C3 4777   4.144   4.033  13.192  0.0508  0.1172 -0.0037
  318TMC3    C4 4778   4.372   4.139  13.108 -0.1214 -0.1241 -0.7650
  318TMC3    C5 4779   4.372   4.076  13.223  0.0660  0.0090  0.3236
  318TMC3    C6 4780   4.256   4.027  13.272 -0.7443  0.3310 -0.4893
  318TMC3     C 4781   4.268   4.273  12.939 -0.1262  0.2853 -0.4288
  318TMC3     O 4782   4.367   4.347  12.941 -0.3244 -0.4149 -0.0958
  318TMC3     H 4783   4.055   4.125  13.008  0.5371  1.1428 -0.7895
  318TMC3    H1 4784   4.466   4.186  13.080  0.4291 -0.3734  0.6804
  318TMC3    H2 4785   4.258   3.977  13.367 -1.6826  1.7513  0.2730
  318TMC3    C7 4786   4.491   4.052  13.294 -0.1535 -0.2173  0.1388
  318TMC3    C8 4787   4.026   3.951  13.223  0.5278 -0.1391  0.7821
  318TMC3    O1 4788   4.506   4.098  13.406  0.3665  0.1782 -0.0093
  318TMC3    O2 4789   4.035   3.883  13.325 -0.4210  0.1876  0.0038
  319MPD2     C 4790   0.804   0.875  16.370  0.3268  1.0031 -0.4509
  319MPD2    C1 4791   0.702   0.806  16.428 -0.4574  0.2862 -0.2512
  319MPD2    C2 4792   0.625   0.724  16.345 -0.4650  0.1896 -0.5931
  319MPD2    C3 4793   0.652   0.717  16.207  0.1298 -0.3856  0.0892
  319MPD2    C4 4794   0.763   0.785  16.152 -0.3462  0.2232 -0.1844
  319MPD2    C5 4795   0.839   0.866  16.238  0.7042 -0.7293 -0.3953
  319MPD2     H 4796   0.543   0.668  16.387  0.4326  0.2714  1.3008
  319MPD2    H1 4797   0.780   0.775  16.046 -0.2666 -0.7790 -0.0757
  319MPD2    H2 4798   0.876   0.920  16.438 -0.1081  0.4904  0.3493
  319MPD2    H3 4799   0.925   0.921  16.204 -0.1671  0.5831 -0.4581
  319MPD2     N 4800   0.585   0.627  16.118  0.0027 -0.5242 -0.2067
  319MPD2    H5 4801   0.586   0.635  16.017 -0.1139  0.5871 -0.1185
  319MPD2    N1 4802   0.672   0.806  16.568  0.2044  0.6461  0.4017
  319MPD2    H7 4803   0.594   0.749  16.599  0.5773 -0.6487 -1.0813
  320TMC3    C1 4804   0.408   0.511  16.046 -0.5606 -0.1400  0.1828
  320TMC3    C2 4805   0.379   0.621  15.972 -0.4480  0.1463  0.4075
  320TMC3    C3 4806   0.264   0.612  15.893  0.4929 -0.6313 -0.1209
  320TMC3    C4 4807   0.335   0.396  16.038  0.5612 -0.0211 -0.2467
  320TMC3    C5 4808   0.237   0.389  15.945  0.7198  0.7692 -0.4627
  320TMC3    C6 4809   0.200   0.498  15.871  0.0794  0.3466  0.1960
  320TMC3     C 4810   0.489   0.535  16.158 -0.0421  0.4774 -0.5064
  320TMC3     O 4811   0.468   0.486  16.269 -0.4418 -0.6408 -0.4332
  320TMC3     H 4812   0.424   0.717  15.998  2.1085 -0.7545 -0.6860
  320TMC3    H1 4813   0.378   0.306  16.081  2.4657  1.8945  1.7991
  320TMC3    H2 4814   0.117   0.489  15.802 -1.3600  0.4174  1.9416
  320TMC3    C7 4815   0.141   0.281  15.949  0.6334 -0.4421  0.4094
  320TMC3    C8 4816   0.202   0.737  15.868  0.1769 -0.0844 -0.7767
  320TMC3    O1 4817   0.072   0.255  15.852 -0.3568 -0.6109 -0.2062
  320TMC3    O2 4818   0.272   0.839  15.885 -0.2271 -0.0668 -0.4388
  321TMC3    C1 4819   0.695   0.838  16.802 -0.4340  0.1102  0.0810
  321TMC3    C2 4820   0.570   0.777  16.819  0.8129  0.7515  0.8307
  321TMC3    C3 4821   0.528   0.759  16.949 -0.0092 -0.1097  0.3386
  321TMC3    C4 4822   0.781   0.851  16.912 -0.0253 -0.0103  0.0895
  321TMC3    C5 4823   0.727   0.830  17.035  0.6044 -0.1018 -0.6554
  321TMC3    C6 4824   0.598   0.799  17.055 -0.7724  0.6786  0.3288
  321TMC3     C 4825   0.741   0.875  16.668 -0.7756  0.0556 -0.3488
  321TMC3     O 4826   0.846   0.941  16.667  0.4456 -0.2378 -0.3387
  321TMC3     H 4827   0.500   0.776  16.736  0.1187  2.3192  1.4044
  321TMC3    H1 4828   0.878   0.899  16.903  0.7619 -1.7131 -0.4584
  321TMC3    H2 4829   0.558   0.801  17.156 -2.2549 -0.1853 -0.2411
  321TMC3    C7 4830   0.803   0.768  17.140  0.7100  0.4694 -0.1051
  321TMC3    C8 4831   0.456   0.635  16.981 -0.3011  0.0964  0.3470
  321TMC3    O1 4832   0.743   0.689  17.215  0.5377 -0.4403 -0.8347
  321TMC3    O2 4833   0.372   0.601  16.902  0.2218 -0.3145 -0.0057
  322MPD2     C 4834   3.398   1.464  13.716 -0.4073  0.2065  0.1692
  322MPD2    C1 4835   3.480   1.416  13.814  0.4693  0.6253  0.4955
  322MPD2    C2 4836   3.535   1.289  13.810 -0.0837  0.2594  0.1917
  322MPD2    C3 4837   3.521   1.215  13.691  0.7835 -0.5982 -0.1739
  322MPD2    C4 4838   3.426   1.252  13.600 -0.2450  0.2718  0.0775
  322MPD2    C5 4839   3.366   1.377  13.611 -0.4120 -0.1636  0.6001
  322MPD2     H 4840   3.612   1.256  13.878  0.8432  1.7081 -0.1512
  322MPD2    H1 4841   3.393   1.196  13.513  1.0503 -3.2722  1.8553
  322MPD2    H2 4842   3.350   1.560  13.728 -0.8856 -0.2601  1.9470
  322MPD2    H3 4843   3.284   1.412  13.548  0.6892 -0.3142 -0.9160
  322MPD2     N 4844   3.602   1.099  13.685 -0.4075 -0.2792 -0.2581
  322MPD2    H5 4845   3.667   1.078  13.760 -0.9927 -0.1701  0.2777
  322MPD2    N1 4846   3.510   1.498  13.925  0.1123  0.1127  0.2948
  322MPD2    H7 4847   3.484   1.595  13.912 -1.3843 -0.6620 -2.3700
  323TMC3    C1 4848   3.633   1.571  14.110  0.6970 -0.0427  0.1677
  323TMC3    C2 4849   3.683   1.686  14.040  0.0018 -0.1859  0.7035
  323TMC3    C3 4850   3.753   1.782  14.118 -0.3433 -1.1313 -0.3641
  323TMC3    C4 4851   3.664   1.551  14.242 -0.9200  0.7697  1.0362
  323TMC3    C5 4852   3.724   1.656  14.307  0.3868 -0.1259  0.7448
  323TMC3    C6 4853   3.771   1.770  14.251 -0.2904 -0.3183  0.2315
  323TMC3     C 4854   3.576   1.462  14.034  0.2824 -0.4209  0.1209
  323TMC3     O 4855   3.579   1.355  14.089 -0.6465 -0.5736  0.3643
  323TMC3     H 4856   3.687   1.683  13.932 -1.2982 -0.7085  0.6782
  323TMC3    H1 4857   3.630   1.464  14.296  0.5883 -0.0295  0.7051
  323TMC3    H2 4858   3.838   1.837  14.305  1.6339 -1.0897 -1.1950
  323TMC3    C7 4859   3.787   1.606  14.432 -0.4548  0.0173 -0.3276
  323TMC3    C8 4860   3.870   1.847  14.057  0.1986 -0.1559  0.0456
  323TMC3    O1 4861   3.781   1.483  14.459  0.4601  0.6033  0.6770
  323TMC3    O2 4862   3.976   1.849  14.119  0.2343  1.1159 -0.8380
  324MPD2     C 4863   0.951   2.931  13.767 -0.1731  0.2487  0.2934
  324MPD2    C1 4864   0.861   2.854  13.840  0.0706 -0.3466 -0.5700
  324MPD2    C2 4865   0.736   2.830  13.797  0.2484 -0.6398 -0.2643
  324MPD2    C3 4866   0.703   2.862  13.668 -0.8463  0.1285 -0.6095
  324MPD2    C4 4867   0.786   2.940  13.595  0.2990  0.1560  0.1241
  324MPD2    C5 4868   0.912   2.970  13.645  0.2903 -0.1370  0.1398
  324MPD2     H 4869   0.662   2.781  13.858 -0.1340 -1.3017 -1.2653
  324MPD2    H1 4870   0.749   2.980  13.501  0.1833  1.9562  0.9369
  324MPD2    H2 4871   1.051   2.957  13.799  0.8433 -1.2147 -1.6777
  324MPD2    H3 4872   0.984   3.020  13.581 -1.8247  0.3150 -1.8816
  324MPD2     N 4873   0.578   2.833  13.605 -0.3622 -0.2641 -0.6954
  324MPD2    H5 4874   0.555   2.880  13.518  1.3551 -1.3725 -1.7412
  324MPD2    N1 4875   0.891   2.808  13.966 -0.5420  0.0465 -0.0972
  324MPD2    H7 4876   0.816   2.763  14.018 -0.0520 -0.5017  0.1399
  325TMC3    C1 4877   0.354   2.790  13.601  0.2161 -0.1713  0.3862
  325TMC3    C2 4878   0.263   2.694  13.601 -0.7294  0.1196  0.0097
  325TMC3    C3 4879   0.131   2.721  13.637  0.4707 -0.0616 -1.1032
  325TMC3    C4 4880   0.327   2.920  13.614 -1.1483 -0.4156 -0.6033
  325TMC3    C5 4881   0.201   2.947  13.652 -0.2051  0.5187 -0.7947
  325TMC3    C6 4882   0.099   2.853  13.674 -0.1756  0.3244  0.3491
  325TMC3     C 4883   0.481   2.753  13.656 -0.0697 -0.0778  0.8697
  325TMC3     O 4884   0.478   2.674  13.751 -0.3344 -0.4448 -0.5925
  325TMC3     H 4885   0.290   2.592  13.577 -2.3554 -0.4355  0.5556
  325TMC3    H1 4886   0.405   2.994  13.624 -0.7294 -0.8095 -0.9515
  325TMC3    H2 4887   4.720   2.886  13.670 -0.8967 -1.9360 -0.1661
  325TMC3    C7 4888   0.164   3.074  13.617  0.6479  0.0478 -0.3257
  325TMC3    C8 4889   0.035   2.654  13.554 -0.1884 -0.1092  0.0801
  325TMC3    O1 4890   0.226   3.134  13.528  0.3964 -0.0355 -0.1400
  325TMC3    O2 4891   0.080   2.601  13.457 -0.7166  0.0713  0.6662
  326MPD2     C 4892   2.187   4.512  11.068  0.3598 -0.3723 -0.0866
  326MPD2    C1 4893   2.195   4.471  10.937 -0.0624 -0.0434  0.5597
  326MPD2    C2 4894   2.300   4.516  10.861  0.3023 -0.3007 -0.7988
  326MPD2    C3 4895   2.390   4.609  10.912  0.3306  0.3478 -0.3088
  326MPD2    C4 4896   2.374   4.657  11.043  0.6739 -0.0795 -0.4457
  326MPD2    C5 4897   2.276   4.602  11.121 -0.5163  0.1920  1.0059
  326MPD2     H 4898   2.312   4.483  10.759  0.7334 -1.3892 -0.3963
  326MPD2    H1 4899   2.451   4.722  11.083  0.2204 -1.2157  2.2487
  326MPD2    H2 4900   2.115   4.474  11.140  0.9091  1.0834  1.2167
  326MPD2    H3 4901   2.279   4.623  11.227  1.2411  1.0875  0.7898
  326MPD2     N 4902   2.498   4.665  10.839 -0.1432  0.5750  0.3113
  326MPD2    H5 4903   2.549   0.015  10.884 -1.0121  0.8379  0.8675
  326MPD2    N1 4904   2.113   4.373  10.882  0.8599  0.1956  0.2875
  326MPD2    H7 4905   2.131   4.339  10.788  0.6860 -1.5596  0.8774
  327TMC3    C1 4906   1.939   4.218  10.848 -0.7025  0.3660  0.5101
  327TMC3    C2 4907   1.896   4.259  10.724 -0.3940  0.0963 -0.0795
  327TMC3    C3 4908   1.824   4.173  10.649 -0.1191 -0.2034 -0.3673
  327TMC3    C4 4909   1.897   4.099  10.900  0.3075 -0.0435  0.0944
  327TMC3    C5 4910   1.815   4.018  10.827 -0.1598 -0.0393 -0.6277
  327TMC3    C6 4911   1.778   4.048  10.701 -0.7308  0.2278 -0.2288
  327TMC3     C 4912   2.005   4.314  10.937 -0.3320 -0.5541 -0.0619
  327TMC3     O 4913   1.955   4.340  11.045 -0.0151  0.3345 -0.2050
  327TMC3     H 4914   1.928   4.356  10.688  0.9817  0.2602  1.5831
  327TMC3    H1 4915   1.903   4.078  11.006 -2.4150 -1.0591  0.0587
  327TMC3    H2 4916   1.721   3.981  10.638 -1.0338 -0.3776  0.6914
  327TMC3    C7 4917   1.797   3.886  10.881 -0.4333  0.5579 -0.4850
  327TMC3    C8 4918   1.739   4.236  10.551  0.2707 -0.7871 -0.3264
  327TMC3    O1 4919   1.706   3.824  10.840 -0.4643 -0.3252 -0.2129
  327TMC3    O2 4920   1.736   4.357  10.562  0.3760  0.0857  0.0307
  328MPD2     C 4921   4.553   3.432   0.050  0.4171 -0.3542  0.2814
  328MPD2    C1 4922   4.535   3.369  17.626  0.2964 -0.2079  0.4087
  328MPD2    C2 4923   4.564   3.435  17.509 -0.3973  0.9504 -0.1762
  328MPD2    C3 4924   4.595   3.570  17.518 -0.2270 -0.6792  0.3243
  328MPD2    C4 4925   4.635   3.622  17.637  0.6237 -0.4235 -0.5672
  328MPD2    C5 4926   4.608   3.554   0.053 -0.1330 -0.1452 -0.0607
  328MPD2     H 4927   4.542   3.388  17.414  1.0915  0.6527 -0.3599
  328MPD2    H1 4928   4.662   3.727  17.636  1.3366 -0.6131 -1.2241
  328MPD2    H2 4929   4.554   3.381   0.145 -2.7308  1.3702  1.2472
  328MPD2    H3 4930   4.638   3.599   0.147 -1.1844  0.5860 -0.0768
  328MPD2     N 4931   4.608   3.650  17.402  0.2899 -0.1603  0.0948
  328MPD2    H5 4932   4.648   3.743  17.410 -0.3006  0.1188 -0.1814
  328MPD2    N1 4933   4.496   3.238  17.626 -0.6211 -0.3838  0.0639
  328MPD2    H7 4934   4.471   3.196   0.017  1.7602 -0.7293  0.5904
  329TMC3    C1 4935   4.448   3.015  17.568 -0.3054  0.2264 -0.8036
  329TMC3    C2 4936   4.324   3.035  17.625  0.1105 -0.5685 -0.2525
  329TMC3    C3 4937   4.224   2.948  17.587 -1.1554 -0.6281  0.2892
  329TMC3    C4 4938   4.477   2.917  17.478 -0.3690  0.3514  0.6557
  329TMC3    C5 4939   4.372   2.831  17.453  0.3701  0.0032  0.7103
  329TMC3    C6 4940   4.249   2.836  17.514 -0.6622  0.4913  0.4837
  329TMC3     C 4941   4.504   3.145  17.525  0.2218 -0.0512  0.0599
  329TMC3     O 4942   4.560   3.159  17.418  0.0903  0.1760  0.1765
  329TMC3     H 4943   4.301   3.124  17.682  0.0345 -0.4287 -0.5021
  329TMC3    H1 4944   4.578   2.899  17.442  0.0709  2.3314  0.9001
  329TMC3    H2 4945   4.169   2.769  17.486 -1.2779  2.7803 -3.2081
  329TMC3    C7 4946   4.374   2.764  17.325  0.3377 -0.2633  0.2730
  329TMC3    C8 4947   4.092   2.994  17.583 -0.2391  0.5048  0.4045
  329TMC3    O1 4948   4.339   2.649  17.313  0.1166 -0.1284  0.2285
  329TMC3    O2 4949   4.002   2.917  17.566 -0.2307 -0.2937 -0.4595
  330TMC3    C1 4950   1.804   3.782   9.008 -0.5129 -0.0727 -0.2475
  330TMC3    C2 4951   1.806   3.648   8.970 -0.5478 -0.3153 -0.1171
  330TMC3    C3 4952   1.900   3.566   9.035 -0.1668  0.1679 -0.7166
  330TMC3    C4 4953   1.893   3.829   9.107 -0.1823 -0.5106 -0.1765
  330TMC3    C5 4954   1.973   3.744   9.167 -0.3817  0.2841 -0.6745
  330TMC3    C6 4955   1.978   3.610   9.141  0.0385 -0.2800 -0.1540
  330TMC3     C 4956   1.706   3.879   8.953  0.2675 -0.2013 -0.1775
  330TMC3     O 4957   1.715   3.997   8.976  0.8586  0.3364 -0.1600
  330TMC3     H 4958   1.755   3.609   8.882  0.3623 -2.8211  0.4690
  330TMC3    H1 4959   1.904   3.936   9.123  1.4990 -0.9127  1.3120
  330TMC3    H2 4960   2.060   3.544   9.168 -1.1296 -0.6524  2.3842
  330TMC3    C7 4961   2.072   3.796   9.258  0.5479 -0.0077 -0.0407
  330TMC3    C8 4962   1.923   3.434   8.980  0.2283 -0.5182 -0.0911
  330TMC3    O1 4963   2.086   3.916   9.269  0.0013  0.1466 -0.8169
  330TMC3    O2 4964   1.893   3.422   8.863  0.5396 -0.0440  0.4641
  331MPD2     C 4965   4.681   2.263  12.276  0.3972 -0.7380  0.2431
  331MPD2    C1 4966   0.064   2.306  12.206  0.6239  0.4080 -0.0541
  331MPD2    C2 4967   0.134   2.211  12.135  0.7727 -0.1828  0.1564
  331MPD2    C3 4968   0.094   2.077  12.130 -0.0867  0.1004 -0.5067
  331MPD2    C4 4969   4.708   2.035  12.204  0.4890 -0.4729 -0.2293
  331MPD2    C5 4970   4.644   2.129  12.272 -0.6134 -0.3701 -0.1387
  331MPD2     H 4971   0.219   2.230  12.070 -2.0179 -1.1620 -3.7965
  331MPD2    H1 4972   4.686   1.929  12.197  1.4588 -0.6486 -0.6632
  331MPD2    H2 4973   4.631   2.327  12.348  0.3683 -3.0510  2.2912
  331MPD2    H3 4974   4.560   2.099  12.334 -0.6724  2.0814  0.9683
  331MPD2     N 4975   0.175   1.975  12.070  0.2161  0.3540  0.5439
  331MPD2    H5 4976   0.171   1.879  12.103 -1.9194  0.9563  2.0145
  331MPD2    N1 4977   0.110   2.444  12.206  0.4828  0.2182  0.7053
  331MPD2    H7 4978   0.045   2.512  12.242  0.0074  0.0296  0.2002
  332TMC3    C1 4979   0.347   1.875  11.936  0.2470  0.3542 -0.4087
  332TMC3    C2 4980   0.415   1.893  11.820 -0.0449 -0.4468 -0.1175
  332TMC3    C3 4981   0.547   1.886  11.829 -0.0111 -0.4223  0.4277
  332TMC3    C4 4982   0.410   1.839  12.050  0.2698  0.0719  0.0835
  332TMC3    C5 4983   0.545   1.846  12.058 -0.3535 -0.6119 -0.8247
  332TMC3    C6 4984   0.615   1.876  11.947 -0.3994  0.8081  0.2016
  332TMC3     C 4985   0.261   1.990  11.966  0.2085 -0.8228 -0.1499
  332TMC3     O 4986   0.273   2.089  11.896  0.4196 -0.1734 -0.9127
  332TMC3     H 4987   0.360   1.925  11.732  2.8461  1.2568 -1.2884
  332TMC3    H1 4988   0.354   1.812  12.139 -0.9903  1.7450 -0.1896
  332TMC3    H2 4989   0.723   1.867  11.944 -0.4273  0.4548  0.2656
  332TMC3    C7 4990   0.618   1.763  12.154 -0.1102 -0.1759  0.2313
  332TMC3    C8 4991   0.625   1.958  11.733  0.3329 -0.0654 -0.1304
  332TMC3    O1 4992   0.545   1.683  12.211  0.2030  0.8256 -0.4650
  332TMC3    O2 4993   0.728   2.013  11.763  0.2466 -0.3783  0.2875
  333MPD2     C 4994   0.142   3.101  10.601 -0.5059  0.1938 -0.3104
  333MPD2    C1 4995   0.240   3.013  10.559 -0.5134 -0.0746 -1.1142
  333MPD2    C2 4996   0.278   2.911  10.650  0.1471 -0.3613 -0.3285
  333MPD2    C3 4997   0.219   2.903  10.776  0.8450  0.1858  0.0445
  333MPD2    C4 4998   0.124   2.994  10.812  0.4781  0.3041  0.0146
  333MPD2    C5 4999   0.085   3.093  10.727 -0.4111  0.2090 -0.1163
  333MPD2     H 5000   0.358   2.843  10.625  1.4056  0.5259  1.3306
  333MPD2    H1 5001   0.078   2.990  10.910 -1.8277 -2.3666 -1.1691
  333MPD2    H2 5002   0.126   3.190  10.541  1.2436  1.0925  0.5600
  333MPD2    H3 5003   0.003   3.158  10.757 -1.9728 -1.5441 -0.5637
  333MPD2     N 5004   0.269   2.804  10.862 -0.1414 -0.0978  0.4830
  333MPD2    H5 5005   0.354   2.756  10.834 -1.4734 -1.4629 -1.2054
  333MPD2    N1 5006   0.301   3.029  10.428  0.4628  0.7429  0.5902
  333MPD2    H7 5007   0.282   3.115  10.379  0.4347 -0.2894 -1.2226
  334TMC3    C1 5008   0.450   2.955  10.253 -0.5454 -0.0835  0.2012
  334TMC3    C2 5009   0.533   2.853  10.214  0.7008  0.2148 -0.0999
  334TMC3    C3 5010   0.650   2.888  10.144  0.5038 -0.4795  0.0297
  334TMC3    C4 5011   0.478   3.086  10.226  1.2050 -0.3496  0.3610
  334TMC3    C5 5012   0.597   3.111  10.155  0.5257  0.0678  0.4123
  334TMC3    C6 5013   0.687   3.017  10.115  0.4169 -0.0096 -0.3700
  334TMC3     C 5014   0.371   2.926  10.365 -0.3586 -0.1024  0.7198
  334TMC3     O 5015   0.389   2.811  10.406  0.7115 -0.1861  0.1380
  334TMC3     H 5016   0.492   2.754  10.224 -1.6009  0.9406 -2.3523
  334TMC3    H1 5017   0.416   3.167  10.263 -1.2504 -1.0904 -2.1648
  334TMC3    H2 5018   0.774   3.047  10.058 -0.3148  1.1814 -0.8743
  334TMC3    C7 5019   0.650   3.242  10.159  0.3435 -0.7356  1.0425
  334TMC3    C8 5020   0.736   2.777  10.094  0.2910  0.4774  0.1042
  334TMC3    O1 5021   0.772   3.249  10.190 -0.4413 -0.2513  0.3517
  334TMC3    O2 5022   0.685   2.666  10.084 -0.2631  0.0105 -0.1416
  335TMC3    C1 5023   0.381   4.089  17.563 -0.3927 -0.3463  0.2827
  335TMC3    C2 5024   0.322   4.021  17.453  0.3682  0.4744  0.2870
  335TMC3    C3 5025   0.370   4.041  17.331  0.4806 -0.3480  0.7380
  335TMC3    C4 5026   0.505   4.150  17.550 -0.5657 -0.3365  0.6404
  335TMC3    C5 5027   0.549   4.152  17.418 -0.6571 -0.3149 -0.3380
  335TMC3    C6 5028   0.487   4.105  17.310  0.0767  0.4890 -0.0138
  335TMC3     C 5029   0.316   4.079  17.690  0.0460  0.5867  0.8976
  335TMC3     O 5030   0.253   3.979   0.026  0.1886  0.2370 -0.0180
  335TMC3     H 5031   0.230   3.965  17.464  0.1348  1.0124  1.0464
  335TMC3    H1 5032   0.561   4.166  17.641  1.5948  1.5268 -1.0317
  335TMC3    H2 5033   0.526   4.106  17.209 -1.4770 -1.4569 -0.6221
  335TMC3    C7 5034   0.693   4.107  17.413 -0.3904  0.2340 -0.1086
  335TMC3    C8 5035   0.329   3.960  17.214 -0.0404 -0.4108  0.3424
  335TMC3    O1 5036   0.724   4.032  17.320 -0.0068  0.7099 -0.0403
  335TMC3    O2 5037   0.335   3.999  17.096 -0.5452 -0.4007 -0.5760
  336MPD2     C 5038   0.243   1.716  16.632 -0.1895  0.5505  0.0346
  336MPD2    C1 5039   0.252   1.708  16.492  0.4592 -0.4918 -1.1869
  336MPD2    C2 5040   0.318   1.607  16.426  0.0089 -0.4192 -0.5802
  336MPD2    C3 5041   0.384   1.511  16.497 -0.4935  0.0843  0.3162
  336MPD2    C4 5042   0.376   1.514  16.635  0.7489  0.6939  0.1851
  336MPD2    C5 5043   0.304   1.614  16.700  0.4363 -0.3186  0.4170
  336MPD2     H 5044   0.306   1.609  16.318 -0.1993  0.0960 -0.5515
  336MPD2    H1 5045   0.421   1.437  16.697 -1.2738 -1.4005 -0.9293
  336MPD2    H2 5046   0.193   1.794  16.688  0.6236  0.7454  0.4973
  336MPD2    H3 5047   0.302   1.613  16.808 -0.7778 -0.1046  0.3894
  336MPD2     N 5048   0.443   1.393  16.446  0.5899  0.1326  0.2122
  336MPD2    H5 5049   0.475   1.320  16.509  0.6182 -1.6374 -1.8175
  336MPD2    N1 5050   0.191   1.812  16.413  0.4281 -0.1345  0.2660
  336MPD2    H7 5051   0.223   1.826  16.318  2.7544 -0.4610  0.9888
  337TMC3    C1 5052   0.081   1.999  16.351  0.2436  0.1473  0.2950
  337TMC3    C2 5053   0.056   1.947  16.224 -0.1883 -0.1757  0.1995
  337TMC3    C3 5054   4.710   2.019  16.129 -0.0499  0.3543  0.7359
  337TMC3    C4 5055   0.019   2.113  16.386  0.3002 -0.4995 -0.4719
  337TMC3    C5 5056   4.675   2.181  16.289 -0.0014 -0.0227  0.3385
  337TMC3    C6 5057   4.663   2.142  16.156 -0.4233 -0.5689 -0.2648
  337TMC3     C 5058   0.119   1.922  16.460 -0.0885 -0.1584 -0.6180
  337TMC3     O 5059   0.097   1.959  16.575 -0.2076  0.2036 -0.1596
  337TMC3     H 5060   0.071   1.843  16.199 -3.5646 -0.6159  0.0405
  337TMC3    H1 5061   0.022   2.148  16.489 -2.4286  0.0710 -0.5984
  337TMC3    H2 5062   4.600   2.202  16.091  0.3962  0.4333 -0.1431
  337TMC3    C7 5063   4.576   2.281  16.331 -0.4780  0.0142  0.8024
  337TMC3    C8 5064   4.710   1.971  15.993  0.0848  0.1751 -0.3082
  337TMC3    O1 5065   4.521   2.341  16.239  0.1742 -0.6025  0.0370
  337TMC3    O2 5066   0.068   1.882  15.970  0.0369  0.0139 -0.5234
  338MPD2     C 5067   1.625   1.320   0.815  0.1640 -0.1154 -0.7519
  338MPD2    C1 5068   1.570   1.197   0.839 -0.5518  0.3526 -0.1870
  338MPD2    C2 5069   1.567   1.156   0.974 -0.0310 -0.3224 -0.4344
  338MPD2    C3 5070   1.606   1.238   1.080  0.4235 -0.0788 -0.4654
  338MPD2    C4 5071   1.664   1.360   1.046  0.0092  0.4763  0.3330
  338MPD2    C5 5072   1.676   1.397   0.916 -0.9851 -0.2375 -0.1676
  338MPD2     H 5073   1.530   1.058   0.998  0.7902 -0.5799 -0.2089
  338MPD2    H1 5074   1.698   1.429   1.122  0.8740 -0.1959  0.5545
  338MPD2    H2 5075   1.634   1.368   0.718 -3.2238  3.5491  0.7492
  338MPD2    H3 5076   1.728   1.486   0.883 -1.4285 -1.2394 -3.6311
  338MPD2     N 5077   1.583   1.196   1.209  0.0331 -0.4160 -0.4086
  338MPD2    H5 5078   1.556   1.099   1.223 -0.5778 -0.0217  1.1549
  338MPD2    N1 5079   1.507   1.121   0.735 -0.5035  0.2481  0.6946
  338MPD2    H7 5080   1.462   1.035   0.765 -0.2098  0.5905  2.1125
  339TMC3    C1 5081   1.576   1.213   1.455  0.1257 -0.0243 -0.3840
  339TMC3    C2 5082   1.613   1.286   1.566 -0.1732  0.5378  0.2927
  339TMC3    C3 5083   1.543   1.264   1.680  0.0853 -0.2980 -0.1959
  339TMC3    C4 5084   1.473   1.127   1.457  0.2636 -0.5067 -0.0763
  339TMC3    C5 5085   1.407   1.106   1.574  0.2757  0.2256  0.5797
  339TMC3    C6 5086   1.444   1.173   1.688  0.3386 -0.0209  0.0777
  339TMC3     C 5087   1.620   1.266   1.326 -0.2189 -0.3091  0.2488
  339TMC3     O 5088   1.684   1.369   1.342 -0.5948  0.1752  0.2926
  339TMC3     H 5089   1.689   1.362   1.554 -1.2267  1.4833 -0.3958
  339TMC3    H1 5090   1.425   1.100   1.364 -0.5252 -2.9083  1.0073
  339TMC3    H2 5091   1.399   1.147   1.784  0.0115  2.1630  0.5233
  339TMC3    C7 5092   1.269   1.111   1.548  0.9849 -0.0694  0.0238
  339TMC3    C8 5093   1.529   1.389   1.753  1.0016  0.3208  0.7252
  339TMC3    O1 5094   1.197   1.193   1.607  0.7575  0.5061 -0.1143
  339TMC3    O2 5095   1.632   1.454   1.755 -0.5113 -0.1283 -0.0198
  340MPD2     C 5096   4.566   3.480   9.101 -0.2293 -0.0428  0.2188
  340MPD2    C1 5097   4.646   3.371   9.117  0.4373 -0.4641  0.2000
  340MPD2    C2 5098   0.029   3.378   9.207 -0.9054  0.6891  0.4956
  340MPD2    C3 5099   0.056   3.493   9.284 -0.2576 -0.1295  0.0439
  340MPD2    C4 5100   4.694   3.600   9.271 -0.1005 -0.2203  1.1741
  340MPD2    C5 5101   4.590   3.595   9.176  0.0733 -0.2186  0.3923
  340MPD2     H 5102   0.104   3.300   9.209 -2.0796 -0.4672 -1.1522
  340MPD2    H1 5103   4.700   3.692   9.327  1.2383 -0.3629  1.2787
  340MPD2    H2 5104   4.486   3.481   9.028 -0.2950  0.5148  0.3009
  340MPD2    H3 5105   4.534   3.687   9.163 -0.8333 -0.5954  1.6477
  340MPD2     N 5106   0.148   3.494   9.381 -0.2150 -0.9116 -0.1310
  340MPD2    H5 5107   0.163   3.579   9.435 -0.1059  0.2734 -2.0059
  340MPD2    N1 5108   4.625   3.257   9.037  0.0581  0.1439 -0.4993
  340MPD2    H7 5109   4.575   3.268   8.950  0.4982 -0.2503 -0.8026
  341TMC3    C1 5110   4.705   3.063   8.949 -0.1200 -0.2500 -0.0867
  341TMC3    C2 5111   4.702   2.925   8.941 -0.3187 -0.0875  0.1416
  341TMC3    C3 5112   0.069   2.864   8.857  0.0033 -0.4021  0.5496
  341TMC3    C4 5113   0.087   3.119   8.893  0.2333 -0.1825 -0.0149
  341TMC3    C5 5114   0.165   3.061   8.803 -0.2228 -0.5925  0.2174
  341TMC3    C6 5115   0.163   2.928   8.776  0.8084  0.2376  0.2659
  341TMC3     C 5116   4.665   3.126   9.070 -0.6197  0.4825 -0.0142
  341TMC3     O 5117   4.664   3.066   9.181  0.1961 -0.0962 -0.2213
  341TMC3     H 5118   4.624   2.876   8.998  0.3374 -0.4031  0.7610
  341TMC3    H1 5119   0.093   3.227   8.900 -1.8105 -0.0292 -0.7324
  341TMC3    H2 5120   0.228   2.871   8.711 -1.1105  1.6267 -2.8605
  341TMC3    C7 5121   0.269   3.150   8.750  0.4880 -0.1704 -0.0328
  341TMC3    C8 5122   0.049   2.720   8.839 -0.6156 -0.0689  0.3559
  341TMC3    O1 5123   0.287   3.248   8.817  0.0240  0.0815 -0.5165
  341TMC3    O2 5124   4.657   2.689   8.845 -0.3544  0.2681  0.4314
  342MPD2     C 5125   3.407   1.855   0.298  0.7158  0.2013  0.2680
  342MPD2    C1 5126   3.492   1.904   0.196  0.0525  0.2682  0.2307
  342MPD2    C2 5127   3.528   2.037   0.192  0.8434 -0.6344  0.2296
  342MPD2    C3 5128   3.475   2.123   0.285  0.4691  0.7282  0.6679
  342MPD2    C4 5129   3.391   2.073   0.379 -0.5810  0.1553 -0.0225
  342MPD2    C5 5130   3.356   1.942   0.394 -0.5293  1.0808 -0.2487
  342MPD2     H 5131   3.584   2.070   0.104 -0.7447  0.1633 -0.4745
  342MPD2    H1 5132   3.352   2.147   0.448 -0.5347  0.0881  0.0758
  342MPD2    H2 5133   3.396   1.748   0.312 -0.6340  0.9068  4.4775
  342MPD2    H3 5134   3.288   1.905   0.470  1.5608 -0.3052  0.9497
  342MPD2     N 5135   3.509   2.262   0.292 -0.4927 -0.1430  0.1214
  342MPD2    H5 5136   3.461   2.315   0.364  0.0819  1.7713 -0.9137
  342MPD2    N1 5137   3.533   1.823   0.092 -0.1015 -0.3545 -0.1349
  342MPD2    H7 5138   3.596   1.872   0.029 -0.0383 -0.4925 -0.1792
  343TMC3    C1 5139   3.568   1.639  17.659 -0.2902 -0.6183  0.6587
  343TMC3    C2 5140   3.708   1.664  17.650 -0.0613 -0.1327 -0.3472
  343TMC3    C3 5141   3.775   1.606  17.539 -0.1950  0.9337  0.0841
  343TMC3    C4 5142   3.505   1.555  17.581  0.1774 -0.6015  0.0324
  343TMC3    C5 5143   3.580   1.496  17.475  0.2874  0.3893 -0.2916
  343TMC3    C6 5144   3.709   1.526  17.444 -0.6913  0.1048  0.5358
  343TMC3     C 5145   3.495   1.694   0.074  0.0513 -0.6317  0.6902
  343TMC3     O 5146   3.390   1.636   0.108 -1.0697 -0.2821  0.3890
  343TMC3     H 5147   3.764   1.719   0.026 -0.0045 -1.7197  0.7924
  343TMC3    H1 5148   3.402   1.529  17.605 -0.0550 -0.3570 -0.7044
  343TMC3    H2 5149   3.749   1.487  17.351  0.7318  2.0550  0.3343
  343TMC3    C7 5150   3.521   1.383  17.402  0.6719  0.4046 -0.1871
  343TMC3    C8 5151   3.920   1.620  17.539  1.0422 -0.1890 -0.1644
  343TMC3    O1 5152   3.399   1.360  17.413  1.0037  0.6437 -1.0843
  343TMC3    O2 5153   3.977   1.696  17.616  0.5573 -0.1706  0.2332
  344MPD2     C 5154   3.935   1.893  10.533 -0.2015 -0.2235 -0.2445
  344MPD2    C1 5155   3.892   1.825  10.420 -0.4383  0.2807  0.2651
  344MPD2    C2 5156   3.906   1.878  10.291  0.3713 -0.4562  0.2697
  344MPD2    C3 5157   3.973   2.003  10.281 -0.3021 -0.1779  0.0747
  344MPD2    C4 5158   4.031   2.066  10.390  0.0220  0.8740 -0.1727
  344MPD2    C5 5159   4.011   2.010  10.511 -0.5414  0.0239  0.1665
  344MPD2     H 5160   3.866   1.829  10.203 -0.3261 -0.9837  0.8736
  344MPD2    H1 5161   4.062   2.169  10.384  0.1142  0.8375 -0.3051
  344MPD2    H2 5162   3.930   1.851  10.633  2.6561  1.6187  0.6707
  344MPD2    H3 5163   4.060   2.068  10.588 -0.1032 -0.3358  0.1632
  344MPD2     N 5164   3.983   2.087  10.167  0.1884  0.6580 -0.8119
  344MPD2    H5 5165   4.032   2.175  10.168  1.3767 -0.0175 -0.5817
  344MPD2    N1 5166   3.826   1.700  10.424 -0.2294  0.0640  0.2671
  344MPD2    H7 5167   3.804   1.660  10.333  2.4159  1.1403 -0.8567
  345TMC3    C1 5168   3.928   2.159   9.946  0.2937 -0.0449 -0.2338
  345TMC3    C2 5169   4.062   2.184   9.923  0.0104 -0.1806 -0.1895
  345TMC3    C3 5170   4.080   2.240   9.800 -0.4889  0.2251  0.1737
  345TMC3    C4 5171   3.820   2.178   9.863  0.0127  0.4625  0.4350
  345TMC3    C5 5172   3.850   2.257   9.756 -0.4336  0.1920  0.3784
  345TMC3    C6 5173   3.978   2.280   9.714  0.2463  0.0027  0.2070
  345TMC3     C 5174   3.911   2.057  10.051 -0.2268 -1.1258 -0.1159
  345TMC3     O 5175   3.837   1.961  10.028  0.3282  0.1370 -0.6460
  345TMC3     H 5176   4.139   2.170   9.998  0.1531 -0.5722 -0.4092
  345TMC3    H1 5177   3.721   2.151   9.899 -0.1909  0.7824  0.1175
  345TMC3    H2 5178   4.002   2.358   9.642  3.5160  0.2017  1.5389
  345TMC3    C7 5179   3.776   2.376   9.747 -0.1029  0.5793  0.1328
  345TMC3    C8 5180   4.213   2.309   9.792  0.2664 -0.0823  0.0889
  345TMC3    O1 5181   3.829   2.479   9.704  0.2850 -0.4634 -0.0348
  345TMC3    O2 5182   4.276   2.307   9.898 -0.7005  0.1339  0.1256
  346MPD2     C 5183   3.555   3.282  13.811 -0.6597  0.2003  0.4829
  346MPD2    C1 5184   3.671   3.249  13.742  0.0083  0.2536 -0.1507
  346MPD2    C2 5185   3.791   3.300  13.786 -0.2436  0.1230  0.1761
  346MPD2    C3 5186   3.797   3.379  13.895 -1.5255  0.0428  0.1622
  346MPD2    C4 5187   3.680   3.434  13.946  0.3367  0.0495  0.4370
  346MPD2    C5 5188   3.564   3.380  13.907  0.2566  0.2815 -0.0160
  346MPD2     H 5189   3.880   3.259  13.740 -0.4716  1.0275 -1.0725
  346MPD2    H1 5190   3.687   3.499  14.033  0.9835  2.1229 -1.1508
  346MPD2    H2 5191   3.453   3.257  13.784 -1.5667  2.4184  1.9036
  346MPD2    H3 5192   3.472   3.416  13.951 -0.4732  0.8705 -2.0516
  346MPD2     N 5193   3.926   3.399  13.950  0.1466  0.1926  0.1702
  346MPD2    H5 5194   4.008   3.366  13.901  0.5392  2.2779 -0.5822
  346MPD2    N1 5195   3.674   3.165  13.629  0.7119  0.1761  0.1591
  346MPD2    H7 5196   3.766   3.149  13.588  1.4943  0.0689  1.9604
  347TMC3    C1 5197   4.102   3.476  14.095  0.4588 -0.2437  0.7990
  347TMC3    C2 5198   4.197   3.451  13.999  0.3193  0.4281  0.2070
  347TMC3    C3 5199   4.326   3.451  14.038  0.0110 -0.4279  0.2986
  347TMC3    C4 5200   4.137   3.507  14.224 -0.3798 -0.4586  0.7711
  347TMC3    C5 5201   4.267   3.505  14.255 -0.3206  0.3964  0.4061
  347TMC3    C6 5202   4.359   3.465  14.167  0.6038  0.0903 -0.0828
  347TMC3     C 5203   3.952   3.451  14.075  0.2115  0.5597  0.7534
  347TMC3     O 5204   3.877   3.456  14.169 -0.1336  0.1562 -0.1660
  347TMC3     H 5205   4.177   3.403  13.904  0.3244 -1.2655  1.0679
  347TMC3    H1 5206   4.063   3.527  14.301  0.0241 -0.4240  1.1472
  347TMC3    H2 5207   4.463   3.463  14.198 -0.4583  0.2886  3.5270
  347TMC3    C7 5208   4.312   3.584  14.377 -0.0445  0.5398  0.5422
  347TMC3    C8 5209   4.416   3.363  13.967 -0.5870  0.0782 -0.0592
  347TMC3    O1 5210   4.216   3.618  14.445  0.0935  0.0008  0.1292
  347TMC3    O2 5211   4.491   3.291  14.038  0.5867 -0.1914 -0.5692
  348MPD2     C 5212   2.442   2.905  11.452  0.4385  0.2869  0.4909
  348MPD2    C1 5213   2.524   3.013  11.450  0.0914  0.5915  0.1573
  348MPD2    C2 5214   2.504   3.113  11.353 -0.5167 -0.5006 -0.4468
  348MPD2    C3 5215   2.383   3.116  11.274 -0.2790  0.0677 -0.0196
  348MPD2    C4 5216   2.295   3.014  11.286  0.0750  0.7311 -0.0126
  348MPD2    C5 5217   2.335   2.903  11.359  0.2361 -0.0366  0.1540
  348MPD2     H 5218   2.571   3.198  11.351  0.8482 -1.5268  1.8554
  348MPD2    H1 5219   2.199   3.001  11.238 -0.9213  0.9767  1.8906
  348MPD2    H2 5220   2.445   2.823  11.523 -0.7020 -1.6369 -1.7198
  348MPD2    H3 5221   2.269   2.817  11.360 -0.2855  0.3619  0.2325
  348MPD2     N 5222   2.357   3.220  11.177  0.1110  0.1764 -0.1857
  348MPD2    H5 5223   2.434   3.281  11.153 -0.1530  0.3994 -0.4625
  348MPD2    N1 5224   2.628   3.031  11.543  0.0830  0.6136  0.3625
  348MPD2    H7 5225   2.680   3.118  11.539 -0.1242  0.7497  0.6721
  349TMC3    C1 5226   2.793   2.951  11.703  0.3306  0.0322 -0.0103
  349TMC3    C2 5227   2.846   2.840  11.766  0.3639 -0.8442  0.3315
  349TMC3    C3 5228   2.979   2.812  11.750  0.0232 -0.4152  0.3343
  349TMC3    C4 5229   2.880   3.037  11.638 -0.3899 -0.3431 -0.3886
  349TMC3    C5 5230   3.014   3.014  11.646 -0.3012  1.0696 -0.4456
  349TMC3    C6 5231   3.072   2.902  11.699  0.1674 -0.0340 -0.0895
  349TMC3     C 5232   2.669   2.932  11.637 -0.6447  0.8531 -0.6266
  349TMC3     O 5233   2.622   2.828  11.670  0.8076  0.5059  0.6047
  349TMC3     H 5234   2.783   2.763  11.811 -1.8038 -1.0208 -3.0015
  349TMC3    H1 5235   2.840   3.130  11.597 -2.5161 -1.4255 -0.7657
  349TMC3    H2 5236   3.178   2.882  11.688 -0.0646 -0.4439 -1.6347
  349TMC3    C7 5237   3.078   3.064  11.520  0.5924 -0.4038  0.0036
  349TMC3    C8 5238   3.038   2.695  11.808  0.3904  0.1029 -0.9317
  349TMC3    O1 5239   3.105   2.982  11.432  0.1847  0.2610 -0.0424
  349TMC3    O2 5240   2.998   2.650  11.913 -0.1421 -0.3895 -0.4674
  350MPD2     C 5241   1.398   0.994   9.970 -0.4895 -0.1498 -0.3361
  350MPD2    C1 5242   1.521   0.947  10.005 -0.9582  0.2772 -0.3492
  350MPD2    C2 5243   1.635   1.028   9.980 -0.1865 -0.1185 -0.4015
  350MPD2    C3 5244   1.619   1.155   9.934  0.1484 -0.2173  0.3494
  350MPD2    C4 5245   1.493   1.200   9.903  0.1148 -0.7265 -0.1570
  350MPD2    C5 5246   1.384   1.122   9.921  0.5442  0.0311 -0.3016
  350MPD2     H 5247   1.735   0.992  10.003 -0.1209  0.3090 -0.0124
  350MPD2    H1 5248   1.486   1.302   9.867 -1.0387 -0.9304 -0.5085
  350MPD2    H2 5249   1.309   0.932   9.967  0.9178 -2.2063 -0.2773
  350MPD2    H3 5250   1.285   1.163   9.906  0.2589 -0.5547 -0.0585
  350MPD2     N 5251   1.734   1.243   9.926 -0.2162  0.2828 -0.4310
  350MPD2    H5 5252   1.820   1.203   9.961 -0.6128  0.5206  0.8272
  350MPD2    N1 5253   1.546   0.816  10.051 -0.7957  0.3765  0.0853
  350MPD2    H7 5254   1.642   0.787  10.066 -1.0509 -0.4087  0.2109
  351TMC3    C1 5255   1.506   0.601  10.129 -0.0372  0.0083  0.3533
  351TMC3    C2 5256   1.640   0.583  10.157 -0.4826  0.4814 -0.0524
  351TMC3    C3 5257   1.688   0.460  10.177  0.6329  0.8033 -0.0517
  351TMC3    C4 5258   1.426   0.498  10.140  0.4761  0.5070  0.0629
  351TMC3    C5 5259   1.477   0.368  10.158  0.6847 -0.2929  0.1440
  351TMC3    C6 5260   1.612   0.347  10.177 -0.3990 -0.0566 -0.3320
  351TMC3     C 5261   1.449   0.730  10.099  0.3553  0.2568  0.1467
  351TMC3     O 5262   1.333   0.759  10.114 -0.3972 -0.0710 -0.3872
  351TMC3     H 5263   1.700   0.673  10.157 -0.5670  0.5354  0.6213
  351TMC3    H1 5264   1.320   0.520  10.134  0.6823  0.9861 -1.8243
  351TMC3    H2 5265   1.651   0.246  10.172  0.7524  0.3709  0.1597
  351TMC3    C7 5266   1.410   0.265  10.080 -0.2922  0.4376 -0.0943
  351TMC3    C8 5267   1.823   0.445  10.146  0.4271  0.0726 -0.8258
  351TMC3    O1 5268   1.312   0.303  10.016  0.2135 -0.7542 -0.3679
  351TMC3    O2 5269   1.856   0.498  10.043  0.7335 -0.2348 -0.5119
  352MPD2     C 5270   0.573   3.297   1.599 -0.4937  0.0928  0.1790
  352MPD2    C1 5271   0.473   3.233   1.540  0.1021  0.3611 -0.3469
  352MPD2    C2 5272   0.463   3.087   1.541  0.3331  0.6084 -0.4378
  352MPD2    C3 5273   0.557   3.023   1.628 -0.8865  0.5920 -0.6897
  352MPD2    C4 5274   0.645   3.098   1.700 -0.5538  0.0379 -0.1539
  352MPD2    C5 5275   0.661   3.232   1.680  0.7121  0.4968  0.5735
  352MPD2     H 5276   0.397   3.036   1.471 -0.9521  0.4061  0.9119
  352MPD2    H1 5277   0.722   3.051   1.760  1.9917  0.4469 -3.1112
  352MPD2    H2 5278   0.596   3.403   1.593 -2.2620  0.2986 -3.1313
  352MPD2    H3 5279   0.748   3.279   1.725  0.5977  1.6199 -0.3724
  352MPD2     N 5280   0.556   2.881   1.645 -0.0688  0.2810  0.0618
  352MPD2    H5 5281   0.627   2.841   1.705 -0.9780 -1.3694  0.0469
  352MPD2    N1 5282   0.396   3.307   1.446 -0.3202  0.0898 -0.4129
  352MPD2    H7 5283   0.438   3.397   1.420 -1.3668  0.1605 -1.8609
  353TMC3    C1 5284   0.461   2.674   1.665  0.3701 -0.3374  0.2354
  353TMC3    C2 5285   0.535   2.660   1.775  0.0935 -0.0602  0.0939
  353TMC3    C3 5286   0.539   2.531   1.826 -0.9146  0.5714  0.8111
  353TMC3    C4 5287   0.383   2.572   1.613  0.2920 -0.3878 -0.0578
  353TMC3    C5 5288   0.381   2.449   1.671  0.8820 -0.3186  0.2611
  353TMC3    C6 5289   0.466   2.426   1.776 -0.3129 -0.2200  0.0501
  353TMC3     C 5290   0.459   2.804   1.599  0.3614  0.2426  0.3818
  353TMC3     O 5291   0.360   2.821   1.528  0.8375 -0.1147 -0.5473
  353TMC3     H 5292   0.591   2.741   1.822  0.5677 -0.9268  1.0310
  353TMC3    H1 5293   0.322   2.591   1.526  0.5413  0.3451 -0.0673
  353TMC3    H2 5294   0.473   2.326   1.816  0.0107 -0.9702 -1.8647
  353TMC3    C7 5295   0.306   2.338   1.619  0.2859  0.0331  0.4141
  353TMC3    C8 5296   0.665   2.508   1.889  0.1528 -1.0293 -0.2130
  353TMC3    O1 5297   0.306   2.320   1.499 -0.4700  0.1655 -0.3137
  353TMC3    O2 5298   0.713   2.602   1.954  0.2520  0.0584 -0.4918
  354TMC3    C1 5299   1.914   4.308  13.791  0.4898  0.0691  0.6561
  354TMC3    C2 5300   1.881   4.421  13.718 -0.0937  0.6374 -0.0410
  354TMC3    C3 5301   1.960   4.457  13.608  0.1573 -0.6683 -0.0899
  354TMC3    C4 5302   2.011   4.227  13.749 -0.0989 -0.0426 -0.0556
  354TMC3    C5 5303   2.097   4.270  13.647  0.4352 -0.2320 -0.0952
  354TMC3    C6 5304   2.067   4.383  13.573  0.7882  0.1653  0.0097
  354TMC3     C 5305   1.815   4.245  13.882  0.5497 -0.7593  0.2873
  354TMC3     O 5306   1.859   4.158  13.957 -0.5202  0.5395 -0.4159
  354TMC3     H 5307   1.812   4.491  13.764 -0.7789 -0.6510  0.9242
  354TMC3    H1 5308   2.037   4.140  13.808 -1.1937 -1.0772 -1.1067
  354TMC3    H2 5309   2.132   4.414  13.491  0.9524  2.0179  0.8298
  354TMC3    C7 5310   2.208   4.186  13.607  0.7418  0.3347  0.3487
  354TMC3    C8 5311   1.946   4.595  13.564  0.5198 -0.6481 -0.6711
  354TMC3    O1 5312   2.254   4.094  13.672 -0.3319  0.6182  0.7428
  354TMC3    O2 5313   1.882   4.670  13.638 -0.0213  0.6797 -0.1771
  355MPD2     C 5314   2.049   0.360  11.706 -0.2703  0.5935  0.4240
  355MPD2    C1 5315   2.128   0.390  11.598  0.1660 -0.8078  0.4290
  355MPD2    C2 5316   2.263   0.366  11.595  0.1149  0.4822  0.6972
  355MPD2    C3 5317   2.329   0.307  11.699  0.2677 -0.3450 -0.6639
  355MPD2    C4 5318   2.250   0.289  11.815  0.1114 -0.1681  0.4295
  355MPD2    C5 5319   2.118   0.310  11.812 -0.5954 -0.0854  0.3812
  355MPD2     H 5320   2.316   0.391  11.505 -2.3546 -1.5344 -1.3096
  355MPD2    H1 5321   2.299   0.247  11.902  1.4147  1.3978  0.4554
  355MPD2    H2 5322   1.941   0.360  11.694 -0.3801 -0.4221  1.4040
  355MPD2    H3 5323   2.068   0.275  11.902 -1.2599  0.8477  0.3629
  355MPD2     N 5324   2.469   0.303  11.704  0.4676  0.7119  0.3808
  355MPD2    H5 5325   2.516   0.282  11.792  0.3756 -2.0788 -0.2396
  355MPD2    N1 5326   2.064   0.461  11.493 -0.3636 -0.0001 -0.0881
  355MPD2    H7 5327   1.965   0.479  11.500 -0.2643  0.2329  0.7366
  356TMC3    C1 5328   2.675   0.377  11.618  0.3678  0.3192 -0.0358
  356TMC3    C2 5329   2.738   0.431  11.511 -0.2794  0.2234  0.1454
  356TMC3    C3 5330   2.811   0.543  11.521 -0.5081 -0.0724 -0.2453
  356TMC3    C4 5331   2.682   0.435  11.741  1.0343  0.1081 -0.1480
  356TMC3    C5 5332   2.753   0.551  11.752  0.5492  0.1677  0.3761
  356TMC3    C6 5333   2.822   0.604  11.641  0.0475  0.1266  0.0762
  356TMC3     C 5334   2.550   0.326  11.586  0.3763 -0.4513 -0.3329
  356TMC3     O 5335   2.521   0.299  11.473  0.0558  0.4651 -0.4139
  356TMC3     H 5336   2.729   0.392  11.410 -0.0292 -0.4991  0.3996
  356TMC3    H1 5337   2.649   0.396  11.836 -0.8247 -0.1854 -0.9109
  356TMC3    H2 5338   2.875   0.699  11.644  0.3295  0.0471 -2.2381
  356TMC3    C7 5339   2.772   0.601  11.884  0.5123 -0.2832 -1.0287
  356TMC3    C8 5340   2.866   0.592  11.399  0.0669  0.2040 -0.4077
  356TMC3    O1 5341   2.721   0.548  11.981 -0.5858 -0.4198 -0.2396
  356TMC3    O2 5342   2.879   0.517  11.305  0.0478  0.2605  0.0824
  357MPD2     C 5343   2.036   0.017   1.437  0.2898 -0.7143  0.0993
  357MPD2    C1 5344   2.064   0.140   1.498 -0.1312  0.3342  1.1694
  357MPD2    C2 5345   2.009   0.161   1.623 -0.1612 -0.1987 -0.5219
  357MPD2    C3 5346   1.924   0.069   1.687  0.6557 -0.5811  0.6162
  357MPD2    C4 5347   1.893   4.683   1.614  0.0987  0.3062 -0.0796
  357MPD2    C5 5348   1.948   4.651   1.492  0.3006  0.4396 -0.0113
  357MPD2     H 5349   2.022   0.254   1.677  2.8660 -1.2029  0.5264
  357MPD2    H1 5350   1.829   4.609   1.662 -1.0109  1.3676  0.0604
  357MPD2    H2 5351   2.080   4.713   1.342 -0.8767  3.8817 -1.8428
  357MPD2    H3 5352   1.928   4.557   1.443  0.2186 -0.0346  0.9353
  357MPD2     N 5353   1.879   0.091   1.817  0.7878  0.3644  0.1081
  357MPD2    H5 5354   1.797   0.038   1.843 -0.1389 -0.2310 -4.0337
  357MPD2    N1 5355   2.149   0.231   1.430  1.1014  0.4492  0.3440
  357MPD2    H7 5356   2.185   0.199   1.341 -2.4531 -1.0845 -0.5454
  358TMC3    C1 5357   2.281   0.425   1.397 -0.2737  0.0645  0.5775
  358TMC3    C2 5358   2.338   0.373   1.288 -0.1026  0.0699  0.2977
  358TMC3    C3 5359   2.448   0.430   1.237 -0.2688  0.3203 -0.6720
  358TMC3    C4 5360   2.336   0.534   1.465 -0.0911  0.1824 -0.1641
  358TMC3    C5 5361   2.430   0.599   1.403 -0.0202  0.2993 -0.0404
  358TMC3    C6 5362   2.493   0.542   1.292  0.2132 -0.8327 -0.1275
  358TMC3     C 5363   2.191   0.346   1.485 -0.5126  0.2901 -0.3513
  358TMC3     O 5364   2.156   0.404   1.585 -0.2315 -0.6130  0.3516
  358TMC3     H 5365   2.281   0.309   1.221 -1.0404  1.6752 -0.4417
  358TMC3    H1 5366   2.289   0.579   1.551  2.5191  2.4177  0.0638
  358TMC3    H2 5367   2.558   0.603   1.230  1.0881 -1.9336 -0.2814
  358TMC3    C7 5368   2.521   0.694   1.475  0.2481  0.1967 -0.0518
  358TMC3    C8 5369   2.504   0.378   1.114 -0.0009  1.0407  0.2201
  358TMC3    O1 5370   2.610   0.749   1.409  0.2471 -0.0882 -0.3548
  358TMC3    O2 5371   2.427   0.307   1.049  0.5918 -0.0688  0.2755
  359MPD2     C 5372   2.705   3.330  12.796  0.2033  0.1018 -0.4114
  359MPD2    C1 5373   2.628   3.324  12.679  0.2993 -0.2514 -0.4480
  359MPD2    C2 5374   2.495   3.367  12.675 -0.2795 -1.0628 -0.1889
  359MPD2    C3 5375   2.440   3.414  12.786  0.0635 -0.0764 -0.2517
  359MPD2    C4 5376   2.507   3.425  12.904 -0.5532  0.5861 -0.0126
  359MPD2    C5 5377   2.641   3.386  12.907  0.3858  0.1698  0.9498
  359MPD2     H 5378   2.435   3.363  12.585 -0.6468 -0.3796  0.0247
  359MPD2    H1 5379   2.462   3.471  12.991 -1.2823 -2.1461  1.0688
  359MPD2    H2 5380   2.809   3.299  12.803  0.4598  0.9603 -0.4066
  359MPD2    H3 5381   2.698   3.408  12.996  1.1878  3.4643 -0.3686
  359MPD2     N 5382   2.307   3.450  12.782  0.8149  0.2287 -0.3772
  359MPD2    H5 5383   2.261   3.462  12.871  1.3356 -2.1169  0.2032
  359MPD2    N1 5384   2.696   3.279  12.566 -0.5080 -0.7370 -0.1698
  359MPD2    H7 5385   2.792   3.247  12.578 -0.1223  0.0162 -1.1936
  360TMC3    C1 5386   2.745   3.220  12.350 -0.3447  0.4596 -0.7417
  360TMC3    C2 5387   2.847   3.313  12.330  0.3084 -0.2248  0.2536
  360TMC3    C3 5388   2.919   3.299  12.213 -0.2870 -0.3474 -0.1200
  360TMC3    C4 5389   2.695   3.146  12.254 -0.2801 -0.6088  0.1539
  360TMC3    C5 5390   2.774   3.136  12.140  0.8959  0.0436  0.5609
  360TMC3    C6 5391   2.889   3.204  12.114  0.1704 -0.2793 -0.3684
  360TMC3     C 5392   2.651   3.276  12.441 -0.4170  0.3941  0.6083
  360TMC3     O 5393   2.534   3.291  12.396  0.2314  0.8019 -0.1433
  360TMC3     H 5394   2.891   3.367  12.413 -0.4177  3.5402 -1.8352
  360TMC3    H1 5395   2.613   3.081  12.280  0.9834 -2.1312  0.3786
  360TMC3    H2 5396   2.934   3.215  12.016 -0.8871  1.1797 -0.6997
  360TMC3    C7 5397   2.692   3.140  12.021  0.4920  0.4447 -0.4227
  360TMC3    C8 5398   3.016   3.405  12.183  0.7116  0.4778  0.5854
  360TMC3    O1 5399   2.746   3.142  11.912 -0.9101 -0.0532 -0.1667
  360TMC3    O2 5400   3.002   3.504  12.252  0.9522  0.2638  0.8738
  361MPD2     C 5401   4.235   2.211  17.050  0.4273  0.5547  0.0781
  361MPD2    C1 5402   4.313   2.294  17.126 -0.3642  0.3480 -0.1796
  361MPD2    C2 5403   4.448   2.293  17.113 -0.3715 -0.3218  0.1838
  361MPD2    C3 5404   4.510   2.187  17.044 -0.8115 -0.0337 -0.2085
  361MPD2    C4 5405   4.423   2.092  16.983  0.8967  0.0246 -1.0161
  361MPD2    C5 5406   4.293   2.111  16.976 -0.6922 -0.1661  0.4521
  361MPD2     H 5407   4.511   2.367  17.160 -0.6220  0.5314 -0.8316
  361MPD2    H1 5408   4.455   2.003  16.930 -1.0838 -0.8044 -0.7940
  361MPD2    H2 5409   4.127   2.204  17.044  0.4808 -1.0993  1.1949
  361MPD2    H3 5410   4.228   2.047  16.918  0.5193  0.5758 -1.7372
  361MPD2     N 5411   4.649   2.158  17.036 -0.5686  1.1032 -0.6253
  361MPD2    H5 5412   4.682   2.071  16.996  0.5178  0.7829  0.9923
  361MPD2    N1 5413   4.253   2.399  17.195  0.5908 -0.2513  0.0433
  361MPD2    H7 5414   4.303   2.487  17.199  2.5806 -1.3495 -0.8519
  362TMC3    C1 5415   4.064   2.510  17.287  1.0662  0.3115 -0.3815
  362TMC3    C2 5416   3.982   2.505  17.395  0.1322  0.2839  0.9772
  362TMC3    C3 5417   3.917   2.624  17.424  0.0236  0.0899  0.0878
  362TMC3    C4 5418   4.072   2.611  17.197 -0.1388  0.3483 -0.3401
  362TMC3    C5 5419   3.989   2.716  17.221 -0.6926 -0.1021  0.1053
  362TMC3    C6 5420   3.910   2.727  17.332  0.7742 -0.1425 -0.0284
  362TMC3     C 5421   4.124   2.387  17.257 -0.2853  0.7880 -0.2458
  362TMC3     O 5422   4.056   2.290  17.271  0.1669 -0.3465  0.6913
  362TMC3     H 5423   3.977   2.411  17.448  1.9129 -0.7609 -0.7518
  362TMC3    H1 5424   4.150   2.606  17.122  1.3252  0.8013  1.1492
  362TMC3    H2 5425   3.843   2.811  17.344 -0.4589 -0.7658 -2.4911
  362TMC3    C7 5426   3.941   2.779  17.100 -0.0025 -0.2433  0.4598
  362TMC3    C8 5427   3.824   2.621  17.531  0.5786 -0.4704 -0.4399
  362TMC3    O1 5428   3.902   2.896  17.107 -0.2294  0.0765 -0.5319
  362TMC3    O2 5429   3.794   2.514  17.573  0.2368  0.4739  0.3191
  363TMC3    C1 5430   1.798   0.456   9.060  0.4620  0.7311 -0.7191
  363TMC3    C2 5431   1.922   0.454   9.122  0.4390  0.7741  0.0762
  363TMC3    C3 5432   1.996   0.569   9.132 -0.0457  0.3384  0.5572
  363TMC3    C4 5433   1.747   0.576   9.010 -0.0617 -0.4457  0.1682
  363TMC3    C5 5434   1.830   0.690   9.023 -0.0800 -1.4947  0.2549
  363TMC3    C6 5435   1.948   0.686   9.084  0.4335  0.2778 -0.4799
  363TMC3     C 5436   1.719   0.332   9.046  0.1331 -0.2045  0.6455
  363TMC3     O 5437   1.604   0.347   8.997  0.2569 -0.0735 -0.2535
  363TMC3     H 5438   1.953   0.371   9.184  1.3237  0.5395 -0.6858
  363TMC3    H1 5439   1.642   0.579   8.984 -0.8250 -2.1655  2.9804
  363TMC3    H2 5440   2.000   0.778   9.110  0.5647 -0.4208  1.6823
  363TMC3    C7 5441   1.749   0.812   9.038  0.4284  0.4823 -0.2060
  363TMC3    C8 5442   2.105   0.573   9.227  0.2281 -0.6985 -0.0693
  363TMC3    O1 5443   1.629   0.806   9.061 -0.3674  0.1743 -0.4662
  363TMC3    O2 5444   2.111   0.675   9.292 -0.8259 -0.7496  0.5837
  364MPD2     C 5445   1.393   4.215  10.168  0.4176  0.2814 -0.2703
  364MPD2    C1 5446   1.430   4.323  10.241 -0.3875  0.0605  0.2931
  364MPD2    C2 5447   1.530   4.305  10.335 -0.3712 -0.0559 -0.6129
  364MPD2    C3 5448   1.586   4.179  10.358  0.7071  0.0776  0.7333
  364MPD2    C4 5449   1.542   4.079  10.277 -0.6505 -0.8748 -0.4649
  364MPD2    C5 5450   1.453   4.093  10.175 -1.0297 -0.7142  0.8873
  364MPD2     H 5451   1.558   4.388  10.400  0.8301 -1.0750  0.1629
  364MPD2    H1 5452   1.573   3.976  10.288  3.6841  0.8367  3.4245
  364MPD2    H2 5453   1.325   4.229  10.084 -0.7842 -2.1982  0.2646
  364MPD2    H3 5454   1.414   4.009  10.117  0.0926 -1.1189  0.7181
  364MPD2     N 5455   1.686   4.149  10.460  0.4062 -0.1656  0.2063
  364MPD2    H5 5456   1.727   4.057  10.463 -1.4642 -0.9946  0.2289
  364MPD2    N1 5457   1.348   4.439  10.235  0.3847 -0.9398 -0.2457
  364MPD2    H7 5458   1.273   4.439  10.167 -1.2345 -2.4983  1.5378
  365TMC3    C1 5459   1.250   4.654  10.277  0.2681 -0.2178  0.2351
  365TMC3    C2 5460   1.167   4.645  10.171 -1.2970 -0.1909  0.1382
  365TMC3    C3 5461   1.082   0.025  10.138  0.1022 -0.3446 -0.5567
  365TMC3    C4 5462   1.244   0.044  10.348 -0.6042  0.0317 -0.2547
  365TMC3    C5 5463   1.147   0.140  10.332 -0.7295 -0.2601  0.2977
  365TMC3    C6 5464   1.074   0.139  10.220  0.3712  0.3877  0.0455
  365TMC3     C 5465   1.360   4.558  10.301 -0.6640 -0.2918 -0.1282
  365TMC3     O 5466   1.436   4.593  10.392  0.0176  0.4330 -0.5290
  365TMC3     H 5467   1.191   4.569  10.097  0.8933 -0.8182  1.4653
  365TMC3    H1 5468   1.314   0.067  10.428  0.8099 -1.8671 -0.9396
  365TMC3    H2 5469   0.999   0.215  10.202  1.6366  1.3832 -1.0187
  365TMC3    C7 5470   1.142   0.238  10.438  0.3102 -0.3688  0.8185
  365TMC3    C8 5471   0.973   0.006  10.039 -0.4517  0.3411  0.8012
  365TMC3    O1 5472   1.087   0.341  10.405 -0.2169  0.6147 -0.1904
  365TMC3    O2 5473   0.897   0.101  10.039 -0.4343 -0.0861 -0.0822
  366MPD2     C 5474   4.453   0.703  15.458 -0.2961  0.6993 -0.2801
  366MPD2    C1 5475   4.577   0.765  15.462 -1.3440  0.3486  0.7651
  366MPD2    C2 5476   4.685   0.687  15.484 -0.3510  0.5763 -0.3617
  366MPD2    C3 5477   4.684   0.549  15.494  0.1193 -0.1365 -0.9406
  366MPD2    C4 5478   4.559   0.493  15.491 -0.5445  0.3111  0.0217
  366MPD2    C5 5479   4.448   0.564  15.467  0.4273  0.9140  0.8200
  366MPD2     H 5480   0.058   0.733  15.477  0.3953 -1.1484 -1.2066
  366MPD2    H1 5481   4.541   0.388  15.512  0.0395  0.2374  0.1440
  366MPD2    H2 5482   4.356   0.751  15.448 -0.8670 -0.4068 -0.1354
  366MPD2    H3 5483   4.346   0.530  15.462 -0.0315  2.4847 -0.6912
  366MPD2     N 5484   0.080   0.474  15.504  0.0064  0.1774 -0.1941
  366MPD2    H5 5485   0.167   0.525  15.504 -0.3492  0.7872 -0.7809
  366MPD2    N1 5486   4.588   0.908  15.441 -0.6775 -0.1264  0.0450
  366MPD2    H7 5487   4.681   0.948  15.436  0.1277 -2.2353 -1.7949
  367TMC3    C1 5488   4.530   1.132  15.408 -0.0984  0.2582  0.7393
  367TMC3    C2 5489   4.658   1.156  15.452  0.3255  0.5172 -0.6114
  367TMC3    C3 5490   4.707   1.277  15.403 -0.7648  0.1488  0.3711
  367TMC3    C4 5491   4.449   1.215  15.334 -0.4239  0.1687  0.4491
  367TMC3    C5 5492   4.512   1.336  15.301  0.5997 -0.1215  0.6156
  367TMC3    C6 5493   4.642   1.368  15.327  0.1635 -0.2720  0.1264
  367TMC3     C 5494   4.487   0.992  15.416  0.7229 -0.3770 -0.2041
  367TMC3     O 5495   4.370   0.979  15.386  0.7465  0.0213 -0.0456
  367TMC3     H 5496   4.703   1.095  15.529 -0.3653 -0.3850 -0.9167
  367TMC3    H1 5497   4.346   1.192  15.309 -0.6604 -0.8870  2.3965
  367TMC3    H2 5498   4.691   1.460  15.299 -1.1750  1.2430  2.8059
  367TMC3    C7 5499   4.435   1.432  15.227  0.2295  1.3254 -0.0108
  367TMC3    C8 5500   0.106   1.312  15.467 -0.7953 -0.1280 -0.1321
  367TMC3    O1 5501   4.507   1.513  15.163 -0.4153  0.0137  0.3508
  367TMC3    O2 5502   0.182   1.226  15.509 -0.4779  0.7494  0.4618
  368MPD2     C 5503   0.452   2.978  12.566 -0.0240  0.4017  0.5286
  368MPD2    C1 5504   0.489   3.090  12.503 -0.8544 -0.3453  0.0383
  368MPD2    C2 5505   0.615   3.132  12.487  0.3508  0.5872 -0.3054
  368MPD2    C3 5506   0.712   3.051  12.544 -0.9831  0.7498 -0.8254
  368MPD2    C4 5507   0.680   2.940  12.616  0.6957 -0.1431 -0.0377
  368MPD2    C5 5508   0.553   2.907  12.630 -0.1365  0.0518  0.0643
  368MPD2     H 5509   0.634   3.222  12.429  1.1741  0.1088 -0.7697
  368MPD2    H1 5510   0.757   2.875  12.655  0.0575 -2.0644 -1.9509
  368MPD2    H2 5511   0.350   2.943  12.567 -1.1448  3.7506  0.8210
  368MPD2    H3 5512   0.530   2.829  12.701 -0.8133  1.1216  1.0198
  368MPD2     N 5513   0.853   3.066  12.518  0.4734 -0.1506 -0.2147
  368MPD2    H5 5514   0.911   2.996  12.564 -1.0661 -1.5029 -0.2948
  368MPD2    N1 5515   0.379   3.172  12.458 -0.1368 -0.2807 -0.2045
  368MPD2    H7 5516   0.288   3.128  12.468 -0.4263  0.4064  0.1615
  369TMC3    C1 5517   0.253   3.355  12.383 -0.4141 -0.5128 -0.3406
  369TMC3    C2 5518   0.250   3.420  12.260 -0.4909 -0.6451  0.3551
  369TMC3    C3 5519   0.125   3.449  12.216  0.1374 -0.5312 -0.1775
  369TMC3    C4 5520   0.146   3.323  12.464  0.3174 -0.2045 -0.5175
  369TMC3    C5 5521   0.021   3.349  12.407  0.4344 -0.4853 -1.1867
  369TMC3    C6 5522   0.013   3.410  12.289  0.4707 -0.2311  0.5306
  369TMC3     C 5523   0.384   3.301  12.411  0.4826  0.4203  0.5020
  369TMC3     O 5524   0.481   3.378  12.410 -0.5277 -0.0407  0.1577
  369TMC3     H 5525   0.342   3.457  12.216 -1.0475  0.2249 -0.0721
  369TMC3    H1 5526   0.167   3.273  12.558 -0.4065 -0.2296 -0.3659
  369TMC3    H2 5527   4.645   3.439  12.241  0.6993  1.4776  1.1178
  369TMC3    C7 5528   4.634   3.309  12.479 -0.4462 -0.0857  0.0737
  369TMC3    C8 5529   0.110   3.516  12.094  0.5556  0.1617 -0.3395
  369TMC3    O1 5530   4.663   3.284  12.593 -0.4428  0.0154  0.1980
  369TMC3    O2 5531   4.717   3.548  12.064  0.2393 -0.0454  0.0552
  370TMC3    C1 5532   0.636   3.399  16.353 -0.0601 -0.1497  0.1175
  370TMC3    C2 5533   0.538   3.354  16.444 -0.1066 -0.3545 -0.4071
  370TMC3    C3 5534   0.457   3.248  16.402 -0.1658 -0.9795  0.4586
  370TMC3    C4 5535   0.655   3.356  16.226  0.9208 -0.1801 -0.0839
  370TMC3    C5 5536   0.573   3.255  16.188  0.1850 -0.9986 -0.8134
  370TMC3    C6 5537   0.468   3.206  16.272  0.3750  0.6641  0.6675
  370TMC3     C 5538   0.750   3.431  16.431 -0.1439 -0.2466  1.3813
  370TMC3     O 5539   0.747   3.406  16.550  0.2367 -0.4209  0.2925
  370TMC3     H 5540   0.538   3.386  16.547 -1.8789  0.7050 -0.7500
  370TMC3    H1 5541   0.738   3.381  16.161  0.6431 -2.4239 -1.2827
  370TMC3    H2 5542   0.405   3.126  16.236 -0.6660  1.3259  1.0121
  370TMC3    C7 5543   0.627   3.163  16.093  0.0710 -1.1585  0.3870
  370TMC3    C8 5544   0.425   3.151  16.508 -0.8452  0.2058  0.9165
  370TMC3    O1 5545   0.741   3.176  16.057  0.0502  0.0990  0.1789
  370TMC3    O2 5546   0.432   3.036  16.463  0.2491  0.1457 -0.1946
  371TMC3    C1 5547   1.845   1.666  15.365 -0.3499 -0.0543  0.0807
  371TMC3    C2 5548   1.717   1.695  15.404 -0.1554 -0.2228  0.0831
  371TMC3    C3 5549   1.661   1.824  15.395 -0.2306  0.4019 -1.0414
  371TMC3    C4 5550   1.905   1.765  15.285  0.7188 -0.4377 -0.4060
  371TMC3    C5 5551   1.847   1.888  15.278  0.3465  0.3440 -0.2516
  371TMC3    C6 5552   1.729   1.921  15.330  0.1839  0.1533  0.3435
  371TMC3     C 5553   1.910   1.543  15.391 -0.3963  0.7477  0.6355
  371TMC3     O 5554   2.021   1.536  15.349  0.9813  0.0166  0.2083
  371TMC3     H 5555   1.652   1.610  15.423  0.7261 -1.3579 -2.0346
  371TMC3    H1 5556   2.003   1.738  15.248  0.7083  0.6451 -1.2128
  371TMC3    H2 5557   1.689   2.020  15.312 -0.2788 -0.0174  0.4222
  371TMC3    C7 5558   1.915   1.982  15.194  0.4486 -0.5416  0.8744
  371TMC3    C8 5559   1.525   1.843  15.443 -0.0538 -0.6870  0.0618
  371TMC3    O1 5560   1.867   2.096  15.185  0.1237  0.3372  0.8183
  371TMC3    O2 5561   1.471   1.734  15.468  0.1229  0.0289 -0.1533
  372MPD2     C 5562   1.930   3.067  13.458 -0.0873  0.0181  0.4352
  372MPD2    C1 5563   1.840   3.141  13.534 -0.0922  1.2401 -0.7693
  372MPD2    C2 5564   1.701   3.126  13.513 -0.3705 -0.3011 -0.6582
  372MPD2    C3 5565   1.650   3.031  13.432  0.1106  0.8572  0.4160
  372MPD2    C4 5566   1.743   2.956  13.359 -0.2838  0.1590  0.0998
  372MPD2    C5 5567   1.875   2.981  13.374 -0.1315  0.0141  0.5568
  372MPD2     H 5568   1.631   3.179  13.576  1.0508 -1.6006  2.0024
  372MPD2    H1 5569   1.716   2.878  13.290  3.0142  0.1932 -1.2482
  372MPD2    H2 5570   2.037   3.082  13.468  0.2253 -1.6997 -0.2658
  372MPD2    H3 5571   1.940   2.921  13.311 -0.2299  0.8789 -0.3658
  372MPD2     N 5572   1.508   3.016  13.429  0.1492  0.1172 -0.8259
  372MPD2    H5 5573   1.448   3.079  13.481  1.3556  1.4634 -1.0634
  372MPD2    N1 5574   1.900   3.220  13.637  0.3126  0.1607  0.2649
  372MPD2    H7 5575   1.994   3.197  13.667  0.5080  1.6007  0.7543
  373TMC3    C1 5576   1.304   2.902  13.382  0.9604 -0.2730 -0.6932
  373TMC3    C2 5577   1.279   2.881  13.514 -0.3121 -0.3243  0.8859
  373TMC3    C3 5578   1.202   2.772  13.549  0.6725 -0.2379  0.4682
  373TMC3    C4 5579   1.247   2.827  13.280 -0.0731 -0.2956  0.0009
  373TMC3    C5 5580   1.171   2.722  13.317 -0.0219  0.1077  0.2041
  373TMC3    C6 5581   1.147   2.696  13.451 -0.6814 -0.6245  0.1509
  373TMC3     C 5582   1.442   2.916  13.362  0.3480 -0.3593  0.6215
  373TMC3     O 5583   1.490   2.826  13.292 -0.0923  0.2285  0.1411
  373TMC3     H 5584   1.315   2.947  13.592 -0.4352 -0.0082  0.6733
  373TMC3    H1 5585   1.275   2.842  13.176  0.1221  3.7787  0.6634
  373TMC3    H2 5586   1.074   2.620  13.475 -1.4404  0.2522  0.6071
  373TMC3    C7 5587   1.206   2.598  13.247 -0.7277  0.2877  0.2056
  373TMC3    C8 5588   1.247   2.710  13.680 -0.4316  0.7345  0.2963
  373TMC3    O1 5589   1.133   2.501  13.251 -0.5856  0.3221  0.0217
  373TMC3    O2 5590   1.360   2.738  13.716 -0.1872 -0.3283  0.1578
  374TMC3    C1 5591   1.564   3.109   9.113 -0.4496 -0.3865 -0.0333
  374TMC3    C2 5592   1.519   3.235   9.174 -0.2001  0.8025 -0.2760
  374TMC3    C3 5593   1.504   3.339   9.093 -0.0439  0.2238 -0.0434
  374TMC3    C4 5594   1.569   3.103   8.978  0.5853 -0.2308 -0.3609
  374TMC3    C5 5595   1.554   3.221   8.909 -0.2825 -0.2302  0.4036
  374TMC3    C6 5596   1.517   3.338   8.962  0.1736 -0.0628  0.3553
  374TMC3     C 5597   1.536   2.987   9.181  0.0303 -0.4028  0.4321
  374TMC3     O 5598   1.523   2.885   9.118  0.6041  0.4000  0.6571
  374TMC3     H 5599   1.493   3.245   9.279  0.3803  1.8149 -0.2228
  374TMC3    H1 5600   1.599   3.010   8.931 -2.4589 -1.6206  0.4223
  374TMC3    H2 5601   1.524   3.428   8.902 -3.0146 -0.7121 -1.0511
  374TMC3    C7 5602   1.565   3.221   8.768 -0.5161  0.6587 -0.6358
  374TMC3    C8 5603   1.523   3.471   9.150 -0.3192  0.5851 -0.2205
  374TMC3    O1 5604   1.564   3.334   8.713 -0.2176 -0.0487 -0.3147
  374TMC3    O2 5605   1.481   3.572   9.088 -0.2338 -0.0573 -0.0548
  375MPD2     C 5606   1.878   3.490  17.174  0.1236 -0.1815 -0.6662
  375MPD2    C1 5607   1.753   3.504  17.114  0.2230 -0.5575  0.5094
  375MPD2    C2 5608   1.748   3.517  16.977  0.1534  0.2529 -0.0091
  375MPD2    C3 5609   1.866   3.519  16.901 -0.4486 -0.4606 -0.0692
  375MPD2    C4 5610   1.989   3.511  16.969  0.4925  0.0340  0.1466
  375MPD2    C5 5611   1.993   3.497  17.101  0.4717  0.4090  0.0807
  375MPD2     H 5612   1.650   3.535  16.936 -0.0531 -1.9744 -0.4473
  375MPD2    H1 5613   2.089   3.514  16.927 -0.4702 -2.3564 -2.3744
  375MPD2    H2 5614   1.885   3.479  17.281  1.3022  0.0029 -0.7320
  375MPD2    H3 5615   2.083   3.514  17.158  1.0654  3.7118 -1.8103
  375MPD2     N 5616   1.858   3.530  16.759  0.3278  0.5690  0.2218
  375MPD2    H5 5617   1.943   3.532  16.704  1.1893 -0.3880  1.5027
  375MPD2    N1 5618   1.631   3.505  17.182 -0.4916  0.2149  0.4235
  375MPD2    H7 5619   1.550   3.497  17.121  0.0546  0.7998 -0.3837
  376TMC3    C1 5620   1.783   3.535  16.539 -0.6456  0.2707  0.7587
  376TMC3    C2 5621   1.907   3.495  16.492 -0.4706  0.8592 -0.0171
  376TMC3    C3 5622   1.938   3.503  16.357  0.2348 -0.4044  0.0790
  376TMC3    C4 5623   1.682   3.577  16.453 -0.1465  0.5534  0.0911
  376TMC3    C5 5624   1.711   3.579  16.320  0.2568  0.5308 -1.0031
  376TMC3    C6 5625   1.840   3.551  16.277 -0.0346  0.4572 -0.4528
  376TMC3     C 5626   1.748   3.520  16.680 -0.4300 -0.8814 -0.2352
  376TMC3     O 5627   1.625   3.513  16.707  0.1186 -0.3862 -0.6457
  376TMC3     H 5628   1.984   3.467  16.564 -0.3866  0.4696 -0.2592
  376TMC3    H1 5629   1.587   3.607  16.496 -0.1235  0.5091  0.1729
  376TMC3    H2 5630   1.874   3.561  16.174 -0.7090  3.6269 -0.3439
  376TMC3    C7 5631   1.606   3.608  16.214 -0.9391  0.2054 -0.3330
  376TMC3    C8 5632   2.071   3.485  16.307 -0.4275  0.5009 -0.0069
  376TMC3    O1 5633   1.650   3.613  16.099  0.1486 -0.3592 -0.0420
  376TMC3    O2 5634   2.101   3.513  16.193  0.3769  0.3428  0.1400
  377MPD2     C 5635   4.265   3.613  11.814 -0.0524  0.0695 -0.3963
  377MPD2    C1 5636   4.304   3.488  11.868 -0.0392 -0.4777  0.9477
  377MPD2    C2 5637   4.207   3.404  11.921  0.1670  0.0332  0.1839
  377MPD2    C3 5638   4.075   3.449  11.946 -0.2076  0.4001 -0.6637
  377MPD2    C4 5639   4.044   3.578  11.901 -0.2854 -0.1935 -0.2399
  377MPD2    C5 5640   4.137   3.656  11.834 -0.1864 -0.1309  1.1592
  377MPD2     H 5641   4.229   3.299  11.935 -1.4658 -0.0876  1.7436
  377MPD2    H1 5642   3.939   3.604  11.909 -0.5471 -1.4509  0.4328
  377MPD2    H2 5643   4.341   3.685  11.786 -2.3891  2.3938 -0.8141
  377MPD2    H3 5644   4.110   3.761  11.827 -0.9301 -0.4951 -1.5424
  377MPD2     N 5645   3.977   3.373  12.014 -0.2069 -0.4361  0.3189
  377MPD2    H5 5646   3.896   3.426  12.042  0.1403  1.1929 -1.8191
  377MPD2    N1 5647   4.433   3.447  11.831  0.3445  0.2497 -0.0418
  377MPD2    H7 5648   4.495   3.509  11.780 -2.8991  0.8328 -3.2396
  378TMC3    C1 5649   0.040   3.364  11.634  0.3045  0.2808  0.5575
  378TMC3    C2 5650   4.635   3.360  11.671  0.6078  0.1460  0.6853
  378TMC3    C3 5651   4.603   3.292  11.782 -0.7233 -0.6246 -0.1613
  378TMC3    C4 5652   0.142   3.318  11.713 -0.0206 -0.7781 -0.5447
  378TMC3    C5 5653   0.108   3.241  11.825 -0.5128 -0.4417  0.2600
  378TMC3    C6 5654   4.700   3.233  11.861 -0.1239  0.4747 -0.1094
  378TMC3     C 5655   0.071   3.433  11.510 -0.1083  0.3771 -0.3869
  378TMC3     O 5656   4.700   3.480  11.450 -0.1606  0.2798  0.0277
  378TMC3     H 5657   4.554   3.393  11.607  0.2624  1.2944  1.7138
  378TMC3    H1 5658   0.245   3.349  11.698 -2.0002  4.4445 -3.2040
  378TMC3    H2 5659   4.675   3.191  11.958 -1.3301 -1.1877 -1.1431
  378TMC3    C7 5660   0.205   3.212  11.929 -0.5116  0.3822 -0.2639
  378TMC3    C8 5661   4.483   3.320  11.853 -0.0824  0.1701  0.8053
  378TMC3    O1 5662   0.170   3.185  12.041 -0.1587  0.0128  0.8041
  378TMC3    O2 5663   4.443   3.240  11.934  0.0254 -0.0271 -0.2138
  379MPD2     C 5664   0.849   1.190  16.256  0.0873  0.1046 -0.5881
  379MPD2    C1 5665   0.959   1.197  16.178  0.5530  0.8003  0.2785
  379MPD2    C2 5666   1.083   1.185  16.239 -0.2138  0.0909 -0.5266
  379MPD2    C3 5667   1.085   1.168  16.378  0.6066 -0.1948 -0.1713
  379MPD2    C4 5668   0.975   1.174  16.457 -0.3438 -0.2253  0.0136
  379MPD2    C5 5669   0.855   1.177  16.387 -0.8154 -0.0705 -0.8113
  379MPD2     H 5670   1.175   1.189  16.182  1.2587  1.5706  1.9905
  379MPD2    H1 5671   0.992   1.165  16.563  1.3231  3.5783  0.0970
  379MPD2    H2 5672   0.749   1.211  16.221 -1.0680 -1.5793  1.8120
  379MPD2    H3 5673   0.764   1.191  16.444  0.4271  0.3076  1.0934
  379MPD2     N 5674   1.200   1.122  16.451 -0.4341  0.0099 -0.0186
  379MPD2    H5 5675   1.196   1.109  16.552  1.1496  2.4654  0.3752
  379MPD2    N1 5676   0.935   1.213  16.038 -0.0193  0.5856  0.1849
  379MPD2    H7 5677   0.839   1.221  16.008  0.1666 -0.0846 -0.6134
  380TMC3    C1 5678   0.972   1.300  15.818  0.0494  0.3672  0.0943
  380TMC3    C2 5679   1.003   1.241  15.693 -0.4897  0.2127  0.0526
  380TMC3    C3 5680   0.917   1.266  15.590  0.6173 -0.2161  0.5475
  380TMC3    C4 5681   0.856   1.377  15.827 -0.7175 -0.1853 -0.8986
  380TMC3    C5 5682   0.770   1.391  15.723  0.6957  0.0938  0.1294
  380TMC3    C6 5683   0.803   1.331  15.603  0.4538  0.3331 -0.2058
  380TMC3     C 5684   1.028   1.234  15.934 -0.8664  0.0817  0.4104
  380TMC3     O 5685   1.145   1.195  15.926 -0.0921 -0.2810  0.5264
  380TMC3     H 5686   1.092   1.181  15.676  0.7641  1.4669  2.2000
  380TMC3    H1 5687   0.831   1.427  15.919  0.3385  2.2646 -1.9457
  380TMC3    H2 5688   0.754   1.359  15.510  0.2266  1.2054  0.1759
  380TMC3    C7 5689   0.656   1.478  15.744 -0.8422 -0.4074 -0.2236
  380TMC3    C8 5690   0.988   1.270  15.462  0.5325 -0.9322 -0.5577
  380TMC3    O1 5691   0.636   1.529  15.852 -0.5301 -0.3127  0.0910
  380TMC3    O2 5692   1.109   1.263  15.460  0.3858 -0.5980 -0.3104
  381TMC3    C1 5693   0.392   2.538  16.129  0.4276 -0.3424  0.5012
  381TMC3    C2 5694   0.470   2.656  16.126  0.0029 -0.4788  0.1520
  381TMC3    C3 5695   0.493   2.721  16.244 -0.0646  0.4998  0.2055
  381TMC3    C4 5696   0.326   2.505  16.244  0.4182  0.2432 -0.5798
  381TMC3    C5 5697   0.339   2.573  16.358 -0.1346 -0.4955 -0.2229
  381TMC3    C6 5698   0.422   2.686  16.364 -0.3932  0.0987 -0.4985
  381TMC3     C 5699   0.394   2.442  16.025 -0.6606 -0.8499 -0.4707
  381TMC3     O 5700   0.343   2.334  16.048  0.4019  0.0165 -0.0778
  381TMC3     H 5701   0.523   2.693  16.039  0.9639 -2.3553 -0.0710
  381TMC3    H1 5702   0.244   2.435  16.235  1.8143 -1.2675 -1.7957
  381TMC3    H2 5703   0.433   2.738  16.458 -0.4777  0.6171 -0.7777
  381TMC3    C7 5704   0.310   2.508  16.487  0.2552 -0.0523  0.1575
  381TMC3    C8 5705   0.632   2.763  16.263 -0.1125  0.1245  0.7148
  381TMC3    O1 5706   0.286   2.388  16.484 -0.0885  0.6169  0.8302
  381TMC3    O2 5707   0.717   2.706  16.199  0.7191 -0.7530  0.1036
  382MPD2     C 5708   4.529   4.402   0.573 -0.1670 -0.3254  0.2293
  382MPD2    C1 5709   4.525   4.400   0.432 -0.4107 -0.4857  0.5427
  382MPD2    C2 5710   4.484   4.286   0.370  0.4745 -0.3309  0.6210
  382MPD2    C3 5711   4.446   4.169   0.436 -0.1602 -0.9425  0.2026
  382MPD2    C4 5712   4.461   4.170   0.565  0.5432 -0.6189  0.5370
  382MPD2    C5 5713   4.490   4.286   0.631 -0.4313  0.0934 -0.7282
  382MPD2     H 5714   4.497   4.304   0.264  0.7668  2.4699  1.1329
  382MPD2    H1 5715   4.443   4.088   0.633  0.3117 -2.4385 -1.7214
  382MPD2    H2 5716   4.559   4.482   0.640 -2.2454  1.2234 -0.6831
  382MPD2    H3 5717   4.491   4.292   0.739  0.5298  0.3384 -0.7497
  382MPD2     N 5718   4.402   4.051   0.369 -0.0441 -0.0273  0.7796
  382MPD2    H5 5719   4.381   3.976   0.433  2.4996 -0.4561  1.1302
  382MPD2    N1 5720   4.572   4.511   0.355 -0.0216  0.8278 -0.7849
  382MPD2    H7 5721   4.557   4.503   0.255  3.0339  1.7287 -1.3013
  383TMC3    C1 5722   4.354   3.906   0.187  0.2616 -0.3440 -0.3830
  383TMC3    C2 5723   4.333   3.890   0.052  0.1807  0.3837  0.4316
  383TMC3    C3 5724   4.313   3.764   0.003  0.1516 -0.0989 -0.1811
  383TMC3    C4 5725   4.353   3.799   0.271  0.1103 -0.0792  0.1129
  383TMC3    C5 5726   4.328   3.678   0.222  0.0946  0.1201 -0.3467
  383TMC3    C6 5727   4.301   3.652   0.086  0.0631 -0.0194  0.1676
  383TMC3     C 5728   4.391   4.039   0.234  0.6991 -0.3959 -0.2792
  383TMC3     O 5729   4.417   4.123   0.150 -0.6859 -0.1804 -0.5246
  383TMC3     H 5730   4.324   3.980  17.690 -0.9228 -0.3358 -0.4761
  383TMC3    H1 5731   4.340   3.813   0.377 -0.7060 -2.1301  0.2846
  383TMC3    H2 5732   4.269   3.556   0.048  0.5509 -0.8716  1.9135
  383TMC3    C7 5733   4.289   3.574   0.320  0.3895 -0.7111  1.1191
  383TMC3    C8 5734   4.272   3.753  17.558 -0.4418  0.6389 -0.1111
  383TMC3    O1 5735   4.342   3.568   0.427  0.5724  0.0028 -0.3763
  383TMC3    O2 5736   4.214   3.646  17.531  0.0305 -0.5831  0.2966
  384MPD2     C 5737   1.510   1.003  11.888 -0.5730 -0.3424 -0.8084
  384MPD2    C1 5738   1.555   0.975  12.008  0.4655 -0.1545  0.4373
  384MPD2    C2 5739   1.625   0.856  12.021  0.7206 -0.9971  0.7622
  384MPD2    C3 5740   1.664   0.775  11.918  0.4219 -0.3422  0.4285
  384MPD2    C4 5741   1.625   0.813  11.791  0.0667  0.5802 -0.2981
  384MPD2    C5 5742   1.548   0.925  11.778  0.3183  0.1828 -0.3580
  384MPD2     H 5743   1.653   0.817  12.118 -2.3012  0.6993  2.3032
  384MPD2    H1 5744   1.658   0.744  11.714 -0.9052 -0.1407 -0.0687
  384MPD2    H2 5745   1.438   1.079  11.861  0.8862  1.5771  0.7502
  384MPD2    H3 5746   1.518   0.954  11.678 -4.4614 -0.6956  0.8434
  384MPD2     N 5747   1.741   0.659  11.939  0.1740 -0.0318  0.8798
  384MPD2    H5 5748   1.769   0.644  12.036 -0.5349 -3.8579  0.4927
  384MPD2    N1 5749   1.522   1.044  12.129 -0.2130 -0.0921 -0.4046
  384MPD2    H7 5750   1.568   1.012  12.213  0.4834  1.4485 -0.2070
  385TMC3    C1 5751   1.831   0.449  11.931  0.9129  0.0677 -0.5452
  385TMC3    C2 5752   1.754   0.335  11.912 -0.6953 -0.0103  0.4628
  385TMC3    C3 5753   1.716   0.264  12.021  0.2295  0.0400  0.0490
  385TMC3    C4 5754   1.870   0.480  12.060  0.0857 -1.0317 -0.5331
  385TMC3    C5 5755   1.817   0.414  12.160  0.5222 -0.1930 -0.0919
  385TMC3    C6 5756   1.736   0.303  12.148 -0.8995  0.8957  0.2582
  385TMC3     C 5757   1.770   0.556  11.854  0.0501 -0.5402 -0.7125
  385TMC3     O 5758   1.754   0.535  11.735  0.2609 -0.0710  1.0259
  385TMC3     H 5759   1.735   0.308  11.809  0.1665  1.9802 -0.2090
  385TMC3    H1 5760   1.930   0.567  12.087  1.2488 -2.4452  1.4020
  385TMC3    H2 5761   1.705   0.247  12.235  1.8159  1.4398  1.5646
  385TMC3    C7 5762   1.781   0.508  12.266  0.7788  0.0129  0.2411
  385TMC3    C8 5763   1.652   0.132  12.008  0.8528  0.6524 -0.7004
  385TMC3    O1 5764   1.775   0.628  12.239 -0.1756 -0.1147 -0.1077
  385TMC3    O2 5765   1.672   0.053  12.101  0.0357 -0.2897 -0.1025
  386TMC3    C1 5766   0.854   3.591  11.284 -0.5498 -0.7178 -0.0979
  386TMC3    C2 5767   0.922   3.582  11.169 -0.5373 -0.4556  0.5883
  386TMC3    C3 5768   0.881   3.656  11.063  0.8477  0.8449  0.5829
  386TMC3    C4 5769   0.733   3.665  11.291  0.0252  0.6596  0.1615
  386TMC3    C5 5770   0.692   3.743  11.185  0.1649  0.1835 -0.1460
  386TMC3    C6 5771   0.766   3.730  11.064  0.9340 -0.0528  0.8817
  386TMC3     C 5772   0.918   3.549  11.412 -0.1323  0.1251 -0.2302
  386TMC3     O 5773   0.842   3.574  11.505 -0.1090 -0.5786  0.4278
  386TMC3     H 5774   1.006   3.515  11.154 -0.8285 -1.1217  1.9715
  386TMC3    H1 5775   0.690   3.677  11.390  0.9218  2.2176  0.3525
  386TMC3    H2 5776   0.740   3.782  10.973  0.0519 -2.2386 -0.1157
  386TMC3    C7 5777   0.560   3.817  11.196  0.3588  0.1543  0.6381
  386TMC3    C8 5778   0.960   3.650  10.936  0.3252 -0.1417  0.0715
  386TMC3    O1 5779   0.502   3.807  11.303  0.0496 -0.5283  0.2493
  386TMC3    O2 5780   0.894   3.664  10.835 -0.1826 -0.2844 -0.2335
  387MPD2     C 5781   3.254   3.864   9.752  0.1016  0.5931 -0.5038
  387MPD2    C1 5782   3.375   3.813   9.766  0.7462  0.4566  0.1611
  387MPD2    C2 5783   3.402   3.684   9.737 -0.1431  0.4948  0.3971
  387MPD2    C3 5784   3.306   3.597   9.696  0.0734 -0.0152 -0.6377
  387MPD2    C4 5785   3.178   3.643   9.686  0.3652 -0.0233 -0.0762
  387MPD2    C5 5786   3.156   3.777   9.711 -0.3747 -0.4311  0.4093
  387MPD2     H 5787   3.504   3.648   9.740 -0.1783  0.3596  0.0074
  387MPD2    H1 5788   3.099   3.579   9.649 -0.5201  0.8269  0.3421
  387MPD2    H2 5789   3.228   3.969   9.763 -1.8569 -0.1110  1.4833
  387MPD2    H3 5790   3.059   3.823   9.699 -0.6695 -0.8347  1.2231
  387MPD2     N 5791   3.338   3.464   9.661 -0.5594  0.0623 -0.7116
  387MPD2    H5 5792   3.434   3.441   9.685 -0.6697 -2.1649 -2.4010
  387MPD2    N1 5793   3.491   3.881   9.801  0.5070  0.2939  0.4916
  387MPD2    H7 5794   3.570   3.823   9.826 -0.3981 -0.5568  1.3717
  388TMC3    C1 5795   3.641   4.060   9.839  0.2659  0.2346 -0.9028
  388TMC3    C2 5796   3.676   4.157   9.926  0.2046 -0.4288  0.3255
  388TMC3    C3 5797   3.808   4.135   9.974 -0.3678  0.1738  0.4082
  388TMC3    C4 5798   3.729   3.971   9.785 -0.4123  0.7204 -0.7187
  388TMC3    C5 5799   3.851   3.947   9.846 -0.6625  0.7082  0.0928
  388TMC3    C6 5800   3.892   4.038   9.940  0.2847 -0.2840  0.6581
  388TMC3     C 5801   3.505   4.022   9.814 -0.4188  0.4867  0.0450
  388TMC3     O 5802   3.413   4.098   9.844  0.0288  0.7272 -0.4146
  388TMC3     H 5803   3.598   4.216   9.974  0.3402  1.0658 -1.2944
  388TMC3    H1 5804   3.700   3.917   9.696  1.1522 -0.7360 -0.3550
  388TMC3    H2 5805   3.996   4.046   9.969  0.4585 -1.4363  0.3923
  388TMC3    C7 5806   3.944   3.835   9.810 -0.1047 -0.1819  0.7369
  388TMC3    C8 5807   3.858   4.218  10.080 -1.2932  0.1187  0.1928
  388TMC3    O1 5808   4.040   3.816   9.887  0.6943  0.3189  0.1199
  388TMC3    O2 5809   3.969   4.197  10.121 -0.0782 -0.0039  0.4059
  389MPD2     C 5810   3.058   2.077  10.903  0.7774 -0.3549  0.0665
  389MPD2    C1 5811   2.970   2.003  10.819 -0.0549 -0.7586 -0.2807
  389MPD2    C2 5812   2.895   1.899  10.867  0.2169  0.4385 -0.0258
  389MPD2    C3 5813   2.910   1.856  11.001 -0.3628  0.0774 -0.0469
  389MPD2    C4 5814   3.000   1.926  11.079  0.1683 -0.3402  0.1109
  389MPD2    C5 5815   3.070   2.038  11.031  0.5284  0.5070  0.6432
  389MPD2     H 5816   2.820   1.848  10.809 -0.2158  0.9748  0.0639
  389MPD2    H1 5817   3.013   1.900  11.183 -1.2372  2.9813  1.1377
  389MPD2    H2 5818   3.109   2.166  10.868  0.2445 -0.2380 -0.4064
  389MPD2    H3 5819   3.128   2.091  11.106  0.3777  0.6252  0.6779
  389MPD2     N 5820   2.839   1.747  11.065 -0.0702 -0.6925 -0.5987
  389MPD2    H5 5821   2.847   1.752  11.166  1.6829 -0.0768 -0.7579
  389MPD2    N1 5822   2.976   2.041  10.680 -0.1674  0.1703 -0.7478
  389MPD2    H7 5823   3.049   2.101  10.644  0.3001  0.2956  0.4230
  390TMC3    C1 5824   2.649   1.605  11.088  1.0350  0.4813  0.5070
  390TMC3    C2 5825   2.650   1.627  11.226  0.3075 -0.2655  0.5412
  390TMC3    C3 5826   2.537   1.625  11.301 -0.1260 -0.4713  0.0771
  390TMC3    C4 5827   2.533   1.567  11.030  0.1381 -0.5065 -0.8189
  390TMC3    C5 5828   2.422   1.558  11.111  0.8235  0.9560 -0.3158
  390TMC3    C6 5829   2.425   1.588  11.245  0.3140  0.1367 -0.2986
  390TMC3     C 5830   2.748   1.669  11.001  0.4268 -0.3733 -0.7813
  390TMC3     O 5831   2.719   1.653  10.885  0.1272  0.3060  0.0883
  390TMC3     H 5832   2.748   1.633  11.272  1.7445 -2.2270 -2.2851
  390TMC3    H1 5833   2.526   1.558  10.922 -0.5435  3.2465 -1.0713
  390TMC3    H2 5834   2.337   1.581  11.308  0.5998  0.9381  0.1947
  390TMC3    C7 5835   2.304   1.491  11.056 -0.6603 -0.1846  0.1276
  390TMC3    C8 5836   2.544   1.559  11.433  0.5455  0.5519  0.0581
  390TMC3    O1 5837   2.317   1.461  10.938 -0.0586 -0.1507 -0.0888
  390TMC3    O2 5838   2.520   1.616  11.541  0.3754 -0.0967  0.1105
  391MPD2     C 5839   2.120   3.108  10.514  0.2480  1.1275 -0.3402
  391MPD2    C1 5840   2.090   3.241  10.537 -0.9184  0.1517  0.0201
  391MPD2    C2 5841   2.042   3.320  10.432 -0.2152  0.0569  0.3254
  391MPD2    C3 5842   2.034   3.271  10.302 -0.1698 -0.2615 -0.6878
  391MPD2    C4 5843   2.056   3.140  10.285  0.3441  0.7596  0.3712
  391MPD2    C5 5844   2.099   3.058  10.392  0.2038 -0.4001 -0.0863
  391MPD2     H 5845   1.999   3.417  10.453  0.8569  0.6237 -0.1280
  391MPD2    H1 5846   2.061   3.088  10.190 -1.2220  0.5288  0.4025
  391MPD2    H2 5847   2.159   3.044  10.592  1.2996  1.3234 -0.7079
  391MPD2    H3 5848   2.102   2.952  10.369 -2.8684 -0.7423  1.0784
  391MPD2     N 5849   2.021   3.370  10.202  0.4214  0.2864  0.0366
  391MPD2    H5 5850   2.018   3.468  10.227  5.2542  0.0546  1.5264
  391MPD2    N1 5851   2.127   3.301  10.659  0.6507 -0.4763 -0.1912
  391MPD2    H7 5852   2.162   3.236  10.729  1.0541  0.7142  0.6986
  392TMC3    C1 5853   2.010   3.454   9.974 -0.2053 -0.0980  0.1084
  392TMC3    C2 5854   1.993   3.428   9.841  0.6237 -0.2994  0.2185
  392TMC3    C3 5855   2.013   3.537   9.762 -0.3136  0.0620  0.4417
  392TMC3    C4 5856   2.060   3.578  10.021 -0.2167 -0.5176  0.0784
  392TMC3    C5 5857   2.094   3.669   9.927 -0.0823  0.5451 -0.4439
  392TMC3    C6 5858   2.078   3.652   9.790  0.3975 -0.1637 -0.1361
  392TMC3     C 5859   1.986   3.341  10.069  0.5878 -0.6635 -0.4104
  392TMC3     O 5860   1.953   3.234  10.023 -0.4896  0.0475 -0.1036
  392TMC3     H 5861   1.947   3.333   9.816 -1.7830  0.4297  1.8986
  392TMC3    H1 5862   2.077   3.591  10.128  0.5288 -2.1843  0.1684
  392TMC3    H2 5863   2.116   3.715   9.711 -0.0019  1.8814  1.2888
  392TMC3    C7 5864   2.182   3.784   9.976  0.2339  0.3383  0.3802
  392TMC3    C8 5865   1.941   3.534   9.637 -0.3365 -0.3546  0.0482
  392TMC3    O1 5866   2.210   3.789  10.095  0.1232 -0.7007  0.1280
  392TMC3    O2 5867   1.934   3.423   9.595  0.0234  0.1354  0.2790
  393TMC3    C1 5868   1.450   1.208  10.423  0.0633 -0.0438 -0.2189
  393TMC3    C2 5869   1.375   1.140  10.519 -0.0502  0.0795  0.5311
  393TMC3    C3 5870   1.427   1.031  10.565 -0.6976  0.1769 -0.6014
  393TMC3    C4 5871   1.576   1.176  10.386 -0.8527 -0.1413 -0.0946
  393TMC3    C5 5872   1.633   1.067  10.441 -0.5590  0.6356  0.0539
  393TMC3    C6 5873   1.556   0.991  10.531 -0.3517  0.0641  0.2385
  393TMC3     C 5874   1.375   1.281  10.322  0.0926  0.4976  0.2535
  393TMC3     O 5875   1.433   1.380  10.278 -0.1507  0.1182 -0.4696
  393TMC3     H 5876   1.278   1.176  10.550  0.8641  1.3291  1.9474
  393TMC3    H1 5877   1.613   1.228  10.298  2.7386 -2.3279  0.1090
  393TMC3    H2 5878   1.603   0.900  10.568 -0.1794  0.0634  0.0202
  393TMC3    C7 5879   1.727   0.995  10.357 -0.6021 -0.1882  0.2650
  393TMC3    C8 5880   1.371   0.966  10.683 -0.0853  0.0487 -0.5677
  393TMC3    O1 5881   1.706   0.872  10.351  0.3693  0.5193 -0.4589
  393TMC3    O2 5882   1.299   1.037  10.754 -0.4714 -0.1420 -0.0318
  394TMC3    C1 5883   2.891   2.067  10.455  0.5608 -0.4208 -0.2497
  394TMC3    C2 5884   2.781   2.056  10.375 -0.5697  0.6475  0.6843
  394TMC3    C3 5885   2.784   2.102  10.252 -0.5488  0.2271  0.0654
  394TMC3    C4 5886   3.009   2.111  10.405 -0.4658  0.1309 -0.1521
  394TMC3    C5 5887   3.008   2.151  10.277 -0.5133 -0.4765  0.0010
  394TMC3    C6 5888   2.898   2.153  10.199  0.1267 -0.1660 -0.3506
  394TMC3     C 5889   2.878   2.003  10.586 -0.1544  0.2276 -0.0535
  394TMC3     O 5890   2.789   1.917  10.591 -0.6651 -0.8769 -0.0901
  394TMC3     H 5891   2.692   2.015  10.423 -2.3535 -0.4520 -3.5352
  394TMC3    H1 5892   3.102   2.116  10.459 -1.6110  1.9709  1.6750
  394TMC3    H2 5893   2.908   2.166  10.091 -0.8264 -0.5275 -0.4810
  394TMC3    C7 5894   3.137   2.174  10.206  0.1928  0.1286  0.8136
  394TMC3    C8 5895   2.699   2.035  10.157  0.4422  0.3243  0.2526
  394TMC3    O1 5896   3.133   2.243  10.104 -0.4598  0.2593  0.0974
  394TMC3    O2 5897   2.755   2.003  10.054  0.0621  0.5119  0.0104
  395TMC3    C1 5898   3.250   3.262  14.913 -0.5496  0.0801  0.7767
  395TMC3    C2 5899   3.160   3.246  14.808  0.2827  0.2629 -0.1546
  395TMC3    C3 5900   3.186   3.321  14.697 -0.0309 -0.3695 -0.1001
  395TMC3    C4 5901   3.365   3.329  14.898 -0.2331 -0.1393 -0.3717
  395TMC3    C5 5902   3.389   3.397  14.786  0.5067 -0.0273 -0.5865
  395TMC3    C6 5903   3.291   3.409  14.695  0.6419  0.3725 -0.4296
  395TMC3     C 5904   3.193   3.250  15.046 -0.1106  0.2041  0.3505
  395TMC3     O 5905   3.078   3.278  15.055 -0.0568 -0.6495  0.0955
  395TMC3     H 5906   3.061   3.203  14.822  0.2837  0.3676  0.1880
  395TMC3    H1 5907   3.409   3.354  14.994 -0.9611  0.2111 -0.1292
  395TMC3    H2 5908   3.306   3.475  14.611  1.5379  1.2223  0.3870
  395TMC3    C7 5909   3.455   3.524  14.818  0.2828 -0.1064  0.0790
  395TMC3    C8 5910   3.066   3.380  14.642  1.2058 -0.2312 -0.5967
  395TMC3    O1 5911   3.438   3.561  14.932 -0.0726  0.3687  0.9780
  395TMC3    O2 5912   3.066   3.503  14.630  0.0328 -0.3733 -0.4465
  396MPD2     C 5913   2.658   4.403  17.135 -0.3501  0.1840  0.0570
  396MPD2    C1 5914   2.767   4.482  17.156 -0.6246 -0.0304  0.0823
  396MPD2    C2 5915   2.828   4.552  17.045 -0.5367 -0.2707  1.1445
  396MPD2    C3 5916   2.771   4.547  16.921  0.0294 -0.9432  0.0303
  396MPD2    C4 5917   2.650   4.478  16.910  0.2790 -0.8043 -0.2864
  396MPD2    C5 5918   2.596   4.404  17.013 -0.3309  0.2896 -0.0222
  396MPD2     H 5919   2.915   4.614  17.061 -1.6949  1.2041  1.7560
  396MPD2    H1 5920   2.588   4.471  16.821  1.2663 -1.8243 -0.9009
  396MPD2    H2 5921   2.622   4.337  17.214 -0.5118  0.5875  0.3212
  396MPD2    H3 5922   2.500   4.354  17.005  0.7019 -1.5832 -0.8954
  396MPD2     N 5923   2.827   4.622  16.816  0.1222 -0.2128 -0.3949
  396MPD2    H5 5924   2.916   4.668  16.835  1.2927 -2.3735 -0.6181
  396MPD2    N1 5925   2.821   4.479  17.286 -0.2989  0.2339  0.5668
  396MPD2    H7 5926   2.761   4.435  17.356  0.4351  0.9268  1.6441
  397TMC3    C1 5927   2.965   4.526  17.463 -0.0448  0.4297  0.1018
  397TMC3    C2 5928   3.066   4.442  17.483 -0.3640 -0.5743 -0.0447
  397TMC3    C3 5929   3.073   4.354  17.587 -0.0914  0.0012  0.3950
  397TMC3    C4 5930   2.856   4.520  17.548  0.3987  0.3236  0.3369
  397TMC3    C5 5931   2.875   4.449  17.661 -0.5608  0.2488  0.2259
  397TMC3    C6 5932   2.981   4.362  17.689  0.0778  0.7755  0.0899
  397TMC3     C 5933   2.938   4.543  17.324  0.3537  0.3764  0.2344
  397TMC3     O 5934   3.039   4.566  17.259 -0.2904 -0.5848  0.1393
  397TMC3     H 5935   3.137   4.428  17.403 -0.7841 -1.3458 -0.2835
  397TMC3    H1 5936   2.768   4.582  17.536  1.5589  2.2821  1.8953
  397TMC3    H2 5937   2.998   4.325   0.091  2.1172 -0.2160 -0.6145
  397TMC3    C7 5938   2.766   4.453   0.055  0.4399 -0.5366 -0.6680
  397TMC3    C8 5939   3.105   4.218  17.537 -0.0773  0.1472 -0.3386
  397TMC3    O1 5940   2.654   4.473   0.007  0.7772 -0.1756  0.2177
  397TMC3    O2 5941   3.092   4.216  17.413  0.2766 -0.7492  0.0269
  398MPD2     C 5942   1.414   1.208  17.669 -0.0585 -0.4243  0.2241
  398MPD2    C1 5943   1.478   1.109   0.041  0.2670  0.9652  0.0374
  398MPD2    C2 5944   1.603   1.137   0.098  0.2780  0.0388  0.2105
  398MPD2    C3 5945   1.653   1.262   0.085 -0.3521 -0.0145  0.5846
  398MPD2    C4 5946   1.590   1.358   0.004  0.2770 -0.5185  0.3261
  398MPD2    C5 5947   1.470   1.325  17.642  0.4141  0.6733  0.9509
  398MPD2     H 5948   1.660   1.065   0.155 -0.8265 -1.5159 -0.6399
  398MPD2    H1 5949   1.643   1.445  17.665  1.2028  0.4262  3.9012
  398MPD2    H2 5950   1.336   1.192  17.596  1.0294 -0.0440 -1.0316
  398MPD2    H3 5951   1.428   1.376  17.556 -1.9641 -0.2391  1.5595
  398MPD2     N 5952   1.777   1.289   0.143 -0.3492 -0.2425 -0.6131
  398MPD2    H5 5953   1.830   1.206   0.168  1.1746  2.0723  3.9471
  398MPD2    N1 5954   1.431   0.975   0.063 -0.7552  0.9019  0.1238
  398MPD2    H7 5955   1.501   0.916   0.106 -0.4000  1.3617  0.1648
  399TMC3    C1 5956   1.304   0.776   0.037 -0.1883 -0.5192  0.3906
  399TMC3    C2 5957   1.407   0.692   0.060  0.7760 -0.4295 -0.1014
  399TMC3    C3 5958   1.390   0.564   0.115  0.4785 -0.4359  0.5249
  399TMC3    C4 5959   1.182   0.720   0.054 -0.3269  0.1885 -0.0673
  399TMC3    C5 5960   1.164   0.593   0.104  0.1252  0.0418 -0.5439
  399TMC3    C6 5961   1.267   0.519   0.141  0.9424 -0.2280  0.2638
  399TMC3     C 5962   1.315   0.916   0.013  0.3203  0.5735 -0.0957
  399TMC3     O 5963   1.218   0.968  17.656  0.0714 -0.0692  0.0894
  399TMC3     H 5964   1.509   0.713   0.032  0.6596  0.9567  0.5065
  399TMC3    H1 5965   1.102   0.793   0.065 -1.1127 -0.6295 -0.3036
  399TMC3    H2 5966   1.249   0.422   0.185 -1.6656  0.5247  0.8564
  399TMC3    C7 5967   1.040   0.535   0.092  0.1209 -0.3760  0.6580
  399TMC3    C8 5968   1.496   0.472   0.110  0.1459  0.0725 -0.3026
  399TMC3    O1 5969   1.026   0.432   0.155  0.4379 -0.0686  0.6852
  399TMC3    O2 5970   1.605   0.501   0.147  0.3000  0.6607 -0.2508
  400TMC3    C1 5971   4.564   3.731  17.193 -0.0000 -0.4516  0.7208
  400TMC3    C2 5972   4.504   3.727  17.068  0.0493  0.8980 -0.2306
  400TMC3    C3 5973   4.530   3.833  16.978 -0.1865  0.7478 -0.4501
  400TMC3    C4 5974   4.631   3.846  17.232 -0.2591  0.3303  0.0657
  400TMC3    C5 5975   4.638   3.952  17.152  0.0383  0.2545  0.0145
  400TMC3    C6 5976   4.591   3.945  17.025  0.1198  0.8609 -0.4227
  400TMC3     C 5977   4.567   3.615  17.274  0.3364 -0.3065  0.5441
  400TMC3     O 5978   4.495   3.526  17.239 -0.1209  0.0916  0.3444
  400TMC3     H 5979   4.451   3.637  17.039  2.1826 -0.2070 -0.6876
  400TMC3    H1 5980   4.692   3.852  17.321 -1.2506  1.2295  0.6864
  400TMC3    H2 5981   4.621   4.016  16.948  0.1715  1.5901  0.2651
  400TMC3    C7 5982   4.664   4.083  17.208 -0.8048  0.0963 -0.1069
  400TMC3    C8 5983   4.455   3.858  16.864  0.0657 -0.4239  0.1372
  400TMC3    O1 5984   4.713   4.083  17.322  0.0495  0.3255 -0.6271
  400TMC3    O2 5985   4.460   3.971  16.819  0.3271 -0.7770 -0.0564
  401MPD2     C 5986   3.183   3.589   1.862  0.2383 -0.0496 -0.1760
  401MPD2    C1 5987   3.292   3.529   1.814 -0.6189 -0.1452 -0.4517
  401MPD2    C2 5988   3.282   3.424   1.724 -0.5478  0.6197 -0.1421
  401MPD2    C3 5989   3.155   3.378   1.688 -0.6429 -0.0398 -0.3048
  401MPD2    C4 5990   3.048   3.441   1.741 -0.0710 -0.5609 -0.5389
  401MPD2    C5 5991   3.066   3.543   1.824  0.4170  0.5189 -0.8811
  401MPD2     H 5992   3.371   3.372   1.689 -0.0623  0.2156  1.6998
  401MPD2    H1 5993   2.944   3.414   1.722 -0.4672  1.3295 -1.0577
  401MPD2    H2 5994   3.191   3.678   1.924  0.0130  1.1466 -1.8667
  401MPD2    H3 5995   2.976   3.592   1.859  0.2454 -0.9409  0.7449
  401MPD2     N 5996   3.150   3.276   1.580  0.2458 -0.7946  0.2113
  401MPD2    H5 5997   3.241   3.264   1.535 -0.3759 -0.8427 -1.0295
  401MPD2    N1 5998   3.419   3.579   1.849  0.1378  0.2831  0.2120
  401MPD2    H7 5999   3.498   3.559   1.789 -0.0666  1.5806 -0.4962
  402TMC3    C1 6000   3.057   3.174   1.395 -0.1902 -0.7605  0.2405
  402TMC3    C2 6001   2.975   3.071   1.352 -0.0363  0.1651  0.2226
  402TMC3    C3 6002   3.010   3.002   1.242  0.9054 -0.1034 -0.2046
  402TMC3    C4 6003   3.155   3.224   1.314 -0.1051 -0.6567  0.1609
  402TMC3    C5 6004   3.179   3.159   1.192  0.5308 -0.5623 -0.1567
  402TMC3    C6 6005   3.108   3.052   1.161 -0.0207 -0.6015 -0.5618
  402TMC3     C 6006   3.034   3.229   1.520  0.1134  0.2021 -0.1630
  402TMC3     O 6007   2.920   3.222   1.560  0.1052 -0.4593  0.9532
  402TMC3     H 6008   2.894   3.030   1.412 -0.2040  1.9855  1.2332
  402TMC3    H1 6009   3.210   3.316   1.331  1.0602 -1.1914 -0.7331
  402TMC3    H2 6010   3.139   2.987   1.080  1.0158  1.1193 -1.5523
  402TMC3    C7 6011   3.316   3.175   1.144  0.5263 -0.2314  0.8003
  402TMC3    C8 6012   3.012   2.855   1.243  0.6374  0.2768  0.6079
  402TMC3    O1 6013   3.382   3.264   1.198  0.2545 -0.0871  0.0779
  402TMC3    O2 6014   3.120   2.805   1.217  0.3856  0.1006  0.4808
  403MPD2     C 6015   0.941   1.247  13.243 -0.0405  0.2415  0.3890
  403MPD2    C1 6016   1.030   1.145  13.277 -0.0985 -1.2491  0.3166
  403MPD2    C2 6017   1.129   1.168  13.367  0.2613  0.6434 -0.5942
  403MPD2    C3 6018   1.149   1.300  13.407  0.2666  0.1706 -0.6246
  403MPD2    C4 6019   1.062   1.400  13.375 -0.4515  0.5363 -0.3078
  403MPD2    C5 6020   0.953   1.370  13.297 -0.0910 -0.5591  0.0596
  403MPD2     H 6021   1.184   1.086  13.412 -0.1816  1.0033  0.6194
  403MPD2    H1 6022   1.065   1.499  13.420 -0.2243  0.5211 -0.2892
  403MPD2    H2 6023   0.854   1.233  13.178 -0.4401 -1.2301  1.2298
  403MPD2    H3 6024   0.876   1.447  13.291 -3.2303 -3.6516  0.7743
  403MPD2     N 6025   1.263   1.325  13.483  0.2784  0.1593 -0.0157
  403MPD2    H5 6026   1.314   1.240  13.508 -1.0354 -1.0373 -1.4304
  403MPD2    N1 6027   1.001   1.021  13.216  0.3310  0.3378  0.2601
  403MPD2    H7 6028   0.918   1.022  13.158  0.4966 -0.6050  0.0008
  404TMC3    C1 6029   0.998   0.787  13.184  0.0965  0.9696 -0.0291
  404TMC3    C2 6030   0.988   0.675  13.258 -0.2638 -0.0467  0.6860
  404TMC3    C3 6031   0.907   0.580  13.197  0.2680  0.1182 -0.0417
  404TMC3    C4 6032   0.947   0.815  13.064  0.6457  0.2581  0.1645
  404TMC3    C5 6033   0.866   0.722  13.009  0.0036 -0.4245 -0.2777
  404TMC3    C6 6034   0.842   0.601  13.077  0.0867  0.4246 -0.0329
  404TMC3     C 6035   1.059   0.901  13.247  1.1718  0.1699 -0.0901
  404TMC3     O 6036   1.148   0.875  13.327 -0.5377 -0.4951  0.0766
  404TMC3     H 6037   1.047   0.660  13.348  1.3547 -1.8336 -0.6612
  404TMC3    H1 6038   0.996   0.886  12.998 -0.6902 -0.4293 -1.5677
  404TMC3    H2 6039   0.798   0.515  13.029  1.0456  0.7868 -1.5707
  404TMC3    C7 6040   0.863   0.721  12.864  0.0203  0.0238 -0.0052
  404TMC3    C8 6041   0.864   0.463  13.268  0.9961 -0.4591 -0.2159
  404TMC3    O1 6042   0.953   0.794  12.821  0.5739 -0.1092 -0.8078
  404TMC3    O2 6043   0.884   0.358  13.216  0.1036  0.8857 -0.3520
  405MPD2     C 6044   1.414   1.875  14.470 -0.3060  0.3237 -0.8917
  405MPD2    C1 6045   1.375   1.821  14.352  0.3411 -0.1463  0.6480
  405MPD2    C2 6046   1.268   1.875  14.288  0.8492  0.2225 -0.0740
  405MPD2    C3 6047   1.192   1.980  14.341  0.4493  0.3980  0.3474
  405MPD2    C4 6048   1.240   2.045  14.454  0.0562  0.1835 -0.9189
  405MPD2    C5 6049   1.351   1.988  14.518  0.0358  0.2557 -0.4164
  405MPD2     H 6050   1.222   1.819  14.207  0.6776  1.5647 -0.9032
  405MPD2    H1 6051   1.191   2.125  14.507  0.3152 -0.3082  0.0572
  405MPD2    H2 6052   1.492   1.835  14.533 -0.5648  0.9965 -0.1433
  405MPD2    H3 6053   1.395   2.029  14.608 -0.7964  0.6511 -0.1911
  405MPD2     N 6054   1.078   2.010  14.269 -0.7043  0.0457 -0.4900
  405MPD2    H5 6055   1.059   1.956  14.186 -1.1199  1.3727 -1.2546
  405MPD2    N1 6056   1.439   1.702  14.307 -0.1093 -0.0429  0.1511
  405MPD2    H7 6057   1.502   1.655  14.370 -0.4989  0.3108  0.8021
  406TMC3    C1 6058   0.722   2.212  14.066 -0.0788 -0.0452 -0.4671
  406TMC3    C2 6059   0.770   2.174  13.943 -0.2568  0.0169  0.1505
  406TMC3    C3 6060   0.899   2.123  13.934  0.5464 -0.6708  0.2584
  406TMC3    C4 6061   0.799   2.196  14.182 -0.4365 -0.6158 -0.2935
  406TMC3    C5 6062   0.929   2.151  14.166  0.1298 -0.1225  0.4723
  406TMC3    C6 6063   0.985   2.118  14.046 -0.2568 -0.1693  0.4388
  406TMC3     C 6064   0.594   2.279  14.067  0.0937 -0.1599 -0.4464
  406TMC3     O 6065   0.556   2.345  13.966 -0.5474 -0.8008  0.3339
  406TMC3     H 6066   0.701   2.175  13.860  2.5497 -2.2842 -2.1913
  406TMC3    H1 6067   0.752   2.216  14.278 -0.6830 -1.0905 -0.3149
  406TMC3    H2 6068   1.089   2.090  14.034  0.5786  2.1713  2.2643
  406TMC3    C7 6069   1.001   2.120  14.292  0.2405  0.3878 -0.3602
  406TMC3    C8 6070   0.908   2.019  13.835 -0.5011  0.5478 -0.3234
  406TMC3    O1 6071   1.000   2.190  14.390  0.1597  0.7831 -0.7264
  406TMC3    O2 6072   0.817   2.009  13.754  0.2035 -0.2166  0.4159
  407MPD2     C 6073   2.747   3.099   9.691  0.8198  0.4119 -0.0989
  407MPD2    C1 6074   2.845   3.193   9.659 -0.0383 -0.3187  0.7681
  407MPD2    C2 6075   2.840   3.313   9.722  0.0986 -0.9337  0.0883
  407MPD2    C3 6076   2.741   3.348   9.815 -0.1642  0.0896  0.3776
  407MPD2    C4 6077   2.643   3.256   9.852  0.2623  0.6716 -0.4282
  407MPD2    C5 6078   2.648   3.138   9.780  0.5169 -0.3424  0.2022
  407MPD2     H 6079   2.922   3.381   9.701 -0.9921 -0.1067 -1.5139
  407MPD2    H1 6080   2.559   3.274   9.919 -0.5869  1.5766 -1.7236
  407MPD2    H2 6081   2.731   2.998   9.655  2.2024 -0.2568  1.1302
  407MPD2    H3 6082   2.569   3.067   9.803 -1.1959  1.5227  0.0194
  407MPD2     N 6083   2.735   3.477   9.878 -0.2054  0.3155  0.0453
  407MPD2    H5 6084   2.688   3.485   9.968  1.7478 -2.1326  1.2907
  407MPD2    N1 6085   2.939   3.168   9.558  0.1524  0.1138  0.3744
  407MPD2    H7 6086   3.006   3.244   9.551  0.3783 -0.2802 -1.5390
  408TMC3    C1 6087   3.052   3.059   9.388  0.2064  0.5075  0.5835
  408TMC3    C2 6088   3.101   2.928   9.355 -0.3804  0.9099  0.3923
  408TMC3    C3 6089   3.183   2.930   9.251  0.3884  0.0775  0.1501
  408TMC3    C4 6090   3.067   3.172   9.316 -0.4984  0.0759 -0.3457
  408TMC3    C5 6091   3.150   3.161   9.205 -0.2105  0.1277 -0.4403
  408TMC3    C6 6092   3.208   3.037   9.168 -0.6327 -0.4235 -0.2018
  408TMC3     C 6093   2.948   3.054   9.485 -0.3311  0.5391 -0.5015
  408TMC3     O 6094   2.876   2.958   9.480 -0.7577  0.5458  0.3575
  408TMC3     H 6095   3.099   2.852   9.433 -2.0895  0.1168 -0.4382
  408TMC3    H1 6096   2.999   3.253   9.338 -1.6864 -0.7551 -0.9383
  408TMC3    H2 6097   3.275   3.036   9.083 -1.9504 -0.8851 -1.2392
  408TMC3    C7 6098   3.219   3.285   9.157  0.0640  0.1589  0.3687
  408TMC3    C8 6099   3.290   2.836   9.261 -0.3947 -0.0535  0.2696
  408TMC3    O1 6100   3.299   3.279   9.066 -0.0859 -0.4774  0.1734
  408TMC3    O2 6101   3.268   2.736   9.326  0.5693 -0.6109  0.2141
  409MPD2     C 6102   3.453   3.107  17.269  0.0403 -0.3411 -0.0914
  409MPD2    C1 6103   3.458   3.240  17.282 -0.4894  0.2308  0.3616
  409MPD2    C2 6104   3.528   3.312  17.186  0.2211 -0.5003  0.8511
  409MPD2    C3 6105   3.605   3.247  17.087  0.1106 -0.0963 -0.0135
  409MPD2    C4 6106   3.599   3.111  17.075  0.7904  0.0679 -0.4834
  409MPD2    C5 6107   3.519   3.043  17.164 -0.7286  0.1925 -0.3935
  409MPD2     H 6108   3.528   3.420  17.190 -0.6527 -0.4401 -0.6456
  409MPD2    H1 6109   3.666   3.056  17.009 -0.3233 -2.0640  0.1962
  409MPD2    H2 6110   3.395   3.046  17.337 -0.4149 -0.1431 -0.2976
  409MPD2    H3 6111   3.513   2.935  17.170  0.6663  0.2956  3.2806
  409MPD2     N 6112   3.684   3.331  17.005  0.1619 -0.4944 -0.8966
  409MPD2    H5 6113   3.700   3.424  17.041  0.9045 -1.3138  0.8811
  409MPD2    N1 6114   3.394   3.292  17.397 -0.1747 -0.6103  0.2036
  409MPD2    H7 6115   3.352   3.224  17.460 -0.1282  1.2329  2.2166
  410TMC3    C1 6116   3.859   3.402  16.871 -0.0040 -0.0415  0.5262
  410TMC3    C2 6117   3.939   3.451  16.974 -0.9819 -0.2080 -0.3170
  410TMC3    C3 6118   3.969   3.589  16.977  0.1879  0.3174  0.1227
  410TMC3    C4 6119   3.798   3.487  16.786  0.6469  0.2668 -0.8164
  410TMC3    C5 6120   3.808   3.621  16.814  0.4776 -0.1890 -0.6487
  410TMC3    C6 6121   3.895   3.674  16.904 -0.1862  0.0557 -0.0959
  410TMC3     C 6122   3.778   3.292  16.912 -0.9058  0.6280 -0.1168
  410TMC3     O 6123   3.798   3.178  16.870  0.1965  0.2385  0.1429
  410TMC3     H 6124   3.979   3.383  17.049  0.9152  0.0339 -1.0906
  410TMC3    H1 6125   3.748   3.441  16.702 -2.3847  1.7649  0.1789
  410TMC3    H2 6126   3.898   3.779  16.930  0.6152  0.1807 -0.6970
  410TMC3    C7 6127   3.751   3.718  16.718  0.0285  0.8279  0.3441
  410TMC3    C8 6128   4.051   3.641  17.087 -0.8873  0.5611  0.6119
  410TMC3    O1 6129   3.794   3.832  16.726  0.1867 -0.1844 -0.4036
  410TMC3    O2 6130   4.079   3.564  17.176 -0.0439 -0.0900 -0.3170
  411MPD2     C 6131   3.166   4.053  14.608  0.0089 -0.1606  0.3475
  411MPD2    C1 6132   3.089   4.128  14.514 -0.5987 -0.3007 -0.6941
  411MPD2    C2 6133   3.004   4.047  14.433  0.4471 -0.3443  0.0897
  411MPD2    C3 6134   2.997   3.911  14.442 -0.5470 -0.4502  0.1882
  411MPD2    C4 6135   3.072   3.843  14.535  0.0725  0.5188 -0.7778
  411MPD2    C5 6136   3.158   3.916  14.617 -0.6237 -0.0992 -0.5886
  411MPD2     H 6137   2.939   4.105  14.369 -0.0251  0.0531  0.9285
  411MPD2    H1 6138   3.086   3.736  14.539  0.9141  0.6335 -0.5384
  411MPD2    H2 6139   3.243   4.097  14.670  0.3009  0.9655 -0.8050
  411MPD2    H3 6140   3.227   3.870  14.686 -0.0106  1.6719 -0.0129
  411MPD2     N 6141   2.925   3.829  14.348 -0.8079  0.2623  0.1004
  411MPD2    H5 6142   2.945   3.730  14.350  4.1314  1.2205 -1.0736
  411MPD2    N1 6143   3.103   4.269  14.507  0.2068 -0.6188  0.3282
  411MPD2    H7 6144   3.174   4.316  14.563  1.9193 -2.7430 -0.0490
  412TMC3    C1 6145   2.805   3.777  14.142  0.6326 -0.0103  0.4427
  412TMC3    C2 6146   2.686   3.798  14.080 -0.0634  0.4329 -0.9765
  412TMC3    C3 6147   2.684   3.786  13.942 -0.6854  0.2306  0.6646
  412TMC3    C4 6148   2.914   3.724  14.074  0.1101 -0.0978 -0.6112
  412TMC3    C5 6149   2.903   3.698  13.936  0.2268 -0.4000 -0.0518
  412TMC3    C6 6150   2.782   3.726  13.869  0.0290 -0.5522 -0.1452
  412TMC3     C 6151   2.844   3.874  14.248 -0.0855 -0.3865  0.2949
  412TMC3     O 6152   2.797   3.987  14.228 -0.0868  0.1645  0.0328
  412TMC3     H 6153   2.619   3.854  14.143  1.0664 -0.5474  1.0932
  412TMC3    H1 6154   3.005   3.724  14.132 -1.5208  2.3801  1.9136
  412TMC3    H2 6155   2.775   3.704  13.763 -0.5871 -2.3213  0.2620
  412TMC3    C7 6156   3.016   3.739  13.852 -0.7261  0.1110 -0.5949
  412TMC3    C8 6157   2.624   3.901  13.874 -0.1885 -0.5198 -0.2221
  412TMC3    O1 6158   2.986   3.804  13.751  0.2220 -0.7154 -0.2792
  412TMC3    O2 6159   2.522   3.955  13.917 -0.4109  0.2056 -0.3691
  413MPD2     C 6160   4.638   2.719  15.288  0.4122  0.6403  0.4512
  413MPD2    C1 6161   4.647   2.707  15.149 -0.2534 -0.1155  0.1573
  413MPD2    C2 6162   0.009   2.619  15.089  0.6793 -0.0271  0.5908
  413MPD2    C3 6163   0.089   2.544  15.174 -0.4855  0.4957 -0.1154
  413MPD2    C4 6164   0.087   2.566  15.305  0.2622 -0.2602  0.3485
  413MPD2    C5 6165   0.007   2.653  15.363  0.4486 -0.0365  0.1706
  413MPD2     H 6166   0.020   2.618  14.981  1.7146 -0.2777  0.7024
  413MPD2    H1 6167   0.149   2.509  15.374 -0.1763 -1.2897 -0.1021
  413MPD2    H2 6168   4.576   2.785  15.348  0.1753  1.0023 -0.1947
  413MPD2    H3 6169   0.011   2.667  15.471 -0.3054  0.4020  0.1386
  413MPD2     N 6170   0.180   2.443  15.121 -1.1180  0.0761 -0.5357
  413MPD2    H5 6171   0.153   2.422  15.026  1.8688 -2.8995 -0.7335
  413MPD2    N1 6172   4.562   2.788  15.076  0.1869  0.0480 -0.3446
  413MPD2    H7 6173   4.511   2.855  15.132 -0.1362 -1.8217  1.5704
  414TMC3    C1 6174   0.355   2.282  15.107 -0.0254 -0.3414  0.0701
  414TMC3    C2 6175   0.475   2.231  15.154 -0.5393 -0.4344  0.8663
  414TMC3    C3 6176   0.526   2.119  15.091 -0.3166 -1.4625 -0.3262
  414TMC3    C4 6177   0.301   2.233  14.985  0.2406  0.0291  0.1588
  414TMC3    C5 6178   0.381   2.149  14.914 -0.0566 -0.3757 -0.0135
  414TMC3    C6 6179   0.479   2.073  14.971 -0.3782 -0.4284 -0.3044
  414TMC3     C 6180   0.285   2.379  15.189  0.1081 -0.2548  0.3853
  414TMC3     O 6181   0.344   2.416  15.287  0.3385  0.0047 -0.0704
  414TMC3     H 6182   0.501   2.267  15.253 -2.5860  1.2366  0.7966
  414TMC3    H1 6183   0.217   2.275  14.932 -0.1168 -0.0394  0.6770
  414TMC3    H2 6184   0.524   1.993  14.914 -0.0580 -0.4959  0.0455
  414TMC3    C7 6185   0.316   2.100  14.795  0.3681 -0.0025 -0.5456
  414TMC3    C8 6186   0.664   2.074  15.110  0.2789  0.5975 -0.7702
  414TMC3    O1 6187   0.197   2.090  14.802  0.0061  0.3654  0.1569
  414TMC3    O2 6188   0.698   1.967  15.070 -0.2929 -0.6826 -0.2206
  415TMC3    C1 6189   0.622   0.200   9.345  0.0066 -0.3829  0.1679
  415TMC3    C2 6190   0.735   0.138   9.301  0.3619  0.2129  0.0805
  415TMC3    C3 6191   0.735   0.008   9.258  0.1481 -0.0935 -0.3861
  415TMC3    C4 6192   0.502   0.137   9.343  0.5615  0.0977  0.2413
  415TMC3    C5 6193   0.510   0.009   9.301 -0.2403  0.8840 -0.1088
  415TMC3    C6 6194   0.619   4.668   9.252  0.1901 -0.0195  0.3764
  415TMC3     C 6195   0.629   0.342   9.377  0.5331  0.1723  0.8587
  415TMC3     O 6196   0.526   0.403   9.376  0.3154  0.4519  0.1213
  415TMC3     H 6197   0.833   0.184   9.311  0.4938  0.2220 -1.2906
  415TMC3    H1 6198   0.412   0.193   9.366  0.3694  0.3610 -1.1124
  415TMC3    H2 6199   0.617   4.563   9.223  3.0487  0.4748 -1.5718
  415TMC3    C7 6200   0.427   4.641   9.372  0.6755 -0.2140 -0.3264
  415TMC3    C8 6201   0.859   4.652   9.248  0.2049 -0.2473  0.3964
  415TMC3    O1 6202   0.428   4.521   9.342  0.2033 -0.4197  0.9857
  415TMC3    O2 6203   0.853   4.547   9.186  0.8834 -0.2757  1.2639
  416MPD2     C 6204   2.867   4.209  11.660  0.0557  0.0248 -0.1315
  416MPD2    C1 6205   2.738   4.227  11.621 -0.4557  0.3525  0.0839
  416MPD2    C2 6206   2.658   4.112  11.586  0.0683 -0.5577 -0.4300
  416MPD2    C3 6207   2.721   3.993  11.563 -0.6703 -0.4401  0.2860
  416MPD2    C4 6208   2.858   3.987  11.577  0.1563  0.2746  0.4801
  416MPD2    C5 6209   2.929   4.093  11.633 -0.1820  0.6086  0.0003
  416MPD2     H 6210   2.553   4.117  11.559  0.3587 -1.2583 -1.7128
  416MPD2    H1 6211   2.907   3.892  11.562  1.1241  0.5551  1.8341
  416MPD2    H2 6212   2.917   4.284  11.719  0.4611  0.8354 -1.4841
  416MPD2    H3 6213   3.033   4.082  11.663 -0.6411 -1.4514  0.8314
  416MPD2     N 6214   2.633   3.884  11.522  0.5990 -0.1608 -0.3009
  416MPD2    H5 6215   2.534   3.906  11.520  0.4263 -1.1087 -2.0822
  416MPD2    N1 6216   2.678   4.352  11.647 -0.1323  0.6368 -0.7393
  416MPD2    H7 6217   2.731   4.415  11.707  1.1238  1.7274 -3.0279
  417TMC3    C1 6218   2.495   4.501  11.641  0.0600 -0.4760 -0.6715
  417TMC3    C2 6219   2.502   4.532  11.774  0.1330  0.6031 -0.1978
  417TMC3    C3 6220   2.411   4.618  11.827 -0.5020  0.4961  0.1366
  417TMC3    C4 6221   2.415   4.566  11.552 -0.3494 -0.0124  0.8372
  417TMC3    C5 6222   2.314   4.641  11.605  0.4196  0.0994 -1.2043
  417TMC3    C6 6223   2.312   4.671  11.743  0.2227  0.0502 -0.2757
  417TMC3     C 6224   2.567   4.392  11.580  0.5273 -0.3530 -0.2550
  417TMC3     O 6225   2.509   4.338  11.484 -0.1933 -0.0593  0.0900
  417TMC3     H 6226   2.558   4.459  11.833 -0.8155  0.4091  0.4622
  417TMC3    H1 6227   2.423   4.552  11.445  0.5927 -0.6739  0.9928
  417TMC3    H2 6228   2.249   0.021  11.790  1.2388 -0.1603  1.4130
  417TMC3    C7 6229   2.226   4.716  11.514  0.3211 -0.0250 -0.0875
  417TMC3    C8 6230   2.395   4.632  11.968  0.5160  0.6409  0.7761
  417TMC3    O1 6231   2.282   0.054  11.421 -0.0093  0.9450  0.1390
  417TMC3    O2 6232   2.296   4.693  12.007 -0.1712  0.1011 -0.0051
  418TMC3    C1 6233   2.196   1.450   0.191 -0.0572 -0.4555 -0.3548
  418TMC3    C2 6234   2.062   1.475   0.179  0.7587  0.6421  0.0895
  418TMC3    C3 6235   1.963   1.390   0.222  1.0322 -0.1154 -0.0080
  418TMC3    C4 6236   2.225   1.328   0.237  0.5626  1.2825  0.8741
  418TMC3    C5 6237   2.132   1.243   0.290  0.2373  0.3185  0.3168
  418TMC3    C6 6238   1.997   1.266   0.278  0.7675  0.1407 -0.2772
  418TMC3     C 6239   2.281   1.490   0.083  0.2114  0.7588  0.2535
  418TMC3     O 6240   2.374   1.422   0.047 -0.1922 -0.3890 -0.1797
  418TMC3     H 6241   2.027   1.562   0.125 -0.1559  0.9013  1.1115
  418TMC3    H1 6242   2.327   1.291   0.240 -0.4487 -1.6150 -0.1926
  418TMC3    H2 6243   1.922   1.197   0.313  0.0347 -0.1583 -2.4765
  418TMC3    C7 6244   2.167   1.103   0.313 -0.2172 -0.4298  0.2701
  418TMC3    C8 6245   1.832   1.408   0.158 -0.2513  0.8635 -0.0693
  418TMC3    O1 6246   2.076   1.020   0.296  0.1448  0.1238 -0.1756
  418TMC3    O2 6247   1.788   1.520   0.137 -0.1835  0.2861 -0.1524
  419MPD2     C 6248   0.056   4.007  12.828  1.3743 -0.0401 -0.2996
  419MPD2    C1 6249   0.031   4.124  12.757 -0.9159 -0.1849  0.5615
  419MPD2    C2 6250   0.007   4.238  12.835 -0.2195  0.2027 -0.2521
  419MPD2    C3 6251   0.009   4.246  12.967 -0.7391  0.1938  0.6997
  419MPD2    C4 6252   0.038   4.125  13.030 -0.5056 -0.3653 -0.3984
  419MPD2    C5 6253   0.063   4.012  12.963 -0.1396 -0.4148 -0.3823
  419MPD2     H 6254   4.706   4.328  12.779 -0.2516 -0.8902 -1.9957
  419MPD2    H1 6255   0.036   4.110  13.137 -3.5906 -2.0118 -0.6775
  419MPD2    H2 6256   0.080   3.912  12.782  1.7711  0.6876 -1.6018
  419MPD2    H3 6257   0.084   3.917  13.009 -3.2028 -0.6465  0.5568
  419MPD2     N 6258   4.694   4.366  13.033 -0.3645 -0.7907 -0.1328
  419MPD2    H5 6259   4.668   4.445  12.976  2.1648  0.3847  0.3397
  419MPD2    N1 6260   0.019   4.141  12.617  0.0931 -0.2934 -0.0260
  419MPD2    H7 6261   0.029   4.231  12.571 -1.7561 -0.5097 -0.8664
  420TMC3    C1 6262   4.573   4.490  13.190  0.3417  0.5876  0.2725
  420TMC3    C2 6263   4.552   4.589  13.098  0.2294  0.8563  0.5056
  420TMC3    C3 6264   4.436   4.669  13.105  0.0578  0.2645 -0.2715
  420TMC3    C4 6265   4.484   4.467  13.297  0.1559 -0.3313  0.1048
  420TMC3    C5 6266   4.366   4.539  13.291 -0.2693 -0.3151  0.4728
  420TMC3    C6 6267   4.341   4.632  13.196 -0.4203 -1.2528  0.4135
  420TMC3     C 6268   4.674   4.384  13.172  0.6512  0.0985  0.0287
  420TMC3     O 6269   4.689   4.301  13.260  0.4715 -0.2729  0.2956
  420TMC3     H 6270   4.628   4.613  13.025 -0.4142  1.3875  0.0189
  420TMC3    H1 6271   4.497   4.384  13.366 -0.5120 -1.0962 -0.6989
  420TMC3    H2 6272   4.253   4.696  13.199  0.1905 -0.3607 -0.4809
  420TMC3    C7 6273   4.242   4.478  13.348  0.4156  0.6837  0.3154
  420TMC3    C8 6274   4.391   0.033  12.998  0.0043  0.2292 -0.0979
  420TMC3    O1 6275   4.258   4.412  13.448 -0.1132  0.3124  0.1911
  420TMC3    O2 6276   4.273   0.018  12.967 -0.3779  0.2992 -0.7472
  421TMC3    C1 6277   1.452   1.440  13.557 -0.6220  0.3693  0.2990
  421TMC3    C2 6278   1.529   1.543  13.519 -0.4850  0.4204 -0.6063
  421TMC3    C3 6279   1.661   1.539  13.565 -0.7577 -0.2056  0.4290
  421TMC3    C4 6280   1.501   1.339  13.644 -0.1682 -0.2424 -0.3715
  421TMC3    C5 6281   1.631   1.317  13.658  0.3703 -0.0869  0.7390
  421TMC3    C6 6282   1.711   1.424  13.630  0.1214  0.5119 -0.5487
  421TMC3     C 6283   1.321   1.446  13.501  0.3055 -0.5658  0.1195
  421TMC3     O 6284   1.283   1.557  13.456  0.2321 -0.4136 -0.7214
  421TMC3     H 6285   1.486   1.628  13.467  2.5126  1.4730 -1.3933
  421TMC3    H1 6286   1.431   1.257  13.661  0.1190 -0.2517  0.7177
  421TMC3    H2 6287   1.818   1.417  13.646  0.1799  1.3305 -0.6162
  421TMC3    C7 6288   1.667   1.244  13.780 -0.9567  0.3537 -0.0373
  421TMC3    C8 6289   1.735   1.656  13.591 -0.4910  0.4814  0.0443
  421TMC3    O1 6290   1.730   1.304  13.864 -0.2577  0.0004  0.0814
  421TMC3    O2 6291   1.829   1.653  13.669 -0.0481  0.1859 -0.3581
  422TMC3    C1 6292   3.348   2.726  12.075  0.4973  0.6128  0.1411
  422TMC3    C2 6293   3.281   2.847  12.099 -0.1033  0.4260  0.3550
  422TMC3    C3 6294   3.176   2.852  12.189 -0.3229  0.0877  0.1917
  422TMC3    C4 6295   3.310   2.613  12.144  0.8384 -0.2258  0.5550
  422TMC3    C5 6296   3.207   2.626  12.230 -0.0297  0.4051 -0.1385
  422TMC3    C6 6297   3.133   2.741  12.258 -0.4208  0.1876 -0.3754
  422TMC3     C 6298   3.439   2.721  11.959  0.2398  0.0697 -0.1799
  422TMC3     O 6299   3.465   2.823  11.908 -0.1739  0.2783 -0.1751
  422TMC3     H 6300   3.306   2.934  12.039 -1.2791  1.1279  0.8930
  422TMC3    H1 6301   3.369   2.522  12.150  0.3590 -0.4503  1.7637
  422TMC3    H2 6302   3.039   2.740  12.311 -1.1850  1.0363 -1.6981
  422TMC3    C7 6303   3.142   2.507  12.264  0.1931 -0.9858  0.2045
  422TMC3    C8 6304   3.162   2.984  12.260  0.2907 -0.2154  0.3253
  422TMC3    O1 6305   3.185   2.413  12.198  0.0999 -0.4499 -0.0299
  422TMC3    O2 6306   3.193   3.086  12.200  0.6526  0.5991  0.2938
  423MPD2     C 6307   0.589   3.440   0.723 -0.0517  0.2338  0.0258
  423MPD2    C1 6308   0.477   3.373   0.736 -0.0749 -0.1886 -0.8514
  423MPD2    C2 6309   0.445   3.269   0.640 -0.1874  0.5681  0.5955
  423MPD2    C3 6310   0.516   3.245   0.525 -0.2875 -0.1817 -0.7777
  423MPD2    C4 6311   0.635   3.315   0.518  0.3712  0.0549 -0.7461
  423MPD2    C5 6312   0.672   3.405   0.614 -0.2409  0.0398  1.1193
  423MPD2     H 6313   0.354   3.211   0.648 -0.5761  1.4837  2.6635
  423MPD2    H1 6314   0.710   3.289   0.444 -0.1670 -0.1698 -1.2130
  423MPD2    H2 6315   0.615   3.523   0.788  1.6143  0.9046 -1.4792
  423MPD2    H3 6316   0.760   3.465   0.594  0.2797 -1.8824 -2.3816
  423MPD2     N 6317   0.488   3.144   0.428  0.4690 -0.7042  0.4867
  423MPD2    H5 6318   0.535   3.163   0.340  0.8597 -1.8329  0.4468
  423MPD2    N1 6319   0.386   3.383   0.841  0.8994 -0.4759 -0.3630
  423MPD2    H7 6320   0.311   3.315   0.838  1.1088 -0.7411  0.2302
  424TMC3    C1 6321   0.307   3.413   1.055  0.1682 -0.1952  0.0011
  424TMC3    C2 6322   0.347   3.388   1.182  0.1549 -0.5403 -0.1127
  424TMC3    C3 6323   0.252   3.351   1.270 -0.2644  0.0499  0.8666
  424TMC3    C4 6324   0.184   3.407   1.001  0.5117  0.3560 -0.1683
  424TMC3    C5 6325   0.091   3.385   1.101  0.5774 -0.0498 -0.2049
  424TMC3    C6 6326   0.118   3.346   1.229 -0.5549 -0.4400 -0.2699
  424TMC3     C 6327   0.419   3.438   0.967  0.2824  0.1155 -0.0578
  424TMC3     O 6328   0.525   3.476   1.013 -0.0120  0.1715  0.3181
  424TMC3     H 6329   0.447   3.409   1.216 -0.2173  0.0098  0.6456
  424TMC3    H1 6330   0.159   3.447   0.903 -0.8753 -0.6818 -0.2398
  424TMC3    H2 6331   0.036   3.300   1.283 -1.7807  0.9607 -0.9271
  424TMC3    C7 6332   4.680   3.404   1.056 -0.2057  0.3565  0.5178
  424TMC3    C8 6333   0.287   3.268   1.381  0.7946 -0.2997 -0.1590
  424TMC3    O1 6334   4.642   3.356   0.947 -0.7771  0.4019  0.1405
  424TMC3    O2 6335   0.215   3.170   1.407 -0.6616  0.3991 -0.4747
  425MPD2     C 6336   4.394   2.640   0.040 -0.0187 -0.0755 -0.0586
  425MPD2    C1 6337   4.308   2.546  17.677 -0.9357 -0.0465  0.0588
  425MPD2    C2 6338   4.175   2.554  17.693 -0.2378 -0.1388  0.5306
  425MPD2    C3 6339   4.118   2.637   0.089 -0.2539  0.3182 -0.0774
  425MPD2    C4 6340   4.204   2.726   0.151  0.6875  0.2927 -0.3460
  425MPD2    C5 6341   4.339   2.732   0.125 -0.7664 -0.1532 -0.4301
  425MPD2     H 6342   4.111   2.481  17.645 -0.4156 -1.3562  2.6211
  425MPD2    H1 6343   4.168   2.794   0.228  0.8017  1.2620 -1.1394
  425MPD2    H2 6344   4.501   2.646   0.028 -0.1190  3.4894  0.7304
  425MPD2    H3 6345   4.400   2.790   0.193 -1.8585 -1.7667  1.9053
  425MPD2     N 6346   3.980   2.627   0.115 -0.2511 -0.4440  0.4654
  425MPD2    H5 6347   3.920   2.561   0.069  0.9532 -0.7543 -0.6583
  425MPD2    N1 6348   4.376   2.444  17.602  0.1951  0.1724  0.9991
  425MPD2    H7 6349   4.477   2.448  17.597  0.2892  0.2709  2.9877
  426TMC3    C1 6350   4.420   2.211  17.543  0.2437 -0.2675  0.0498
  426TMC3    C2 6351   4.389   2.131  17.434  0.1248  0.6739  0.0929
  426TMC3    C3 6352   4.478   2.028  17.410  0.1563 -0.0596 -0.2305
  426TMC3    C4 6353   4.522   2.189  17.630  0.1928 -0.0783  0.2139
  426TMC3    C5 6354   4.607   2.084  17.602  0.6111  0.4570  0.4733
  426TMC3    C6 6355   4.586   2.008  17.487  0.0769 -0.2934 -0.2319
  426TMC3     C 6356   4.324   2.321  17.563 -0.1437  0.2817 -0.4748
  426TMC3     O 6357   4.212   2.282  17.549  0.4675  0.5028 -0.6126
  426TMC3     H 6358   4.305   2.157  17.371 -2.5984 -0.3315  3.3337
  426TMC3    H1 6359   4.523   2.236   0.030  0.8382  0.3167  0.0132
  426TMC3    H2 6360   4.654   1.925  17.467 -0.4519 -0.7816  0.0001
  426TMC3    C7 6361   4.646   1.996   0.013  0.0534 -0.5295 -0.1515
  426TMC3    C8 6362   4.430   1.917  17.332  0.7301  0.1811 -0.0709
  426TMC3    O1 6363   4.678   1.879   0.002 -0.0253  0.3172 -0.0140
  426TMC3    O2 6364   4.513   1.845  17.283 -0.5577  0.6195 -0.1854
  427MPD2     C 6365   2.318   4.430  14.628 -0.6048  0.1530 -0.2980
  427MPD2    C1 6366   2.295   4.464  14.763 -0.6524  0.7025  0.9204
  427MPD2    C2 6367   2.179   4.530  14.800  0.1340  0.2807 -0.0661
  427MPD2    C3 6368   2.082   4.559  14.706  0.4357  0.2659  0.3036
  427MPD2    C4 6369   2.101   4.518  14.573 -0.6187 -0.1954  0.2556
  427MPD2    C5 6370   2.214   4.447  14.540  0.1396 -0.0965  0.5816
  427MPD2     H 6371   2.169   4.564  14.902  0.9647  1.9918 -0.5525
  427MPD2    H1 6372   2.031   4.533  14.491 -0.0457 -1.1663 -0.4101
  427MPD2    H2 6373   2.408   4.374  14.602  0.0875  0.4436  1.4532
  427MPD2    H3 6374   2.220   4.401  14.442 -3.8109 -2.6862  1.5515
  427MPD2     N 6375   1.957   4.610  14.739  0.2741  0.2747  0.5887
  427MPD2    H5 6376   1.892   4.630  14.663  1.4217 -1.4097 -0.8476
  427MPD2    N1 6377   2.386   4.431  14.867 -0.0374  0.2702  0.1753
  427MPD2    H7 6378   2.362   4.461  14.961 -0.8818 -0.7825  0.2940
  428TMC3    C1 6379   2.558   4.319  14.981 -0.3553  0.3286 -0.3695
  428TMC3    C2 6380   2.478   4.279  15.080  0.8093 -0.2854 -0.3087
  428TMC3    C3 6381   2.547   4.251  15.201  0.2823 -0.4070 -0.8723
  428TMC3    C4 6382   2.694   4.335  14.983 -0.1973  0.4539  0.2343
  428TMC3    C5 6383   2.753   4.307  15.112  0.0887 -0.5466  0.1746
  428TMC3    C6 6384   2.684   4.263  15.222  0.0931 -0.7473  0.0527
  428TMC3     C 6385   2.498   4.357  14.853 -0.2599 -1.3124 -0.0568
  428TMC3     O 6386   2.562   4.327  14.751  0.1704  0.5261 -0.0758
  428TMC3     H 6387   2.370   4.276  15.071  0.8044 -1.0932  0.0126
  428TMC3    H1 6388   2.744   4.396  14.909  1.0530  0.0567  0.7624
  428TMC3    H2 6389   2.732   4.246  15.318  0.5032  1.1392  0.1852
  428TMC3    C7 6390   2.894   4.342  15.140  0.1652  0.0604  0.1594
  428TMC3    C8 6391   2.461   4.196  15.306  0.4818  0.2479  0.2717
  428TMC3    O1 6392   2.920   4.356  15.260 -0.3148 -0.3463 -0.2266
  428TMC3    O2 6393   2.350   4.248  15.310 -0.4942 -0.1949 -0.2107
  429MPD2     C 6394   3.652   0.230  17.513 -0.6819 -0.2174  0.1865
  429MPD2    C1 6395   3.669   0.122  17.425  0.2957 -0.7766  0.1507
  429MPD2    C2 6396   3.768   0.133  17.338 -0.1894  0.0596  0.0151
  429MPD2    C3 6397   3.850   0.242  17.330 -0.7447 -0.3804  0.0140
  429MPD2    C4 6398   3.845   0.342  17.421 -0.1218 -0.0955  0.5440
  429MPD2    C5 6399   3.745   0.331  17.518  0.2413 -0.2104 -0.6591
  429MPD2     H 6400   3.791   0.052  17.269 -1.0636  0.9590 -1.3309
  429MPD2    H1 6401   3.917   0.423  17.424  0.5460 -0.6869  0.6006
  429MPD2    H2 6402   3.567   0.241  17.579 -2.3803 -2.6534 -1.5955
  429MPD2    H3 6403   3.752   0.415  17.586  1.9453 -1.5878  0.8505
  429MPD2     N 6404   3.955   0.239  17.233  0.2958 -0.2916 -0.3222
  429MPD2    H5 6405   3.969   0.156  17.175 -0.3029 -0.6885  0.1054
  429MPD2    N1 6406   3.589   0.011  17.420  0.2812  0.0706 -0.0304
  429MPD2    H7 6407   3.624   4.653  17.373 -0.8846  0.1860 -1.1259
  430TMC3    C1 6408   4.141   0.261  17.120  0.5608 -0.1493 -0.1262
  430TMC3    C2 6409   4.072   0.203  17.019  0.3089 -0.1669 -0.9032
  430TMC3    C3 6410   4.138   0.109  16.941  0.3099 -0.5602  0.2002
  430TMC3    C4 6411   4.260   0.203  17.152 -0.3136  0.5251 -0.2879
  430TMC3    C5 6412   4.314   0.105  17.070 -0.0357  0.3225  0.0052
  430TMC3    C6 6413   4.258   0.048  16.962  0.9648  0.1192  0.9383
  430TMC3     C 6414   4.065   0.313  17.229  0.4324 -0.6227  0.4488
  430TMC3     O 6415   4.108   0.401  17.304 -0.4669 -0.3526  0.5071
  430TMC3     H 6416   3.969   0.232  17.002  0.7952  2.4347  0.5231
  430TMC3    H1 6417   4.297   0.226  17.251 -0.8889 -2.7396  0.6877
  430TMC3    H2 6418   4.298   4.700  16.893 -0.5710  0.0711  0.1097
  430TMC3    C7 6419   4.418   0.041  17.138  0.1205  0.5592 -0.6012
  430TMC3    C8 6420   4.068   0.073  16.816  0.3767 -0.1725 -0.4435
  430TMC3    O1 6421   4.479   0.100  17.227  1.1528 -0.2536 -0.0180
  430TMC3    O2 6422   4.087   4.689  16.766 -0.1214  0.0567  0.0082
  431MPD2     C 6423   4.443   0.087  12.229  0.1372 -0.3551 -0.1830
  431MPD2    C1 6424   4.575   0.072  12.230  0.5791 -0.1810 -0.2536
  431MPD2    C2 6425   4.634   4.672  12.226 -0.0834 -0.4032 -0.1991
  431MPD2    C3 6426   4.555   4.556  12.231  0.0248  0.3594 -1.2350
  431MPD2    C4 6427   4.416   4.570  12.236  0.2548  0.4895  0.6729
  431MPD2    C5 6428   4.360   4.701  12.228  0.0324  0.3102  0.9743
  431MPD2     H 6429   0.017   4.662  12.238  0.2029  3.1703  0.1862
  431MPD2    H1 6430   4.355   4.482  12.248 -2.7151  2.1323 -2.4006
  431MPD2    H2 6431   4.388   0.179  12.242  1.4077  0.4078 -0.1856
  431MPD2    H3 6432   4.253   4.700  12.244  0.1071  0.5059  1.4840
  431MPD2     N 6433   4.606   4.428  12.240  0.3281 -0.1684 -0.5186
  431MPD2    H5 6434   4.542   4.352  12.261  1.4878 -1.0711 -0.2506
  431MPD2    N1 6435   4.655   0.190  12.239  0.3531 -0.0208  0.3502
  431MPD2    H7 6436   4.612   0.279  12.218 -0.8828 -1.1019 -1.7009
  432TMC3    C1 6437   0.039   4.247  12.230  0.2562 -0.1212  0.4775
  432TMC3    C2 6438   0.146   4.188  12.168 -0.5159 -0.2814  0.4422
  432TMC3    C3 6439   0.185   4.066  12.215  0.2420  0.7838  0.1345
  432TMC3    C4 6440   4.716   4.198  12.349  0.2027  0.2540  0.0375
  432TMC3    C5 6441   0.034   4.075  12.389 -0.0554  0.3681  0.3206
  432TMC3    C6 6442   0.138   4.011  12.325  0.2091 -0.4615 -0.2155
  432TMC3     C 6443   0.006   4.393  12.199 -0.9931 -0.3148  0.7280
  432TMC3     O 6444   0.077   4.446  12.117 -0.7818  0.2615 -0.1592
  432TMC3     H 6445   0.182   4.229  12.074 -1.9883 -2.2281 -0.9726
  432TMC3    H1 6446   4.630   4.238  12.401  0.5635  0.6220  0.3589
  432TMC3    H2 6447   0.177   3.915  12.356 -0.3880 -0.7542 -0.3732
  432TMC3    C7 6448   0.005   4.032  12.529  0.9910 -0.4240 -0.0568
  432TMC3    C8 6449   0.300   3.998  12.160  0.7359  0.1620 -0.2908
  432TMC3    O1 6450   0.018   3.912  12.553  0.0647  0.2536 -0.0759
  432TMC3    O2 6451   0.319   3.878  12.186  0.9206  0.1636  0.0999
  433MPD2     C 6452   2.880   3.521  10.804 -0.3479 -0.4446  0.0856
  433MPD2    C1 6453   2.933   3.394  10.797  0.1477  0.5384 -0.2929
  433MPD2    C2 6454   3.019   3.361  10.896  0.3984 -0.5120 -0.1323
  433MPD2    C3 6455   3.060   3.456  10.990 -0.2784 -0.3580  0.1610
  433MPD2    C4 6456   3.008   3.588  10.983  0.1818 -0.1928  0.9391
  433MPD2    C5 6457   2.911   3.618  10.893 -0.0360 -0.0847  0.2176
  433MPD2     H 6458   3.069   3.266  10.887  0.0870 -0.4881 -2.1202
  433MPD2    H1 6459   3.040   3.669  11.048 -1.9536 -0.3580  2.2170
  433MPD2    H2 6460   2.794   3.544  10.741  0.7330 -0.1570 -1.2653
  433MPD2    H3 6461   2.860   3.714  10.892 -1.1029 -0.6474  0.0313
  433MPD2     N 6462   3.154   3.407  11.080  0.0020 -0.0676 -0.3033
  433MPD2    H5 6463   3.163   3.306  11.085 -0.3149 -0.0397  0.9533
  433MPD2    N1 6464   2.900   3.310  10.689  0.0274  0.0910 -0.8266
  433MPD2    H7 6465   2.831   3.349  10.626 -0.3882  1.0234  0.2256
  434TMC3    C1 6466   2.927   3.138  10.529  0.1699  0.4740 -0.0145
  434TMC3    C2 6467   3.035   3.055  10.504  0.4590  0.4131  0.4751
  434TMC3    C3 6468   3.107   3.073  10.386 -0.0650 -0.2547 -0.2250
  434TMC3    C4 6469   2.886   3.232  10.433 -0.4581  0.2424  0.6003
  434TMC3    C5 6470   2.965   3.242  10.324 -0.1200  0.6907  0.5872
  434TMC3    C6 6471   3.076   3.163  10.298  0.1040 -0.2025  0.7023
  434TMC3     C 6472   2.942   3.180  10.663  0.0002 -0.2003 -1.0309
  434TMC3     O 6473   2.996   3.095  10.735  0.2819  0.4828  0.1739
  434TMC3     H 6474   3.062   2.970  10.565  0.1366  0.6454  0.9447
  434TMC3    H1 6475   2.801   3.298  10.451  0.4423  2.0578 -1.6624
  434TMC3    H2 6476   3.118   3.172  10.199 -1.3484 -0.6651  0.0450
  434TMC3    C7 6477   2.915   3.323  10.213 -0.7031 -0.3033 -0.1299
  434TMC3    C8 6478   3.236   3.009  10.388  0.3578  0.1286  0.7058
  434TMC3    O1 6479   2.994   3.410  10.178 -0.1202 -0.3813  0.5446
  434TMC3    O2 6480   3.245   2.912  10.460 -0.4102 -0.7260 -0.2322
  435MPD2     C 6481   0.505   3.451  15.576 -0.5684 -0.2721  0.2091
  435MPD2    C1 6482   0.486   3.403  15.705 -0.0162  0.0137 -0.3130
  435MPD2    C2 6483   0.587   3.327  15.760 -0.5666 -0.1938 -0.3473
  435MPD2    C3 6484   0.707   3.305  15.691 -0.2913  0.3331 -0.6321
  435MPD2    C4 6485   0.728   3.367  15.572 -0.2721  0.3178  0.6027
  435MPD2    C5 6486   0.623   3.436  15.517  0.1931 -0.5521 -0.0093
  435MPD2     H 6487   0.576   3.292  15.862 -1.7282 -2.0366 -1.1042
  435MPD2    H1 6488   0.826   3.355  15.527  0.1334  1.8189  1.1156
  435MPD2    H2 6489   0.430   3.511  15.525 -1.7577  0.4204  2.7311
  435MPD2    H3 6490   0.641   3.486  15.422 -1.1240  0.1389  0.1078
  435MPD2     N 6491   0.805   3.214  15.755 -0.2548  0.6932  0.2401
  435MPD2    H5 6492   0.786   3.181  15.849  0.0344 -1.0155 -0.2985
  435MPD2    N1 6493   0.360   3.411  15.771  0.0384  0.3463 -0.4489
  435MPD2    H7 6494   0.337   3.337  15.836 -1.2784  0.2753 -1.0051
  436TMC3    C1 6495   0.052   3.516  16.022  0.6800  0.1242  0.4418
  436TMC3    C2 6496   0.145   3.465  15.943 -1.1040  0.0156 -0.1099
  436TMC3    C3 6497   0.138   3.485  15.807  0.7131 -0.0817 -0.6418
  436TMC3    C4 6498   4.667   3.586  15.975  0.2572 -0.2843 -0.2689
  436TMC3    C5 6499   4.667   3.605  15.837 -0.8175 -0.8961  0.3467
  436TMC3    C6 6500   0.043   3.566  15.755  0.4449 -0.2237  0.4523
  436TMC3     C 6501   0.073   3.513  16.162  0.2957 -1.0978  0.0764
  436TMC3     O 6502   0.123   3.413  16.218  0.5644  0.1584  0.0560
  436TMC3     H 6503   0.235   3.418  15.982 -1.0612 -0.4466 -0.7569
  436TMC3    H1 6504   4.583   3.609  16.038 -1.4772 -0.3866 -2.5487
  436TMC3    H2 6505   0.034   3.548  15.649  1.3622  0.4488  0.2626
  436TMC3    C7 6506   4.544   3.651  15.766  0.0435 -0.4241 -0.4712
  436TMC3    C8 6507   0.258   3.496  15.732  0.3352  0.2352 -1.1566
  436TMC3    O1 6508   4.561   3.732  15.674 -0.1914  0.5405 -0.2672
  436TMC3    O2 6509   0.252   3.588  15.653 -0.0426  0.6460 -0.4024
  437TMC3    C1 6510   4.146   0.498  12.810  0.3745  0.2731 -0.0869
  437TMC3    C2 6511   4.023   0.552  12.807  0.0770 -0.7439  0.5730
  437TMC3    C3 6512   3.988   0.631  12.704  0.0004 -0.0991 -0.2709
  437TMC3    C4 6513   4.246   0.524  12.716  0.1089  0.0059  0.4141
  437TMC3    C5 6514   4.198   0.597  12.610  1.0522  0.0737  0.0117
  437TMC3    C6 6515   4.082   0.665  12.614 -0.3724 -0.6345 -0.4819
  437TMC3     C 6516   4.196   0.454  12.939 -0.8774 -0.2697  0.3394
  437TMC3     O 6517   4.308   0.500  12.967  0.3801 -0.3671  0.5659
  437TMC3     H 6518   3.948   0.521  12.879 -1.5501 -0.6090 -1.0406
  437TMC3    H1 6519   4.347   0.485  12.721  0.8424  1.8552  0.2719
  437TMC3    H2 6520   4.054   0.732  12.533  0.3522 -0.5496 -0.6670
  437TMC3    C7 6521   4.296   0.654  12.515  0.5712  0.2095 -0.3049
  437TMC3    C8 6522   3.861   0.705  12.720  0.1696 -0.3267  0.1171
  437TMC3    O1 6523   4.242   0.724  12.430 -0.2754 -0.1577  0.3241
  437TMC3    O2 6524   3.781   0.644  12.785 -0.5368  0.2130 -0.1584
  438MPD2     C 6525   1.886   1.241  16.434 -0.6839  0.1573 -0.1940
  438MPD2    C1 6526   1.962   1.324  16.515 -0.1496 -0.1059 -0.4612
  438MPD2    C2 6527   1.948   1.313  16.653 -0.0972  0.2519  0.2332
  438MPD2    C3 6528   1.845   1.235  16.704  0.2071 -0.1468 -0.3548
  438MPD2    C4 6529   1.766   1.157  16.622 -0.7810 -0.8313  0.3321
  438MPD2    C5 6530   1.794   1.155  16.492  0.2371 -0.1872 -0.5795
  438MPD2     H 6531   2.016   1.368  16.718  0.8231 -0.0757 -0.4463
  438MPD2    H1 6532   1.692   1.093  16.669 -1.8604 -0.8542 -1.4065
  438MPD2    H2 6533   1.900   1.238  16.326  2.0612 -0.0311  0.1625
  438MPD2    H3 6534   1.723   1.096  16.434 -1.3514  2.4065 -1.2812
  438MPD2     N 6535   1.825   1.220  16.845  0.6362 -0.6522 -0.0821
  438MPD2    H5 6536   1.753   1.152  16.865 -0.5306  0.1967 -1.4049
  438MPD2    N1 6537   2.056   1.410  16.458  0.3848 -0.6505  0.3406
  438MPD2    H7 6538   2.096   1.480  16.520  0.0033  2.2125 -2.7058
  439TMC3    C1 6539   2.240   1.472  16.322 -1.1303  0.6187 -0.0877
  439TMC3    C2 6540   2.267   1.521  16.198  0.0952 -0.1637 -0.2846
  439TMC3    C3 6541   2.395   1.565  16.186 -1.0548  0.0741  0.2666
  439TMC3    C4 6542   2.325   1.444  16.425  0.1909 -0.3424  0.6709
  439TMC3    C5 6543   2.451   1.487  16.402  0.1981  0.3229  0.1428
  439TMC3    C6 6544   2.493   1.547  16.282  0.7373 -0.4293 -1.0553
  439TMC3     C 6545   2.111   1.408  16.332 -0.0514 -0.1800 -0.0330
  439TMC3     O 6546   2.073   1.357  16.227 -0.1119  0.0121  0.0592
  439TMC3     H 6547   2.197   1.501  16.118  2.3810 -0.9037 -2.1040
  439TMC3    H1 6548   2.306   1.373  16.505 -0.4490 -0.9908 -0.0657
  439TMC3    H2 6549   2.590   1.593  16.273 -0.0360  1.1632 -1.3394
  439TMC3    C7 6550   2.558   1.412  16.457 -0.3540  1.0238  0.1910
  439TMC3    C8 6551   2.459   1.527  16.057 -0.3261  0.0257 -0.2354
  439TMC3    O1 6552   2.550   1.366  16.569 -0.0042  0.0560  0.2814
  439TMC3    O2 6553   2.561   1.464  16.076 -0.5712 -0.3013  0.3175
  440MPD2     C 6554   0.672   1.559  14.753  0.2551 -0.6211 -0.7647
  440MPD2    C1 6555   0.712   1.665  14.826  0.9729  0.6477 -0.3823
  440MPD2    C2 6556   0.840   1.714  14.803  0.3188  0.2583 -0.1994
  440MPD2    C3 6557   0.927   1.654  14.714  0.2044  0.1968 -0.3419
  440MPD2    C4 6558   0.881   1.544  14.649 -0.1278  0.6767  0.1388
  440MPD2    C5 6559   0.759   1.495  14.669  0.5985 -0.3713 -0.0156
  440MPD2     H 6560   0.875   1.791  14.872  2.2809  0.4168 -1.3648
  440MPD2    H1 6561   0.944   1.487  14.581 -1.1003 -0.4960  0.2176
  440MPD2    H2 6562   0.570   1.525  14.762 -0.0360  0.9360  1.8140
  440MPD2    H3 6563   0.730   1.406  14.614  1.2919  0.0477 -1.0648
  440MPD2     N 6564   1.058   1.692  14.701  0.2077 -0.7242 -0.7167
  440MPD2    H5 6565   1.121   1.639  14.641  2.8548  0.8091  0.6765
  440MPD2    N1 6566   0.623   1.734  14.915  0.2790 -0.0986  0.4721
  440MPD2    H7 6567   0.669   1.808  14.966  0.0065  0.4174 -0.0344
  441TMC3    C1 6568   1.253   1.780  14.787 -0.1097 -0.8209  0.0203
  441TMC3    C2 6569   1.300   1.884  14.861 -0.4975  0.3386 -0.4435
  441TMC3    C3 6570   1.351   1.862  14.983 -0.5368 -0.2361  0.2914
  441TMC3    C4 6571   1.274   1.650  14.834  0.1554 -0.2178  0.6316
  441TMC3    C5 6572   1.327   1.634  14.964  0.0646 -0.8903  0.0749
  441TMC3    C6 6573   1.365   1.744  15.040 -0.9158  0.2185  0.3275
  441TMC3     C 6574   1.114   1.804  14.751 -0.0420 -0.1766 -0.2674
  441TMC3     O 6575   1.061   1.902  14.799 -0.0979  0.1329 -0.3074
  441TMC3     H 6576   1.280   1.988  14.837  0.9400  0.8551  0.6084
  441TMC3    H1 6577   1.259   1.560  14.775  0.6809 -0.1128  0.3439
  441TMC3    H2 6578   1.381   1.743  15.148  0.4098  0.2631  0.1347
  441TMC3    C7 6579   1.265   1.528  15.047  0.4340 -0.4878 -0.8710
  441TMC3    C8 6580   1.322   1.964  15.076 -0.2634  0.5669  0.5152
  441TMC3    O1 6581   1.302   1.514  15.164 -0.6821 -0.1304  0.8584
  441TMC3    O2 6582   1.413   2.007  15.146  0.6928  0.0906 -0.0343
  442MPD2     C 6583   4.008   2.242  16.801 -0.8608 -1.1633  0.4587
  442MPD2    C1 6584   3.897   2.176  16.850  0.2453  0.2718  0.1215
  442MPD2    C2 6585   3.847   2.068  16.777  0.1302  1.0554 -0.6238
  442MPD2    C3 6586   3.894   2.031  16.651  0.0037 -0.1193  0.3190
  442MPD2    C4 6587   3.992   2.109  16.606 -0.7340 -0.7817 -0.0287
  442MPD2    C5 6588   4.045   2.219  16.672 -0.2726 -0.4205  0.0687
  442MPD2     H 6589   3.760   2.014  16.810  0.4650  0.1878 -1.1524
  442MPD2    H1 6590   4.036   2.096  16.508  1.3796 -2.9167  1.1863
  442MPD2    H2 6591   4.058   2.326  16.847  0.2114 -0.6822 -1.5806
  442MPD2    H3 6592   4.113   2.283  16.617  0.0450 -0.5824  0.2735
  442MPD2     N 6593   3.848   1.930  16.573 -0.4972  0.5266  0.2639
  442MPD2    H5 6594   3.897   1.922  16.485  0.0923  1.1332  0.5332
  442MPD2    N1 6595   3.824   2.214  16.963 -0.1376 -0.2415  0.4253
  442MPD2    H7 6596   3.739   2.163  16.982 -0.4567  0.3504  0.6028
  443TMC3    C1 6597   3.766   2.338  17.148  0.8937 -0.1858  0.3148
  443TMC3    C2 6598   3.730   2.468  17.181 -0.3864  0.2672  0.1328
  443TMC3    C3 6599   3.615   2.488  17.251 -0.3176 -0.3121 -0.8950
  443TMC3    C4 6600   3.689   2.228  17.194 -0.0766 -0.2063  0.4205
  443TMC3    C5 6601   3.579   2.258  17.261  0.5563 -0.2466  1.0769
  443TMC3    C6 6602   3.544   2.387  17.301 -0.0730 -0.1603 -0.3835
  443TMC3     C 6603   3.857   2.324  17.037  0.2345 -1.1677 -0.3463
  443TMC3     O 6604   3.942   2.410  17.011 -0.4683  0.0073 -0.7837
  443TMC3     H 6605   3.761   2.555  17.123 -0.8048  0.5324  0.3006
  443TMC3    H1 6606   3.706   2.128  17.155 -0.0266  0.6307 -1.7060
  443TMC3    H2 6607   3.442   2.413  17.328 -0.1151  0.1073 -0.7917
  443TMC3    C7 6608   3.486   2.149  17.294  0.1133 -0.2992 -0.2519
  443TMC3    C8 6609   3.530   2.569  17.165 -0.9553 -0.1995 -0.1027
  443TMC3    O1 6610   3.479   2.056  17.218  0.1186 -0.0068 -0.5110
  443TMC3    O2 6611   3.528   2.691  17.186 -0.2647  0.3668  0.1173
  444MPD2     C 6612   4.219   1.579  17.468 -0.2014 -0.3710 -0.8295
  444MPD2    C1 6613   4.118   1.503  17.426 -0.3663 -1.2385  0.4827
  444MPD2    C2 6614   4.148   1.395  17.339  1.0814  0.8541 -0.0135
  444MPD2    C3 6615   4.271   1.378  17.287 -0.6485  0.0386  0.1203
  444MPD2    C4 6616   4.377   1.462  17.311  0.6794 -0.0015 -1.0650
  444MPD2    C5 6617   4.343   1.555  17.409  0.1483  0.1847  0.0182
  444MPD2     H 6618   4.063   1.346  17.291  0.2844  0.8236  1.4435
  444MPD2    H1 6619   4.472   1.472  17.261  0.3919  0.0884 -1.5954
  444MPD2    H2 6620   4.206   1.670  17.524  0.3946 -1.9640  1.9016
  444MPD2    H3 6621   4.418   1.629  17.437  0.9405  0.0160 -1.6930
  444MPD2     N 6622   4.289   1.274  17.191  0.6214 -0.0618  0.2695
  444MPD2    H5 6623   4.203   1.232  17.157  0.4553 -0.1731  0.8252
  444MPD2    N1 6624   3.982   1.524  17.454  0.5132 -0.2373 -0.1807
  444MPD2    H7 6625   3.917   1.456  17.416  1.2285 -1.7040  1.2374
  445TMC3    C1 6626   4.393   1.126  17.037 -0.1938 -0.5165  0.5618
  445TMC3    C2 6627   4.273   1.071  17.007 -0.4391  0.1193 -0.7550
  445TMC3    C3 6628   4.284   0.971  16.918  0.2074 -0.7746 -0.2453
  445TMC3    C4 6629   4.518   1.085  16.990 -0.0943 -0.1672  0.2111
  445TMC3    C5 6630   4.514   0.977  16.905 -1.1833  0.3307 -0.9576
  445TMC3    C6 6631   4.399   0.915  16.867 -0.4575  0.0852 -0.7443
  445TMC3     C 6632   4.410   1.230  17.141 -0.7179 -0.1678 -0.1345
  445TMC3     O 6633   4.520   1.263  17.180 -0.2209 -0.4115  0.1706
  445TMC3     H 6634   4.179   1.106  17.048 -0.3051  0.2152 -0.5310
  445TMC3    H1 6635   4.615   1.122  17.018 -0.4435  1.7441 -1.1224
  445TMC3    H2 6636   4.396   0.820  16.816  0.0289  0.2608 -1.1041
  445TMC3    C7 6637   4.644   0.948  16.845 -0.9229 -0.0713 -0.9731
  445TMC3    C8 6638   4.159   0.921  16.867 -0.0400  0.1802  0.6898
  445TMC3    O1 6639   0.011   1.026  16.871 -0.1438 -0.2608  0.3448
  445TMC3    O2 6640   4.066   0.937  16.942 -0.6727 -0.6687 -0.7279
  446MPD2     C 6641   3.093   2.533  10.841  0.2006 -0.4300  0.4635
  446MPD2    C1 6642   3.016   2.649  10.808 -0.3721 -0.3979 -0.2302
  446MPD2    C2 6643   3.086   2.765  10.767  0.6597 -0.2745 -0.4962
  446MPD2    C3 6644   3.225   2.783  10.790 -0.4881  0.3975 -0.6424
  446MPD2    C4 6645   3.292   2.667  10.824 -0.7700  0.5904 -0.7845
  446MPD2    C5 6646   3.224   2.553  10.851  0.8061  0.0505  0.4725
  446MPD2     H 6647   3.028   2.853  10.741  2.5080  1.1403  0.1303
  446MPD2    H1 6648   3.398   2.673  10.842 -0.9553  4.1192 -0.8518
  446MPD2    H2 6649   3.049   2.435  10.857 -1.1194 -0.0248 -0.6740
  446MPD2    H3 6650   3.274   2.464  10.885  0.3661 -0.7210 -0.8959
  446MPD2     N 6651   3.290   2.907  10.773 -0.3102 -0.1201 -0.2342
  446MPD2    H5 6652   3.227   2.984  10.752 -0.3935 -0.3650 -0.9019
  446MPD2    N1 6653   2.873   2.647  10.806 -0.3412 -0.1617  0.3745
  446MPD2    H7 6654   2.821   2.729  10.775 -0.2312  0.8083  2.7437
  447TMC3    C1 6655   3.438   3.082  10.782 -0.7062  0.4984  0.0143
  447TMC3    C2 6656   3.352   3.165  10.715 -0.3566 -0.3050  0.1960
  447TMC3    C3 6657   3.381   3.297  10.686  0.5659  0.2139 -0.3899
  447TMC3    C4 6658   3.563   3.139  10.813  0.7131 -0.3998 -0.3706
  447TMC3    C5 6659   3.584   3.272  10.790 -0.2336 -0.1139 -0.3414
  447TMC3    C6 6660   3.494   3.354  10.723  0.2401 -0.3617  0.0393
  447TMC3     C 6661   3.423   2.936  10.792  0.3155 -0.1994 -0.2802
  447TMC3     O 6662   3.514   2.870  10.839  0.1860  0.3468  0.4661
  447TMC3     H 6663   3.253   3.130  10.688 -0.9184  0.2962  1.4841
  447TMC3    H1 6664   3.637   3.069  10.849 -0.8737 -0.7669  2.1704
  447TMC3    H2 6665   3.501   3.461  10.713  2.9521 -0.3445  2.2382
  447TMC3    C7 6666   3.726   3.314  10.800 -0.0451 -0.3089 -0.5614
  447TMC3    C8 6667   3.286   3.368  10.599  0.6087 -0.7098  0.4720
  447TMC3    O1 6668   3.810   3.235  10.835 -0.3934  0.4349 -0.0426
  447TMC3    O2 6669   3.256   3.335  10.486 -0.3607  0.3890 -0.0574
  448TMC3    C1 6670   3.008   3.265  17.195 -0.5472 -0.2557 -0.5116
  448TMC3    C2 6671   2.969   3.188  17.085 -0.0396  0.1118  0.0102
  448TMC3    C3 6672   2.895   3.073  17.115 -0.2808  0.0421  0.0687
  448TMC3    C4 6673   2.963   3.240  17.319 -0.1526 -0.1000 -0.0112
  448TMC3    C5 6674   2.885   3.136  17.341  0.5631 -0.1457  0.5132
  448TMC3    C6 6675   2.853   3.046  17.242 -0.2258  0.1675  0.5784
  448TMC3     C 6676   3.078   3.393  17.180 -0.2108 -0.0556  0.2197
  448TMC3     O 6677   3.117   3.453  17.282 -0.3418  0.3101 -0.8031
  448TMC3     H 6678   3.005   3.209  16.985 -3.1942  0.0769 -1.1156
  448TMC3    H1 6679   2.984   3.307  17.402 -0.3230 -1.1030  0.8299
  448TMC3    H2 6680   2.788   2.962  17.261  1.0142 -0.9367 -0.1142
  448TMC3    C7 6681   2.821   3.126  17.468  0.1486  0.6933  0.9081
  448TMC3    C8 6682   2.840   2.995  17.004  0.6772  0.1784 -0.8426
  448TMC3    O1 6683   2.870   3.190  17.562  0.2144 -0.9196 -0.0128
  448TMC3    O2 6684   2.792   2.886  17.033  0.3332  0.7086  0.3255
  449MPD2     C 6685   3.114   1.266  13.789  0.0790  0.1673  0.7947
  449MPD2    C1 6686   3.012   1.175  13.770  0.5917 -0.5511 -1.2329
  449MPD2    C2 6687   2.961   1.110  13.881 -0.0995 -0.0549 -0.7024
  449MPD2    C3 6688   3.007   1.129  14.008  0.6636  0.9030 -0.3637
  449MPD2    C4 6689   3.113   1.230  14.025  0.1916 -0.4464  0.9519
  449MPD2    C5 6690   3.157   1.295  13.914 -0.0693 -0.3201  0.2587
  449MPD2     H 6691   2.891   1.031  13.859 -0.9933  0.7139 -0.6211
  449MPD2    H1 6692   3.146   1.258  14.124 -1.2036 -1.1095  1.6018
  449MPD2    H2 6693   3.152   1.322  13.704  0.8504 -3.8383 -1.4922
  449MPD2    H3 6694   3.230   1.374  13.930  0.0965 -0.4177 -0.0298
  449MPD2     N 6695   2.938   1.055  14.108  0.7006  0.1221 -0.8062
  449MPD2    H5 6696   2.869   0.986  14.079  0.3749  1.2984 -2.8691
  449MPD2    N1 6697   2.957   1.140  13.640  0.3682  0.3830  0.6577
  449MPD2    H7 6698   2.873   1.084  13.652 -0.4400  1.5506  0.5504
  450TMC3    C1 6699   2.895   1.130  13.409  0.8957 -0.4106 -0.1650
  450TMC3    C2 6700   2.948   1.034  13.334 -0.1644  0.2081  0.0934
  450TMC3    C3 6701   2.871   0.929  13.310 -0.1362 -0.3887 -0.7589
  450TMC3    C4 6702   2.765   1.136  13.447 -0.5725  0.5985  1.2567
  450TMC3    C5 6703   2.695   1.020  13.430 -0.4582 -0.0129  0.6299
  450TMC3    C6 6704   2.747   0.914  13.360 -0.3119  0.5890  0.2956
  450TMC3     C 6705   2.992   1.184  13.511  0.3533 -1.1549 -0.2909
  450TMC3     O 6706   3.098   1.234  13.473 -0.1141 -0.3396 -0.1031
  450TMC3     H 6707   3.056   1.036  13.326 -0.2330  2.9537 -0.1964
  450TMC3    H1 6708   2.718   1.216  13.504  0.8350  3.1061 -1.1530
  450TMC3    H2 6709   2.686   0.829  13.334  0.3137 -0.2825  1.7133
  450TMC3    C7 6710   2.633   0.990  13.559  0.1283  0.3092  0.5145
  450TMC3    C8 6711   2.925   0.811  13.246 -0.5935 -0.5345 -0.0202
  450TMC3    O1 6712   2.650   1.073  13.644 -0.2282 -0.0199 -0.0626
  450TMC3    O2 6713   2.849   0.717  13.235  0.1585  0.5350  0.2234
  451MPD2     C 6714   1.061   0.497   0.899 -0.5100  0.0312  0.8874
  451MPD2    C1 6715   0.950   0.480   0.989 -0.1082  0.5341  0.0335
  451MPD2    C2 6716   0.951   0.362   1.062 -0.8486 -0.0210  0.0469
  451MPD2    C3 6717   1.035   0.260   1.031  0.5617  0.0629 -0.7344
  451MPD2    C4 6718   1.130   0.272   0.930  0.4867  0.3226 -0.7572
  451MPD2    C5 6719   1.145   0.396   0.867 -0.2097 -0.5240 -0.3416
  451MPD2     H 6720   0.873   0.356   1.137 -0.2355 -1.1678  0.5904
  451MPD2    H1 6721   1.198   0.192   0.902 -0.7470 -1.2740  0.8396
  451MPD2    H2 6722   1.079   0.581   0.832 -3.1357 -0.0696  0.0469
  451MPD2    H3 6723   1.219   0.403   0.788  0.8218  2.5622  0.9215
  451MPD2     N 6724   1.024   0.134   1.096 -0.1190  0.5571 -0.5455
  451MPD2    H5 6725   1.087   0.062   1.064  0.9850  0.8885  0.8752
  451MPD2    N1 6726   0.872   0.595   1.010  0.0209 -0.1795  0.4715
  451MPD2    H7 6727   0.890   0.670   0.944 -2.5173  0.1551  0.1708
  452TMC3    C1 6728   0.898   4.682   1.196  0.0983 -0.3041 -0.2993
  452TMC3    C2 6729   0.812   4.647   1.298  0.6571 -0.1086 -0.2070
  452TMC3    C3 6730   0.714   4.554   1.273 -0.1363  0.0026  0.7185
  452TMC3    C4 6731   0.893   4.622   1.078 -0.1406  0.4866 -0.5268
  452TMC3    C5 6732   0.795   4.534   1.056 -1.0228 -0.2844  0.4811
  452TMC3    C6 6733   0.699   4.488   1.148  0.0452 -0.1737  0.6737
  452TMC3     C 6734   0.930   0.100   1.191  0.8391 -0.6339 -0.3087
  452TMC3     O 6735   0.867   0.170   1.271 -0.0331  0.2649 -0.0864
  452TMC3     H 6736   0.820   4.704   1.390  0.9496  1.2230 -1.0494
  452TMC3    H1 6737   0.955   4.650   0.994  0.3910 -0.6939 -0.5290
  452TMC3    H2 6738   0.624   4.412   1.132 -0.2044  0.0164  0.9358
  452TMC3    C7 6739   0.776   4.494   0.915 -0.0312 -0.2330 -0.0585
  452TMC3    C8 6740   0.620   4.535   1.378  0.0065  0.2865  0.0985
  452TMC3    O1 6741   0.825   4.572   0.834 -0.1605  0.1808 -0.0828
  452TMC3    O2 6742   0.665   4.547   1.491 -0.7447 -0.3131  0.5789
  453TMC3    C1 6743   1.018   1.728  11.896  0.3577  0.2981 -0.6782
  453TMC3    C2 6744   0.922   1.642  11.941  0.4026  0.9741 -0.0097
  453TMC3    C3 6745   0.811   1.621  11.867  0.0145  0.6196  0.2037
  453TMC3    C4 6746   1.021   1.770  11.767  0.7478 -0.6288  0.2395
  453TMC3    C5 6747   0.910   1.743  11.688 -0.3613 -0.4380  0.4169
  453TMC3    C6 6748   0.806   1.675  11.742 -0.0796  0.1156  0.4028
  453TMC3     C 6749   1.142   1.732  11.969 -0.2227 -0.1955 -0.5610
  453TMC3     O 6750   1.172   1.633  12.030 -0.4448  0.0295 -0.0388
  453TMC3     H 6751   0.941   1.592  12.035  2.2607  0.5037 -0.6379
  453TMC3    H1 6752   1.099   1.831  11.724  0.2107 -1.0336 -1.3071
  453TMC3    H2 6753   0.736   1.630  11.673 -3.2859  1.0537  3.0892
  453TMC3    C7 6754   0.936   1.750  11.542  0.3975 -0.1117 -0.2593
  453TMC3    C8 6755   0.727   1.503  11.878  0.4285 -0.8026 -0.3941
  453TMC3    O1 6756   0.895   1.653  11.475 -0.2948  0.2883 -0.3344
  453TMC3    O2 6757   0.620   1.502  11.816  0.0357 -0.1666  0.0702
  454MPD2     C 6758   0.096   1.078  16.184  0.0778 -0.2653  0.4527
  454MPD2    C1 6759   0.117   1.206  16.233  0.1371  0.0069 -0.9883
  454MPD2    C2 6760   0.057   1.238  16.358  0.3128 -0.6420  0.5022
  454MPD2    C3 6761   4.713   1.138  16.432 -0.7569  0.0681  0.7280
  454MPD2    C4 6762   4.698   1.012  16.380 -0.0659  0.1099 -0.0211
  454MPD2    C5 6763   0.024   0.986  16.253  1.3550 -0.8502  0.8244
  454MPD2     H 6764   0.049   1.338  16.400 -0.6569  0.4019 -2.1777
  454MPD2    H1 6765   4.638   0.943  16.439 -0.4436  1.2048  0.8769
  454MPD2    H2 6766   0.121   1.052  16.082 -0.6799 -2.8431  0.9310
  454MPD2    H3 6767   0.024   0.886  16.210  1.7099 -0.4420 -0.1278
  454MPD2     N 6768   4.649   1.169  16.552 -0.4862 -0.0990 -0.3026
  454MPD2    H5 6769   4.587   1.095  16.582  0.0537 -0.6058 -0.4473
  454MPD2    N1 6770   0.149   1.318  16.152  0.5063  0.5473 -0.1969
  454MPD2    H7 6771   0.122   1.406  16.194 -0.4571 -0.4539  1.3099
  455TMC3    C1 6772   4.526   1.296  16.681  0.1514  0.5653  0.2697
  455TMC3    C2 6773   4.521   1.381  16.790  0.3824  0.4563 -0.3486
  455TMC3    C3 6774   4.400   1.417  16.837  0.1626 -0.5284  0.0839
  455TMC3    C4 6775   4.417   1.248  16.616  0.4049 -0.7675  0.0089
  455TMC3    C5 6776   4.296   1.299  16.660 -0.2819 -0.2017 -0.6676
  455TMC3    C6 6777   4.285   1.378  16.766 -0.1422 -1.0703  0.6831
  455TMC3     C 6778   4.645   1.287  16.612  0.4132 -0.4351  0.2287
  455TMC3     O 6779   0.008   1.370  16.633 -1.0497 -0.3615  0.0334
  455TMC3     H 6780   4.611   1.431  16.823  0.0767  1.0557 -0.4223
  455TMC3    H1 6781   4.417   1.179  16.533  1.6650  0.0948 -0.7088
  455TMC3    H2 6782   4.186   1.415  16.793  0.4811  1.2115 -0.1120
  455TMC3    C7 6783   4.175   1.251  16.591 -0.3685  0.0284  0.6057
  455TMC3    C8 6784   4.389   1.533  16.929 -0.6520 -0.3312 -0.0737
  455TMC3    O1 6785   4.082   1.224  16.665 -1.0500  0.5356  0.4037
  455TMC3    O2 6786   4.488   1.601  16.956 -0.2275  0.0210 -0.4296
  456MPD2     C 6787   2.869   2.025  15.847  0.0466  0.0653  0.1982
  456MPD2    C1 6788   2.850   1.943  15.956 -0.6314  0.6450 -0.3580
  456MPD2    C2 6789   2.838   1.999  16.084 -0.1959 -0.0635 -1.2973
  456MPD2    C3 6790   2.836   2.131  16.104  0.6297  0.4389 -0.0194
  456MPD2    C4 6791   2.857   2.214  15.999  0.1808  0.4482 -0.3956
  456MPD2    C5 6792   2.869   2.162  15.875 -0.4655  0.0677  0.3196
  456MPD2     H 6793   2.818   1.939  16.173  0.4032  1.8881  0.1536
  456MPD2    H1 6794   2.859   2.322  16.010 -0.0685  0.5389 -1.2626
  456MPD2    H2 6795   2.864   1.991  15.744  1.1783 -0.3806  0.2898
  456MPD2    H3 6796   2.863   2.238  15.799 -0.4119  0.7100  0.9579
  456MPD2     N 6797   2.821   2.168  16.238 -0.3850 -0.1960 -0.3446
  456MPD2    H5 6798   2.816   2.090  16.304 -0.8463 -1.5529 -1.9759
  456MPD2    N1 6799   2.832   1.805  15.927  0.2279  0.4146  0.1740
  456MPD2    H7 6800   2.815   1.785  15.829 -0.3904 -0.1200  0.3928
  457TMC3    C1 6801   2.798   2.316  16.419 -0.0279  0.2477  0.0437
  457TMC3    C2 6802   2.818   2.432  16.476 -0.0643 -0.1602  0.2552
  457TMC3    C3 6803   2.779   2.454  16.604  0.1950 -0.2124  0.3015
  457TMC3    C4 6804   2.742   2.210  16.487 -0.0995 -0.1412  0.2198
  457TMC3    C5 6805   2.709   2.232  16.620  0.1306  0.2937  0.0542
  457TMC3    C6 6806   2.736   2.353  16.684  0.2515  1.0204  0.1236
  457TMC3     C 6807   2.823   2.299  16.281 -0.1148  0.1326  0.0675
  457TMC3     O 6808   2.850   2.401  16.220  0.0366 -0.2102 -0.2656
  457TMC3     H 6809   2.878   2.506  16.425 -1.4963 -0.6160 -2.0833
  457TMC3    H1 6810   2.717   2.111  16.452 -1.3562  0.1427  0.2999
  457TMC3    H2 6811   2.706   2.387  16.782  0.0718  0.3943  0.2836
  457TMC3    C7 6812   2.658   2.122  16.697 -0.1712 -0.0877 -0.7285
  457TMC3    C8 6813   2.798   2.579  16.668 -0.0754 -0.3785  0.4312
  457TMC3    O1 6814   2.689   2.009  16.664 -0.1531 -1.3953  0.4499
  457TMC3    O2 6815   2.833   2.584  16.789  0.4916 -0.2047 -0.1988
  458MPD2     C 6816   0.024   0.879  12.375  0.3314  0.6335  0.3949
  458MPD2    C1 6817   0.035   0.811  12.493 -0.0825  0.5040 -0.4333
  458MPD2    C2 6818   4.659   0.725  12.537 -0.1253  0.4557  0.6825
  458MPD2    C3 6819   4.536   0.714  12.478  0.1939  0.1694 -0.0242
  458MPD2    C4 6820   4.530   0.774  12.353  0.3531  0.3395  0.8444
  458MPD2    C5 6821   4.638   0.851  12.304 -0.0745  0.1477 -0.7632
  458MPD2     H 6822   4.669   0.673  12.632  1.4313  0.9413  0.7758
  458MPD2    H1 6823   4.443   0.765  12.289  0.5581  0.1326  0.5935
  458MPD2    H2 6824   0.104   0.941  12.336 -0.9595  2.2554  0.3124
  458MPD2    H3 6825   4.625   0.885  12.202  1.7213  0.8765 -0.7471
  458MPD2     N 6826   4.432   0.641  12.549  0.2701 -0.4034  0.1409
  458MPD2    H5 6827   4.462   0.609  12.641 -0.1882  2.7356  1.3912
  458MPD2    N1 6828   0.151   0.831  12.564 -0.3027  0.3937  0.3220
  458MPD2    H7 6829   0.208   0.906  12.526  0.3845 -0.4545 -0.3098
  459TMC3    C1 6830   0.314   0.820  12.737  0.5613  0.2911  0.4051
  459TMC3    C2 6831   0.413   0.885  12.658  0.0099  0.0823  0.0787
  459TMC3    C3 6832   0.525   0.926  12.728  0.2644 -0.0676  0.3215
  459TMC3    C4 6833   0.322   0.802  12.872 -0.4797  0.1364  0.4217
  459TMC3    C5 6834   0.424   0.863  12.934 -0.1701 -0.4653  0.9320
  459TMC3    C6 6835   0.529   0.917  12.866 -0.1994  0.4514  0.2278
  459TMC3     C 6836   0.185   0.777  12.688 -0.0006 -0.1955  0.0913
  459TMC3     O 6837   0.131   0.683  12.749 -0.2582 -0.0061 -0.1332
  459TMC3     H 6838   0.405   0.895  12.551  2.5801 -0.7703 -0.1949
  459TMC3    H1 6839   0.233   0.768  12.923 -0.0396  0.0739  1.1511
  459TMC3    H2 6840   0.612   0.961  12.920  1.0046 -1.3912 -0.1318
  459TMC3    C7 6841   0.428   0.829  13.077 -0.2992 -0.2680  0.0168
  459TMC3    C8 6842   0.623   1.014  12.667  0.2089  0.0908  0.3363
  459TMC3    O1 6843   0.343   0.752  13.123 -0.4099 -0.5561  0.3659
  459TMC3    O2 6844   0.730   1.018  12.729  0.0656  0.3252  0.2669
  460MPD2     C 6845   3.166   3.705  10.680  0.2721 -0.3086 -0.3143
  460MPD2    C1 6846   3.176   3.587  10.605 -0.0439 -0.1364 -0.6251
  460MPD2    C2 6847   3.102   3.574  10.490  0.3095 -0.0368  0.0019
  460MPD2    C3 6848   3.036   3.686  10.441  0.7405 -0.0675 -0.0712
  460MPD2    C4 6849   3.035   3.805  10.518  0.0415  0.0859  0.3081
  460MPD2    C5 6850   3.096   3.816  10.636 -0.2173 -0.1297 -0.0151
  460MPD2     H 6851   3.087   3.477  10.445  2.0738  0.2825 -1.2680
  460MPD2    H1 6852   2.996   3.902  10.489 -1.4402 -0.4904  0.3476
  460MPD2    H2 6853   3.224   3.721  10.770  0.7534 -0.5992 -0.5711
  460MPD2    H3 6854   3.101   3.909  10.691  0.6203 -1.2329  1.7731
  460MPD2     N 6855   2.974   3.687  10.308  0.6409  0.1871  0.5772
  460MPD2    H5 6856   2.964   3.597  10.260  0.2172  0.7753 -0.4568
  460MPD2    N1 6857   3.266   3.494  10.650  0.0453  0.0545  0.1690
  460MPD2    H7 6858   3.308   3.518  10.739  1.4316 -0.7759 -0.2602
  461TMC3    C1 6859   2.929   3.787  10.101  0.1026 -0.2900 -0.1619
  461TMC3    C2 6860   2.853   3.684  10.043  0.4201 -0.4197 -0.2279
  461TMC3    C3 6861   2.808   3.700   9.916  0.1479  0.6607 -0.6572
  461TMC3    C4 6862   2.935   3.914  10.036 -0.2156  0.6361  0.5546
  461TMC3    C5 6863   2.872   3.926   9.913 -0.5104 -0.2810  0.0514
  461TMC3    C6 6864   2.814   3.816   9.851  0.0839  0.0673 -0.8415
  461TMC3     C 6865   2.948   3.801  10.245  0.1354 -0.7947 -0.3900
  461TMC3     O 6866   2.975   3.909  10.278 -0.1493  0.0482  0.5188
  461TMC3     H 6867   2.840   3.587  10.091  0.1088  0.0769  0.6848
  461TMC3    H1 6868   2.989   3.997  10.082  1.2166 -0.2857  0.5322
  461TMC3    H2 6869   2.790   3.826   9.745  0.9847  0.6750 -0.9892
  461TMC3    C7 6870   2.889   4.049   9.833  0.2185 -0.1465 -0.4987
  461TMC3    C8 6871   2.802   3.586   9.824  0.3117  0.4901  0.3884
  461TMC3    O1 6872   2.813   4.064   9.735 -0.2148  0.2971 -0.3179
  461TMC3    O2 6873   2.853   3.600   9.714 -0.1893  0.1400 -0.2835
  462TMC3    C1 6874   3.936   4.011  17.509  0.1555 -0.0011 -0.1055
  462TMC3    C2 6875   3.898   3.904  17.439 -0.4086  0.5964  0.2964
  462TMC3    C3 6876   3.896   3.782  17.506 -0.7791  0.0827  0.8246
  462TMC3    C4 6877   3.970   4.006  17.643  0.0594  0.2074  0.1559
  462TMC3    C5 6878   3.962   3.881   0.005 -0.3029 -0.6792 -0.3061
  462TMC3    C6 6879   3.931   3.765  17.633  0.3306  0.2670  0.0023
  462TMC3     C 6880   3.931   4.141  17.446  0.8805 -0.4082  0.1669
  462TMC3     O 6881   3.993   4.225  17.507  0.1609  0.8459 -0.2889
  462TMC3     H 6882   3.860   3.919  17.338 -2.4969  1.8521  1.2693
  462TMC3    H1 6883   3.970   4.094   0.008 -2.7017 -0.0998  0.6075
  462TMC3    H2 6884   3.880   3.681  17.677 -1.7041  2.0471  1.0393
  462TMC3    C7 6885   3.983   3.858   0.148  0.2136  0.0724  0.7213
  462TMC3    C8 6886   3.866   3.669  17.431  0.3483  0.3053 -0.4198
  462TMC3    O1 6887   3.975   3.740   0.174 -0.5437  0.0708  0.4429
  462TMC3    O2 6888   3.763   3.688  17.363  0.3356  0.4407 -0.0910
  463MPD2     C 6889   0.590   3.073   2.101  0.0313 -0.1153  0.0197
  463MPD2    C1 6890   0.498   3.152   2.029 -0.1568 -0.0721 -0.4305
  463MPD2    C2 6891   0.503   3.290   2.044  1.1724 -0.6432 -0.3668
  463MPD2    C3 6892   0.598   3.354   2.123  0.1763 -0.1666  0.0025
  463MPD2    C4 6893   0.689   3.269   2.193  0.0447  0.5952 -0.1894
  463MPD2    C5 6894   0.679   3.137   2.185 -0.5602  0.0683  0.5709
  463MPD2     H 6895   0.431   3.349   1.988  0.6764 -1.3217 -0.4465
  463MPD2    H1 6896   0.765   3.310   2.258  3.2500 -1.2485 -2.7573
  463MPD2    H2 6897   0.578   2.965   2.101 -0.6911 -0.0319  0.5986
  463MPD2    H3 6898   0.752   3.086   2.245 -0.7139  0.8252  1.3990
  463MPD2     N 6899   0.602   3.492   2.141 -0.3476  0.5441  0.2070
  463MPD2    H5 6900   0.660   3.535   2.212  2.1660 -0.1986 -1.3951
  463MPD2    N1 6901   0.394   3.099   1.942  0.4976  0.1996  0.3428
  463MPD2    H7 6902   0.333   3.168   1.899 -0.0125 -0.8049 -0.5284
  464TMC3    C1 6903   0.257   2.932   1.853 -0.5142  0.4514  0.1710
  464TMC3    C2 6904   0.213   3.011   1.747 -0.9379 -0.0103  0.5513
  464TMC3    C3 6905   0.108   2.966   1.671  0.1503  0.4718  0.4546
  464TMC3    C4 6906   0.207   2.808   1.873  0.6516  0.0998  0.2461
  464TMC3    C5 6907   0.129   2.756   1.778  0.1929 -0.1802 -0.4094
  464TMC3    C6 6908   0.069   2.834   1.679 -1.0884 -0.5185 -0.2551
  464TMC3     C 6909   0.370   2.963   1.935 -0.3385 -0.4065 -0.5076
  464TMC3     O 6910   0.422   2.866   1.980  0.5329 -0.4904  0.3203
  464TMC3     H 6911   0.251   3.111   1.728 -2.9041  0.2399 -1.9325
  464TMC3    H1 6912   0.251   2.744   1.948  1.8547  0.4067 -0.1985
  464TMC3    H2 6913   4.714   2.791   1.618 -0.4886 -0.7949 -0.8474
  464TMC3    C7 6914   0.083   2.619   1.799  0.3498  0.4086  0.2642
  464TMC3    C8 6915   0.021   3.057   1.606 -0.1402 -0.2714 -0.2668
  464TMC3    O1 6916   0.101   2.586   1.918  0.1396  0.3899 -0.5185
  464TMC3    O2 6917   4.678   3.011   1.513  0.0228  0.0211  0.2093
  465MPD2     C 6918   1.511   1.523  16.144  1.4830  0.1133 -0.0682
  465MPD2    C1 6919   1.468   1.522  16.275  0.2539 -1.0714  0.4886
  465MPD2    C2 6920   1.331   1.512  16.299  0.4692  0.6096 -0.1887
  465MPD2    C3 6921   1.240   1.521  16.196  0.2020 -0.0646 -0.5975
  465MPD2    C4 6922   1.283   1.519  16.062 -0.5649 -0.5816  0.5071
  465MPD2    C5 6923   1.418   1.545  16.044 -0.6900  0.2192  0.1442
  465MPD2     H 6924   1.309   1.509  16.405  0.7562 -1.8668 -0.2123
  465MPD2    H1 6925   1.212   1.527  15.980 -0.8906 -0.8210  0.7717
  465MPD2    H2 6926   1.610   1.540  16.105  1.4769  0.6822  0.1697
  465MPD2    H3 6927   1.456   1.568  15.945 -0.5713 -0.3875  0.0513
  465MPD2     N 6928   1.103   1.538  16.233 -0.0948  0.5585 -0.1051
  465MPD2    H5 6929   1.077   1.543  16.331  0.2982 -0.3064  0.0392
  465MPD2    N1 6930   1.558   1.532  16.381  0.0936 -0.3253  0.2297
  465MPD2    H7 6931   1.530   1.513  16.477 -2.4213 -0.4060 -0.5074
  466TMC3    C1 6932   0.727   1.626  16.373  0.3098  0.3308 -0.2179
  466TMC3    C2 6933   0.651   1.714  16.301 -0.3247  0.2382 -0.1830
  466TMC3    C3 6934   0.688   1.747  16.175  0.1023  0.4475  0.4079
  466TMC3    C4 6935   0.841   1.571  16.322 -0.7913  0.2041  0.2155
  466TMC3    C5 6936   0.881   1.617  16.201 -0.2374 -0.0038  0.2634
  466TMC3    C6 6937   0.803   1.699  16.123 -0.0039  0.1060  0.5226
  466TMC3     C 6938   0.717   1.617  16.517  0.4327 -0.0571  0.1794
  466TMC3     O 6939   0.797   1.545  16.572  0.0440  0.1312  0.0126
  466TMC3     H 6940   0.560   1.759  16.339 -1.2002  0.2290 -2.2732
  466TMC3    H1 6941   0.896   1.486  16.360 -2.0453 -0.2407  1.0495
  466TMC3    H2 6942   0.840   1.743  16.030  0.7280  0.7133  1.0985
  466TMC3    C7 6943   1.010   1.575  16.145 -0.4233  0.0600 -0.3420
  466TMC3    C8 6944   0.662   1.880  16.135  0.6244 -0.7163 -0.3036
  466TMC3    O1 6945   1.015   1.594  16.026  0.0297  0.4544  0.1454
  466TMC3    O2 6946   0.689   1.910  16.020  0.3582 -0.1879  0.0840
  467TMC3    C1 6947   1.889   0.420  14.069  0.0293  0.5679  0.0133
  467TMC3    C2 6948   1.921   0.548  14.027  0.0987 -0.8207 -0.2005
  467TMC3    C3 6949   1.846   0.598  13.924 -0.2930 -0.6599 -0.2587
  467TMC3    C4 6950   1.778   0.352  14.021 -0.2381  0.2427 -0.3217
  467TMC3    C5 6951   1.699   0.420  13.936  0.5070 -0.2717 -0.5190
  467TMC3    C6 6952   1.733   0.541  13.884  0.0145  0.1009  0.4939
  467TMC3     C 6953   2.008   0.343  14.093  0.6104 -0.0597 -0.4329
  467TMC3     O 6954   2.070   0.362  14.199 -0.7155  0.0562 -0.1830
  467TMC3     H 6955   2.005   0.604  14.066 -0.6289  1.3093 -1.7027
  467TMC3    H1 6956   1.778   0.244  14.031  2.7770  0.3340  0.6485
  467TMC3    H2 6957   1.665   0.594  13.819  1.2299  0.3165 -0.5868
  467TMC3    C7 6958   1.559   0.383  13.922 -0.1106  0.5710 -0.4389
  467TMC3    C8 6959   1.931   0.666  13.825 -0.4588  0.1835  0.6821
  467TMC3    O1 6960   1.501   0.442  13.831 -0.1650  0.4814  0.0136
  467TMC3    O2 6961   2.030   0.724  13.868  0.1478  0.1100  0.3302
  468MPD2     C 6962   0.607   3.744  10.051 -0.2826 -0.7657 -0.5574
  468MPD2    C1 6963   0.711   3.680  10.117 -0.4589 -0.3647 -0.1319
  468MPD2    C2 6964   0.696   3.540  10.143  0.3430 -0.4024 -0.7083
  468MPD2    C3 6965   0.579   3.473  10.105  0.1070 -0.5388  0.2377
  468MPD2    C4 6966   0.478   3.544  10.047  0.3318 -0.2001  0.5513
  468MPD2    C5 6967   0.493   3.670  10.021  0.9480 -0.6504 -0.5412
  468MPD2     H 6968   0.776   3.487  10.192 -0.7124 -1.6556 -0.3413
  468MPD2    H1 6969   0.383   3.498  10.021  0.6410 -1.9924  2.5917
  468MPD2    H2 6970   0.604   3.849  10.024  0.7418 -0.4539  0.5795
  468MPD2    H3 6971   0.407   3.722   9.981  0.9020  0.0261  0.4259
  468MPD2     N 6972   0.559   3.336  10.118 -0.3543  0.5974  0.5428
  468MPD2    H5 6973   0.469   3.304  10.086  0.3567 -2.0470  1.1888
  468MPD2    N1 6974   0.829   3.734  10.162  0.1866  0.1388 -0.0576
  468MPD2    H7 6975   0.892   3.678  10.219  1.5840  0.0913 -1.6382
  469TMC3    C1 6976   0.977   3.921  10.210  0.5524 -0.3386  0.2934
  469TMC3    C2 6977   1.082   3.837  10.229 -0.7105  0.3183  0.1319
  469TMC3    C3 6978   1.194   3.877  10.305 -1.0741 -0.3555 -0.0038
  469TMC3    C4 6979   0.980   4.058  10.254 -0.0118 -0.3769  0.3010
  469TMC3    C5 6980   1.089   4.093  10.334 -0.3136 -0.6228 -0.5639
  469TMC3    C6 6981   1.196   4.007  10.351 -0.1046 -0.3773  0.0676
  469TMC3     C 6982   0.855   3.867  10.148 -0.0089 -0.5510  0.1740
  469TMC3     O 6983   0.784   3.951  10.093  0.0546  0.3728  0.1114
  469TMC3     H 6984   1.089   3.733  10.201 -1.1066  0.1440  0.6680
  469TMC3    H1 6985   0.884   4.105  10.242  1.0632  1.6119 -0.6278
  469TMC3    H2 6986   1.264   4.029  10.432 -0.4541 -0.0466  0.2670
  469TMC3    C7 6987   1.085   4.205  10.425 -0.1705 -0.0838 -0.3029
  469TMC3    C8 6988   1.277   3.781  10.383 -0.1116  0.5873 -0.3428
  469TMC3    O1 6989   1.156   4.199  10.526 -0.4404 -0.0792  0.4665
  469TMC3    O2 6990   1.372   3.713  10.342 -0.2108 -0.4449  0.2053
  470TMC3    C1 6991   3.638   0.098   1.206 -0.7678  0.0128  0.0307
  470TMC3    C2 6992   3.715   0.196   1.139  0.5272  0.2358 -0.6230
  470TMC3    C3 6993   3.838   0.170   1.092 -0.1227  0.2669  0.6352
  470TMC3    C4 6994   3.695   4.702   1.237 -0.0515  0.1760  0.1233
  470TMC3    C5 6995   3.818   4.671   1.185 -0.5022  0.2762  0.1915
  470TMC3    C6 6996   3.883   0.039   1.105 -0.0590  0.0374  0.2338
  470TMC3     C 6997   3.507   0.129   1.256 -0.0290 -0.0796 -0.1114
  470TMC3     O 6998   3.440   0.032   1.283  0.0750  0.4905 -0.4500
  470TMC3     H 6999   3.678   0.297   1.131  0.6874  0.5979  3.5210
  470TMC3    H1 7000   3.632   4.630   1.287 -0.7677  2.4265  2.4425
  470TMC3    H2 7001   3.986   0.022   1.076 -0.1349  1.8108 -1.0604
  470TMC3    C7 7002   3.900   4.576   1.255 -0.1964 -0.3584 -0.1459
  470TMC3    C8 7003   3.932   0.282   1.110  0.4320  1.1752  0.1194
  470TMC3    O1 7004   4.008   4.548   1.205  0.8615  0.1452  0.4049
  470TMC3    O2 7005   3.882   0.385   1.145  0.5871 -0.6260 -0.3234
  471MPD2     C 7006   3.738   0.183  16.442 -0.0379  0.8608 -0.5067
  471MPD2    C1 7007   3.742   0.074  16.521 -0.0864 -0.2714  0.1193
  471MPD2    C2 7008   3.833   0.072  16.624 -0.5642  0.1600  0.3049
  471MPD2    C3 7009   3.917   0.178  16.649  0.3795  0.8230  0.1354
  471MPD2    C4 7010   3.904   0.291  16.574 -0.7988  0.5437 -0.3668
  471MPD2    C5 7011   3.816   0.292  16.471 -0.3578  0.2466 -0.5117
  471MPD2     H 7012   3.848   4.704  16.679 -1.1151  0.9942  1.8483
  471MPD2    H1 7013   3.957   0.382  16.600 -0.2936 -0.1342  0.9505
  471MPD2    H2 7014   3.669   0.184  16.358  1.2142  0.8392 -1.5470
  471MPD2    H3 7015   3.815   0.385  16.415 -0.6176  0.7881  0.3970
  471MPD2     N 7016   4.005   0.181  16.758  0.6213 -0.2847  0.6411
  471MPD2    H5 7017   4.034   0.273  16.788  2.0061  0.2249 -2.2367
  471MPD2    N1 7018   3.664   4.681  16.500 -0.1903 -1.1073  0.0270
  471MPD2    H7 7019   3.676   4.600  16.560  1.1445 -1.4080 -0.6408
  472TMC3    C1 7020   3.497   4.536  16.436 -0.2134 -1.0702  0.2718
  472TMC3    C2 7021   3.363   4.546  16.415 -0.6613 -0.2745  0.3946
  472TMC3    C3 7022   3.287   4.436  16.410 -0.6799 -0.6400 -0.1672
  472TMC3    C4 7023   3.555   4.423  16.476  0.1657  0.1297  0.5167
  472TMC3    C5 7024   3.478   4.310  16.475 -0.6442  0.2769 -0.5534
  472TMC3    C6 7025   3.347   4.315  16.436  0.2655 -0.3415 -0.2755
  472TMC3     C 7026   3.567   4.662  16.410 -0.1847 -0.4148 -0.0855
  472TMC3     O 7027   3.514   0.011  16.323  0.0185 -0.3121  0.4223
  472TMC3     H 7028   3.302   4.629  16.381  0.6665 -0.2382 -1.9235
  472TMC3    H1 7029   3.661   4.416  16.498  0.1210  0.8901  0.9613
  472TMC3    H2 7030   3.289   4.224  16.445 -1.8731  1.1282  0.7856
  472TMC3    C7 7031   3.544   4.182  16.487 -0.4907  0.1456  0.0202
  472TMC3    C8 7032   3.145   4.446  16.441 -0.3334  0.1639  0.0371
  472TMC3    O1 7033   3.655   4.178  16.534 -0.0038 -0.8751 -0.2846
  472TMC3    O2 7034   3.081   4.522  16.365 -0.2449  0.3136 -1.4488
  473MPD2     C 7035   3.672   2.683  13.496  0.0137  0.5425 -0.5121
  473MPD2    C1 7036   3.571   2.728  13.581 -1.2113  0.2856 -0.0277
  473MPD2    C2 7037   3.602   2.795  13.694  0.2794 -0.8146  0.9262
  473MPD2    C3 7038   3.737   2.794  13.742 -0.3900  0.5752  0.4612
  473MPD2    C4 7039   3.836   2.734  13.662  0.4269 -0.5061 -0.1129
  473MPD2    C5 7040   3.808   2.690  13.533  0.6098  0.3226  0.5033
  473MPD2     H 7041   3.522   2.839  13.753  0.4290  0.3488  0.2771
  473MPD2    H1 7042   3.941   2.747  13.685 -0.1358 -0.6052  2.4538
  473MPD2    H2 7043   3.656   2.649  13.395 -1.5713  1.4157 -0.5582
  473MPD2    H3 7044   3.885   2.666  13.461 -0.9329 -1.1478 -0.6551
  473MPD2     N 7045   3.756   2.868  13.867 -0.1940  0.1272 -0.4741
  473MPD2    H5 7046   3.664   2.905  13.891 -0.6084 -2.4083  1.8372
  473MPD2    N1 7047   3.431   2.731  13.541  0.0070 -0.3295 -0.0260
  473MPD2    H7 7048   3.369   2.781  13.605 -0.2063  0.5979 -0.9539
  474TMC3    C1 7049   3.862   2.987  14.046  0.2637  0.0784  0.8420
  474TMC3    C2 7050   3.750   3.060  14.078 -0.4003 -0.0199 -0.1945
  474TMC3    C3 7051   3.753   3.151  14.178 -0.1416  0.4265  0.0437
  474TMC3    C4 7052   3.978   3.009  14.112 -0.0975 -0.5740  1.0187
  474TMC3    C5 7053   3.979   3.102  14.217 -0.1244  0.3740  0.3302
  474TMC3    C6 7054   3.864   3.171  14.255 -0.2221  0.6045  0.2021
  474TMC3     C 7055   3.873   2.901  13.924 -0.3393 -0.2151 -0.4510
  474TMC3     O 7056   3.984   2.870  13.883 -0.3394 -0.5090 -0.6452
  474TMC3     H 7057   3.660   3.053  14.019 -0.4023  0.8381 -0.2907
  474TMC3    H1 7058   4.070   2.956  14.088 -0.5208  0.1849 -2.2874
  474TMC3    H2 7059   3.857   3.247  14.332 -0.1026  0.7729  0.0448
  474TMC3    C7 7060   4.101   3.123  14.280 -0.4099  0.2050 -0.1318
  474TMC3    C8 7061   3.628   3.213  14.219 -0.5508  0.4480 -0.2543
  474TMC3    O1 7062   4.194   3.051  14.249  0.0879  0.3690  0.2960
  474TMC3    O2 7063   3.521   3.163  14.191  0.3409 -0.0300 -0.1686
  475MPD2     C 7064   2.130   0.953  10.057 -0.0182 -0.4534  0.1100
  475MPD2    C1 7065   2.105   1.090  10.075  0.1281  0.1925 -0.1705
  475MPD2    C2 7066   2.012   1.125  10.164  0.1578  0.5662 -0.5713
  475MPD2    C3 7067   1.931   1.026  10.225  0.2483  0.4443 -0.1201
  475MPD2    C4 7068   1.963   0.896  10.202 -0.1852  0.1256  0.1121
  475MPD2    C5 7069   2.054   0.859  10.109 -0.2576  0.2472 -0.5201
  475MPD2     H 7070   1.991   1.229  10.188  0.3944  0.7229 -1.0400
  475MPD2    H1 7071   1.906   0.819  10.252  0.4828 -0.3227  0.1744
  475MPD2    H2 7072   2.208   0.914   9.994 -1.2137 -1.9928 -0.4104
  475MPD2    H3 7073   2.066   0.753  10.089 -1.7004 -0.2831  1.3740
  475MPD2     N 7074   1.822   1.069  10.303  0.7861  0.0374 -0.7935
  475MPD2    H5 7075   1.814   1.169  10.318  2.0095  0.0278 -0.1234
  475MPD2    N1 7076   2.196   1.178  10.018  0.1048 -0.0946 -0.5113
  475MPD2    H7 7077   2.264   1.131   9.960  0.8121 -0.7280  0.8346
  476TMC3    C1 7078   2.075   1.386  10.035  0.3776 -0.4066  0.2427
  476TMC3    C2 7079   1.977   1.356   9.943  0.3310  0.1618  0.5404
  476TMC3    C3 7080   1.860   1.438   9.948  0.0771  0.8358  1.1343
  476TMC3    C4 7081   2.058   1.473  10.140  0.6951 -0.4246  0.1637
  476TMC3    C5 7082   1.933   1.529  10.163  0.1798 -0.0702 -0.4456
  476TMC3    C6 7083   1.841   1.515  10.058  0.1832  0.3216  0.1358
  476TMC3     C 7084   2.199   1.314  10.026  0.1844 -0.6932  0.1122
  476TMC3     O 7085   2.303   1.383  10.011  0.5930  0.1471 -0.0860
  476TMC3     H 7086   1.985   1.284   9.862 -0.5890  0.9553 -0.2655
  476TMC3    H1 7087   2.136   1.476  10.215  0.1852 -1.2410  0.7254
  476TMC3    H2 7088   1.739   1.544  10.082  0.6783 -0.2048  2.8627
  476TMC3    C7 7089   1.873   1.491  10.288 -0.4413 -0.0446  0.0905
  476TMC3    C8 7090   1.738   1.375   9.893 -0.1532 -0.5045  0.1283
  476TMC3    O1 7091   1.857   1.371  10.300  0.3570  0.1057 -0.3865
  476TMC3    O2 7092   1.648   1.457   9.874  0.4831 -0.4937  0.5844
  477MPD2     C 7093   4.146   3.010  11.196 -1.0613  0.1099 -0.3339
  477MPD2    C1 7094   4.166   2.883  11.163 -0.3583 -0.0832  0.3718
  477MPD2    C2 7095   4.200   2.794  11.270 -0.3881 -0.6449 -0.0276
  477MPD2    C3 7096   4.221   2.844  11.394  0.0911 -0.1689 -0.4595
  477MPD2    C4 7097   4.193   2.974  11.422  0.4985  0.0805 -0.0374
  477MPD2    C5 7098   4.168   3.054  11.320  1.1056 -0.2535  0.3337
  477MPD2     H 7099   4.212   2.688  11.249  0.2749 -1.1155  2.7857
  477MPD2    H1 7100   4.203   3.023  11.518 -2.2774  1.2153 -0.3465
  477MPD2    H2 7101   4.112   3.079  11.120 -0.7477  3.6037  2.7434
  477MPD2    H3 7102   4.148   3.158  11.344 -1.4493 -0.9002  0.9820
  477MPD2     N 7103   4.243   2.753  11.498  0.2498  0.3792 -0.6711
  477MPD2    H5 7104   4.284   2.664  11.474  1.9783  1.4014 -1.5077
  477MPD2    N1 7105   4.124   2.836  11.038  0.4967 -0.5901 -0.5033
  477MPD2    H7 7106   4.079   2.907  10.980  0.9321 -0.2803 -0.4638
  478TMC3    C1 7107   4.024   2.687  10.882 -0.4869 -0.0901  0.4836
  478TMC3    C2 7108   3.926   2.601  10.920  0.0258  0.1460  0.3380
  478TMC3    C3 7109   3.804   2.604  10.868 -0.2926  0.1510  0.5674
  478TMC3    C4 7110   4.001   2.788  10.795 -0.5396  0.3735 -0.1501
  478TMC3    C5 7111   3.876   2.795  10.744 -0.8567  0.1142 -0.4194
  478TMC3    C6 7112   3.772   2.706  10.786  0.4216 -0.6492 -1.2973
  478TMC3     C 7113   4.129   2.711  10.987 -0.6170  0.5326 -0.0300
  478TMC3     O 7114   4.178   2.609  11.038  0.6409 -0.2573 -0.0392
  478TMC3     H 7115   3.943   2.527  10.997  2.2514  1.0979  0.7705
  478TMC3    H1 7116   4.079   2.857  10.764 -2.3048  1.9822 -0.9538
  478TMC3    H2 7117   3.668   2.715  10.755  0.0107  0.4294  0.3994
  478TMC3    C7 7118   3.845   2.901  10.646 -0.3238  0.8613  0.0524
  478TMC3    C8 7119   3.710   2.551  10.963 -0.3515  0.5131  0.5974
  478TMC3    O1 7120   3.940   2.960  10.602  0.5073  0.1535  1.0610
  478TMC3    O2 7121   3.729   2.440  11.010 -0.0441  0.3494 -0.3553
  479MPD2     C 7122   3.165   4.448  14.925  0.2126  0.0462  0.0815
  479MPD2    C1 7123   3.106   4.410  15.040 -0.5622 -0.0434  0.2375
  479MPD2    C2 7124   3.157   4.452  15.159  0.0225  0.4910  0.8761
  479MPD2    C3 7125   3.256   4.557  15.165  0.2770 -0.0457  0.0091
  479MPD2    C4 7126   3.309   4.595  15.046  0.4997 -0.5384 -0.1127
  479MPD2    C5 7127   3.264   4.533  14.933  0.1468 -0.0185  0.7950
  479MPD2     H 7128   3.134   4.413  15.257 -0.5402 -0.0365  0.5316
  479MPD2    H1 7129   3.384   4.673  15.042  0.2756 -0.2636  1.2774
  479MPD2    H2 7130   3.123   4.416  14.831 -1.1943  0.9861  0.3903
  479MPD2    H3 7131   3.293   4.561  14.832 -0.7916 -0.7587  0.3184
  479MPD2     N 7132   3.311   4.612  15.282 -0.3850  0.2244 -0.6101
  479MPD2    H5 7133   3.383   4.684  15.281 -0.7980  0.6613  0.8311
  479MPD2    N1 7134   2.974   4.359  15.028 -0.1015 -0.4632  0.0692
  479MPD2    H7 7135   2.934   4.343  14.937  1.2833 -1.3833 -0.3742
  480TMC3    C1 7136   2.964   4.518  15.595 -0.3796  0.1288  0.1937
  480TMC3    C2 7137   2.865   4.580  15.514  0.1358  0.3328 -0.4808
  480TMC3    C3 7138   2.905   4.648  15.403 -0.0055  0.6741  0.0593
  480TMC3    C4 7139   3.095   4.514  15.556  0.3166  0.0044  0.5860
  480TMC3    C5 7140   3.127   4.572  15.432 -0.4004 -0.4516 -0.1078
  480TMC3    C6 7141   3.036   4.657  15.372  0.1051  0.4605  0.0634
  480TMC3     C 7142   2.916   4.417  15.689  0.3111  0.6700 -0.5422
  480TMC3     O 7143   2.998   4.330  15.716 -0.1997  0.0480  0.4723
  480TMC3     H 7144   2.759   4.561  15.528  0.0295 -0.8078 -2.8708
  480TMC3    H1 7145   3.164   4.440  15.593  0.3072  0.8351  2.2477
  480TMC3    H2 7146   3.060   4.718  15.286  0.8932 -0.2346 -0.2168
  480TMC3    C7 7147   3.265   4.582  15.409 -0.2569  0.2558  0.2604
  480TMC3    C8 7148   2.804   4.679  15.303 -0.2143  0.2755  0.9134
  480TMC3    O1 7149   3.333   4.595  15.509  0.0227 -0.1730  0.5557
  480TMC3    O2 7150   2.695   4.719  15.343  0.7363 -0.0687 -0.3553
  481MPD2     C 7151   4.265   3.775  13.535  0.4511  0.3543 -0.2481
  481MPD2    C1 7152   4.174   3.777  13.638  0.1649  0.9019 -0.2872
  481MPD2    C2 7153   4.217   3.795  13.766 -0.6963  1.0485  0.5274
  481MPD2    C3 7154   4.351   3.806  13.797 -0.4722  0.3639  0.3994
  481MPD2    C4 7155   4.441   3.795  13.694  0.2678  0.5345 -0.1801
  481MPD2    C5 7156   4.404   3.790  13.563 -0.5979  1.0461 -0.1496
  481MPD2     H 7157   4.144   3.819  13.843 -1.1824  1.1461  0.0372
  481MPD2    H1 7158   4.546   3.803  13.718 -0.0274  0.8212  1.0581
  481MPD2    H2 7159   4.234   3.758  13.433 -1.1078  3.5708 -0.3051
  481MPD2    H3 7160   4.476   3.783  13.482 -1.6317 -2.4046 -0.7800
  481MPD2     N 7161   4.407   3.831  13.922 -0.5202  0.2414  0.3424
  481MPD2    H5 7162   4.503   3.863  13.912 -0.6917  0.5708 -0.2028
  481MPD2    N1 7163   4.037   3.797  13.600  0.0493  0.1681 -0.8369
  481MPD2    H7 7164   4.013   3.822  13.505  1.1227  1.1855 -0.8421
  482TMC3    C1 7165   3.808   3.822  13.620  0.0077  0.0453  0.3816
  482TMC3    C2 7166   3.700   3.755  13.654 -0.6310 -0.0483 -0.3170
  482TMC3    C3 7167   3.578   3.801  13.598 -0.4509 -0.1428  0.6943
  482TMC3    C4 7168   3.805   3.926  13.532  0.3998  0.6394 -0.3178
  482TMC3    C5 7169   3.687   3.969  13.479  0.3680  0.1626  0.4421
  482TMC3    C6 7170   3.570   3.909  13.515 -0.4167  0.7175 -0.2368
  482TMC3     C 7171   3.933   3.782  13.686  0.4737 -0.2392  0.0005
  482TMC3     O 7172   3.940   3.738  13.802 -1.0557 -0.7177  0.2448
  482TMC3     H 7173   3.712   3.669  13.719  0.4384 -0.2114 -0.7301
  482TMC3    H1 7174   3.900   3.962  13.493  1.3500 -1.9101 -0.4022
  482TMC3    H2 7175   3.476   3.960  13.495  0.7594  1.9915 -2.4685
  482TMC3    C7 7176   3.687   4.097  13.402  0.4634 -0.1003 -0.3846
  482TMC3    C8 7177   3.494   3.693  13.545  0.0556  0.5010  0.0937
  482TMC3    O1 7178   3.587   4.117  13.337 -0.1719 -0.3136 -0.3792
  482TMC3    O2 7179   3.535   3.583  13.585 -0.2771 -0.1771 -0.3650
  483TMC3    C1 7180   3.582   3.720   1.928  0.6590  0.8129 -0.2156
  483TMC3    C2 7181   3.579   3.826   1.850 -0.2519 -0.2296  0.2751
  483TMC3    C3 7182   3.687   3.846   1.771 -0.2886 -0.3507  0.4450
  483TMC3    C4 7183   3.680   3.626   1.929 -0.3707 -0.5688 -0.2284
  483TMC3    C5 7184   3.798   3.666   1.871  0.2235 -0.5196 -0.6085
  483TMC3    C6 7185   3.804   3.774   1.785 -0.7724 -0.1858 -0.0403
  483TMC3     C 7186   3.447   3.669   1.951 -0.1023  0.0914  0.1078
  483TMC3     O 7187   3.376   3.718   2.038  0.1093 -0.7207 -0.4509
  483TMC3     H 7188   3.479   3.865   1.840  0.0633  0.3834 -0.4781
  483TMC3    H1 7189   3.678   3.534   1.986  1.1521 -0.9441 -0.7813
  483TMC3    H2 7190   3.893   3.795   1.728 -2.0874  2.1076 -1.2325
  483TMC3    C7 7191   3.899   3.558   1.838 -0.2325  0.2411 -0.2038
  483TMC3    C8 7192   3.654   3.847   1.631  0.1676  0.2971  0.0286
  483TMC3    O1 7193   4.017   3.588   1.830 -0.0391  0.9027 -0.4235
  483TMC3    O2 7194   3.745   3.796   1.567  0.1911  0.0607 -0.5981
  484MPD2     C 7195   0.608   1.255  12.407  0.4244 -0.2207  0.3699
  484MPD2    C1 7196   0.672   1.156  12.477 -0.4891  0.0981  0.1754
  484MPD2    C2 7197   0.807   1.127  12.471  0.6301 -0.2568  0.5221
  484MPD2    C3 7198   0.884   1.203  12.392  0.1003  0.4995  0.2021
  484MPD2    C4 7199   0.821   1.311  12.329 -0.2445 -0.4162  0.3146
  484MPD2    C5 7200   0.684   1.330  12.319 -0.1008  0.3125  0.4220
  484MPD2     H 7201   0.836   1.038  12.527  0.2608 -0.4681  0.3766
  484MPD2    H1 7202   0.880   1.376  12.265 -0.5807 -0.1466  0.2810
  484MPD2    H2 7203   0.503   1.277  12.422  0.6633  2.2933 -1.6970
  484MPD2    H3 7204   0.647   1.414  12.262 -2.2641 -0.2859  0.9085
  484MPD2     N 7205   1.019   1.177  12.377 -0.9630  0.3947  0.1158
  484MPD2    H5 7206   1.073   1.237  12.315  1.4125 -0.2147  1.6012
  484MPD2    N1 7207   0.586   1.075  12.551 -0.3700  0.1066  0.8667
  484MPD2    H7 7208   0.488   1.065  12.524  0.2600 -2.4707 -0.4577
  485TMC3    C1 7209   1.227   1.088  12.405  0.3007  0.7105  0.0223
  485TMC3    C2 7210   1.309   1.022  12.492  0.5104  0.2203 -1.0800
  485TMC3    C3 7211   1.445   1.040  12.473  0.0801 -0.0152 -0.9756
  485TMC3    C4 7212   1.272   1.172  12.304 -0.3231 -0.6936 -0.3525
  485TMC3    C5 7213   1.406   1.170  12.277  0.3282  0.0218  0.2238
  485TMC3    C6 7214   1.497   1.110  12.366  0.0291  0.2559 -0.5030
  485TMC3     C 7215   1.088   1.073  12.438 -0.0382 -0.5118 -0.0621
  485TMC3     O 7216   1.051   0.972  12.496 -0.2688 -0.3144 -0.6683
  485TMC3     H 7217   1.268   0.963  12.573  1.7349  1.0119  0.1282
  485TMC3    H1 7218   1.209   1.227  12.236  0.5331  1.2762  0.4171
  485TMC3    H2 7219   1.603   1.132  12.367 -0.4314  2.3881  2.9414
  485TMC3    C7 7220   1.432   1.141  12.141  0.2431  0.3969  0.5117
  485TMC3    C8 7221   1.537   0.932  12.501  0.5928  0.0570 -0.0784
  485TMC3    O1 7222   1.365   1.202  12.059  0.1767  0.2923 -0.6100
  485TMC3    O2 7223   1.652   0.944  12.455 -0.0651  0.4301 -0.7173
  486MPD2     C 7224   2.520   0.174  13.020  0.9372 -0.1047  1.4487
  486MPD2    C1 7225   2.567   0.147  12.893 -0.6011  0.3756 -0.2439
  486MPD2    C2 7226   2.574   0.247  12.800 -0.1786  0.3026  0.2808
  486MPD2    C3 7227   2.531   0.370  12.831  0.3823  0.8082 -0.2603
  486MPD2    C4 7228   2.473   0.393  12.954 -0.7245 -0.2291  0.5409
  486MPD2    C5 7229   2.471   0.296  13.048 -0.1174 -0.3726 -0.2589
  486MPD2     H 7230   2.624   0.228  12.705 -3.4018 -2.7612 -0.7774
  486MPD2    H1 7231   2.432   0.491  12.977 -1.1131  0.4271 -2.9342
  486MPD2    H2 7232   2.516   0.097  13.096 -0.3097 -2.6615 -1.2041
  486MPD2    H3 7233   2.438   0.317  13.149  1.7598 -0.4748  0.3705
  486MPD2     N 7234   2.543   0.471  12.728 -0.4395  0.0222 -0.0206
  486MPD2    H5 7235   2.575   0.439  12.637 -0.5305 -1.6597  0.5437
  486MPD2    N1 7236   2.608   0.012  12.868  0.1966 -0.1914 -1.0098
  486MPD2    H7 7237   2.612   4.664  12.939 -0.7829  1.0421  0.3059
  487TMC3    C1 7238   2.688   4.539  12.792  0.3254 -0.2134 -0.1989
  487TMC3    C2 7239   2.590   4.486  12.877  0.1441 -0.0655  0.3738
  487TMC3    C3 7240   2.632   4.374  12.953  0.3004 -0.6051  0.6440
  487TMC3    C4 7241   2.819   4.501  12.807  0.9221 -0.2902  0.1196
  487TMC3    C5 7242   2.848   4.392  12.881  0.7001  0.0495  0.3173
  487TMC3    C6 7243   2.758   4.323  12.946  0.6643 -0.3003 -0.8146
  487TMC3     C 7244   2.676   4.683  12.765 -0.3871  0.2836 -0.0069
  487TMC3     O 7245   2.745   0.009  12.674 -0.2157  0.4196  0.7396
  487TMC3     H 7246   2.486   4.519  12.878 -0.2083 -1.0671 -1.8310
  487TMC3    H1 7247   2.904   4.541  12.753 -0.0067 -1.5258 -2.2280
  487TMC3    H2 7248   2.793   4.265  13.031  2.3189  1.8454 -0.0199
  487TMC3    C7 7249   2.990   4.370  12.903  1.1551 -0.6092 -0.4438
  487TMC3    C8 7250   2.532   4.322  13.042  0.2308 -0.5383  0.2775
  487TMC3    O1 7251   3.058   4.465  12.929 -0.2443  0.3133 -0.6076
  487TMC3    O2 7252   2.448   4.405  13.073 -0.2182 -0.2487 -0.8655
  488MPD2     C 7253   3.265   1.584  16.457  0.3205 -0.5706  0.3397
  488MPD2    C1 7254   3.309   1.673  16.549  0.8414  0.1756 -0.1711
  488MPD2    C2 7255   3.271   1.649  16.685  0.3307 -0.2520 -0.0260
  488MPD2    C3 7256   3.206   1.538  16.725  0.6706  0.6512  0.2391
  488MPD2    C4 7257   3.155   1.458  16.628  0.2124 -1.0986  0.1473
  488MPD2    C5 7258   3.186   1.477  16.495 -0.3472 -0.8471  0.7362
  488MPD2     H 7259   3.293   1.719  16.764 -0.1402  1.0688 -1.0570
  488MPD2    H1 7260   3.093   1.372  16.649 -1.3413 -0.0946 -0.3164
  488MPD2    H2 7261   3.284   1.598  16.351  1.9809  0.3221  0.7623
  488MPD2    H3 7262   3.154   1.397  16.429 -1.7123  0.0405  0.3111
  488MPD2     N 7263   3.174   1.522  16.867 -0.1964 -0.3304  0.2794
  488MPD2    H5 7264   3.240   1.562  16.932  0.4141 -0.6965 -0.1065
  488MPD2    N1 7265   3.387   1.785  16.519 -0.3576 -0.5510 -0.2916
  488MPD2    H7 7266   3.417   1.843  16.596 -1.6911 -2.7259  1.8441
  489TMC3    C1 7267   3.064   1.456  17.063  0.1427  0.4518  0.5081
  489TMC3    C2 7268   3.094   1.572  17.123 -0.2035 -0.1691  0.1768
  489TMC3    C3 7269   3.139   1.561  17.251 -0.2499 -0.6187 -0.3192
  489TMC3    C4 7270   3.040   1.342  17.135  0.0796  0.2103 -1.0544
  489TMC3    C5 7271   3.073   1.343  17.265  0.9710  0.2443 -0.3738
  489TMC3    C6 7272   3.130   1.450  17.324 -0.6116 -0.3436 -0.2322
  489TMC3     C 7273   3.071   1.446  16.920 -0.2475 -0.1815 -0.1417
  489TMC3     O 7274   2.981   1.384  16.862  0.1974  0.0187  0.3705
  489TMC3     H 7275   3.096   1.660  17.059 -1.6956 -0.7269 -0.6263
  489TMC3    H1 7276   3.012   1.252  17.082 -0.8475 -0.5852  0.8204
  489TMC3    H2 7277   3.165   1.442  17.427  0.3342 -0.3881 -0.5573
  489TMC3    C7 7278   3.072   1.206  17.328 -0.3120 -0.0837 -0.1342
  489TMC3    C8 7279   3.199   1.686  17.300  0.5588 -0.6589 -0.0790
  489TMC3    O1 7280   2.974   1.143  17.294  0.2709 -0.4659  0.2031
  489TMC3    O2 7281   3.222   1.762  17.210  0.2847 -0.2209  0.3922
  490MPD2     C 7282   4.318   0.485  16.886  0.3265 -0.0100 -0.0801
  490MPD2    C1 7283   4.260   0.562  16.984 -0.5358  0.0220  0.0558
  490MPD2    C2 7284   4.350   0.635  17.066  0.1740 -0.4196  0.6188
  490MPD2    C3 7285   4.486   0.621  17.065 -0.6259 -0.1243 -0.2087
  490MPD2    C4 7286   4.539   0.541  16.965 -0.2590  0.4392  1.0623
  490MPD2    C5 7287   4.457   0.471  16.881 -0.1476  0.2320  0.6769
  490MPD2     H 7288   4.307   0.693  17.146  0.2548  1.2545 -0.5564
  490MPD2    H1 7289   4.644   0.523  16.947 -0.0382  0.8449  1.9592
  490MPD2    H2 7290   4.265   0.448  16.799  1.2323  0.7918 -0.9670
  490MPD2    H3 7291   4.495   0.420  16.793 -0.4785 -1.2165  1.3826
  490MPD2     N 7292   4.580   0.699  17.145  0.0114 -0.3007 -0.8126
  490MPD2    H5 7293   4.676   0.668  17.134  0.2676  0.6595 -1.2448
  490MPD2    N1 7294   4.121   0.578  17.001 -0.0180 -0.0938 -0.4597
  490MPD2    H7 7295   4.089   0.652  17.063  0.3505 -0.9440  0.7256
  491TMC3    C1 7296   3.895   0.540  16.976  0.1539 -0.2797 -0.2092
  491TMC3    C2 7297   3.862   0.554  17.113 -0.3148  0.0725 -0.0931
  491TMC3    C3 7298   3.730   0.524  17.144 -0.1194  0.9324  0.3947
  491TMC3    C4 7299   3.797   0.489  16.885  0.2331  0.0163  0.2970
  491TMC3    C5 7300   3.677   0.449  16.927  0.4638  0.1802  0.2625
  491TMC3    C6 7301   3.636   0.476  17.058  0.1976 -0.1768  0.2814
  491TMC3     C 7302   4.023   0.528  16.918  1.3331 -0.9243 -0.2808
  491TMC3     O 7303   4.034   0.443  16.827  0.0377 -0.3619  0.5876
  491TMC3     H 7304   3.935   0.561  17.192 -0.5360 -0.8376  0.1928
  491TMC3    H1 7305   3.821   0.472  16.781 -0.1609 -0.0181  0.2128
  491TMC3    H2 7306   3.539   0.444  17.095 -0.3516  0.6719 -0.4089
  491TMC3    C7 7307   3.585   0.384  16.832 -0.4753  0.2940 -0.7705
  491TMC3    C8 7308   3.678   0.563  17.272 -0.6374  0.2250 -0.1627
  491TMC3    O1 7309   3.498   0.310  16.883 -0.0532 -0.6133  0.5035
  491TMC3    O2 7310   3.559   0.550  17.289 -0.4971  0.2296  0.1104
  492MPD2     C 7311   3.976   1.101  10.980 -0.7738  0.4962  0.0439
  492MPD2    C1 7312   3.848   1.101  10.923 -0.7316 -0.3287 -0.2715
  492MPD2    C2 7313   3.749   1.041  10.996  0.1386  0.6558 -0.0840
  492MPD2    C3 7314   3.774   0.968  11.115 -0.4443  0.3484 -0.3686
  492MPD2    C4 7315   3.901   0.960  11.157 -0.1395 -0.4069  0.2301
  492MPD2    C5 7316   4.002   1.017  11.089  0.1077 -0.3304  0.2497
  492MPD2     H 7317   3.645   1.057  10.971  0.5598  0.4271 -1.9564
  492MPD2    H1 7318   3.929   0.913  11.251 -1.1166 -1.2108  0.1172
  492MPD2    H2 7319   4.058   1.161  10.940  0.2106 -0.1960  1.0149
  492MPD2    H3 7320   4.102   1.012  11.131 -0.3245 -0.1780  1.2835
  492MPD2     N 7321   3.675   0.914  11.196 -0.4170  0.1982 -0.7396
  492MPD2    H5 7322   3.720   0.867  11.274  0.4651  1.5589 -0.4156
  492MPD2    N1 7323   3.822   1.189  10.811  0.0774 -0.4852 -0.1247
  492MPD2    H7 7324   3.906   1.237  10.779 -1.0440  0.3527 -1.8266
  493TMC3    C1 7325   3.684   1.302  10.639 -0.3114 -0.0161  0.5141
  493TMC3    C2 7326   3.765   1.414  10.637 -0.3986  0.1629 -0.3483
  493TMC3    C3 7327   3.745   1.497  10.527 -0.1761  0.0977  0.0009
  493TMC3    C4 7328   3.578   1.287  10.560  0.8224  0.9473  0.4690
  493TMC3    C5 7329   3.542   1.385  10.470 -0.0452 -0.7143 -0.2878
  493TMC3    C6 7330   3.628   1.489  10.450  0.0672  0.1516  0.4400
  493TMC3     C 7331   3.699   1.207  10.748 -0.0541 -0.6382  1.1058
  493TMC3     O 7332   3.596   1.143  10.767 -0.1937 -0.5696  0.0395
  493TMC3     H 7333   3.838   1.428  10.715  1.1826 -1.3993 -1.5554
  493TMC3    H1 7334   3.529   1.191  10.573  1.7052  0.3816 -0.4287
  493TMC3    H2 7335   3.598   1.567  10.381 -0.1306  0.7496  1.2023
  493TMC3    C7 7336   3.411   1.379  10.400 -0.3168  0.2401 -0.0730
  493TMC3    C8 7337   3.821   1.622  10.536 -0.0813  0.5499  0.4921
  493TMC3    O1 7338   3.401   1.432  10.291  0.2653 -0.3547 -0.1400
  493TMC3    O2 7339   3.880   1.637  10.643  0.0627 -0.3419 -0.1093
  494TMC3    C1 7340   4.475   2.743   0.603 -0.0647  0.0865 -0.0670
  494TMC3    C2 7341   4.492   2.605   0.610 -0.2384  0.0570 -0.0215
  494TMC3    C3 7342   4.579   2.553   0.523 -0.9050  0.7681 -0.4359
  494TMC3    C4 7343   4.540   2.825   0.523 -0.0616  0.1772 -0.1004
  494TMC3    C5 7344   4.646   2.770   0.452 -0.5343 -0.3858  0.2468
  494TMC3    C6 7345   4.661   2.637   0.446  0.7771  1.1362 -0.0850
  494TMC3     C 7346   4.379   2.803   0.700  0.2829 -0.0768  0.2870
  494TMC3     O 7347   4.386   2.921   0.730  0.2828 -0.2483  0.6618
  494TMC3     H 7348   4.456   2.530   0.679  2.7543 -0.6232  0.7922
  494TMC3    H1 7349   4.524   2.931   0.532 -0.9669  0.1740 -1.6882
  494TMC3    H2 7350   0.015   2.598   0.381  0.6371  1.2916 -0.3483
  494TMC3    C7 7351   0.004   2.849   0.356 -0.2331 -0.0559 -0.7834
  494TMC3    C8 7352   4.623   2.422   0.548  0.0517  0.8696 -0.2486
  494TMC3    O1 7353   0.046   2.788   0.261 -0.6050  0.3788  0.1591
  494TMC3    O2 7354   4.546   2.334   0.558 -0.4984  0.3546 -0.1602
  495TMC3    C1 7355   3.069   4.499  14.419  0.4145  0.6370 -1.1355
  495TMC3    C2 7356   3.023   4.574  14.312  0.7960  0.1874 -0.2750
  495TMC3    C3 7357   2.988   4.703  14.330  0.0722  0.5023  0.1498
  495TMC3    C4 7358   3.092   4.550  14.544  0.5513  0.4086  0.1536
  495TMC3    C5 7359   3.057   4.684  14.556  0.5456 -0.5559 -0.7903
  495TMC3    C6 7360   2.993   0.035  14.457  0.7281 -0.0666  1.4860
  495TMC3     C 7361   3.034   4.353  14.415  0.3010  1.0904  0.2132
  495TMC3     O 7362   2.967   4.320  14.316  0.2227  0.0155  0.3625
  495TMC3     H 7363   3.014   4.534  14.212 -0.4457 -2.1126  0.7369
  495TMC3    H1 7364   3.111   4.505  14.641  0.7547 -0.7857 -0.4290
  495TMC3    H2 7365   2.974   0.141  14.471  1.5169  0.0232  1.8926
  495TMC3    C7 7366   3.009   4.719  14.688  0.5056 -0.1984 -0.0306
  495TMC3    C8 7367   2.894   0.035  14.238 -0.1378 -0.2083  0.6347
  495TMC3    O1 7368   3.101   0.011  14.769  0.1099 -0.5758  0.3740
  495TMC3    O2 7369   2.809   0.106  14.295  0.8228 -0.4387  0.4900
  496MPD2     C 7370   0.379   4.677  15.612  0.2695 -0.1361  0.0257
  496MPD2    C1 7371   0.369   4.544  15.642 -0.6402  0.0153 -0.3928
  496MPD2    C2 7372   0.329   4.501  15.768 -0.9111  0.3018 -0.6323
  496MPD2    C3 7373   0.314   4.598  15.864  0.8465  0.0971 -0.1854
  496MPD2    C4 7374   0.332   0.007  15.837  0.1554  0.1102  0.4249
  496MPD2    C5 7375   0.353   0.046  15.706  0.1061  0.3653  0.1777
  496MPD2     H 7376   0.318   4.397  15.795  1.3177 -0.4958 -2.8705
  496MPD2    H1 7377   0.331   0.074  15.922  1.8208  0.6917 -0.0091
  496MPD2    H2 7378   0.404   4.716  15.514  3.0667 -0.0572  0.7534
  496MPD2    H3 7379   0.377   0.148  15.678  1.0327  0.5726  1.7366
  496MPD2     N 7380   0.292   4.567  15.997 -0.5877 -0.0846 -0.3085
  496MPD2    H5 7381   0.286   4.643  16.063  0.9492  1.6723 -2.1849
  496MPD2    N1 7382   0.392   4.454  15.533  0.6313 -0.4418  0.3812
  496MPD2    H7 7383   0.405   4.488  15.439 -1.2543 -0.6848  0.0440
  497TMC3    C1 7384   0.246   4.441  16.197  0.3992  0.8609 -0.6296
  497TMC3    C2 7385   0.282   4.332  16.261  0.1710  0.4508 -0.6511
  497TMC3    C3 7386   0.281   4.331  16.397 -0.3150 -0.6050 -0.0365
  497TMC3    C4 7387   0.195   4.556  16.257  0.6136  0.5025 -0.5915
  497TMC3    C5 7388   0.187   4.548  16.394  0.0642  0.0828  0.7306
  497TMC3    C6 7389   0.229   4.438  16.467 -0.2084  0.3378  0.1794
  497TMC3     C 7390   0.263   4.439  16.051  0.8166 -0.0264 -0.7114
  497TMC3     O 7391   0.260   4.330  15.993 -0.3140 -0.4066  0.2953
  497TMC3     H 7392   0.319   4.249  16.202 -0.1598 -0.6044  0.6505
  497TMC3    H1 7393   0.182   4.651  16.208 -0.2339  0.7942  0.2050
  497TMC3    H2 7394   0.226   4.436  16.576 -1.5314  1.7806  0.1697
  497TMC3    C7 7395   0.177   4.671  16.476  0.1452  0.0642 -0.7354
  497TMC3    C8 7396   0.401   4.265  16.460  0.0592 -0.9762 -0.0095
  497TMC3    O1 7397   0.119   4.658  16.582 -0.1667  0.0380 -0.7818
  497TMC3    O2 7398   0.447   4.172  16.399  0.0493 -0.4596  0.3533
  498MPD2     C 7399   1.366   4.626   9.331  0.2381 -0.3036 -0.2058
  498MPD2    C1 7400   1.318   0.006   9.409 -0.2347 -0.3021  0.3658
  498MPD2    C2 7401   1.181   0.032   9.404  0.2245  0.3795 -0.1118
  498MPD2    C3 7402   1.103   4.679   9.322  0.4664  0.4007 -0.1189
  498MPD2    C4 7403   1.149   4.580   9.242 -0.2279 -0.1548 -0.4120
  498MPD2    C5 7404   1.282   4.547   9.255 -0.0458  0.3330  0.7192
  498MPD2     H 7405   1.130   0.112   9.457  0.4135  0.5889 -0.2475
  498MPD2    H1 7406   1.087   4.524   9.173  0.7304 -1.9377  0.1653
  498MPD2    H2 7407   1.471   4.596   9.332  0.8107  1.7160  0.2542
  498MPD2    H3 7408   1.326   4.467   9.195 -0.4362  0.7385 -0.1163
  498MPD2     N 7409   0.964   4.712   9.315  0.0259  0.6667 -0.3896
  498MPD2    H5 7410   0.936   0.063   9.377 -2.9974 -0.1603 -0.7462
  498MPD2    N1 7411   1.407   0.079   9.498  0.0328  0.3921  0.1623
  498MPD2    H7 7412   1.503   0.046   9.497 -0.7038 -1.7804  0.2893
  499TMC3    C1 7413   1.494   0.242   9.638 -0.0817 -0.0560 -0.0419
  499TMC3    C2 7414   1.601   0.156   9.658 -0.2997  0.0401  0.8794
  499TMC3    C3 7415   1.702   0.215   9.730 -0.4486 -0.0232  0.3781
  499TMC3    C4 7416   1.482   0.367   9.699  0.4268  0.0145  1.1398
  499TMC3    C5 7417   1.582   0.417   9.771 -0.6877 -0.2391  0.7866
  499TMC3    C6 7418   1.689   0.337   9.787  0.5057 -0.1546  0.2562
  499TMC3     C 7419   1.375   0.183   9.576 -0.2000  0.0469 -0.7243
  499TMC3     O 7420   1.269   0.242   9.606  0.2382  0.1463 -0.7183
  499TMC3     H 7421   1.600   0.048   9.647 -2.1213  0.5093 -3.5821
  499TMC3    H1 7422   1.395   0.426   9.673  1.3787  0.8213 -0.1757
  499TMC3    H2 7423   1.767   0.359   9.859  1.5686  2.4622 -1.7188
  499TMC3    C7 7424   1.604   0.556   9.781 -0.3096 -0.6078  0.3795
  499TMC3    C8 7425   1.810   0.125   9.773  0.0113  0.3693  0.0714
  499TMC3    O1 7426   1.514   0.630   9.737 -0.0461 -0.2262  0.2987
  499TMC3    O2 7427   1.877   0.157   9.870  0.5908 -0.4108  0.4821
  500MPD2     C 7428   2.480   2.247  10.522  0.1338  0.4685  0.1480
  500MPD2    C1 7429   2.509   2.304  10.402 -0.6193 -0.3193  0.4316
  500MPD2    C2 7430   2.419   2.297  10.295 -0.0936  0.4835 -0.1990
  500MPD2    C3 7431   2.300   2.239  10.318 -0.0403 -0.7066  0.6049
  500MPD2    C4 7432   2.272   2.178  10.437 -0.4820 -0.3862 -0.0131
  500MPD2    C5 7433   2.360   2.188  10.539  0.1062  0.6837  0.8420
  500MPD2     H 7434   2.440   2.343  10.199  1.0494 -0.5363 -0.4440
  500MPD2    H1 7435   2.180   2.126  10.464 -0.4135 -0.3493  0.2960
  500MPD2    H2 7436   2.547   2.267  10.605 -0.8240  2.3230  0.4930
  500MPD2    H3 7437   2.337   2.152  10.639  0.6789 -1.4217  0.2129
  500MPD2     N 7438   2.198   2.229  10.224 -0.5049  0.0178  0.1895
  500MPD2    H5 7439   2.107   2.205  10.262 -0.9395 -1.6714 -1.9639
  500MPD2    N1 7440   2.623   2.376  10.384  1.1781  0.5424  0.0761
  500MPD2    H7 7441   2.641   2.424  10.296 -0.4939  0.9713 -0.0214
  501TMC3    C1 7442   2.839   2.473  10.424 -0.2355 -0.8493  0.4491
  501TMC3    C2 7443   2.813   2.575  10.340  0.2311 -0.2494  0.3696
  501TMC3    C3 7444   2.905   2.677  10.334  0.1103  0.0416 -0.0310
  501TMC3    C4 7445   2.963   2.457  10.483  0.6606 -0.1654  0.2080
  501TMC3    C5 7446   3.054   2.556  10.456  0.6778  0.0140 -0.2847
  501TMC3    C6 7447   3.024   2.677  10.397 -0.5258  0.2176  0.3942
  501TMC3     C 7448   2.733   2.386  10.471  0.4164 -0.5460 -1.0035
  501TMC3     O 7449   2.756   2.323  10.572  0.7575 -0.0611  0.7595
  501TMC3     H 7450   2.715   2.596  10.297 -0.3433 -1.4122  1.1048
  501TMC3    H1 7451   2.998   2.369  10.536 -1.0404 -0.4300  0.9080
  501TMC3    H2 7452   3.100   2.752  10.382 -0.0548 -0.3997 -0.3124
  501TMC3    C7 7453   3.192   2.508  10.468  0.0273 -0.7080 -0.1862
  501TMC3    C8 7454   2.879   2.796  10.259 -0.7692 -0.2957  0.6551
  501TMC3    O1 7455   3.208   2.384  10.470  0.2580  0.5722 -0.1989
  501TMC3    O2 7456   2.966   2.859  10.203  0.4409  0.1289 -0.2463
  502TMC3    C1 7457   2.558   0.469  14.884 -0.0542 -0.1858  0.0124
  502TMC3    C2 7458   2.596   0.591  14.830 -0.6116  0.0270  0.0956
  502TMC3    C3 7459   2.507   0.691  14.809  0.2363  0.0325 -0.4565
  502TMC3    C4 7460   2.428   0.459  14.925  0.4731 -0.0674 -0.0481
  502TMC3    C5 7461   2.340   0.560  14.912  0.0557 -0.6901 -0.1253
  502TMC3    C6 7462   2.380   0.676  14.846  0.0059  0.2549  0.1517
  502TMC3     C 7463   2.654   0.422  14.978  0.3938  0.3894  0.2822
  502TMC3     O 7464   2.771   0.411  14.946  0.5328 -0.3056  0.6413
  502TMC3     H 7465   2.702   0.607  14.810 -0.4396 -2.3702 -0.7927
  502TMC3    H1 7466   2.401   0.373  14.985  1.5129 -0.3092  0.0684
  502TMC3    H2 7467   2.308   0.757  14.842 -2.3955 -1.8784 -0.0670
  502TMC3    C7 7468   2.265   0.577  15.029 -0.0992 -0.0896 -0.2898
  502TMC3    C8 7469   2.560   0.823  14.834  0.1785  0.6449 -0.4213
  502TMC3    O1 7470   2.308   0.516  15.128 -0.1105  0.0246  0.1924
  502TMC3    O2 7471   2.495   0.890  14.911  0.9924 -0.2794  0.8976
  503MPD2     C 7472   0.121   1.493  16.992 -0.2079 -0.5547  0.7438
  503MPD2    C1 7473   0.229   1.553  17.053 -0.3504  0.2416  0.3640
  503MPD2    C2 7474   0.325   1.474  17.108 -0.2419 -0.2495  0.2484
  503MPD2    C3 7475   0.317   1.339  17.102  0.1086  0.1665 -0.2895
  503MPD2    C4 7476   0.210   1.274  17.041  0.2579 -0.0193  0.7000
  503MPD2    C5 7477   0.113   1.356  16.990 -0.6895 -0.4453  0.0926
  503MPD2     H 7478   0.412   1.518  17.156  0.5273 -0.2185 -1.1981
  503MPD2    H1 7479   0.202   1.166  17.033 -0.2933 -0.0961  2.4019
  503MPD2    H2 7480   0.037   1.552  16.954  1.6242  0.0838 -2.3540
  503MPD2    H3 7481   0.023   1.306  16.958 -1.7512  0.5560  1.4809
  503MPD2     N 7482   0.430   1.275  17.145 -0.0544 -0.3673  0.0940
  503MPD2    H5 7483   0.511   1.327  17.176  1.1343 -2.0381 -0.1631
  503MPD2    N1 7484   0.239   1.690  17.091 -0.6577 -0.8164  0.4346
  503MPD2    H7 7485   0.318   1.703  17.154 -0.8938  2.1342  0.1086
  504TMC3    C1 7486   0.559   1.111  17.240 -0.4408  0.3076  0.1619
  504TMC3    C2 7487   0.556   1.034  17.356  0.6530 -0.7998 -0.7347
  504TMC3    C3 7488   0.676   1.022  17.424 -0.6790  0.3255 -0.6814
  504TMC3    C4 7489   0.675   1.161  17.184  0.2257 -0.1418  0.1136
  504TMC3    C5 7490   0.792   1.135  17.251 -0.4713 -0.2530 -0.7903
  504TMC3    C6 7491   0.795   1.058  17.369  0.0590 -0.4799  0.3054
  504TMC3     C 7492   0.434   1.146  17.181 -1.2338 -0.2086 -0.0434
  504TMC3     O 7493   0.344   1.066  17.194 -0.5168  0.5918 -0.3041
  504TMC3     H 7494   0.459   1.006  17.398  0.5571  2.7891  1.4088
  504TMC3    H1 7495   0.672   1.212  17.088  0.3003  0.2270  0.3059
  504TMC3    H2 7496   0.886   1.041  17.426  2.0381  2.0490 -2.1145
  504TMC3    C7 7497   0.909   1.126  17.165  0.2348 -0.7047  0.3009
  504TMC3    C8 7498   0.661   0.959  17.553  0.2250 -0.3772  1.3172
  504TMC3    O1 7499   0.906   1.108  17.046  0.0533 -0.2253  0.1271
  504TMC3    O2 7500   0.546   0.914  17.575  0.1388  0.1150 -0.2433
  505MPD2     C 7501   4.489   0.556   9.512  0.0294  0.4931  0.2688
  505MPD2    C1 7502   4.527   0.555   9.642 -0.6476 -1.0297  0.1760
  505MPD2    C2 7503   4.609   0.658   9.689  0.2932  0.0880  0.2229
  505MPD2    C3 7504   4.659   0.748   9.595  0.2851  0.5214 -0.6557
  505MPD2    C4 7505   4.632   0.743   9.460 -0.3330 -0.5875  0.0548
  505MPD2    C5 7506   4.542   0.646   9.424 -0.3913 -0.4200 -0.3301
  505MPD2     H 7507   4.630   0.663   9.795 -3.9400 -0.9840  1.1259
  505MPD2    H1 7508   4.672   0.814   9.389  0.9032 -0.8234  0.5233
  505MPD2    H2 7509   4.416   0.483   9.479  1.1109  0.7188 -2.5628
  505MPD2    H3 7510   4.508   0.633   9.322  0.5904  0.4431 -0.7569
  505MPD2     N 7511   0.021   0.856   9.636  0.3236  0.0840 -0.0502
  505MPD2    H5 7512   0.046   0.919   9.561 -1.2509 -0.5565 -1.1199
  505MPD2    N1 7513   4.471   0.463   9.731  0.5777  0.2919  0.4442
  505MPD2    H7 7514   4.417   0.388   9.687  2.0633 -0.0383 -0.8213
  506TMC3    C1 7515   4.468   0.336   9.940 -0.2503 -0.5631  0.2578
  506TMC3    C2 7516   4.532   0.233   9.885  0.8052 -0.0180  0.2712
  506TMC3    C3 7517   4.589   0.145   9.974  0.4440  0.6409 -0.1890
  506TMC3    C4 7518   4.456   0.343  10.075  0.0003  0.3203  0.4073
  506TMC3    C5 7519   4.523   0.259  10.164  0.6405  0.0450 -0.2335
  506TMC3    C6 7520   4.591   0.155  10.111 -0.3204  0.0406  0.3635
  506TMC3     C 7521   4.487   0.458   9.871  0.3331 -0.2267 -0.4105
  506TMC3     O 7522   4.518   0.548   9.952 -0.2016  0.0403 -0.2576
  506TMC3     H 7523   4.527   0.210   9.779 -0.5102  1.8792 -0.0673
  506TMC3    H1 7524   4.396   0.419  10.123 -0.5302 -0.9003  1.6594
  506TMC3    H2 7525   4.656   0.102  10.180 -0.8333 -0.4089  0.5035
  506TMC3    C7 7526   4.603   0.328  10.265 -0.1282 -0.3865  0.4431
  506TMC3    C8 7527   4.675   0.038   9.920  0.2428 -0.3361  0.3001
  506TMC3    O1 7528   4.627   0.276  10.371  0.4142  0.2772  0.1705
  506TMC3    O2 7529   4.668   4.659   9.988  0.6809 -0.4677 -0.4751
  507TMC3    C1 7530   1.331   1.336  14.220 -0.2596  0.6792 -0.0723
  507TMC3    C2 7531   1.309   1.303  14.090  0.6336  0.7258  0.2950
  507TMC3    C3 7532   1.381   1.373  13.994 -0.6513 -0.2154 -0.1564
  507TMC3    C4 7533   1.413   1.428  14.264  0.0921  0.3247 -0.6214
  507TMC3    C5 7534   1.468   1.507  14.172  0.1138 -0.6797 -0.0819
  507TMC3    C6 7535   1.466   1.475  14.040  0.6266 -0.3729  0.4510
  507TMC3     C 7536   1.242   1.279  14.321  0.5027  0.1688  0.0576
  507TMC3     O 7537   1.284   1.267  14.437  0.4427  0.0308  0.1924
  507TMC3     H 7538   1.251   1.216  14.058  2.2823  0.2306 -1.3819
  507TMC3    H1 7539   1.431   1.445  14.369  0.5347 -2.9291 -0.1938
  507TMC3    H2 7540   1.501   1.553  13.972 -1.1067 -0.4249 -0.5140
  507TMC3    C7 7541   1.416   1.647  14.178 -0.6761 -0.0031  0.0029
  507TMC3    C8 7542   1.288   1.398  13.886  0.0376  0.7687  0.0727
  507TMC3    O1 7543   1.360   1.699  14.076 -0.0734 -0.2286 -0.1282
  507TMC3    O2 7544   1.228   1.299  13.843 -1.0601  0.5015  0.3849
  508MPD2     C 7545   1.237   3.619  16.224 -0.8956  0.7856 -0.1130
  508MPD2    C1 7546   1.368   3.658  16.185  0.1003  0.4121  0.7229
  508MPD2    C2 7547   1.377   3.724  16.069  0.1959 -0.7338  0.3623
  508MPD2    C3 7548   1.275   3.744  15.976 -0.3599 -0.4342 -0.0416
  508MPD2    C4 7549   1.151   3.696  16.008  0.0453 -0.1935 -0.2523
  508MPD2    C5 7550   1.134   3.639  16.135  0.2747  0.1174 -0.3367
  508MPD2     H 7551   1.473   3.764  16.037 -0.6939  0.2267 -1.0740
  508MPD2    H1 7552   1.062   3.718  15.952  0.2219 -2.8279 -1.6002
  508MPD2    H2 7553   1.218   3.569  16.318  0.1348  1.2861  0.3685
  508MPD2    H3 7554   1.032   3.610  16.160  0.3264  0.3410  0.1342
  508MPD2     N 7555   1.304   3.805  15.856 -0.1192  0.6025  0.0907
  508MPD2    H5 7556   1.398   3.830  15.830 -0.0933 -0.6654 -1.0602
  508MPD2    N1 7557   1.478   3.613  16.263 -0.6924 -0.9891  0.1100
  508MPD2    H7 7558   1.457   3.590  16.360 -0.0108  1.9758  0.9956
  509TMC3    C1 7559   1.254   4.136  15.551 -0.1806  0.1342 -0.7777
  509TMC3    C2 7560   1.393   4.127  15.530  0.2286 -0.5801 -0.4272
  509TMC3    C3 7561   1.463   4.019  15.572 -1.1745  0.3508  0.1068
  509TMC3    C4 7562   1.191   4.044  15.622  0.0795 -0.8589  0.2052
  509TMC3    C5 7563   1.262   3.933  15.662  0.0546 -0.2967 -0.3362
  509TMC3    C6 7564   1.397   3.918  15.643 -0.5632  0.4487 -0.1299
  509TMC3     C 7565   1.173   4.246  15.493  0.9994  0.4719 -0.0873
  509TMC3     O 7566   1.055   4.254  15.520 -0.2089 -0.1835 -0.2797
  509TMC3     H 7567   1.450   4.202  15.475  0.9045  0.7999  2.1491
  509TMC3    H1 7568   1.087   4.061  15.649  0.1273 -1.2978  0.6641
  509TMC3    H2 7569   1.458   3.834  15.675  1.3522  2.0246  0.2847
  509TMC3    C7 7570   1.209   3.865  15.770 -0.3050 -0.5030  0.1740
  509TMC3    C8 7571   1.607   4.011  15.572  1.0670 -0.2985  0.5847
  509TMC3    O1 7572   1.098   3.900  15.797  0.2701 -0.4721  0.7203
  509TMC3    O2 7573   1.662   3.904  15.565 -0.4556 -0.6253  0.1076
  510MPD2     C 7574   0.223   0.951  14.493  0.4262 -0.3687 -0.0074
  510MPD2    C1 7575   0.219   0.824  14.536  0.2810 -0.2000  0.5500
  510MPD2    C2 7576   0.321   0.731  14.494 -0.0831 -0.2128 -0.0583
  510MPD2    C3 7577   0.418   0.776  14.404  0.9709 -0.1922  0.2067
  510MPD2    C4 7578   0.424   0.906  14.369 -0.4803  0.5281 -0.3165
  510MPD2    C5 7579   0.318   0.990  14.409 -0.1471 -0.3870 -0.0539
  510MPD2     H 7580   0.320   0.628  14.530 -0.4996  0.2232  1.1952
  510MPD2    H1 7581   0.495   0.937  14.293  0.6786  0.7482  0.8634
  510MPD2    H2 7582   0.143   1.022  14.504  0.8080 -0.0627  0.7652
  510MPD2    H3 7583   0.316   1.095  14.382  1.7530 -0.1891  0.5398
  510MPD2     N 7584   0.520   0.683  14.366 -0.0428  0.0705  0.0423
  510MPD2    H5 7585   0.535   0.596  14.416 -0.9131  0.4499  0.9456
  510MPD2    N1 7586   0.105   0.780  14.609 -0.2506  0.0937 -0.0493
  510MPD2    H7 7587   0.032   0.847  14.628 -1.1440 -1.6346  2.7324
  511TMC3    C1 7588   4.667   0.622  14.675 -0.3446 -0.4288  0.3052
  511TMC3    C2 7589   4.627   0.664  14.801  0.2479  0.2728 -0.0682
  511TMC3    C3 7590   4.519   0.593  14.860  0.0333 -0.1487 -0.2275
  511TMC3    C4 7591   4.619   0.508  14.616  0.5490  0.3142  0.1546
  511TMC3    C5 7592   4.525   0.432  14.683 -0.1026 -0.5653  0.2506
  511TMC3    C6 7593   4.477   0.472  14.811  0.3669  0.7778  0.0746
  511TMC3     C 7594   0.073   0.647  14.622 -0.4420 -0.1745 -0.1090
  511TMC3     O 7595   0.133   0.547  14.590  0.1504  0.1650 -0.3312
  511TMC3     H 7596   4.681   0.746  14.847  0.1124  0.0292  0.5229
  511TMC3    H1 7597   4.652   0.473  14.519 -0.5435  0.5899 -0.3118
  511TMC3    H2 7598   4.398   0.414  14.857  2.8650 -3.9264 -1.5402
  511TMC3    C7 7599   4.469   0.320  14.607 -0.3046 -0.1981  0.3752
  511TMC3    C8 7600   4.450   0.647  14.978  0.4491 -0.4321 -0.3455
  511TMC3    O1 7601   4.483   0.323  14.486  0.2986 -0.2519  0.8334
  511TMC3    O2 7602   4.500   0.739  15.047  0.3300  0.2168 -0.4072
  512TMC3    C1 7603   3.176   0.062  13.104  0.5439 -0.5850 -0.0096
  512TMC3    C2 7604   3.272   0.008  13.189 -0.5305 -0.1723 -0.0110
  512TMC3    C3 7605   3.392   4.688  13.139 -0.5257 -0.2832 -0.0634
  512TMC3    C4 7606   3.211   0.075  12.974  0.1901  0.3605  0.0224
  512TMC3    C5 7607   3.320   0.009  12.931  0.0954  0.2907 -0.2428
  512TMC3    C6 7608   3.416   4.678  13.007  0.1918  0.1316 -0.0845
  512TMC3     C 7609   3.038   0.025  13.114  0.6161  0.6875 -0.1245
  512TMC3     O 7610   2.955   0.105  13.072 -0.1228  0.2689  0.0445
  512TMC3     H 7611   3.256   0.016  13.296 -0.3014  0.2172 -0.0077
  512TMC3    H1 7612   3.136   0.108  12.903  1.1840 -0.6259 -1.4910
  512TMC3    H2 7613   3.510   4.652  12.961  0.6070  1.3776  0.0511
  512TMC3    C7 7614   3.303   4.695  12.791  0.1962 -0.5368  0.0949
  512TMC3    C8 7615   3.494   4.628  13.230 -0.4623  0.6987 -0.4356
  512TMC3    O1 7616   3.235   0.042  12.720 -0.3712  0.2643  0.3618
  512TMC3    O2 7617   3.575   4.556  13.180 -0.1615 -0.2075 -0.3309
  513MPD2     C 7618   0.367   4.400  13.187  0.2422 -0.0473 -0.1108
  513MPD2    C1 7619   0.430   4.318  13.098  0.0742 -0.0771  0.7103
  513MPD2    C2 7620   0.557   4.274  13.129 -0.5574  0.0183  0.6004
  513MPD2    C3 7621   0.619   4.306  13.251 -0.2156 -0.3221 -0.0869
  513MPD2    C4 7622   0.551   4.390  13.338  0.0548 -0.4191  0.1485
  513MPD2    C5 7623   0.433   4.442  13.302  0.5826  0.2871  0.2473
  513MPD2     H 7624   0.613   4.224  13.051 -1.0945  1.3053 -0.5906
  513MPD2    H1 7625   0.599   4.428  13.428  0.4085 -2.1584  0.6990
  513MPD2    H2 7626   0.269   4.442  13.168  0.2654  0.5758  1.0847
  513MPD2    H3 7627   0.388   4.514  13.369  1.1295  0.5329  0.3495
  513MPD2     N 7628   0.749   4.254  13.258  0.2732  0.2812 -0.0456
  513MPD2    H5 7629   0.781   4.186  13.189 -1.0454 -0.9902  0.5909
  513MPD2    N1 7630   0.371   4.297  12.980 -0.6344 -1.0299  0.3916
  513MPD2    H7 7631   0.287   4.347  12.954  0.3261  0.8527  0.9065
  514TMC3    C1 7632   0.343   4.198  12.754 -0.2082  0.2091 -0.4014
  514TMC3    C2 7633   0.366   4.322  12.699 -0.0978  0.3563  0.6210
  514TMC3    C3 7634   0.428   4.328  12.578  0.3682  0.2564 -0.3658
  514TMC3    C4 7635   0.352   4.086  12.684  0.0161 -0.0811 -0.5515
  514TMC3    C5 7636   0.405   4.087  12.556  0.3817 -0.4139 -0.7722
  514TMC3    C6 7637   0.439   4.210  12.502 -0.4132  0.2038 -0.1853
  514TMC3     C 7638   0.398   4.192  12.896  0.4326 -0.0925 -0.0678
  514TMC3     O 7639   0.470   4.096  12.906  0.1229  0.0004  0.0689
  514TMC3     H 7640   0.358   4.411  12.760  0.9456  0.6816  0.2798
  514TMC3    H1 7641   0.343   3.996  12.743 -0.1226  1.3904  1.6880
  514TMC3    H2 7642   0.491   4.211  12.407 -0.3782 -0.2277 -0.1718
  514TMC3    C7 7643   0.506   3.986  12.545  0.7042  0.2709  0.4346
  514TMC3    C8 7644   0.520   4.437  12.551  0.5569 -0.8835  0.1935
  514TMC3    O1 7645   0.542   3.951  12.432 -0.0331  0.1237  0.0635
  514TMC3    O2 7646   0.527   4.518  12.639 -0.1893  0.0855 -0.2964
  515MPD2     C 7647   3.527   1.878  15.733 -0.2328  0.5763 -0.2517
  515MPD2    C1 7648   3.537   1.850  15.597  0.6129  0.0349  0.4107
  515MPD2    C2 7649   3.631   1.917  15.516  0.0924 -0.1933 -0.1628
  515MPD2    C3 7650   3.723   2.003  15.571 -0.3283 -0.2356 -0.0829
  515MPD2    C4 7651   3.708   2.029  15.709 -0.0235  0.3302  1.0183
  515MPD2    C5 7652   3.612   1.967  15.789  0.0847 -1.2587  0.4771
  515MPD2     H 7653   3.634   1.885  15.412  0.2039 -1.9160  0.3685
  515MPD2    H1 7654   3.776   2.098  15.758  2.5884 -1.8826  0.4627
  515MPD2    H2 7655   3.451   1.841  15.802  1.7226 -0.7322  1.2118
  515MPD2    H3 7656   3.603   2.007  15.890 -0.7728 -0.9677  0.2875
  515MPD2     N 7657   3.828   2.064  15.497 -0.1176 -0.9400 -0.0165
  515MPD2    H5 7658   3.884   2.121  15.559 -0.5962  0.8666 -1.2610
  515MPD2    N1 7659   3.458   1.750  15.534  0.5165 -0.2342  0.1254
  515MPD2    H7 7660   3.461   1.748  15.432  3.1396  0.6832  0.1898
  516TMC3    C1 7661   3.296   1.581  15.506 -0.4620  0.3992  0.5213
  516TMC3    C2 7662   3.312   1.602  15.373  1.0729  0.0100 -1.0179
  516TMC3    C3 7663   3.265   1.506  15.283  0.0137 -0.2314 -0.6113
  516TMC3    C4 7664   3.228   1.475  15.549  0.8386 -0.4571  0.0740
  516TMC3    C5 7665   3.201   1.376  15.457 -0.7632 -0.5758  0.0003
  516TMC3    C6 7666   3.219   1.387  15.321 -0.1689  0.5443 -0.5691
  516TMC3     C 7667   3.378   1.654  15.600  0.4275 -0.6941  0.0999
  516TMC3     O 7668   3.386   1.622  15.719 -0.0243  0.5133  0.9166
  516TMC3     H 7669   3.356   1.690  15.329  0.1241  0.5844 -0.8232
  516TMC3    H1 7670   3.200   1.456  15.651  0.1348  1.8877  0.3156
  516TMC3    H2 7671   3.211   1.306  15.249 -2.8868 -0.3850  0.7618
  516TMC3    C7 7672   3.167   1.248  15.513 -0.2679 -0.5752  0.0029
  516TMC3    C8 7673   3.237   1.538  15.144 -0.5335 -0.4768 -0.0572
  516TMC3    O1 7674   3.195   1.226  15.633 -0.1804  0.0771  0.4321
  516TMC3    O2 7675   3.216   1.449  15.064  0.0417 -0.0370  0.1136
  517MPD2     C 7676   3.277   2.949   0.481 -0.1010 -0.7390 -0.7499
  517MPD2    C1 7677   3.411   2.971   0.486  0.1305  0.3595 -0.4552
  517MPD2    C2 7678   3.458   3.092   0.535 -0.7429  0.0870 -0.3395
  517MPD2    C3 7679   3.378   3.190   0.591  0.4402  0.1460 -0.6739
  517MPD2    C4 7680   3.239   3.166   0.577  0.5764 -0.3431  0.5820
  517MPD2    C5 7681   3.190   3.048   0.533 -0.4055  0.4047  0.5806
  517MPD2     H 7682   3.565   3.110   0.538 -0.9387  0.7221  2.2361
  517MPD2    H1 7683   3.167   3.244   0.599  0.6559  0.3190 -1.5753
  517MPD2    H2 7684   3.226   2.859   0.449 -1.1987 -0.4090  0.0681
  517MPD2    H3 7685   3.082   3.037   0.524  0.0822  0.1439 -4.8369
  517MPD2     N 7686   3.420   3.308   0.652 -0.5641 -0.3121 -0.3775
  517MPD2    H5 7687   3.347   3.360   0.699  2.0062  2.2103  0.8850
  517MPD2    N1 7688   3.499   2.869   0.434 -0.0473  0.0590  0.0169
  517MPD2    H7 7689   3.592   2.901   0.410  0.3528 -0.5557  0.7449
  518TMC3    C1 7690   3.577   2.666   0.350  0.2457 -0.5114  0.0806
  518TMC3    C2 7691   3.555   2.532   0.329  0.0895 -0.4566  0.4336
  518TMC3    C3 7692   3.646   2.453   0.270  1.0224  0.5042 -0.7070
  518TMC3    C4 7693   3.692   2.721   0.309 -0.9255 -0.5938  0.1327
  518TMC3    C5 7694   3.782   2.641   0.245 -0.5853 -0.2821  0.5914
  518TMC3    C6 7695   3.761   2.510   0.215  0.0426  0.3528 -0.8579
  518TMC3     C 7696   3.463   2.741   0.398 -0.2687 -0.4919  0.1133
  518TMC3     O 7697   3.358   2.679   0.413 -0.1462  0.7548  0.1578
  518TMC3     H 7698   3.464   2.491   0.371 -0.5479  0.4808 -0.0223
  518TMC3    H1 7699   3.705   2.828   0.325  0.8316 -0.8439  0.3876
  518TMC3    H2 7700   3.834   2.451   0.161 -0.2910 -0.0213 -0.8991
  518TMC3    C7 7701   3.910   2.701   0.213 -0.4738 -0.4996  0.5888
  518TMC3    C8 7702   3.626   2.313   0.242 -0.7788 -0.0752 -0.1959
  518TMC3    O1 7703   3.955   2.785   0.287  0.3180  0.7143 -0.4543
  518TMC3    O2 7704   3.715   2.270   0.169 -0.7675 -0.0316  0.4891
  519MPD2     C 7705   4.636   1.680  14.296  0.2377 -0.4078 -0.0732
  519MPD2    C1 7706   4.586   1.553  14.280  0.1023  0.0308 -0.1462
  519MPD2    C2 7707   4.648   1.470  14.188  0.1585  0.1964  0.9143
  519MPD2    C3 7708   0.029   1.517  14.115 -0.0604  0.5963  0.0567
  519MPD2    C4 7709   0.066   1.647  14.127  0.8625  0.3371  0.2955
  519MPD2    C5 7710   0.015   1.726  14.217 -0.1309 -0.1335 -0.0052
  519MPD2     H 7711   4.632   1.363  14.182 -2.7148  0.7386 -1.3068
  519MPD2    H1 7712   0.147   1.686  14.066 -0.2402  2.1948  0.0241
  519MPD2    H2 7713   4.585   1.750  14.361  0.7878 -0.2359  0.1760
  519MPD2    H3 7714   0.054   1.826  14.208  0.7130 -0.4151  0.5054
  519MPD2     N 7715   0.081   1.435  14.009 -0.5975  0.2621 -0.0332
  519MPD2    H5 7716   0.163   1.471  13.961 -0.4606 -1.4265 -1.0608
  519MPD2    N1 7717   4.478   1.507  14.358  0.6119 -0.1757 -0.5159
  519MPD2    H7 7718   4.419   1.571  14.411  0.5544 -0.8878  0.2858
  520TMC3    C1 7719   0.084   1.282  13.829  0.0446 -0.1867  0.3329
  520TMC3    C2 7720   4.724   1.246  13.725  0.2906 -0.1061  0.8369
  520TMC3    C3 7721   0.067   1.223  13.604 -0.2916 -0.6742 -0.3391
  520TMC3    C4 7722   0.222   1.285  13.821  0.1542  0.9449 -0.1477
  520TMC3    C5 7723   0.281   1.262  13.700 -0.0062  0.0202  0.0543
  520TMC3    C6 7724   0.205   1.234  13.588  0.2992 -0.0290 -0.3602
  520TMC3     C 7725   0.016   1.327  13.953 -0.1719 -0.3361  0.6216
  520TMC3     O 7726   4.627   1.276  13.978 -0.0578 -0.2817  0.4940
  520TMC3     H 7727   4.618   1.268  13.733 -0.0139 -1.4995  0.5383
  520TMC3    H1 7728   0.290   1.325  13.895  0.2610  1.0008 -0.2762
  520TMC3    H2 7729   0.245   1.197  13.494  1.2261 -1.4298  0.5940
  520TMC3    C7 7730   0.425   1.247  13.686  0.1361  0.6355 -0.2248
  520TMC3    C8 7731   4.712   1.183  13.486 -0.5807  0.0917  0.1476
  520TMC3    O1 7732   0.476   1.287  13.583  0.3491 -0.0925 -0.1806
  520TMC3    O2 7733   0.032   1.217  13.377  0.0010 -0.0279  0.3926
  521MPD2     C 7734   0.974   4.252  17.587  0.5317 -0.5565 -0.4103
  521MPD2    C1 7735   0.905   4.150  17.522  0.3464  0.1887  0.2401
  521MPD2    C2 7736   0.962   4.029  17.488 -0.0118 -0.1853 -0.2603
  521MPD2    C3 7737   1.095   3.994  17.520  0.2144 -0.1410 -0.3003
  521MPD2    C4 7738   1.165   4.095  17.579 -0.1534  0.1327 -0.3227
  521MPD2    C5 7739   1.104   4.216  17.617 -0.6427  0.0923  0.0639
  521MPD2     H 7740   0.893   3.952  17.454 -2.0750  1.1937  0.7808
  521MPD2    H1 7741   1.270   4.083  17.602 -0.5792 -0.1870  1.4608
  521MPD2    H2 7742   0.933   4.344  17.627  1.2430  0.0345 -1.0477
  521MPD2    H3 7743   1.165   4.282  17.679 -1.9172  0.5416  0.8238
  521MPD2     N 7744   1.152   3.869  17.477 -0.8885 -0.7576  0.5778
  521MPD2    H5 7745   1.090   3.802  17.432 -2.4851  1.2313 -0.1604
  521MPD2    N1 7746   0.771   4.175  17.501 -0.8319 -0.6735 -0.0693
  521MPD2    H7 7747   0.730   4.251  17.554  2.3426  2.5949 -2.1891
  522TMC3    C1 7748   1.321   3.709  17.424  0.3129  0.3810  0.0127
  522TMC3    C2 7749   1.449   3.663  17.430  0.2389 -0.6073  0.1434
  522TMC3    C3 7750   1.477   3.552  17.347  0.2118 -0.9360  0.2058
  522TMC3    C4 7751   1.222   3.657  17.338 -0.3241  0.4555 -0.6523
  522TMC3    C5 7752   1.262   3.541  17.269  0.1873 -0.1253 -0.1330
  522TMC3    C6 7753   1.387   3.492  17.267 -0.1226 -0.1793  0.1819
  522TMC3     C 7754   1.284   3.836  17.485  0.4360 -0.3694  1.1729
  522TMC3     O 7755   1.377   3.891  17.543  0.7662  0.0990  0.5619
  522TMC3     H 7756   1.525   3.717  17.486  1.3513 -1.2257 -0.7539
  522TMC3    H1 7757   1.117   3.684  17.341 -0.2307  0.6873  0.5205
  522TMC3    H2 7758   1.414   3.405  17.208  2.6314  0.7966 -0.0011
  522TMC3    C7 7759   1.169   3.461  17.197 -0.6924  0.0625 -0.1639
  522TMC3    C8 7760   1.620   3.528  17.317 -0.5326  0.3156 -0.6638
  522TMC3    O1 7761   1.192   3.342  17.200  0.2337  0.0961 -0.4107
  522TMC3    O2 7762   1.700   3.568  17.399  0.2912  0.1481  0.0756
  523MPD2     C 7763   3.142   4.323   9.858 -0.3791 -0.2403  0.6276
  523MPD2    C1 7764   3.044   4.250   9.801  0.3563 -0.5220  0.3578
  523MPD2    C2 7765   2.983   4.299   9.685 -0.7224 -0.2601  0.2365
  523MPD2    C3 7766   3.015   4.421   9.620  0.3519 -0.6835  0.4134
  523MPD2    C4 7767   3.117   4.491   9.684  0.7631  0.3422 -0.0682
  523MPD2    C5 7768   3.176   4.439   9.792 -0.2231  0.3920  0.2480
  523MPD2     H 7769   2.907   4.241   9.636 -0.4043 -1.1566  0.8079
  523MPD2    H1 7770   3.147   4.591   9.657 -2.8632  1.3454 -0.3404
  523MPD2    H2 7771   3.202   4.301   9.945 -0.0187 -2.2802 -0.1436
  523MPD2    H3 7772   3.256   4.499   9.834 -1.5439  2.2318  0.1507
  523MPD2     N 7773   2.943   4.464   9.503  0.1335 -0.1581 -0.0194
  523MPD2    H5 7774   2.957   4.559   9.468 -1.8730  0.7315  1.6470
  523MPD2    N1 7775   3.000   4.131   9.875  0.4636 -0.9197  0.5160
  523MPD2    H7 7776   3.058   4.087   9.946  0.3814  1.5611  2.0931
  524TMC3    C1 7777   2.772   4.475   9.350 -0.1909 -0.3488  0.2824
  524TMC3    C2 7778   2.703   4.416   9.251  0.3589 -0.3586 -0.0599
  524TMC3    C3 7779   2.595   4.495   9.203  0.4038 -0.4165 -0.6888
  524TMC3    C4 7780   2.756   4.605   9.397 -0.7386 -0.3057  0.2889
  524TMC3    C5 7781   2.656   4.676   9.342 -0.5667 -0.0972  0.4532
  524TMC3    C6 7782   2.575   4.624   9.242 -0.7957 -0.9582 -0.6183
  524TMC3     C 7783   2.853   4.392   9.431  0.2035 -0.0988  0.5192
  524TMC3     O 7784   2.843   4.267   9.426 -0.1970  0.1590 -0.2577
  524TMC3     H 7785   2.700   4.308   9.238  2.2265 -0.1658 -1.9558
  524TMC3    H1 7786   2.804   4.653   9.481 -0.2070  0.3268 -0.3758
  524TMC3    H2 7787   2.484   4.677   9.214  0.1027 -0.3004 -2.2699
  524TMC3    C7 7788   2.626   0.087   9.408  0.5077 -0.3865 -0.4222
  524TMC3    C8 7789   2.510   4.441   9.105  0.3022  0.6624  0.3752
  524TMC3    O1 7790   2.667   0.116   9.516 -0.5068  0.0293  1.0004
  524TMC3    O2 7791   2.405   4.503   9.079  0.6051 -0.4712 -0.3659
  525MPD2     C 7792   1.444   0.925  14.376  0.3959  0.8420  0.0302
  525MPD2    C1 7793   1.532   0.937  14.482  0.9291  0.0307  0.2034
  525MPD2    C2 7794   1.637   1.025  14.469 -0.6454  0.2439  0.1260
  525MPD2    C3 7795   1.640   1.119  14.362 -0.4249  0.3553  0.5361
  525MPD2    C4 7796   1.548   1.108  14.260 -0.1546 -0.1157 -0.4695
  525MPD2    C5 7797   1.451   1.014  14.274  0.2317  0.4699 -0.2403
  525MPD2     H 7798   1.724   1.013  14.533 -0.6124  1.3812  0.2850
  525MPD2    H1 7799   1.543   1.166  14.168  3.6543  3.8743  1.8313
  525MPD2    H2 7800   1.367   0.849  14.370  0.8014  0.5148 -0.9315
  525MPD2    H3 7801   1.382   1.005  14.191  0.8034 -0.7594 -0.5956
  525MPD2     N 7802   1.732   1.225  14.349  0.3532  0.0097 -0.1345
  525MPD2    H5 7803   1.709   1.290  14.274 -1.2843 -0.0011  0.3687
  525MPD2    N1 7804   1.533   0.852  14.594 -0.4161  0.4561  0.9286
  525MPD2    H7 7805   1.610   0.854  14.660  0.7297  0.1743 -0.3813
  526TMC3    C1 7806   1.458   0.684  14.734  1.0036 -0.6044 -0.7488
  526TMC3    C2 7807   1.360   0.635  14.818  0.1543 -0.2109  0.2209
  526TMC3    C3 7808   1.393   0.529  14.898 -0.4135 -0.2962  0.2284
  526TMC3    C4 7809   1.585   0.636  14.737  0.1947 -0.1863  0.0401
  526TMC3    C5 7810   1.600   0.524  14.810  0.4202 -0.5611 -0.8572
  526TMC3    C6 7811   1.514   0.466  14.884 -0.0447  1.2198 -0.1472
  526TMC3     C 7812   1.427   0.778  14.629 -0.0147  0.1677 -0.6961
  526TMC3     O 7813   1.315   0.788  14.585  0.7869 -0.4570  0.1937
  526TMC3     H 7814   1.258   0.674  14.818  0.5813  0.8816 -0.9068
  526TMC3    H1 7815   1.665   0.674  14.674 -0.4059  2.1561  0.7124
  526TMC3    H2 7816   1.542   0.386  14.951 -0.7987  1.3616  0.3452
  526TMC3    C7 7817   1.735   0.478  14.853 -0.8048  0.0591 -0.7190
  526TMC3    C8 7818   1.350   0.534  15.034 -0.1009 -0.4905 -0.6597
  526TMC3    O1 7819   1.757   0.454  14.967  0.6597  0.5397  0.3164
  526TMC3    O2 7820   1.414   0.469  15.118  0.7001 -0.6080 -0.6973
  527MPD2     C 7821   4.245   3.642   1.098  0.5770 -0.1978 -0.1408
  527MPD2    C1 7822   4.324   3.706   1.179 -0.0333  0.1246 -0.3240
  527MPD2    C2 7823   4.454   3.655   1.193 -0.5063 -0.0031  0.9200
  527MPD2    C3 7824   4.485   3.539   1.117  0.3945  0.6318 -0.5221
  527MPD2    C4 7825   4.394   3.483   1.021 -0.7099 -0.3268 -0.0851
  527MPD2    C5 7826   4.265   3.530   1.027 -0.9900 -0.0165  0.0345
  527MPD2     H 7827   4.526   3.699   1.262 -1.3730 -0.5065  2.1480
  527MPD2    H1 7828   4.414   3.396   0.959  0.1971  2.0434 -3.1558
  527MPD2    H2 7829   4.141   3.672   1.095  0.0851 -1.8016  0.8434
  527MPD2    H3 7830   4.185   3.484   0.970  0.1063 -0.0504 -1.4823
  527MPD2     N 7831   4.613   3.492   1.139  0.2788 -0.6483  0.0349
  527MPD2    H5 7832   4.675   3.535   1.208 -0.8749  0.5901  0.2953
  527MPD2    N1 7833   4.282   3.810   1.271 -0.1932 -0.4569 -0.2637
  527MPD2    H7 7834   4.360   3.849   1.324 -0.6738  0.5388 -0.2984
  528TMC3    C1 7835   4.150   3.937   1.425  0.3794 -0.4330 -0.2571
  528TMC3    C2 7836   4.251   3.933   1.517  0.1635 -0.9309  0.6171
  528TMC3    C3 7837   4.211   3.994   1.635 -0.0732  0.0317 -0.6552
  528TMC3    C4 7838   4.023   3.985   1.444  0.4386  0.4244  0.1532
  528TMC3    C5 7839   3.998   4.041   1.561 -1.3667 -0.4303  0.5527
  528TMC3    C6 7840   4.089   4.050   1.662 -0.5460  0.3583 -0.0528
  528TMC3     C 7841   4.157   3.859   1.305 -0.5769 -0.8450  0.0386
  528TMC3     O 7842   4.053   3.838   1.254 -0.0884  0.1919  0.2264
  528TMC3     H 7843   4.352   3.899   1.498 -0.3556 -1.9022 -0.3750
  528TMC3    H1 7844   3.939   3.976   1.375 -0.7106 -2.7681  1.9607
  528TMC3    H2 7845   4.062   4.087   1.760 -0.1746 -1.2923  0.6818
  528TMC3    C7 7846   3.873   4.112   1.590  0.1578  0.3822 -0.2684
  528TMC3    C8 7847   4.316   4.016   1.732  0.2312  0.2961 -0.8544
  528TMC3    O1 7848   3.854   4.119   1.711 -0.2414 -0.1082  0.8317
  528TMC3    O2 7849   4.431   4.002   1.693 -0.2095  0.3025  0.3813
  529MPD2     C 7850   1.747   1.900   0.285  0.5055  0.1251 -0.1612
  529MPD2    C1 7851   1.885   1.921   0.299  0.0663  0.9769 -0.2211
  529MPD2    C2 7852   1.945   2.033   0.247 -0.0221 -0.8742 -0.2381
  529MPD2    C3 7853   1.870   2.124   0.173 -0.3602 -0.5589 -0.1833
  529MPD2    C4 7854   1.731   2.100   0.167 -0.0756 -0.1041 -0.6585
  529MPD2    C5 7855   1.673   1.987   0.223 -0.4956  0.0160  0.6492
  529MPD2     H 7856   2.051   2.056   0.257 -0.4243  0.2975  1.4289
  529MPD2    H1 7857   1.664   2.170   0.118 -0.2166 -0.3942 -0.8830
  529MPD2    H2 7858   1.704   1.805   0.314  0.8753 -0.9581 -3.1219
  529MPD2    H3 7859   1.566   1.970   0.222 -0.6704  1.0529  1.1033
  529MPD2     N 7860   1.915   2.244   0.114  0.2481 -0.0990  0.2625
  529MPD2    H5 7861   1.857   2.291   0.045  1.0074 -1.6074 -1.4101
  529MPD2    N1 7862   1.966   1.827   0.364  0.1617  0.1185  0.5458
  529MPD2    H7 7863   2.067   1.833   0.360  0.0942 -0.1430 -1.3576
  530TMC3    C1 7864   2.036   1.652   0.504 -0.0736  0.6523 -0.2957
  530TMC3    C2 7865   2.158   1.715   0.508  0.5122  0.1796 -0.0165
  530TMC3    C3 7866   2.254   1.653   0.577  1.0581 -0.2162  0.3555
  530TMC3    C4 7867   2.009   1.523   0.556 -0.5974 -0.6092  0.7525
  530TMC3    C5 7868   2.109   1.473   0.634 -0.4024 -0.1002  0.2578
  530TMC3    C6 7869   2.233   1.538   0.648 -0.4973  0.0412 -0.0348
  530TMC3     C 7870   1.922   1.719   0.439 -0.1010 -0.6047 -0.1603
  530TMC3     O 7871   1.808   1.676   0.462  0.4797  0.1003  0.1681
  530TMC3     H 7872   2.171   1.820   0.482 -0.9750  0.9116  2.2025
  530TMC3    H1 7873   1.909   1.483   0.570 -0.6306 -0.8290 -0.1020
  530TMC3    H2 7874   2.308   1.496   0.714 -0.0673  1.5689  0.4549
  530TMC3    C7 7875   2.071   1.368   0.722  0.6100 -0.5577  0.4710
  530TMC3    C8 7876   2.364   1.740   0.623  0.1098  0.2711 -0.9793
  530TMC3    O1 7877   1.979   1.302   0.670  0.0779 -0.0099 -0.1128
  530TMC3    O2 7878   2.343   1.861   0.622 -0.3011  0.1346  0.2478
  531MPD2     C 7879   0.969   3.853  12.715  0.0634 -0.4643  0.5045
  531MPD2    C1 7880   0.902   3.920  12.816  0.4094 -0.1952  0.0552
  531MPD2    C2 7881   0.767   3.965  12.792  0.5482 -0.0953  0.2342
  531MPD2    C3 7882   0.702   3.932  12.672 -0.0388  0.2821  0.0520
  531MPD2    C4 7883   0.763   3.851  12.578  0.2793 -0.2489  0.7002
  531MPD2    C5 7884   0.893   3.825  12.601  0.5071  0.1190  0.2427
  531MPD2     H 7885   0.704   4.022  12.859  0.5402  1.7653 -1.3905
  531MPD2    H1 7886   0.727   3.804  12.487 -1.1367 -3.7636  3.0458
  531MPD2    H2 7887   1.072   3.823  12.730 -0.0231 -0.5958  0.8357
  531MPD2    H3 7888   0.934   3.755  12.530 -0.9438 -0.6967  0.2033
  531MPD2     N 7889   0.570   3.982  12.663  0.4281 -0.1473  0.1313
  531MPD2    H5 7890   0.527   4.022  12.746 -0.1002  0.0788 -0.2586
  531MPD2    N1 7891   0.982   3.961  12.927 -0.1525 -0.3768  0.5669
  531MPD2    H7 7892   1.080   3.933  12.933 -0.2416 -1.0548 -1.1814
  532TMC3    C1 7893   1.028   4.098  13.109 -0.3807  0.1129 -0.2428
  532TMC3    C2 7894   0.972   4.216  13.160  0.8229  0.0187  0.2640
  532TMC3    C3 7895   0.969   4.237  13.297  0.8118  0.0735 -0.1489
  532TMC3    C4 7896   1.089   4.009  13.191 -0.2665  0.0516 -0.3848
  532TMC3    C5 7897   1.091   4.031  13.326 -0.0534 -0.4023  0.1318
  532TMC3    C6 7898   1.023   4.141  13.380  0.5991 -0.1711  0.1778
  532TMC3     C 7899   0.937   4.048  13.023  0.0905  0.2736 -0.2367
  532TMC3     O 7900   0.823   4.085  13.055  0.0978  0.4392 -0.4092
  532TMC3     H 7901   0.925   4.286  13.092 -2.1605 -1.9509  0.2972
  532TMC3    H1 7902   1.100   3.908  13.153  0.3024  0.2305 -0.6817
  532TMC3    H2 7903   1.006   4.157  13.485 -1.4672 -1.5423  0.0412
  532TMC3    C7 7904   1.188   3.956  13.406 -0.4845  0.3659 -0.1390
  532TMC3    C8 7905   0.842   4.293  13.346 -0.4115 -0.2736 -0.1681
  532TMC3    O1 7906   1.167   3.937  13.527 -0.7109 -0.0050  0.2178
  532TMC3    O2 7907   0.837   4.377  13.434 -0.1298 -0.4043 -0.1572
  533TMC3    C1 7908   1.913   1.373  14.399 -0.4623 -0.7526  0.4307
  533TMC3    C2 7909   2.022   1.391  14.469  0.7999  0.0807 -0.0351
  533TMC3    C3 7910   2.069   1.512  14.474 -0.1463 -0.5620 -0.5345
  533TMC3    C4 7911   1.847   1.473  14.336  0.6476 -0.4953  0.1635
  533TMC3    C5 7912   1.882   1.603  14.352 -0.1398  0.0794  0.1244
  533TMC3    C6 7913   1.999   1.623  14.434  0.1210 -0.1746  0.2507
  533TMC3     C 7914   1.840   1.240  14.423  0.0177  0.6850 -0.3092
  533TMC3     O 7915   1.877   1.165  14.509 -0.1109  0.4818  0.0320
  533TMC3     H 7916   2.078   1.308  14.509 -0.5296 -0.8548 -0.1039
  533TMC3    H1 7917   1.752   1.456  14.286 -0.4496  0.9089  1.8001
  533TMC3    H2 7918   2.048   1.719  14.448  2.1260 -0.9080 -1.6849
  533TMC3    C7 7919   1.775   1.671  14.423 -0.0927  0.1905  0.6074
  533TMC3    C8 7920   2.173   1.540  14.564  0.4646  0.6614 -0.3597
  533TMC3    O1 7921   1.674   1.604  14.426 -0.2790  0.5793 -0.1085
  533TMC3    O2 7922   2.178   1.478  14.668  0.6740 -0.6371  0.2520
  534MPD2     C 7923   4.667   2.363   1.819  0.5424 -0.7454 -0.2260
  534MPD2    C1 7924   4.684   2.430   1.698 -0.6430 -0.5952  0.7754
  534MPD2    C2 7925   4.643   2.374   1.580  0.8892  0.0746  0.1923
  534MPD2    C3 7926   4.570   2.256   1.589 -0.1967  0.2346  0.1117
  534MPD2    C4 7927   4.557   2.184   1.709  0.9762  0.2320 -0.7861
  534MPD2    C5 7928   4.608   2.240   1.822  0.3402 -0.1545 -0.3955
  534MPD2     H 7929   4.655   2.432   1.489 -4.3677  1.2055  0.2442
  534MPD2    H1 7930   4.501   2.092   1.710  1.1346  0.1317 -1.1861
  534MPD2    H2 7931   4.698   2.392   1.919 -0.9210 -0.1674  0.0603
  534MPD2    H3 7932   4.602   2.189   1.917  1.0007  1.3234  0.4368
  534MPD2     N 7933   4.499   2.198   1.483 -0.7510  0.0831  0.4568
  534MPD2    H5 7934   4.422   2.133   1.496 -0.3520 -0.1321  1.7474
  534MPD2    N1 7935   0.033   2.549   1.693  0.9519  0.2826  0.2189
  534MPD2    H7 7936   0.049   2.593   1.603 -1.1717 -0.1668 -0.3711
  535TMC3    C1 7937   4.414   2.183   1.271 -0.1253 -0.1314  0.2607
  535TMC3    C2 7938   4.301   2.140   1.343  0.2746 -0.6778  0.1957
  535TMC3    C3 7939   4.227   2.041   1.281  0.2067 -0.6107  0.0078
  535TMC3    C4 7940   4.448   2.129   1.152  1.6302  0.1961 -0.4130
  535TMC3    C5 7941   4.384   2.021   1.103 -0.5100  0.3647 -0.1431
  535TMC3    C6 7942   4.264   1.974   1.166  0.1109 -0.0426  0.0779
  535TMC3     C 7943   4.517   2.235   1.348  0.9327  0.3809 -0.4475
  535TMC3     O 7944   4.610   2.288   1.285 -0.1855  1.1454  0.1445
  535TMC3     H 7945   4.260   2.204   1.420  1.8411 -1.6484  1.8512
  535TMC3    H1 7946   4.545   2.154   1.109  2.2499 -0.1163  0.7944
  535TMC3    H2 7947   4.188   1.920   1.111  0.7419  0.0398 -0.8756
  535TMC3    C7 7948   4.458   1.937   1.011 -0.3448 -0.5143  0.4488
  535TMC3    C8 7949   4.080   2.056   1.301  0.2145 -0.0687 -0.3474
  535TMC3    O1 7950   4.547   1.996   0.949  0.0648  0.0102  0.6767
  535TMC3    O2 7951   3.999   2.031   1.213  0.0208 -0.2094  0.3689
  536MPD2     C 7952   2.916   0.658  16.505 -0.1314  0.0158  0.4510
  536MPD2    C1 7953   2.861   0.560  16.434 -0.3797 -0.3559  0.7270
  536MPD2    C2 7954   2.810   0.598  16.307  0.3501 -0.4572  0.2868
  536MPD2    C3 7955   2.819   0.728  16.264 -0.2942  0.3607  0.2611
  536MPD2    C4 7956   2.882   0.825  16.340  0.1911  0.6266 -0.1668
  536MPD2    C5 7957   2.915   0.794  16.468  0.6941  0.3884 -0.3678
  536MPD2     H 7958   2.756   0.522  16.251 -2.2531  1.3539  0.3502
  536MPD2    H1 7959   2.878   0.928  16.305  1.3125  0.0595 -1.9980
  536MPD2    H2 7960   2.974   0.634  16.593  1.0307 -1.4800 -0.7372
  536MPD2    H3 7961   2.952   0.868  16.538  0.3958 -0.0884  0.2928
  536MPD2     N 7962   2.792   0.759  16.126 -0.0202 -0.2587  0.3478
  536MPD2    H5 7963   2.820   0.851  16.093 -3.3917  0.8763  0.7279
  536MPD2    N1 7964   2.878   0.429  16.471 -0.9901 -0.2973  0.1222
  536MPD2    H7 7965   2.947   0.403  16.541  1.2486 -0.6739 -2.2160
  537TMC3    C1 7966   2.861   0.200  16.481  0.0825  0.3094 -0.4092
  537TMC3    C2 7967   2.994   0.182  16.470  0.3321  0.7951  0.0322
  537TMC3    C3 7968   3.058   0.084  16.540 -0.3013 -0.5187  0.3988
  537TMC3    C4 7969   2.781   0.106  16.531 -0.1255  0.0510 -0.4404
  537TMC3    C5 7970   2.848   0.011  16.616  0.2955 -0.1111 -0.0694
  537TMC3    C6 7971   2.984   4.719  16.618  0.1406 -0.6273  0.5284
  537TMC3     C 7972   2.803   0.324  16.435 -0.0181 -0.0940 -0.0072
  537TMC3     O 7973   2.690   0.325  16.385  0.1793  0.4343  1.0469
  537TMC3     H 7974   3.039   0.257  16.406  0.6521 -0.2627 -0.9740
  537TMC3    H1 7975   2.674   0.122  16.536 -0.2455 -1.2215  1.1295
  537TMC3    H2 7976   3.036   4.635  16.663  1.7800  0.5347  0.8366
  537TMC3    C7 7977   2.761   4.653  16.699 -0.5052  0.1423  0.0804
  537TMC3    C8 7978   3.196   0.106  16.578 -0.3261  0.2056  0.1583
  537TMC3    O1 7979   2.638   4.643  16.676  0.2056 -1.0520  0.6245
  537TMC3    O2 7980   3.226   0.086  16.696  0.0654 -0.2182  0.1528
  538TMC3    C1 7981   3.805   4.085  10.472  0.3960  0.2199  0.0176
  538TMC3    C2 7982   3.810   3.953  10.445  0.2457 -0.6412  0.8721
  538TMC3    C3 7983   3.713   3.909  10.347  0.4103 -0.0464  0.0869
  538TMC3    C4 7984   3.714   4.166  10.408  0.2651  0.0973 -0.5294
  538TMC3    C5 7985   3.633   4.119  10.307 -0.3757  0.4962 -0.5045
  538TMC3    C6 7986   3.625   3.989  10.278  0.2932 -0.4493  0.0717
  538TMC3     C 7987   3.865   4.131  10.596 -0.8332 -0.3971  0.5833
  538TMC3     O 7988   3.799   4.204  10.669 -0.1613  0.4220  0.4621
  538TMC3     H 7989   3.869   3.886  10.507  1.7449 -0.5047 -0.4019
  538TMC3    H1 7990   3.719   4.269  10.442 -2.2233 -0.1359  0.5529
  538TMC3    H2 7991   3.557   3.945  10.206 -0.5779  1.3972 -0.2468
  538TMC3    C7 7992   3.522   4.203  10.268  0.0258 -0.2912  0.4765
  538TMC3    C8 7993   3.716   3.769  10.308 -0.0721 -0.5362 -0.2725
  538TMC3    O1 7994   3.423   4.143  10.219  0.3151 -0.2007 -0.0363
  538TMC3    O2 7995   3.642   3.733  10.219 -0.1646  0.0635 -0.0445
  539MPD2     C 7996   3.601   2.572  11.242  0.5414 -0.4035 -0.5904
  539MPD2    C1 7997   3.572   2.665  11.143  0.6989  0.1348  0.2850
  539MPD2    C2 7998   3.507   2.786  11.173 -0.6306  0.8182  0.0068
  539MPD2    C3 7999   3.477   2.815  11.302 -0.5412 -0.3279 -0.0182
  539MPD2    C4 8000   3.512   2.723  11.403 -0.0429  0.1135 -0.5904
  539MPD2    C5 8001   3.569   2.605  11.373 -0.1361  0.3217  0.6080
  539MPD2     H 8002   3.475   2.854  11.095  1.1396  0.0033 -1.4516
  539MPD2    H1 8003   3.504   2.747  11.509 -0.9367  0.5839 -0.7655
  539MPD2    H2 8004   3.642   2.475  11.218  1.6229 -0.3642  1.0817
  539MPD2    H3 8005   3.587   2.533  11.453  1.1996  0.4207  0.3865
  539MPD2     N 8006   3.440   2.946  11.341 -0.3245 -0.2551  0.5882
  539MPD2    H5 8007   3.449   2.973  11.439  1.6015  1.3802 -0.0429
  539MPD2    N1 8008   3.624   2.648  11.006  0.1281 -0.6268  0.1850
  539MPD2    H7 8009   3.607   2.729  10.948 -1.7782 -0.4440  0.9780
  540TMC3    C1 8010   3.397   3.176  11.295 -0.7763 -0.0032 -0.1196
  540TMC3    C2 8011   3.343   3.269  11.208 -0.5920 -0.2055  0.8515
  540TMC3    C3 8012   3.292   3.385  11.261  0.2852 -0.5515 -0.0758
  540TMC3    C4 8013   3.408   3.200  11.434  0.1826  0.9186  0.3098
  540TMC3    C5 8014   3.368   3.330  11.476  0.0555 -0.8429 -0.1508
  540TMC3    C6 8015   3.295   3.412  11.391 -0.4666  1.0067 -0.2766
  540TMC3     C 8016   3.401   3.040  11.249 -0.5880  0.5324  0.1313
  540TMC3     O 8017   3.368   3.022  11.134 -0.6318  0.7927 -0.3644
  540TMC3     H 8018   3.334   3.245  11.103  0.4638  0.9457  0.4955
  540TMC3    H1 8019   3.443   3.122  11.502  0.3402 -0.9881 -1.9656
  540TMC3    H2 8020   3.238   3.498  11.425 -0.0951  0.8677  0.7132
  540TMC3    C7 8021   3.325   3.337  11.612  0.1649 -0.0380  0.3971
  540TMC3    C8 8022   3.211   3.477  11.180  0.1901 -0.2263 -0.3575
  540TMC3    O1 8023   3.314   3.226  11.660 -0.5074 -0.5904 -0.0404
  540TMC3    O2 8024   3.206   3.590  11.221  0.3980 -0.0387 -0.2241
  541MPD2     C 8025   1.902   0.113  13.404 -0.5596 -0.4944 -0.3068
  541MPD2    C1 8026   1.954   4.717  13.346 -0.1431  0.2892  0.1382
  541MPD2    C2 8027   1.992   4.715  13.215 -0.1022  0.2023 -0.5309
  541MPD2    C3 8028   1.980   0.107  13.137 -0.1652  0.2617  0.4304
  541MPD2    C4 8029   1.926   0.218  13.193  0.4379 -0.5124  0.8667
  541MPD2    C5 8030   1.878   0.223  13.319  0.3244 -0.4328  0.5789
  541MPD2     H 8031   2.038   4.626  13.173  0.1778 -0.3462  0.9293
  541MPD2    H1 8032   1.898   0.293  13.119  4.0231 -0.4704 -0.4674
  541MPD2    H2 8033   1.860   0.122  13.503  0.7811  1.6646  0.0463
  541MPD2    H3 8034   1.833   0.310  13.364 -0.4826 -0.0817 -0.9082
  541MPD2     N 8035   2.011   0.119  13.004 -0.2711  0.2179 -0.4451
  541MPD2    H5 8036   1.997   0.215  12.972 -1.6813  0.4867  0.9894
  541MPD2    N1 8037   1.981   4.604  13.433  0.1500  0.0637 -0.4902
  541MPD2    H7 8038   2.011   4.518  13.388  2.3020  0.3630  0.3500
  542TMC3    C1 8039   2.151   0.107  12.810 -0.0867 -1.0652  0.1143
  542TMC3    C2 8040   2.176   0.044  12.694 -0.7866 -0.9134 -0.5797
  542TMC3    C3 8041   2.196   0.115  12.585 -0.0917 -0.2757 -0.4521
  542TMC3    C4 8042   2.178   0.243  12.816 -0.6005 -0.2558 -0.5900
  542TMC3    C5 8043   2.196   0.313  12.703 -0.3212 -0.9175  0.5059
  542TMC3    C6 8044   2.201   0.253  12.583 -0.0675  0.5788 -0.5941
  542TMC3     C 8045   2.094   0.037  12.927  0.1464 -0.3141  0.2817
  542TMC3     O 8046   2.139   4.651  12.944 -0.4449  0.0377 -0.3670
  542TMC3     H 8047   2.144   4.665  12.684  1.1501 -1.5055 -0.6492
  542TMC3    H1 8048   2.160   0.291  12.912  3.7735  0.9931 -0.3923
  542TMC3    H2 8049   2.219   0.312  12.494 -1.5197  0.3565 -1.0347
  542TMC3    C7 8050   2.159   0.453  12.722  0.6808  0.3429  0.1174
  542TMC3    C8 8051   2.252   0.051  12.467  0.3885  0.5987 -0.2045
  542TMC3    O1 8052   2.160   0.498  12.839  0.2149 -0.2401  0.2316
  542TMC3    O2 8053   2.276   0.121  12.372  0.4860  0.3880 -0.2512
  543TMC3    C1 8054   1.829   1.276  17.076  0.0152  0.1096 -0.0618
  543TMC3    C2 8055   1.804   1.148  17.126 -0.4365 -0.4736  0.3459
  543TMC3    C3 8056   1.797   1.135  17.257 -0.3570  0.1057 -0.5773
  543TMC3    C4 8057   1.843   1.382  17.164  0.8898  0.5333  0.4498
  543TMC3    C5 8058   1.820   1.368  17.298 -0.0291 -0.0599 -0.6373
  543TMC3    C6 8059   1.798   1.243  17.346  0.2036  0.3421 -0.0908
  543TMC3     C 8060   1.880   1.301  16.942  0.9931  0.1603  0.7335
  543TMC3     O 8061   1.943   1.402  16.929 -0.0165  0.2121 -0.0683
  543TMC3     H 8062   1.797   1.062  17.060  1.7454 -1.0505  0.8745
  543TMC3    H1 8063   1.850   1.483  17.125 -1.0112  0.2815 -0.5482
  543TMC3    H2 8064   1.763   1.227  17.447 -1.8301  1.9432 -0.5538
  543TMC3    C7 8065   1.849   1.463  17.404 -0.4454 -0.1631 -0.4568
  543TMC3    C8 8066   1.804   1.001  17.313  0.1533  0.4943 -0.7149
  543TMC3    O1 8067   1.848   1.420  17.523 -0.6759  0.1175  0.2967
  543TMC3    O2 8068   1.762   0.913  17.242 -0.5390  0.3602 -0.3976
  544MPD2     C 8069   1.814   0.681   0.006 -0.0028 -0.6857  0.2986
  544MPD2    C1 8070   1.745   0.665  17.583  0.5067 -0.7970 -0.1540
  544MPD2    C2 8071   1.753   0.771  17.494  0.2490 -0.1433 -0.3856
  544MPD2    C3 8072   1.824   0.887  17.531 -0.2488 -0.1717  0.6657
  544MPD2    C4 8073   1.880   0.894  17.654  0.0602 -0.6389 -0.4639
  544MPD2    C5 8074   1.878   0.794   0.044  0.1854  0.0744 -0.9898
  544MPD2     H 8075   1.703   0.772  17.398 -0.8286  0.9495  0.1790
  544MPD2    H1 8076   1.927   0.986  17.686  1.0546 -0.6184 -1.9517
  544MPD2    H2 8077   1.828   0.596   0.072  2.5642 -1.5807 -1.4066
  544MPD2    H3 8078   1.936   0.806   0.135  1.1100 -2.1044 -1.2753
  544MPD2     N 8079   1.847   0.996  17.445  0.3633  0.8717  0.2755
  544MPD2    H5 8080   1.883   1.081  17.488  1.1493 -0.3026  1.8929
  544MPD2    N1 8081   1.684   0.544  17.554  0.2154  0.1497 -0.2607
  544MPD2    H7 8082   1.678   0.477  17.630 -0.5414  0.5597  0.0360
  545TMC3    C1 8083   1.587   0.367  17.430  0.5917 -0.0895 -0.4883
  545TMC3    C2 8084   1.484   0.333  17.344  0.2854  0.4426  0.3935
  545TMC3    C3 8085   1.458   0.201  17.317 -0.0607 -0.3724  0.1313
  545TMC3    C4 8086   1.667   0.276  17.482  0.7101  0.2106 -0.0352
  545TMC3    C5 8087   1.634   0.140  17.455 -0.2538  0.6293 -0.9945
  545TMC3    C6 8088   1.529   0.104  17.382  0.3736 -0.0271 -0.6241
  545TMC3     C 8089   1.630   0.505  17.433  0.3369 -0.0594  0.0736
  545TMC3     O 8090   1.597   0.577  17.337  0.2828  0.2995 -0.7292
  545TMC3     H 8091   1.429   0.419  17.306  0.5716  0.8547  0.9143
  545TMC3    H1 8092   1.762   0.304  17.526  0.1286  0.1634  1.2483
  545TMC3    H2 8093   1.513   4.724  17.358 -0.1048  0.6994 -3.4387
  545TMC3    C7 8094   1.715   0.024  17.490  0.3690 -0.6760  0.1627
  545TMC3    C8 8095   1.323   0.171  17.278 -0.0512  0.1964 -0.2863
  545TMC3    O1 8096   1.686   4.639  17.448  0.0549 -0.0701 -0.4585
  545TMC3    O2 8097   1.262   0.258  17.224  0.6322  0.2104 -0.3712
  546MPD2     C 8098   3.542   0.922  17.192  0.3450 -0.9123 -0.3857
  546MPD2    C1 8099   3.459   1.023  17.161  0.0528  1.0074  0.4613
  546MPD2    C2 8100   3.483   1.153  17.214 -0.2950 -0.0513 -0.0083
  546MPD2    C3 8101   3.589   1.169  17.299  0.0679  0.5435 -0.4448
  546MPD2    C4 8102   3.685   1.076  17.311 -0.5765 -0.7463 -0.1499
  546MPD2    C5 8103   3.656   0.951  17.267  0.6564 -0.1686 -0.6120
  546MPD2     H 8104   3.413   1.234  17.200 -0.2779  0.0226  0.3203
  546MPD2    H1 8105   3.782   1.091  17.357 -0.7138  1.0310 -0.4270
  546MPD2    H2 8106   3.529   0.820  17.157  1.7132 -0.7053 -1.4906
  546MPD2    H3 8107   3.731   0.876  17.284  2.0365  1.5940  1.1117
  546MPD2     N 8108   3.615   1.293  17.367 -0.1927  0.3690  0.0945
  546MPD2    H5 8109   3.709   1.315  17.396 -0.0509  0.7890 -0.7126
  546MPD2    N1 8110   3.344   0.984  17.092 -0.3876 -0.3625 -0.3263
  546MPD2    H7 8111   3.324   0.886  17.079 -2.8999 -0.0651  1.4589
  547TMC3    C1 8112   3.145   1.015  16.981  0.4756  0.4043 -0.3598
  547TMC3    C2 8113   3.082   1.085  16.885 -0.3037  0.2403 -0.0187
  547TMC3    C3 8114   2.948   1.071  16.876 -0.4917  0.1329  0.7475
  547TMC3    C4 8115   3.087   0.917  17.056 -0.0584  0.3753  0.6921
  547TMC3    C5 8116   2.954   0.893  17.016 -0.2560 -0.0011  0.5933
  547TMC3    C6 8117   2.877   0.977  16.943  0.0039  0.3692  0.5300
  547TMC3     C 8118   3.266   1.074  17.028 -0.4536  0.8817 -0.3527
  547TMC3     O 8119   3.280   1.195  17.007 -0.5424  0.2498 -0.4253
  547TMC3     H 8120   3.129   1.164  16.827  0.9587  0.5692  1.4339
  547TMC3    H1 8121   3.126   0.860  17.139  0.2408  0.0463  0.3262
  547TMC3    H2 8122   2.770   0.965  16.928 -0.3111 -1.3795  4.1164
  547TMC3    C7 8123   2.900   0.763  17.059 -0.2495  0.4891  1.0258
  547TMC3    C8 8124   2.879   1.123  16.760  0.8333  0.0042  0.3883
  547TMC3    O1 8125   2.955   0.705  17.153 -0.4503  0.3703  0.2021
  547TMC3    O2 8126   2.761   1.146  16.777  0.5186 -0.4212 -0.4019
  548MPD2     C 8127   2.759   1.912  11.907 -0.6883 -0.0177  0.1620
  548MPD2    C1 8128   2.801   1.866  12.029 -0.5933  0.0455 -0.2589
  548MPD2    C2 8129   2.910   1.780  12.037  0.5825 -0.5272 -0.4540
  548MPD2    C3 8130   2.972   1.738  11.921  0.5060  0.8919  0.5063
  548MPD2    C4 8131   2.937   1.786  11.796 -0.2095  0.4683  0.2474
  548MPD2    C5 8132   2.819   1.873  11.791 -0.1989  0.3752  0.3598
  548MPD2     H 8133   2.952   1.749  12.133  1.0165  2.6114  0.3820
  548MPD2    H1 8134   2.980   1.761  11.700 -0.8660 -0.4672  0.1931
  548MPD2    H2 8135   2.672   1.976  11.893  0.0458  1.1656  1.0902
  548MPD2    H3 8136   2.794   1.919  11.696  0.1620 -1.8253 -0.8131
  548MPD2     N 8137   3.085   1.659  11.937  0.2108 -0.1565 -0.5027
  548MPD2    H5 8138   3.103   1.631  12.033  0.7794  1.3260 -0.1673
  548MPD2    N1 8139   2.728   1.901  12.146  0.1695 -0.1567  0.6086
  548MPD2    H7 8140   2.638   1.943  12.125 -0.9500 -2.0245  1.6907
  549TMC3    C1 8141   2.638   1.879  12.357 -0.2920 -0.1588 -0.1413
  549TMC3    C2 8142   2.557   1.991  12.329  0.4816  0.0378 -0.2538
  549TMC3    C3 8143   2.434   1.990  12.400 -0.2100  0.1253  0.2441
  549TMC3    C4 8144   2.602   1.782  12.452  0.4625 -0.5340 -0.9192
  549TMC3    C5 8145   2.480   1.787  12.508 -0.9193 -0.8043 -0.2622
  549TMC3    C6 8146   2.392   1.894  12.479 -0.0135  0.3030  0.0080
  549TMC3     C 8147   2.746   1.850  12.270 -0.3667 -0.5638 -0.8037
  549TMC3     O 8148   2.832   1.775  12.319 -0.0931  0.6149 -0.2723
  549TMC3     H 8149   2.599   2.076  12.276 -0.5633  1.5262  1.3081
  549TMC3    H1 8150   2.668   1.698  12.470 -1.2098 -1.6122  0.1205
  549TMC3    H2 8151   2.293   1.900  12.523 -0.2065 -2.3264 -0.0122
  549TMC3    C7 8152   2.435   1.695  12.614 -0.6230  0.4271 -0.3977
  549TMC3    C8 8153   2.332   2.101  12.382 -0.3747 -0.1891  0.1134
  549TMC3    O1 8154   2.327   1.715  12.667  0.5605  0.3909  0.1699
  549TMC3    O2 8155   2.213   2.068  12.375 -0.1271  0.4089  0.3795
  550TMC3    C1 8156   1.512   3.924  12.690  0.1913  0.4953 -0.0000
  550TMC3    C2 8157   1.439   4.020  12.760 -0.0135 -0.0844  0.0388
  550TMC3    C3 8158   1.469   4.150  12.730 -0.7545  0.5495  0.6882
  550TMC3    C4 8159   1.609   3.961  12.596  0.4004 -0.3323 -0.6749
  550TMC3    C5 8160   1.622   4.094  12.562  0.4385  0.2333  1.0241
  550TMC3    C6 8161   1.555   4.190  12.628 -0.0525  0.4058 -0.3742
  550TMC3     C 8162   1.416   3.821  12.653 -0.2586 -0.1774  0.0195
  550TMC3     O 8163   1.334   3.790  12.737  0.6608  0.7685 -0.1983
  550TMC3     H 8164   1.363   4.001  12.835  0.6668  0.2531  0.8215
  550TMC3    H1 8165   1.659   3.885  12.538  0.6193 -1.6402  1.2143
  550TMC3    H2 8166   1.576   4.295  12.606  0.7357  0.2956 -0.1502
  550TMC3    C7 8167   1.594   4.108  12.414 -0.8708 -0.0476  0.2853
  550TMC3    C8 8168   1.358   4.242  12.750  0.2852  0.6896 -0.0699
  550TMC3    O1 8169   1.533   4.209  12.377 -0.0676  0.1446 -0.1725
  550TMC3    O2 8170   1.389   4.354  12.788  0.0057  0.9174 -0.2316
  551TMC3    C1 8171   3.782   2.389  12.926  0.2618  0.1019 -0.7491
  551TMC3    C2 8172   3.873   2.446  12.840 -0.0379 -1.1219 -0.1730
  551TMC3    C3 8173   4.007   2.426  12.872 -0.7343  0.0286 -0.9457
  551TMC3    C4 8174   3.818   2.327  13.042  0.4102  0.4536  0.3141
  551TMC3    C5 8175   3.952   2.335  13.078 -0.1583 -0.8396  0.2813
  551TMC3    C6 8176   4.054   2.370  12.990  0.0801 -1.1816  0.4743
  551TMC3     C 8177   3.650   2.361  12.869  0.1575  0.3131  0.4076
  551TMC3     O 8178   3.651   2.364  12.745 -0.3474  0.9303  0.7766
  551TMC3     H 8179   3.835   2.473  12.742 -0.9360 -1.5639  0.0585
  551TMC3    H1 8180   3.749   2.301  13.121  2.2366 -1.9550  1.1284
  551TMC3    H2 8181   4.158   2.378  13.018  0.9767 -1.3486 -2.7398
  551TMC3    C7 8182   3.977   2.346  13.220 -0.1470  0.2876  0.0793
  551TMC3    C8 8183   4.100   2.449  12.767  0.0376  0.6053 -0.0751
  551TMC3    O1 8184   3.880   2.356  13.295 -0.0644  0.0620 -0.4107
  551TMC3    O2 8185   4.205   2.383  12.759  0.6231  0.2288 -0.2245
  552MPD2     C 8186   0.743   4.111  13.620  0.3484 -0.2350  0.2244
  552MPD2    C1 8187   0.815   4.018  13.690 -0.1780  0.4428  0.3121
  552MPD2    C2 8188   0.850   4.051  13.822 -0.1072 -0.5585 -0.4251
  552MPD2    C3 8189   0.832   4.177  13.878 -0.6106 -0.3422 -0.2037
  552MPD2    C4 8190   0.767   4.268  13.801  0.1109  0.0131 -0.1140
  552MPD2    C5 8191   0.716   4.231  13.679 -0.1149  0.0417 -0.0466
  552MPD2     H 8192   0.901   3.970  13.873 -1.5257 -1.3009 -0.1756
  552MPD2    H1 8193   0.757   4.372  13.829 -0.8144  0.2723 -1.4201
  552MPD2    H2 8194   0.725   4.108  13.513  0.1937  1.3526  0.2144
  552MPD2    H3 8195   0.668   4.307  13.619 -1.4722 -0.8172 -0.0551
  552MPD2     N 8196   0.872   4.211  14.007 -0.5412 -0.4948  0.1032
  552MPD2    H5 8197   0.898   4.131  14.065 -0.3481  0.5531  1.4666
  552MPD2    N1 8198   0.865   3.905  13.628 -0.2612 -0.4623 -0.8836
  552MPD2    H7 8199   0.940   3.856  13.676 -0.9173 -1.5134 -0.9146
  553TMC3    C1 8200   0.921   3.750  13.462  0.4707 -0.1693 -0.2349
  553TMC3    C2 8201   0.945   3.729  13.333  0.5869 -0.8370  0.1491
  553TMC3    C3 8202   1.031   3.628  13.294  0.0032 -0.7491  0.0961
  553TMC3    C4 8203   0.976   3.669  13.558 -0.6992 -0.4779 -0.8567
  553TMC3    C5 8204   1.078   3.592  13.516  0.1216 -0.6299  0.3762
  553TMC3    C6 8205   1.115   3.575  13.382  0.0669  0.0792  0.2024
  553TMC3     C 8206   0.835   3.861  13.499 -0.5574 -0.3905  0.2359
  553TMC3     O 8207   0.758   3.907  13.416 -0.2714 -1.0336 -0.2798
  553TMC3     H 8208   0.904   3.793  13.256  0.9032 -1.4209 -0.5052
  553TMC3    H1 8209   0.941   3.679  13.660  2.9860  1.3018  0.2447
  553TMC3    H2 8210   1.176   3.492  13.350 -0.6343 -0.7037  0.9039
  553TMC3    C7 8211   1.134   3.501  13.619 -0.4753 -0.4837  0.4039
  553TMC3    C8 8212   1.059   3.602  13.153 -0.2522 -0.6426 -0.2651
  553TMC3    O1 8213   1.175   3.400  13.574 -0.7376  0.4664 -0.1527
  553TMC3    O2 8214   1.169   3.552  13.136 -0.5382  0.6709  0.3855
  554TMC3    C1 8215   2.243   3.347  11.013 -0.1025 -0.0290 -0.2067
  554TMC3    C2 8216   2.134   3.341  10.927  0.1387  0.6524  0.2130
  554TMC3    C3 8217   2.126   3.448  10.836  1.0507  0.3150 -0.1170
  554TMC3    C4 8218   2.326   3.461  11.021 -0.2061  0.4828 -0.7169
  554TMC3    C5 8219   2.304   3.566  10.940  0.3111 -0.1145  0.2569
  554TMC3    C6 8220   2.204   3.560  10.849  0.3487 -0.1942 -0.3785
  554TMC3     C 8221   2.234   3.245  11.116 -0.2889 -0.2120  0.7035
  554TMC3     O 8222   2.123   3.188  11.124 -0.2233  0.1587  0.4759
  554TMC3     H 8223   2.077   3.248  10.917  0.5956  0.6804 -2.7557
  554TMC3    H1 8224   2.405   3.466  11.096 -0.2692 -0.7948 -0.5609
  554TMC3    H2 8225   2.195   3.644  10.782 -1.6006  0.5800  0.8393
  554TMC3    C7 8226   2.424   3.637  10.906  0.4209  0.6878  1.0869
  554TMC3    C8 8227   2.094   3.422  10.699  0.5215  0.2788  0.0120
  554TMC3    O1 8228   2.442   3.638  10.785 -0.0899  0.2091 -0.6230
  554TMC3    O2 8229   2.054   3.521  10.636 -0.3459  0.0957 -0.0923
  555TMC3    C1 8230   1.934   2.623  14.706 -0.1855 -0.1133  0.1640
  555TMC3    C2 8231   1.935   2.732  14.790 -0.5015 -0.2122  0.0175
  555TMC3    C3 8232   2.012   2.725  14.899 -1.2530 -0.4092 -0.6861
  555TMC3    C4 8233   2.014   2.513  14.723 -0.3961 -0.8882 -0.0037
  555TMC3    C5 8234   2.093   2.508  14.837 -0.5560  0.4397  0.2434
  555TMC3    C6 8235   2.088   2.614  14.924  0.0114 -0.7536  0.2011
  555TMC3     C 8236   1.898   2.648  14.576 -0.3710 -1.0249 -1.0199
  555TMC3     O 8237   1.983   2.625  14.492  0.0224 -0.0392  0.2496
  555TMC3     H 8238   1.882   2.824  14.769  0.7784  0.4897 -0.1232
  555TMC3    H1 8239   2.005   2.437  14.647 -1.0667 -1.3328  0.5215
  555TMC3    H2 8240   2.148   2.607  15.013 -0.2338  0.7007  0.4803
  555TMC3    C7 8241   2.115   2.386  14.909 -0.1215 -0.5900  0.2610
  555TMC3    C8 8242   2.038   2.846  14.976  0.5965 -0.0647 -0.0387
  555TMC3    O1 8243   2.124   2.396  15.030  1.0980 -0.0949  0.3653
  555TMC3    O2 8244   1.954   2.934  14.963  0.1707  0.3499  0.1587
  556MPD2     C 8245   4.317   4.425  10.435 -0.3980  0.0928  0.1513
  556MPD2    C1 8246   4.345   4.336  10.535  0.7330 -0.6306  0.1744
  556MPD2    C2 8247   4.388   4.209  10.512  0.0165 -0.4489 -0.0757
  556MPD2    C3 8248   4.407   4.170  10.381 -0.3841  0.2489  0.0275
  556MPD2    C4 8249   4.384   4.259  10.277 -0.8372  0.4582 -0.0761
  556MPD2    C5 8250   4.339   4.379  10.307  0.7150  0.2010 -0.1005
  556MPD2     H 8251   4.415   4.137  10.588  0.0011 -0.9457 -0.5319
  556MPD2    H1 8252   4.387   4.233  10.172  1.1259 -0.0016  0.1034
  556MPD2    H2 8253   4.283   4.528  10.445 -2.5398 -0.3600 -2.5117
  556MPD2    H3 8254   4.338   4.459  10.233  1.0756  0.9316  0.6810
  556MPD2     N 8255   4.442   4.039  10.354 -0.7300 -0.3612 -0.3565
  556MPD2    H5 8256   4.411   3.980  10.430  2.7365 -0.1325  1.2207
  556MPD2    N1 8257   4.321   4.377  10.674 -0.1723 -0.7432  0.1035
  556MPD2    H7 8258   4.365   4.312  10.738 -1.3241 -0.9579  0.6680
  557TMC3    C1 8259   4.539   3.855  10.238  0.1477 -0.3907 -0.4479
  557TMC3    C2 8260   4.602   3.802  10.127 -0.3107 -0.5689 -0.4487
  557TMC3    C3 8261   4.567   3.684  10.083 -0.0736 -0.1352  0.0290
  557TMC3    C4 8262   4.442   3.778  10.298  0.0887 -0.3494  0.4981
  557TMC3    C5 8263   4.418   3.653  10.255 -0.1174 -0.1312 -0.5547
  557TMC3    C6 8264   4.479   3.601  10.144 -0.1070 -0.3753 -0.3920
  557TMC3     C 8265   4.527   3.999  10.249  0.2872  0.5433  0.5395
  557TMC3     O 8266   4.584   4.060  10.160  0.0356  0.0367 -0.3766
  557TMC3     H 8267   4.672   3.856  10.065  0.3656 -2.0054 -0.9223
  557TMC3    H1 8268   4.386   3.806  10.386  0.9243 -4.1823  2.2154
  557TMC3    H2 8269   4.464   3.499  10.112  0.3456 -0.5690  0.0138
  557TMC3    C7 8270   4.308   3.577  10.310 -0.0542 -0.3299 -0.2304
  557TMC3    C8 8271   4.621   3.650   9.950  0.3389 -0.8021  0.6485
  557TMC3    O1 8272   4.282   3.597  10.428  0.6338 -0.0897 -0.1975
  557TMC3    O2 8273   0.009   3.679   9.913  0.7738  1.0571 -0.0958
  558TMC3    C1 8274   2.095   2.246  10.007  1.6250  0.3116  0.6652
  558TMC3    C2 8275   1.973   2.200  10.061  0.0924 -0.2949 -0.5359
  558TMC3    C3 8276   1.863   2.186   9.981 -0.4024  0.2844  0.6687
  558TMC3    C4 8277   2.106   2.275   9.870 -0.1891 -0.0296 -0.6975
  558TMC3    C5 8278   1.993   2.253   9.793 -0.6589 -0.0937 -0.2389
  558TMC3    C6 8279   1.869   2.215   9.849  0.4174  0.0440 -1.0048
  558TMC3     C 8280   2.215   2.259  10.090 -0.5615  0.3312  0.7977
  558TMC3     O 8281   2.319   2.281  10.023 -0.0557 -0.2949  0.3111
  558TMC3     H 8282   1.964   2.158  10.160 -2.1379  1.2518 -0.0926
  558TMC3    H1 8283   2.199   2.322   9.838  0.0413 -0.0336 -0.0405
  558TMC3    H2 8284   1.785   2.227   9.781  0.4466  1.5575 -0.7735
  558TMC3    C7 8285   2.016   2.208   9.656 -0.2605 -0.1737 -0.4438
  558TMC3    C8 8286   1.735   2.152  10.027  0.1176  0.6215 -0.2419
  558TMC3    O1 8287   2.098   2.270   9.592 -0.4286  0.9664  0.2000
  558TMC3    O2 8288   1.657   2.108   9.941 -0.4472 -0.3944  0.1823
  559MPD2     C 8289   2.158   2.698  10.110 -0.0331 -0.0899 -0.7050
  559MPD2    C1 8290   2.079   2.722  10.220  0.6865 -0.0064 -0.1262
  559MPD2    C2 8291   2.138   2.704  10.346 -0.1683 -0.6077  0.1129
  559MPD2    C3 8292   2.275   2.678  10.362 -0.0016 -0.6510 -0.4672
  559MPD2    C4 8293   2.351   2.656  10.249 -0.2772  0.4659 -0.2110
  559MPD2    C5 8294   2.290   2.667  10.125 -0.2516  0.3410  0.4742
  559MPD2     H 8295   2.090   2.719  10.442  1.9727  0.5733  0.9800
  559MPD2    H1 8296   2.458   2.641  10.262  0.2084  2.3021 -2.1906
  559MPD2    H2 8297   2.113   2.703  10.012  1.4073  1.0422 -1.3040
  559MPD2    H3 8298   2.351   2.677  10.036 -0.5655 -0.2470  0.1977
  559MPD2     N 8299   2.335   2.680  10.490  0.0289 -0.1241  0.2319
  559MPD2    H5 8300   2.275   2.693  10.571 -0.9630 -3.5753  0.0273
  559MPD2    N1 8301   1.942   2.760  10.198  0.3005 -0.1952  0.2526
  559MPD2    H7 8302   1.901   2.769  10.106 -2.2324 -1.3156  1.2767
  560TMC3    C1 8303   2.494   2.627  10.660 -0.5464  0.1814  0.5925
  560TMC3    C2 8304   2.406   2.538  10.704 -0.2110 -0.2153  0.8538
  560TMC3    C3 8305   2.444   2.465  10.811 -0.1885  0.4992  0.1059
  560TMC3    C4 8306   2.613   2.654  10.712  0.1119 -0.2425  0.1735
  560TMC3    C5 8307   2.653   2.586  10.829  0.5735  0.6601  0.1738
  560TMC3    C6 8308   2.569   2.483  10.875 -0.1023  0.5622 -0.2997
  560TMC3     C 8309   2.469   2.666  10.523  0.9489  0.7312  0.1053
  560TMC3     O 8310   2.572   2.699  10.473 -0.1226  0.2636  0.3873
  560TMC3     H 8311   2.330   2.491  10.642  1.6224 -1.5142 -0.4167
  560TMC3    H1 8312   2.667   2.742  10.680 -2.7129  2.2382  2.2063
  560TMC3    H2 8313   2.597   2.409  10.950  0.6181  0.1942 -0.9232
  560TMC3    C7 8314   2.795   2.545  10.847  0.6755 -0.0866 -0.3047
  560TMC3    C8 8315   2.334   2.394  10.875  0.3786 -0.2746  0.4750
  560TMC3    O1 8316   2.811   2.434  10.895  0.1022  0.1175 -0.1423
  560TMC3    O2 8317   2.236   2.369  10.811 -0.6987 -0.4389 -0.1782
  561TMC3    C1 8318   0.401   2.459  11.007 -0.0876 -0.3952 -0.4116
  561TMC3    C2 8319   0.416   2.444  11.144 -0.0774 -0.1586 -0.6639
  561TMC3    C3 8320   0.377   2.546  11.228 -0.5971  0.0352 -0.6538
  561TMC3    C4 8321   0.343   2.573  10.960  0.3976 -0.7516  0.5878
  561TMC3    C5 8322   0.296   2.665  11.043 -0.4380 -0.3259 -0.3892
  561TMC3    C6 8323   0.309   2.659  11.179  0.1181 -0.2028  0.2344
  561TMC3     C 8324   0.409   2.343  10.925  0.6646  0.2888  0.0307
  561TMC3     O 8325   0.421   2.359  10.803 -0.3647  0.2570 -0.0584
  561TMC3     H 8326   0.459   2.353  11.186  0.9002  0.8527  0.5509
  561TMC3    H1 8327   0.324   2.575  10.854  1.2961  0.3565  0.4508
  561TMC3    H2 8328   0.252   2.726  11.242 -1.3593 -0.1302 -1.1732
  561TMC3    C7 8329   0.219   2.775  10.987  0.1508  0.1470 -0.6916
  561TMC3    C8 8330   0.374   2.519  11.371 -0.0803  0.3030 -0.6938
  561TMC3    O1 8331   0.136   2.830  11.057  0.1904  0.0681  0.1220
  561TMC3    O2 8332   0.466   2.465  11.428 -0.7615 -0.0929 -0.2153
  562TMC3    C1 8333   1.556   3.281  16.036 -0.8569 -0.2668  0.3204
  562TMC3    C2 8334   1.431   3.328  16.020  1.0202 -1.2409  0.5297
  562TMC3    C3 8335   1.364   3.315  15.903  0.4666  0.1675  0.2594
  562TMC3    C4 8336   1.605   3.212  15.926 -0.0770  0.1168 -0.1075
  562TMC3    C5 8337   1.537   3.193  15.809 -0.2297  0.0160 -0.3630
  562TMC3    C6 8338   1.410   3.247  15.792  0.1510 -0.2935  0.5162
  562TMC3     C 8339   1.605   3.257  16.176  0.6289  0.1514 -0.2042
  562TMC3     O 8340   1.521   3.240  16.265 -0.0839  0.3681 -0.3641
  562TMC3     H 8341   1.401   3.396  16.100  3.0176  0.6469 -0.3220
  562TMC3    H1 8342   1.694   3.152  15.942  1.3787  2.7179  1.3838
  562TMC3    H2 8343   1.355   3.230  15.700 -1.0871  1.6064  0.9021
  562TMC3    C7 8344   1.579   3.085  15.732  0.5926  0.0169  0.2927
  562TMC3    C8 8345   1.225   3.364  15.912 -1.0157 -0.5568 -0.4429
  562TMC3    O1 8346   1.667   3.011  15.775 -0.0440 -0.5824 -0.0292
  562TMC3    O2 8347   1.164   3.349  16.020 -0.2344 -0.1163  0.0657
  563MPD2     C 8348   3.983   4.081  15.509 -0.2067 -0.4053  0.5489
  563MPD2    C1 8349   3.976   4.148  15.627  0.0696 -0.3077 -0.7392
  563MPD2    C2 8350   4.088   4.158  15.707  0.7848  0.1958 -0.3904
  563MPD2    C3 8351   4.212   4.124  15.662 -0.1374  0.2361 -0.2586
  563MPD2    C4 8352   4.217   4.044  15.548 -0.5558 -1.4011 -0.6355
  563MPD2    C5 8353   4.105   4.027  15.473 -0.2420 -0.2345 -0.7314
  563MPD2     H 8354   4.098   4.230  15.787  0.1176 -0.2454  0.0887
  563MPD2    H1 8355   4.313   4.025  15.501 -0.7796  3.0903 -2.9284
  563MPD2    H2 8356   3.897   4.075  15.443 -0.5792  1.0329  0.8977
  563MPD2    H3 8357   4.113   3.994  15.370  0.7397 -0.6785 -0.5106
  563MPD2     N 8358   4.323   4.164  15.739 -0.4089  1.1713  0.2963
  563MPD2    H5 8359   4.299   4.223  15.818 -0.2148  0.2948  1.0039
  563MPD2    N1 8360   3.853   4.200  15.667  0.0461 -0.1548  0.3282
  563MPD2    H7 8361   3.772   4.167  15.614 -0.6885  1.0705  0.6812
  564TMC3    C1 8362   3.715   4.269  15.823 -0.1613 -0.3159  0.1725
  564TMC3    C2 8363   3.674   4.143  15.854 -0.4111  0.5176  0.4475
  564TMC3    C3 8364   3.624   4.116  15.978 -0.0691  0.4391 -0.2975
  564TMC3    C4 8365   3.689   4.366  15.918  0.2619  0.4084 -0.1167
  564TMC3    C5 8366   3.644   4.335  16.049  0.5093 -0.3207  0.3370
  564TMC3    C6 8367   3.608   4.207  16.077  0.3247 -0.0671 -0.4289
  564TMC3     C 8368   3.846   4.273  15.778 -0.1957 -0.3281  1.4895
  564TMC3     O 8369   3.921   4.342  15.849  0.2856  0.5311  0.8280
  564TMC3     H 8370   3.692   4.071  15.775 -0.8361  0.0096  0.8110
  564TMC3    H1 8371   3.716   4.465  15.884 -1.2152  0.9730  0.3759
  564TMC3    H2 8372   3.583   4.182  16.179  0.5234 -2.0957 -0.8868
  564TMC3    C7 8373   3.720   4.400  16.149  0.3445 -0.1715  0.1576
  564TMC3    C8 8374   3.614   3.984  16.021 -0.3410 -0.7427  0.0408
  564TMC3    O1 8375   3.756   4.334  16.244  0.0558  0.2712 -0.1618
  564TMC3    O2 8376   3.611   3.959  16.139  0.0417  1.0407  0.3713
  565TMC3    C1 8377   4.315   1.294  10.101  0.2794  0.0120  0.4975
  565TMC3    C2 8378   4.360   1.209  10.199  0.3451  0.2927  0.1169
  565TMC3    C3 8379   4.281   1.101  10.222 -0.1078  0.1679  0.2902
  565TMC3    C4 8380   4.194   1.283  10.041 -0.6174 -0.6690 -0.7256
  565TMC3    C5 8381   4.115   1.180  10.071 -0.2025 -0.5349 -0.4609
  565TMC3    C6 8382   4.156   1.085  10.160  0.5697 -0.0211 -1.0204
  565TMC3     C 8383   4.391   1.418  10.088  0.2179  0.4090  0.2027
  565TMC3     O 8384   4.382   1.490   9.993 -0.5137  0.1350  0.3318
  565TMC3     H 8385   4.468   1.209  10.212 -0.0309  0.1233  3.2227
  565TMC3    H1 8386   4.161   1.364   9.978 -2.3875  0.3775  1.5260
  565TMC3    H2 8387   4.090   1.013  10.208 -0.1339  0.8438 -0.6933
  565TMC3    C7 8388   3.987   1.154   9.989  0.0611  1.2843  0.6314
  565TMC3    C8 8389   4.342   1.005  10.310 -0.4502 -0.3284  0.6431
  565TMC3    O1 8390   3.956   1.251   9.917 -0.1203 -0.1826 -0.6591
  565TMC3    O2 8391   4.423   1.047  10.387  0.1501 -0.1108  0.4659
  566MPD2     C 8392   1.243   2.427  14.088  0.1803 -0.4207 -0.1340
  566MPD2    C1 8393   1.358   2.458  14.010  0.2415 -0.6167 -0.0167
  566MPD2    C2 8394   1.326   2.519  13.893 -0.3858 -0.1201 -0.8238
  566MPD2    C3 8395   1.195   2.543  13.853 -0.6640 -0.3842  0.6389
  566MPD2    C4 8396   1.088   2.485  13.919 -0.3297  0.2679  0.3648
  566MPD2    C5 8397   1.118   2.432  14.041  0.5263 -0.3209  0.9292
  566MPD2     H 8398   1.403   2.553  13.824  1.2976  1.5585  1.8514
  566MPD2    H1 8399   0.986   2.499  13.885 -0.2352  0.3900  0.1336
  566MPD2    H2 8400   1.251   2.385  14.187  1.0368 -1.7067 -0.7560
  566MPD2    H3 8401   1.038   2.426  14.114  0.2698  0.1373  0.6870
  566MPD2     N 8402   1.164   2.621  13.741  0.0439 -0.0899 -0.1821
  566MPD2    H5 8403   1.064   2.622  13.725 -0.0131  0.6225  0.2452
  566MPD2    N1 8404   1.489   2.417  14.058  0.2019 -0.1615  0.7802
  566MPD2    H7 8405   1.489   2.367  14.146  0.3767 -2.5226 -0.5722
  567TMC3    C1 8406   1.732   2.413  14.060  0.0971  0.3505 -0.3063
  567TMC3    C2 8407   1.840   2.478  14.017  0.7104 -0.2345 -0.2735
  567TMC3    C3 8408   1.950   2.493  14.098 -0.1676  0.6276  0.1362
  567TMC3    C4 8409   1.723   2.363  14.191  0.2542 -0.6291 -0.4602
  567TMC3    C5 8410   1.842   2.372  14.265  0.3933  0.2208  0.3272
  567TMC3    C6 8411   1.960   2.431  14.219 -0.2196 -0.4792  0.8487
  567TMC3     C 8412   1.606   2.431  13.984 -0.4895  0.0828 -0.1584
  567TMC3     O 8413   1.610   2.468  13.867  0.5594  0.6256 -0.2771
  567TMC3     H 8414   1.841   2.526  13.920 -1.9669 -0.3096 -0.3503
  567TMC3    H1 8415   1.651   2.284  14.209  0.0980 -0.0082  1.6234
  567TMC3    H2 8416   2.049   2.436  14.281  1.0665 -0.3314 -1.0137
  567TMC3    C7 8417   1.857   2.329  14.401  0.4123  0.0265  0.1060
  567TMC3    C8 8418   2.021   2.611  14.078 -0.2390  0.0024  1.1011
  567TMC3    O1 8419   1.970   2.327  14.452 -0.3946 -0.0826  0.8247
  567TMC3    O2 8420   2.013   2.666  13.969 -0.0005  0.6418  0.4273
  568MPD2     C 8421   3.924   2.618  16.762 -0.8543  0.4213  0.5646
  568MPD2    C1 8422   3.920   2.725  16.854 -0.2944 -0.1972  0.0836
  568MPD2    C2 8423   3.883   2.847  16.815 -0.0653 -0.0607  0.0023
  568MPD2    C3 8424   3.858   2.872  16.680  0.1171  0.1404 -0.5630
  568MPD2    C4 8425   3.876   2.771  16.585  0.0828  0.1426  0.2171
  568MPD2    C5 8426   3.905   2.646  16.630 -0.0838 -0.2703 -0.0603
  568MPD2     H 8427   3.852   2.930  16.878  2.7901  0.2197  1.0254
  568MPD2    H1 8428   3.868   2.792  16.479  0.7209  0.1163  0.1624
  568MPD2    H2 8429   3.953   2.518  16.791 -0.2595  0.3170 -0.3991
  568MPD2    H3 8430   3.912   2.566  16.557  1.7403  0.0512 -0.2456
  568MPD2     N 8431   3.829   3.000  16.648  0.4716  0.3885 -0.5865
  568MPD2    H5 8432   3.829   3.063  16.727  0.9251 -0.2245 -0.0963
  568MPD2    N1 8433   3.942   2.689  16.985  0.3203 -0.2990  0.0880
  568MPD2    H7 8434   3.967   2.594  17.008  1.0617 -0.1914 -0.2822
  569TMC3    C1 8435   3.790   3.184  16.509  0.1253 -0.4202 -0.2963
  569TMC3    C2 8436   3.901   3.247  16.562  0.1393 -0.1709 -0.2899
  569TMC3    C3 8437   3.948   3.353  16.496  0.4695  0.5695 -0.1963
  569TMC3    C4 8438   3.730   3.226  16.397 -0.2799  0.2058  0.1970
  569TMC3    C5 8439   3.791   3.327  16.325  0.0488  0.9679 -0.0437
  569TMC3    C6 8440   3.902   3.394  16.367 -0.3173 -0.0603 -0.1069
  569TMC3     C 8441   3.797   3.041  16.519 -0.5357  0.0908 -0.8193
  569TMC3     O 8442   3.768   2.982  16.418  0.0601 -0.1549 -0.1310
  569TMC3     H 8443   3.948   3.207  16.652 -1.5403  1.5230  1.3400
  569TMC3    H1 8444   3.658   3.173  16.336 -0.3568  0.0490  0.4250
  569TMC3    H2 8445   3.945   3.466  16.298  1.1918  0.4629  1.3501
  569TMC3    C7 8446   3.734   3.343  16.187  0.0437 -0.0699 -0.0923
  569TMC3    C8 8447   4.052   3.435  16.561  0.3640 -0.5235  1.0899
  569TMC3    O1 8448   3.691   3.245  16.131  0.6631 -0.1861 -0.3775
  569TMC3    O2 8449   4.106   3.388  16.661  0.1643  0.3771  0.0019
  570TMC3    C1 8450   3.482   1.963  16.394  0.1768 -0.0095 -0.0949
  570TMC3    C2 8451   3.534   2.012  16.275  0.2041  0.7974 -1.0621
  570TMC3    C3 8452   3.577   2.142  16.271  0.3905  1.1512 -0.2073
  570TMC3    C4 8453   3.457   2.047  16.499 -0.0379 -0.2107 -0.1449
  570TMC3    C5 8454   3.496   2.182  16.489 -0.3029 -0.2894  0.0478
  570TMC3    C6 8455   3.564   2.226  16.377  0.6040  0.2779 -0.6409
  570TMC3     C 8456   3.434   1.822  16.396  0.8608 -0.9161 -0.0179
  570TMC3     O 8457   3.441   1.753  16.291 -0.5829  0.6440  0.4773
  570TMC3     H 8458   3.541   1.957  16.182  0.5678 -0.3626 -0.3615
  570TMC3    H1 8459   3.392   2.016  16.581  0.3597  0.1472  0.3096
  570TMC3    H2 8460   3.603   2.327  16.366  1.1924  0.0717 -0.4280
  570TMC3    C7 8461   3.479   2.269  16.609  0.3684  0.0790 -0.0660
  570TMC3    C8 8462   3.678   2.179  16.174 -0.4986  0.1468  0.2453
  570TMC3    O1 8463   3.436   2.207  16.704 -0.1185  0.0021 -0.2281
  570TMC3    O2 8464   3.700   2.301  16.164 -0.0354  0.5336 -0.9319
  571MPD2     C 8465   1.207   3.390  17.622 -0.0227  0.2462 -0.6020
  571MPD2    C1 8466   1.077   3.353  17.601  0.1929 -0.0695  0.1561
  571MPD2    C2 8467   0.981   3.456  17.601 -0.0028 -0.1234 -0.8967
  571MPD2    C3 8468   1.014   3.577  17.672  0.2140  0.0509  0.8178
  571MPD2    C4 8469   1.140   3.597   0.014 -0.2287  0.6781  0.4808
  571MPD2    C5 8470   1.239   3.513  17.680 -0.1917  0.0674 -0.4828
  571MPD2     H 8471   0.880   3.434  17.571 -0.0164  0.4667 -1.2966
  571MPD2    H1 8472   1.172   3.692   0.055 -0.2433  0.0365  1.9857
  571MPD2    H2 8473   1.285   3.315  17.615  0.8866  0.9905  1.6940
  571MPD2    H3 8474   1.346   3.515  17.698  0.0534 -0.3997 -1.8685
  571MPD2     N 8475   0.916   3.678   0.016 -0.1284  0.4879 -0.2171
  571MPD2    H5 8476   0.955   3.754   0.071  0.2873 -0.2397  0.4965
  571MPD2    N1 8477   1.059   3.214  17.578 -0.0419  0.6023  0.1051
  571MPD2    H7 8478   1.138   3.153  17.560  0.6555  1.2633  0.9362
  572TMC3    C1 8479   0.701   3.788   0.033 -0.2674  0.0506 -0.3827
  572TMC3    C2 8480   0.569   3.760   0.064  0.0701 -0.1776 -0.0577
  572TMC3    C3 8481   0.505   3.847   0.148 -0.2652 -0.4436  0.3689
  572TMC3    C4 8482   0.765   3.907   0.075  0.2506  0.0763  0.6586
  572TMC3    C5 8483   0.690   3.990   0.153 -0.6584 -0.0236 -0.3171
  572TMC3    C6 8484   0.565   3.963   0.192  0.9754  0.4187  0.6514
  572TMC3     C 8485   0.788   3.686  17.669  0.4778 -0.9807  0.0465
  572TMC3     O 8486   0.734   3.626  17.580 -0.4225  0.6534  0.3258
  572TMC3     H 8487   0.544   3.654   0.059  0.9303 -0.4143  0.5027
  572TMC3    H1 8488   0.864   3.939   0.044  1.1564 -0.6907  2.7662
  572TMC3    H2 8489   0.519   4.024   0.269  0.0858  0.1402  0.3393
  572TMC3    C7 8490   0.739   4.126   0.181  0.5097  0.5945 -0.3579
  572TMC3    C8 8491   0.404   3.779   0.212  0.8529 -0.0139  0.0726
  572TMC3    O1 8492   0.655   4.214   0.187 -0.0631  0.5176  0.2057
  572TMC3    O2 8493   0.321   3.724   0.142 -0.1789 -0.6986  0.4348
  573MPD2     C 8494   2.824   0.435   0.938 -0.4497 -0.4188 -0.6680
  573MPD2    C1 8495   2.699   0.386   0.952 -0.3595 -0.2730  0.4653
  573MPD2    C2 8496   2.652   0.303   0.846 -0.3202  0.6253 -0.0148
  573MPD2    C3 8497   2.721   0.268   0.732  0.1133 -0.6360 -0.1261
  573MPD2    C4 8498   2.851   0.322   0.718 -0.0832  0.1151 -1.2099
  573MPD2    C5 8499   2.897   0.399   0.822 -0.2410  0.7371 -0.6993
  573MPD2     H 8500   2.549   0.272   0.862 -0.5413  1.6079  0.4680
  573MPD2    H1 8501   2.916   0.313   0.632  2.2203 -1.5235  0.7469
  573MPD2    H2 8502   2.880   0.495   1.009 -2.7615 -0.0358  0.8271
  573MPD2    H3 8503   3.003   0.423   0.821 -0.6043  2.4081  0.5405
  573MPD2     N 8504   2.663   0.192   0.631  0.6490 -0.1777  0.4390
  573MPD2    H5 8505   2.720   0.176   0.548 -0.5154 -0.4256 -0.3165
  573MPD2    N1 8506   2.629   0.430   1.071 -0.0485  0.0862  0.5689
  573MPD2    H7 8507   2.686   0.483   1.136 -0.7024  1.7585 -0.2309
  574TMC3    C1 8508   2.513   0.101   0.481  0.8629 -1.2498 -0.3483
  574TMC3    C2 8509   2.399   0.037   0.453  0.3942  0.7282 -1.5154
  574TMC3    C3 8510   2.372   0.005   0.321 -0.8434  0.4773 -0.0110
  574TMC3    C4 8511   2.601   0.137   0.378 -0.0400  0.6239 -0.3451
  574TMC3    C5 8512   2.579   0.093   0.254  0.6858  0.6253 -0.0719
  574TMC3    C6 8513   2.466   0.026   0.218 -0.7159  1.0963  0.1878
  574TMC3     C 8514   2.539   0.149   0.610  0.0482  0.3457  0.7212
  574TMC3     O 8515   2.448   0.143   0.692  0.2625 -0.4399  0.3822
  574TMC3     H 8516   2.315   0.017   0.518 -1.1900 -1.9147 -4.3545
  574TMC3    H1 8517   2.672   0.215   0.401  1.5029 -0.5929 -1.0041
  574TMC3    H2 8518   2.466   4.711   0.117 -2.4631 -0.7787  0.9245
  574TMC3    C7 8519   2.665   0.128   0.147  0.5726  0.5710 -0.5095
  574TMC3    C8 8520   2.250   4.663   0.284 -0.0330 -0.6044 -0.3685
  574TMC3    O1 8521   2.615   0.154   0.036 -0.4152  0.3258 -0.2573
  574TMC3    O2 8522   2.202   4.589   0.369  0.0687  0.0988 -0.2525
  575TMC3    C1 8523   0.067   0.853  10.889  0.4634  0.7070  0.5627
  575TMC3    C2 8524   0.062   0.789  11.011  0.2477  0.2237 -0.4763
  575TMC3    C3 8525   4.682   0.711  11.035 -0.3635  0.2073 -0.2047
  575TMC3    C4 8526   4.688   0.837  10.802 -0.2456  0.0942  1.0192
  575TMC3    C5 8527   4.594   0.748  10.828 -0.3924  0.0148  0.4740
  575TMC3    C6 8528   4.582   0.686  10.944 -0.0007 -0.2104 -0.3680
  575TMC3     C 8529   0.197   0.909  10.849  0.4806  0.0137 -0.2818
  575TMC3     O 8530   0.279   0.907  10.935 -0.0303 -0.3972  0.1587
  575TMC3     H 8531   0.142   0.799  11.083 -2.2367 -0.8277  2.4405
  575TMC3    H1 8532   4.681   0.892  10.709  0.4990 -1.4929  0.0324
  575TMC3    H2 8533   4.486   0.638  10.957  0.1652 -0.3164  0.4798
  575TMC3    C7 8534   4.476   0.772  10.756  0.0437  0.3330  0.6297
  575TMC3    C8 8535   4.669   0.660  11.167  0.1527 -0.5275  0.0261
  575TMC3    O1 8536   4.437   0.884  10.751  0.3661 -0.3279  0.6444
  575TMC3    O2 8537   0.010   0.717  11.253 -0.4172 -0.2185  0.1303
  576MPD2     C 8538   3.876   2.430  12.214  0.5260  0.0781  0.3343
  576MPD2    C1 8539   3.893   2.550  12.142  0.1928 -0.3384  0.3174
  576MPD2    C2 8540   3.806   2.652  12.171  0.7295 -0.2875  0.2705
  576MPD2    C3 8541   3.711   2.643  12.272  0.1516  0.4372  0.4333
  576MPD2    C4 8542   3.707   2.529  12.351 -0.3266 -0.3879  0.5942
  576MPD2    C5 8543   3.790   2.422  12.315  0.4690  0.1660  1.0022
  576MPD2     H 8544   3.811   2.744  12.114  2.0640 -0.3580  0.2651
  576MPD2    H1 8545   3.635   2.513  12.430  0.4258 -0.0287  1.3569
  576MPD2    H2 8546   3.938   2.346  12.186 -1.9065 -0.7692 -2.3803
  576MPD2    H3 8547   3.776   2.329  12.369 -1.1011 -0.6654 -0.8445
  576MPD2     N 8548   3.635   2.761  12.295 -0.1992  0.2859  0.2299
  576MPD2    H5 8549   3.663   2.831  12.226  0.6150 -2.1336 -1.9037
  576MPD2    N1 8550   3.988   2.574  12.037 -0.2991  0.8176  0.0038
  576MPD2    H7 8551   3.959   2.649  11.974 -2.7811 -2.3878 -2.6781
  577TMC3    C1 8552   4.178   2.524  11.892 -0.0569 -0.2017  0.3222
  577TMC3    C2 8553   4.306   2.476  11.894  0.1643 -0.6069 -0.5078
  577TMC3    C3 8554   4.393   2.525  11.799  0.6848  0.4575 -0.3813
  577TMC3    C4 8555   4.130   2.614  11.799  0.2101 -0.3088  0.3534
  577TMC3    C5 8556   4.220   2.666  11.716  0.6065 -0.2418  0.5869
  577TMC3    C6 8557   4.351   2.625  11.713  0.1671  0.3422 -0.3679
  577TMC3     C 8558   4.100   2.492  12.016 -0.1797 -0.3473 -1.2601
  577TMC3     O 8559   4.144   2.402  12.084  0.5949 -0.0131 -0.1849
  577TMC3     H 8560   4.337   2.417  11.979 -1.7800 -2.6440 -1.2028
  577TMC3    H1 8561   4.026   2.642  11.803 -0.1076 -1.5920  1.1343
  577TMC3    H2 8562   4.418   2.679  11.646  0.8542  0.7994  0.6915
  577TMC3    C7 8563   4.190   2.772  11.624  1.0819 -0.1346 -0.5716
  577TMC3    C8 8564   4.532   2.489  11.805 -0.1226 -0.7446 -0.3684
  577TMC3    O1 8565   4.126   2.866  11.673  0.0733 -0.5401  0.2123
  577TMC3    O2 8566   4.560   2.412  11.894  0.0208  0.2305 -0.1190
  578MPD2     C 8567   2.722   2.636   1.289 -0.1828  0.7007  0.0815
  578MPD2    C1 8568   2.861   2.667   1.286 -0.0030  0.0510 -0.6099
  578MPD2    C2 8569   2.956   2.565   1.295  1.0997 -0.0480 -0.3549
  578MPD2    C3 8570   2.914   2.436   1.293 -0.2550  0.2429  0.0671
  578MPD2    C4 8571   2.780   2.401   1.289  0.9195 -0.4265  0.0918
  578MPD2    C5 8572   2.689   2.501   1.290  0.6070  0.2160 -0.0441
  578MPD2     H 8573   3.063   2.582   1.304  1.2815 -1.2631 -0.1926
  578MPD2    H1 8574   2.732   2.304   1.287  1.5076 -0.7147  0.0270
  578MPD2    H2 8575   2.638   2.704   1.290 -0.3454  0.4923  0.5043
  578MPD2    H3 8576   2.586   2.469   1.290  1.7694 -3.5842 -1.5383
  578MPD2     N 8577   3.018   2.338   1.287  0.6896 -0.1380 -0.0348
  578MPD2    H5 8578   3.112   2.375   1.284  0.6649 -0.1321 -0.7935
  578MPD2    N1 8579   2.893   2.805   1.276  0.0320 -0.4936  0.2535
  578MPD2    H7 8580   2.817   2.870   1.294  0.0020 -0.6826  0.8053
  579TMC3    C1 8581   3.129   2.131   1.264  0.7567 -0.4535  0.1531
  579TMC3    C2 8582   3.227   2.174   1.346  0.1675 -0.3888  0.7255
  579TMC3    C3 8583   3.344   2.103   1.340  1.0916 -0.1166  0.5404
  579TMC3    C4 8584   3.145   2.022   1.184 -0.1921 -1.1840 -0.1936
  579TMC3    C5 8585   3.265   1.958   1.178 -0.0664 -0.4252  0.1806
  579TMC3    C6 8586   3.367   1.998   1.260  0.2386  0.5143 -0.6224
  579TMC3     C 8587   3.004   2.202   1.248  0.8267 -0.4568 -0.6313
  579TMC3     O 8588   2.909   2.136   1.214  0.4511  0.5074  0.2972
  579TMC3     H 8589   3.204   2.247   1.422  0.4131  0.0166  0.4093
  579TMC3    H1 8590   3.064   1.985   1.123  0.0455  0.6601 -1.6159
  579TMC3    H2 8591   3.453   1.934   1.269 -2.0642 -2.2062  1.9966
  579TMC3    C7 8592   3.296   1.843   1.090 -0.0314 -0.2850 -0.8922
  579TMC3    C8 8593   3.445   2.140   1.441 -0.1233 -0.5470 -0.5534
  579TMC3    O1 8594   3.406   1.792   1.102 -0.1306  0.2397  0.3072
  579TMC3    O2 8595   3.402   2.181   1.549 -0.5107  0.7205  0.1169
  580TMC3    C1 8596   1.853   1.267  11.731  0.1580 -0.1560  0.3480
  580TMC3    C2 8597   1.811   1.221  11.608  0.0620  0.0868  0.5575
  580TMC3    C3 8598   1.831   1.084  11.581 -0.7074  0.1269 -0.3897
  580TMC3    C4 8599   1.897   1.181  11.831  0.3919  0.4650  0.4754
  580TMC3    C5 8600   1.901   1.047  11.808 -0.3674  0.3903 -0.0341
  580TMC3    C6 8601   1.871   0.997  11.679 -0.5489 -0.0923  0.1075
  580TMC3     C 8602   1.930   1.388  11.709  0.5962  0.5586 -0.7774
  580TMC3     O 8603   1.973   1.400  11.597  0.1471  0.3447 -0.0178
  580TMC3     H 8604   1.775   1.290  11.532  0.0191 -0.4805  0.0599
  580TMC3    H1 8605   1.940   1.222  11.922  1.9112 -1.2889  0.5538
  580TMC3    H2 8606   1.895   0.896  11.648  1.2481  1.0825 -2.2756
  580TMC3    C7 8607   1.996   0.988  11.899  0.3335  0.1335  0.5982
  580TMC3    C8 8608   1.869   1.061  11.439  0.0119 -0.4468  0.6603
  580TMC3    O1 8609   2.000   1.035  12.010 -0.3617 -0.6543  0.0832
  580TMC3    O2 8610   1.837   0.951  11.404 -0.2027 -0.2454  0.3099
  581MPD2     C 8611   0.287   0.928  15.227  0.0719 -1.0412  0.2190
  581MPD2    C1 8612   0.213   0.821  15.190 -0.2537 -0.6163 -0.0702
  581MPD2    C2 8613   0.084   0.840  15.138  0.3921  0.1459  0.4757
  581MPD2    C3 8614   0.037   0.970  15.127  0.0535 -0.5113  0.2198
  581MPD2    C4 8615   0.114   1.073  15.179  0.6238 -0.8551  0.3847
  581MPD2    C5 8616   0.239   1.054  15.215 -0.2055 -0.1259 -0.4753
  581MPD2     H 8617   0.024   0.755  15.107 -0.2289  1.4846 -2.0111
  581MPD2    H1 8618   0.072   1.172  15.180  3.1214  0.2521 -3.1613
  581MPD2    H2 8619   0.391   0.913  15.256 -0.3100 -0.6695  1.8213
  581MPD2    H3 8620   0.293   1.143  15.245  0.8490 -1.4324  1.4781
  581MPD2     N 8621   4.633   0.993  15.069 -0.0512  0.0599 -0.2742
  581MPD2    H5 8622   4.582   0.909  15.045  0.8668 -0.1351 -1.5645
  581MPD2    N1 8623   0.280   0.694  15.196  0.1037 -0.3478  0.6357
  581MPD2    H7 8624   0.373   0.682  15.235 -0.0814 -0.3349  1.0800
  582TMC3    C1 8625   0.298   0.474  15.238 -0.3038 -0.0380  1.2602
  582TMC3    C2 8626   0.406   0.525  15.306 -0.1497  0.4391 -0.5989
  582TMC3    C3 8627   0.426   0.484  15.441  0.1075  0.2138  0.4376
  582TMC3    C4 8628   0.218   0.378  15.285 -0.2551  0.3779 -0.3657
  582TMC3    C5 8629   0.232   0.335  15.414  0.0876 -0.7694 -0.2081
  582TMC3    C6 8630   0.331   0.399  15.496  0.6783 -0.4099  0.2951
  582TMC3     C 8631   0.229   0.572  15.167  0.2313 -0.3248 -0.7399
  582TMC3     O 8632   0.127   0.547  15.105  1.2906 -0.6464 -0.0449
  582TMC3     H 8633   0.479   0.584  15.251 -1.4218  4.1430  1.6963
  582TMC3    H1 8634   0.137   0.343  15.223 -0.2562  1.2601 -0.8616
  582TMC3    H2 8635   0.328   0.370  15.601  0.2330  1.0343  0.6772
  582TMC3    C7 8636   0.098   0.341  15.478 -0.2585  0.5110 -0.5003
  582TMC3    C8 8637   0.445   0.603  15.523  0.2218 -0.7029  0.2960
  582TMC3    O1 8638   0.017   0.253  15.459 -0.7598  0.7465  0.1008
  582TMC3    O2 8639   0.344   0.655  15.572  0.3426  0.3158  0.2456
  583MPD2     C 8640   0.288   2.440  16.785  0.1103 -0.0981  0.0679
  583MPD2    C1 8641   0.268   2.562  16.731  0.2992 -0.0251 -0.3834
  583MPD2    C2 8642   0.242   2.669  16.819 -0.6506 -0.2175  0.9301
  583MPD2    C3 8643   0.232   2.654  16.954 -0.3334  0.3229 -0.0871
  583MPD2    C4 8644   0.252   2.525  17.001 -0.8202 -0.1555  0.2516
  583MPD2    C5 8645   0.285   2.424  16.917  0.4956  0.1716  0.4895
  583MPD2     H 8646   0.223   2.769  16.782  3.7539 -0.2968 -1.4408
  583MPD2    H1 8647   0.259   2.498  17.106  3.4769  1.7757  0.4769
  583MPD2    H2 8648   0.311   2.347  16.734 -0.8628 -2.0263  3.1849
  583MPD2    H3 8649   0.302   2.330  16.968  1.9555 -0.6120 -1.4566
  583MPD2     N 8650   0.228   2.772  17.035  0.0945 -0.6173  0.4104
  583MPD2    H5 8651   0.215   2.851  16.973  2.2647 -1.2181 -0.8236
  583MPD2    N1 8652   0.284   2.594  16.590  0.3293 -0.0019 -0.4164
  583MPD2    H7 8653   0.294   2.693  16.573  0.9889  0.3330  1.8929
  584TMC3    C1 8654   0.205   2.913  17.238  0.5256 -0.7458  0.2102
  584TMC3    C2 8655   0.176   3.024  17.161  0.0530  0.5172  0.6928
  584TMC3    C3 8656   0.163   3.141  17.226 -0.2746  0.0155  0.2948
  584TMC3    C4 8657   0.197   2.920  17.371 -0.8841 -0.1258  0.2307
  584TMC3    C5 8658   0.160   3.041  17.433  0.2787  0.1074  0.0483
  584TMC3    C6 8659   0.148   3.157  17.360  0.2489  0.3587 -0.2969
  584TMC3     C 8660   0.232   2.783  17.175 -0.0035  0.0257 -0.0870
  584TMC3     O 8661   0.239   2.693  17.258  0.0283  0.6148 -0.4049
  584TMC3     H 8662   0.183   3.024  17.053  1.8223 -4.4016  0.8253
  584TMC3    H1 8663   0.196   2.836  17.439  1.0035  0.3174  0.8185
  584TMC3    H2 8664   0.103   3.247  17.400 -1.3385  0.9201 -3.3370
  584TMC3    C7 8665   0.117   3.036  17.574  0.1962 -0.4442  0.1173
  584TMC3    C8 8666   0.163   3.260  17.139  0.1307  0.7875 -0.2574
  584TMC3    O1 8667   0.073   2.926  17.607  0.4075  0.4280  0.2511
  584TMC3    O2 8668   0.153   3.240  17.016  0.1382  0.7641 -0.3113
  585MPD2     C 8669   0.040   1.650  17.463  0.2448  0.4746 -0.0635
  585MPD2    C1 8670   0.066   1.559  17.562 -0.2736 -0.5998  0.2027
  585MPD2    C2 8671   0.067   1.425  17.535  0.3562 -0.3014  0.1830
  585MPD2    C3 8672   0.036   1.380  17.408 -0.1073 -0.1748  0.1418
  585MPD2    C4 8673   4.724   1.471  17.311 -0.9824 -0.0958  0.2922
  585MPD2    C5 8674   0.006   1.602  17.340 -0.3251 -0.2033  0.1812
  585MPD2     H 8675   0.077   1.347  17.610  4.0646 -0.1803 -0.1878
  585MPD2    H1 8676   4.703   1.449  17.207  0.6635  0.6744 -0.1913
  585MPD2    H2 8677   0.039   1.758  17.476 -2.2793  0.4045  0.3813
  585MPD2    H3 8678   0.006   1.668  17.254  0.3154 -2.2486 -1.3753
  585MPD2     N 8679   0.029   1.242  17.370  0.0267 -0.3162 -0.2391
  585MPD2    H5 8680   4.708   1.223  17.282  0.2762  0.0417 -0.4441
  585MPD2    N1 8681   0.082   1.611  17.693 -0.5968 -0.6377 -0.4039
  585MPD2    H7 8682   0.054   1.709   0.002 -1.9449 -0.9749 -1.1989
  586TMC3    C1 8683   0.065   1.006  17.397  0.4730 -0.2026 -0.1854
  586TMC3    C2 8684   0.157   0.917  17.450 -0.1126  0.2285 -0.2268
  586TMC3    C3 8685   0.143   0.786  17.404 -0.3109  0.5976  0.1100
  586TMC3    C4 8686   4.666   0.977  17.340  0.2158  0.4177 -0.5013
  586TMC3    C5 8687   4.657   0.844  17.309  0.4304  0.2408  0.1062
  586TMC3    C6 8688   0.023   0.754  17.348 -0.2280  0.3345 -0.6147
  586TMC3     C 8689   0.085   1.140  17.446 -0.1924 -0.0383 -0.7743
  586TMC3     O 8690   0.161   1.148  17.538 -0.1677 -0.6040 -0.2116
  586TMC3     H 8691   0.254   0.938  17.493  0.6226 -2.4300 -0.5837
  586TMC3    H1 8692   4.598   1.054  17.305  0.1634 -0.4127 -2.2197
  586TMC3    H2 8693   0.003   0.651  17.321 -0.5257  0.2222  0.0439
  586TMC3    C7 8694   4.547   0.812  17.224 -0.3352 -0.5223 -0.8466
  586TMC3    C8 8695   0.200   0.682  17.492  0.1105  0.0615  0.9118
  586TMC3    O1 8696   4.444   0.878  17.226 -0.4581 -0.0434 -0.1530
  586TMC3    O2 8697   0.203   0.565  17.455 -0.0402 -0.0805  1.2178
  587TMC3    C1 8698   1.745   0.170  15.910 -0.0368  0.3271  0.0169
  587TMC3    C2 8699   1.810   0.254  15.996 -0.1990  0.5714  0.2756
  587TMC3    C3 8700   1.925   0.206  16.053 -0.2075 -0.3750 -0.0988
  587TMC3    C4 8701   1.775   0.038  15.892  0.1325 -0.3373  0.1388
  587TMC3    C5 8702   1.870   4.711  15.980 -0.5173 -0.3389 -0.0310
  587TMC3    C6 8703   1.949   0.072  16.054  0.2080  0.0220  0.0109
  587TMC3     C 8704   1.616   0.202  15.873 -0.7117  0.5328 -0.4568
  587TMC3     O 8705   1.586   0.161  15.764  0.1229 -0.1489  0.6577
  587TMC3     H 8706   1.789   0.359  15.979 -2.3636 -0.0999 -1.1869
  587TMC3    H1 8707   1.716   4.695  15.831  2.0712 -0.9246 -1.0815
  587TMC3    H2 8708   2.027   0.027  16.114  0.3484 -1.9358 -1.6353
  587TMC3    C7 8709   1.893   4.571  15.964  0.0547  0.2324 -0.1187
  587TMC3    C8 8710   2.009   0.293  16.130 -1.0225  0.4064 -0.8337
  587TMC3    O1 8711   1.865   4.525  15.853  0.0511  0.0627  0.4360
  587TMC3    O2 8712   2.120   0.257  16.157  0.3627  0.7390  0.1258
  588TMC3    C1 8713   3.337   3.248   9.576 -0.0673 -0.1693 -0.5682
  588TMC3    C2 8714   3.291   3.125   9.613 -0.2490 -0.1544  0.6159
  588TMC3    C3 8715   3.387   3.024   9.617  0.0275  1.4239 -0.1296
  588TMC3    C4 8716   3.465   3.274   9.544  0.4469 -1.0531 -0.1200
  588TMC3    C5 8717   3.552   3.170   9.542 -0.2938 -0.1448 -0.4437
  588TMC3    C6 8718   3.516   3.039   9.577 -0.3629 -0.1621  0.2063
  588TMC3     C 8719   3.261   3.370   9.591 -0.2229  0.3775 -0.5662
  588TMC3     O 8720   3.140   3.365   9.572 -0.4646  0.0207  1.0758
  588TMC3     H 8721   3.190   3.116   9.649 -0.3319  0.6707  0.5884
  588TMC3    H1 8722   3.491   3.373   9.508 -0.0974 -0.6378  0.6327
  588TMC3    H2 8723   3.582   2.956   9.556  0.5947  0.5238  0.5337
  588TMC3    C7 8724   3.692   3.197   9.563 -0.2825 -0.1281  0.7071
  588TMC3    C8 8725   3.338   2.892   9.642 -0.2680  0.2334  0.2767
  588TMC3    O1 8726   3.756   3.107   9.614 -0.4399 -0.0714  0.4338
  588TMC3    O2 8727   3.216   2.864   9.644 -0.1143  0.0726 -0.6243
  589TMC3    C1 8728   4.083   1.072   1.270  0.0567 -0.9138  0.1850
  589TMC3    C2 8729   4.202   1.095   1.339  0.3379  0.5682 -0.4291
  589TMC3    C3 8730   4.311   1.019   1.298 -0.5208 -0.3124 -0.5555
  589TMC3    C4 8731   4.075   0.970   1.179  0.0017  1.1602 -0.0686
  589TMC3    C5 8732   4.178   0.895   1.150 -1.2308  0.5385 -0.7107
  589TMC3    C6 8733   4.300   0.915   1.207  0.4523  0.3609  0.1936
  589TMC3     C 8734   3.968   1.164   1.290 -0.0708 -0.5244  0.0271
  589TMC3     O 8735   3.873   1.154   1.209 -0.2629  0.0756  0.4523
  589TMC3     H 8736   4.204   1.178   1.409 -1.7842  0.7509 -0.5859
  589TMC3    H1 8737   3.980   0.952   1.130 -0.0858  0.8000  0.2267
  589TMC3    H2 8738   4.392   0.860   1.190  0.7036  0.9179 -0.2576
  589TMC3    C7 8739   4.143   0.768   1.103  0.1833  0.6314  0.1414
  589TMC3    C8 8740   4.438   1.066   1.357  0.1140  0.1688 -0.2909
  589TMC3    O1 8741   4.020   0.751   1.099  0.0371  0.0096  0.0704
  589TMC3    O2 8742   4.431   1.149   1.450 -0.4529  0.3285  0.1330
  590MPD2     C 8743   2.317   3.252  16.438  0.7997 -0.1000 -0.5715
  590MPD2    C1 8744   2.277   3.366  16.374  0.0780  0.3718  0.1114
  590MPD2    C2 8745   2.360   3.429  16.281 -0.0409 -0.4249  0.0751
  590MPD2    C3 8746   2.490   3.378  16.268 -0.1583  0.3565  0.0655
  590MPD2    C4 8747   2.539   3.265  16.342 -0.6711  0.2067 -0.6260
  590MPD2    C5 8748   2.446   3.205  16.423 -0.4560  0.6909  0.6784
  590MPD2     H 8749   2.336   3.525  16.237  2.7969  1.3644  2.3748
  590MPD2    H1 8750   2.636   3.218  16.337 -0.7740 -0.0710 -0.0351
  590MPD2    H2 8751   2.252   3.198  16.507  1.5010  0.2990  0.3927
  590MPD2    H3 8752   2.471   3.123  16.489  0.4588  0.0446 -0.4666
  590MPD2     N 8753   2.566   3.464  16.190 -0.2508 -0.3076  0.4167
  590MPD2    H5 8754   2.518   3.531  16.131  0.6916  0.5394  0.6070
  590MPD2    N1 8755   2.139   3.402  16.393  0.1319 -0.0546 -0.4308
  590MPD2    H7 8756   2.079   3.362  16.465  0.2872 -0.0280 -0.2865
  591TMC3    C1 8757   2.754   3.561  16.090 -0.4934  0.9208  0.2347
  591TMC3    C2 8758   2.861   3.536  16.007 -0.1366 -0.9918  1.0458
  591TMC3    C3 8759   2.899   3.628  15.915  0.2325  0.5823  0.5394
  591TMC3    C4 8760   2.676   3.675  16.069 -0.2055 -0.7910  0.2064
  591TMC3    C5 8761   2.730   3.766  15.987 -0.4504  0.6267  0.2512
  591TMC3    C6 8762   2.835   3.748  15.900 -0.3864 -0.5614  0.4755
  591TMC3     C 8763   2.706   3.450  16.169 -0.8273 -0.0269 -0.0926
  591TMC3     O 8764   2.785   3.358  16.186  0.0875  0.0963 -0.2329
  591TMC3     H 8765   2.927   3.452  16.023 -1.6607 -2.5176 -0.7305
  591TMC3    H1 8766   2.597   3.703  16.137 -0.5747  0.9528 -0.9406
  591TMC3    H2 8767   2.858   3.828  15.830 -1.4430  0.3419  1.1716
  591TMC3    C7 8768   2.661   3.890  15.985  0.3159  0.6399  0.2365
  591TMC3    C8 8769   3.010   3.589  15.830  0.3340 -0.4491 -0.3758
  591TMC3    O1 8770   2.540   3.886  16.009  0.2976 -0.0390  0.1161
  591TMC3    O2 8771   3.055   3.474  15.843 -0.5062 -0.6964  0.1150
  592MPD2     C 8772   3.091   0.936  11.094  0.7692 -0.7941  0.2564
  592MPD2    C1 8773   3.099   0.982  11.224  0.1995  0.4271 -0.6181
  592MPD2    C2 8774   3.029   0.910  11.330 -0.2001 -0.3312 -0.1143
  592MPD2    C3 8775   2.977   0.785  11.295 -0.2290 -0.7170  0.4986
  592MPD2    C4 8776   2.977   0.735  11.165 -0.2402  0.1215  0.1529
  592MPD2    C5 8777   3.028   0.821  11.073  0.5057 -0.0577  0.0978
  592MPD2     H 8778   3.033   0.937  11.435 -0.7810  1.4540 -0.5402
  592MPD2    H1 8779   2.932   0.642  11.132  1.3380 -1.1011  1.4153
  592MPD2    H2 8780   3.141   0.991  11.015 -1.2687  1.2166  0.3981
  592MPD2    H3 8781   3.025   0.800  10.967  2.2739  1.5011 -0.2686
  592MPD2     N 8782   2.910   0.720  11.404  0.0974  0.0220 -0.1382
  592MPD2    H5 8783   2.898   0.772  11.491  1.2951 -0.2774  0.2050
  592MPD2    N1 8784   3.171   1.104  11.238 -0.1238 -0.0689  0.1296
  592MPD2    H7 8785   3.213   1.150  11.158 -1.5513  0.4379 -0.3181
  593TMC3    C1 8786   3.282   1.275  11.360 -0.5404  0.0335  0.0559
  593TMC3    C2 8787   3.335   1.307  11.481 -0.0454  0.1434 -0.4183
  593TMC3    C3 8788   3.464   1.345  11.487  0.6929 -0.3665 -0.5116
  593TMC3    C4 8789   3.350   1.289  11.245 -0.6816  0.0984  0.5575
  593TMC3    C5 8790   3.478   1.338  11.252  0.1423 -0.9929 -0.0446
  593TMC3    C6 8791   3.540   1.355  11.373  0.2260 -0.4888  0.0119
  593TMC3     C 8792   3.184   1.170  11.363 -0.2362 -0.5748  0.0976
  593TMC3     O 8793   3.135   1.138  11.469 -0.4472  0.0533  0.3900
  593TMC3     H 8794   3.276   1.305  11.572  0.5221 -0.4152 -0.0652
  593TMC3    H1 8795   3.292   1.303  11.154 -0.3298  0.3141  0.3688
  593TMC3    H2 8796   3.645   1.381  11.376  0.1406 -0.4963  2.6509
  593TMC3    C7 8797   3.540   1.411  11.142 -0.3547  0.0674  0.1524
  593TMC3    C8 8798   3.495   1.427  11.594  0.2986 -0.2791  0.4170
  593TMC3    O1 8799   3.638   1.477  11.168 -0.2113  0.3787  0.6212
  593TMC3    O2 8800   3.416   1.512  11.624 -0.1699 -0.0068 -0.0688
  594MPD2     C 8801   1.410   4.654  13.924 -0.2873 -0.3967  0.1774
  594MPD2    C1 8802   1.425   4.600  14.053  0.1874  0.2280  0.5828
  594MPD2    C2 8803   1.549   4.584  14.105 -0.7256  0.1183 -0.3213
  594MPD2    C3 8804   1.662   4.628  14.033 -0.1061  0.1860 -0.0675
  594MPD2    C4 8805   1.641   4.687  13.903  0.8262 -0.0962 -0.2809
  594MPD2    C5 8806   1.518   4.705  13.854 -0.0341 -0.6077  1.1056
  594MPD2     H 8807   1.566   4.557  14.208 -1.3847 -0.1918 -0.2897
  594MPD2    H1 8808   1.722   4.719  13.838  0.0480  0.4261 -0.9959
  594MPD2    H2 8809   1.311   4.666  13.882 -0.4509 -0.4555  0.5461
  594MPD2    H3 8810   1.504   0.027  13.757 -1.6005 -2.3721  0.4898
  594MPD2     N 8811   1.787   4.622  14.095 -0.4156 -0.3560  0.4141
  594MPD2    H5 8812   1.787   4.572  14.184  1.0637 -0.5211  0.3234
  594MPD2    N1 8813   1.304   4.565  14.120  0.0799 -0.5209  0.1157
  594MPD2    H7 8814   1.222   4.578  14.062  0.3906  0.1542 -0.1727
  595TMC3    C1 8815   2.221   0.051  14.176  0.1855  0.7514  0.6513
  595TMC3    C2 8816   2.136   4.722  14.087 -0.8001 -0.4142  0.1145
  595TMC3    C3 8817   2.010   4.684  14.129 -1.0310  0.8716  0.1782
  595TMC3    C4 8818   2.189   0.070  14.311  0.0773  0.1996 -0.4459
  595TMC3    C5 8819   2.066   0.037  14.350  0.4443 -0.2513  0.5192
  595TMC3    C6 8820   1.979   4.709  14.260  0.7554 -0.1266  0.1480
  595TMC3     C 8821   2.367   0.056  14.149 -0.1337  0.2743 -0.1781
  595TMC3     O 8822   2.439   0.064  14.248  0.3996  0.2980 -0.0932
  595TMC3     H 8823   2.153   4.714  13.980 -1.5449  0.4544 -0.0655
  595TMC3    H1 8824   2.252   0.138  14.367 -1.7188  0.2525  1.5239
  595TMC3    H2 8825   1.879   4.690  14.297  0.8254 -0.7645 -0.0005
  595TMC3    C7 8826   2.022   0.107  14.469 -0.4792 -0.1489  0.5634
  595TMC3    C8 8827   1.899   4.678  14.040 -0.1559 -0.9315 -0.3370
  595TMC3    O1 8828   1.900   0.111  14.488 -0.5853 -0.3319 -0.2615
  595TMC3    O2 8829   1.910   0.027  13.943 -0.3107  0.4057  0.4538
  596MPD2     C 8830   1.133   2.234  16.689  0.2268  0.9043  0.4814
  596MPD2    C1 8831   1.132   2.369  16.656  0.5961  0.2116 -0.0294
  596MPD2    C2 8832   1.143   2.414  16.530  0.0383  0.2058 -0.6556
  596MPD2    C3 8833   1.176   2.324  16.432  0.1568 -0.3625  0.4577
  596MPD2    C4 8834   1.193   2.191  16.469  0.1934 -0.2123  0.9632
  596MPD2    C5 8835   1.174   2.148  16.592 -0.2324  0.5019 -1.1794
  596MPD2     H 8836   1.126   2.520  16.517 -0.4667  0.0528 -1.2509
  596MPD2    H1 8837   1.228   2.112  16.404  0.8519  1.1448 -0.3284
  596MPD2    H2 8838   1.108   2.186  16.783  0.7753 -2.3056 -0.9990
  596MPD2    H3 8839   1.180   2.041  16.607 -1.4792  0.5337 -0.5177
  596MPD2     N 8840   1.181   2.356  16.292 -0.3308 -0.1969  0.4206
  596MPD2    H5 8841   1.201   2.280  16.228  0.2842  0.0214  0.3513
  596MPD2    N1 8842   1.104   2.474  16.749  0.6655  0.0486 -0.2653
  596MPD2    H7 8843   1.107   2.568  16.711  0.1394  0.1983  0.0757
  597TMC3    C1 8844   1.053   2.573  16.954  0.2432 -0.8272 -0.5619
  597TMC3    C2 8845   1.146   2.669  16.933  0.1764 -0.4124  0.2001
  597TMC3    C3 8846   1.148   2.776  17.018 -0.3026 -0.1875 -0.0527
  597TMC3    C4 8847   0.960   2.587  17.050  0.0260  0.3923 -0.7503
  597TMC3    C5 8848   0.958   2.709  17.121  0.3176  0.0064 -0.1073
  597TMC3    C6 8849   1.045   2.810  17.107 -0.7384 -0.0688  0.7931
  597TMC3     C 8850   1.062   2.448  16.877  0.6148  0.4778 -0.6255
  597TMC3     O 8851   1.006   2.350  16.921  0.7634  0.3023 -0.3714
  597TMC3     H 8852   1.228   2.649  16.865  0.4159  0.0573  0.3471
  597TMC3    H1 8853   0.884   2.512  17.071  0.8553 -0.5286 -1.0429
  597TMC3    H2 8854   1.052   2.900  17.166 -0.9835  0.7098 -0.3717
  597TMC3    C7 8855   0.838   2.742  17.195  0.2029 -0.4412  0.8505
  597TMC3    C8 8856   1.266   2.857  17.032  0.2884 -0.0259 -0.0178
  597TMC3    O1 8857   0.756   2.661  17.228  0.7485  0.4718 -0.0085
  597TMC3    O2 8858   1.245   2.971  17.072  0.1513  0.2034 -0.0007
  598TMC3    C1 8859   4.175   4.403  15.215 -0.6820  0.1857 -0.8107
  598TMC3    C2 8860   4.063   4.330  15.232 -0.3278  0.1729  0.2265
  598TMC3    C3 8861   4.001   4.288  15.121 -0.2623 -0.0995  0.4576
  598TMC3    C4 8862   4.221   4.428  15.092  0.1450  0.9031 -0.3861
  598TMC3    C5 8863   4.153   4.374  14.982  0.0514  0.3763  0.1896
  598TMC3    C6 8864   4.041   4.299  14.995  0.1670 -0.0967 -0.0325
  598TMC3     C 8865   4.251   4.462  15.324  0.0346  0.4685 -0.1164
  598TMC3     O 8866   4.369   4.483  15.298  0.3301 -0.2715  0.2256
  598TMC3     H 8867   4.025   4.295  15.327  0.5850  2.1450  1.3057
  598TMC3    H1 8868   4.316   4.480  15.084  1.5255 -1.7208 -0.8850
  598TMC3    H2 8869   3.993   4.255  14.908 -1.0656  2.2938 -0.5629
  598TMC3    C7 8870   4.188   4.421  14.850 -0.0911 -0.2500 -0.3857
  598TMC3    C8 8871   3.897   4.188  15.137  0.1743 -0.4915  0.1708
  598TMC3    O1 8872   4.121   4.375  14.760  0.5930 -0.3468  0.6884
  598TMC3    O2 8873   3.829   4.190  15.238  0.4145  0.2296 -0.5701
  599MPD2     C 8874   4.632   1.627  16.440  0.5700  0.1603  0.0985
  599MPD2    C1 8875   4.555   1.614  16.330  0.1353 -0.2375  0.4718
  599MPD2    C2 8876   4.415   1.618  16.342 -0.5718 -0.2633 -0.0318
  599MPD2    C3 8877   4.360   1.637  16.469 -0.3094  0.6116  0.2658
  599MPD2    C4 8878   4.432   1.652  16.582 -0.1267 -0.8599  0.5440
  599MPD2    C5 8879   4.569   1.645  16.565  0.5481  0.6555  0.1396
  599MPD2     H 8880   4.348   1.619  16.257  0.7935  1.6525 -1.0799
  599MPD2    H1 8881   4.386   1.657  16.680  1.8950 -0.3177  1.4558
  599MPD2    H2 8882   0.017   1.627  16.436  0.5159  0.1524 -1.1302
  599MPD2    H3 8883   4.630   1.667  16.652 -0.2782 -0.0509  0.9010
  599MPD2     N 8884   4.217   1.631  16.493  0.4400 -0.1906 -0.4379
  599MPD2    H5 8885   4.183   1.674  16.579  0.6366 -0.9787  0.0368
  599MPD2    N1 8886   4.615   1.597  16.207  0.2070 -0.1049  0.0960
  599MPD2    H7 8887   4.716   1.609  16.208  0.0656  0.8430  2.7217
  600TMC3    C1 8888   3.981   1.597  16.434 -0.9960  0.3094 -0.0270
  600TMC3    C2 8889   3.899   1.493  16.398 -0.9126 -0.8300  0.2266
  600TMC3    C3 8890   3.765   1.513  16.422  0.1829 -0.2685 -0.3764
  600TMC3    C4 8891   3.941   1.707  16.500  0.1555 -0.1764  0.0569
  600TMC3    C5 8892   3.806   1.708  16.538 -0.2381  0.2391  0.2440
  600TMC3    C6 8893   3.714   1.617  16.489 -0.3917 -0.1438  0.4455
  600TMC3     C 8894   4.126   1.579  16.405  0.6138  0.5788  0.5984
  600TMC3     O 8895   4.151   1.507  16.307  0.3776  0.0360 -0.3193
  600TMC3     H 8896   3.934   1.401  16.352  0.7870  0.8660 -1.8849
  600TMC3    H1 8897   4.013   1.778  16.537 -0.4007  1.7279 -2.5307
  600TMC3    H2 8898   3.608   1.638  16.502 -0.3944 -0.0863  0.3345
  600TMC3    C7 8899   3.767   1.829  16.606  0.0843  0.2571  0.7771
  600TMC3    C8 8900   3.673   1.400  16.407  0.0287  0.2183 -0.0419
  600TMC3    O1 8901   3.662   1.836  16.659  0.0373 -0.2972 -0.3198
  600TMC3    O2 8902   3.731   1.294  16.425  0.3812 -0.4651  0.3787
  601MPD2     C 8903   1.083   4.482   0.278  0.6227 -0.2654  0.3357
  601MPD2    C1 8904   0.970   4.488   0.196  0.2444 -0.2161 -0.3422
  601MPD2    C2 8905   0.896   4.376   0.177 -0.4427 -0.1291 -0.4172
  601MPD2    C3 8906   0.949   4.248   0.215 -0.8279  0.2807  0.8137
  601MPD2    C4 8907   1.076   4.240   0.270  0.0565 -0.1134 -0.2368
  601MPD2    C5 8908   1.127   4.360   0.311  0.2874 -1.4870  0.0566
  601MPD2     H 8909   0.804   4.378   0.120 -1.3894  0.7610  1.1525
  601MPD2    H1 8910   1.119   4.142   0.289  1.9036  0.7816  0.1020
  601MPD2    H2 8911   1.142   4.566   0.310 -1.3499  0.8484  1.0339
  601MPD2    H3 8912   1.226   4.353   0.354  1.1894  2.2168 -1.4127
  601MPD2     N 8913   0.880   4.129   0.202 -0.1693  0.1134  0.0102
  601MPD2    H5 8914   0.936   4.044   0.206  2.7045  1.8837 -2.9564
  601MPD2    N1 8915   0.924   4.608   0.133  0.9023  0.9479  0.3188
  601MPD2    H7 8916   0.831   4.608   0.092  2.0356 -1.4752 -2.2621
  602TMC3    C1 8917   0.950   0.088   0.021  1.1150 -0.5297 -0.1237
  602TMC3    C2 8918   1.055   0.169  17.675  0.6284 -0.0394  0.1170
  602TMC3    C3 8919   1.045   0.221  17.547 -0.2796 -0.1612 -0.1903
  602TMC3    C4 8920   0.837   0.058  17.639  0.3543  0.4637  0.5773
  602TMC3    C5 8921   0.835   0.109  17.506 -0.3024 -0.4055  0.3200
  602TMC3    C6 8922   0.935   0.192  17.464 -1.0724 -0.5816 -0.6480
  602TMC3     C 8923   1.007   4.714   0.115 -0.9683  0.0528 -0.4328
  602TMC3     O 8924   1.111   0.018   0.168  0.0256  0.3414 -0.1039
  602TMC3     H 8925   1.138   0.199   0.039  0.8996 -0.4594 -0.0393
  602TMC3    H1 8926   0.749   0.011  17.683  0.0588  1.7502  1.3631
  602TMC3    H2 8927   0.942   0.207  17.357 -0.1947  1.7670 -0.2746
  602TMC3    C7 8928   0.711   0.096  17.423 -0.2454  0.4676 -0.4726
  602TMC3    C8 8929   1.131   0.332  17.505 -1.6026  0.2682 -0.5290
  602TMC3    O1 8930   0.634   0.001  17.431 -0.3636 -0.0831 -0.1406
  602TMC3    O2 8931   1.245   0.340  17.550 -0.1148 -0.3626 -0.8878
  603TMC3    C1 8932   4.138   0.389  10.808  0.5944 -0.4422  0.0132
  603TMC3    C2 8933   4.179   0.367  10.940  0.4038  0.1055  0.8538
  603TMC3    C3 8934   4.168   0.474  11.026 -0.2469  0.1506 -0.4653
  603TMC3    C4 8935   4.097   0.509  10.761 -0.4991 -0.1199  0.5905
  603TMC3    C5 8936   4.078   0.606  10.856  0.8363  0.1456  0.2388
  603TMC3    C6 8937   4.115   0.588  10.990 -0.0419 -0.4916  0.6540
  603TMC3     C 8938   4.178   0.287  10.712  0.6831  0.0185  0.0147
  603TMC3     O 8939   4.275   0.217  10.739  0.1782  0.2613  0.4565
  603TMC3     H 8940   4.224   0.273  10.971 -0.3384 -0.9000 -1.1467
  603TMC3    H1 8941   4.100   0.547  10.660  0.1358 -1.7760 -0.0235
  603TMC3    H2 8942   4.081   0.669  11.053 -0.0813  0.5024 -0.6233
  603TMC3    C7 8943   4.098   0.739  10.810 -1.0035  0.0298  0.5140
  603TMC3    C8 8944   4.171   0.447  11.170 -0.0658 -0.3406  0.8437
  603TMC3    O1 8945   4.166   0.810  10.883 -0.0224 -0.4023 -0.6863
  603TMC3    O2 8946   4.133   0.341  11.216  0.6504  0.0534 -0.6450
  604MPD2     C 8947   4.668   3.730  16.599  0.3315  0.2312 -0.2400
  604MPD2    C1 8948   4.599   3.795  16.494 -0.4405 -0.5624  0.3561
  604MPD2    C2 8949   4.621   3.757  16.366 -0.5837  0.0064  0.2990
  604MPD2    C3 8950   4.705   3.655  16.341 -0.1726  0.2540  0.2597
  604MPD2    C4 8951   0.035   3.583  16.440 -0.0424  0.1718 -0.2507
  604MPD2    C5 8952   0.019   3.621  16.569 -0.0706  0.5336  0.7251
  604MPD2     H 8953   4.571   3.815  16.289 -3.1099 -0.0392  1.8920
  604MPD2    H1 8954   0.102   3.498  16.434 -0.3861  0.0142 -1.9049
  604MPD2    H2 8955   4.665   3.764  16.702  3.3937 -0.4646  0.0744
  604MPD2    H3 8956   0.068   3.569  16.650  1.7385 -1.2918 -1.5177
  604MPD2     N 8957   0.008   3.622  16.211  0.3003 -0.1865 -0.0096
  604MPD2    H5 8958   4.694   3.687  16.143  0.8418 -0.8754 -0.9660
  604MPD2    N1 8959   4.521   3.908  16.526 -0.0912  0.6645  0.6384
  604MPD2    H7 8960   4.529   3.941  16.622  1.3036 -0.8352  1.0341
  605TMC3    C1 8961   4.410   4.120  16.477  0.0501  0.7380 -0.5572
  605TMC3    C2 8962   4.449   4.162  16.598 -0.4914 -0.1224  0.1937
  605TMC3    C3 8963   4.433   4.301  16.619 -0.1981 -0.0957  0.1559
  605TMC3    C4 8964   4.348   4.201  16.386  0.2165  0.8782  0.2706
  605TMC3    C5 8965   4.330   4.335  16.413  0.6564 -0.1596  0.8003
  605TMC3    C6 8966   4.374   4.391  16.527 -0.4274 -0.6192  0.5987
  605TMC3     C 8967   4.437   3.978  16.436  1.0758  0.1462 -0.0106
  605TMC3     O 8968   4.393   3.942  16.330 -0.5580 -0.0079 -0.2104
  605TMC3     H 8969   4.522   4.106  16.654 -1.2673  1.3515  2.7004
  605TMC3    H1 8970   4.316   4.164  16.290  2.0330 -1.0694  0.4148
  605TMC3    H2 8971   4.326   4.482  16.560  0.0448  0.0977 -0.6966
  605TMC3    C7 8972   4.202   4.379  16.347 -1.0223 -0.0423 -0.3119
  605TMC3    C8 8973   4.533   4.358  16.703 -0.1825 -0.0964 -0.4301
  605TMC3    O1 8974   4.139   4.289  16.288 -0.2457  0.3366 -0.3062
  605TMC3    O2 8975   4.507   4.461  16.768 -0.4794  0.9304 -0.1852
  606TMC3    C1 8976   1.592   2.500  16.611  0.5683  0.1713 -0.1218
  606TMC3    C2 8977   1.682   2.519  16.719  0.3006  0.2654 -0.0284
  606TMC3    C3 8978   1.726   2.414  16.796  0.5768  0.3487  0.6012
  606TMC3    C4 8979   1.531   2.379  16.604 -0.2117 -0.3545 -0.2301
  606TMC3    C5 8980   1.554   2.283  16.692 -0.3292 -0.0487 -0.1641
  606TMC3    C6 8981   1.656   2.297  16.784  0.1361  0.2922 -0.2697
  606TMC3     C 8982   1.580   2.609  16.524 -0.3052 -0.2277 -0.1342
  606TMC3     O 8983   1.614   2.723  16.561  0.4991  0.2246 -0.4489
  606TMC3     H 8984   1.721   2.618  16.735  1.5236 -0.3009  0.4541
  606TMC3    H1 8985   1.444   2.373  16.541  0.2571  1.3618 -1.0305
  606TMC3    H2 8986   1.691   2.218  16.849 -0.7738  1.1175  1.2139
  606TMC3    C7 8987   1.512   2.155  16.643  0.4372 -0.1344  0.0572
  606TMC3    C8 8988   1.808   2.434  16.912 -0.1256  0.9776 -0.6844
  606TMC3    O1 8989   1.510   2.137  16.522 -0.3639  0.0376 -0.0948
  606TMC3    O2 8990   1.804   2.346  16.998 -0.3197  0.4500 -0.2812
  607MPD2     C 8991   3.126   0.388  11.570 -0.4822 -0.8785  0.3214
  607MPD2    C1 8992   3.136   0.513  11.625  0.4954 -0.0524  0.8267
  607MPD2    C2 8993   3.111   0.527  11.757  0.3567 -0.2355 -0.8184
  607MPD2    C3 8994   3.079   0.425  11.842  0.4404 -0.0977  0.3491
  607MPD2    C4 8995   3.056   0.302  11.787 -0.3374 -0.0373  0.4005
  607MPD2    C5 8996   3.088   0.285  11.657  0.2087 -0.5691  0.1628
  607MPD2     H 8997   3.141   0.620  11.803  0.9322 -0.7821 -0.0883
  607MPD2    H1 8998   3.033   0.211  11.841 -1.4381 -0.0306 -0.0591
  607MPD2    H2 8999   3.138   0.366  11.465  2.4532 -0.1788  0.5284
  607MPD2    H3 9000   3.078   0.188  11.608 -1.3712 -0.2224 -0.1978
  607MPD2     N 9001   3.095   0.448  11.983 -0.9832  0.2626  0.1230
  607MPD2    H5 9002   3.118   0.543  12.007 -0.8466  0.3032 -0.1721
  607MPD2    N1 9003   3.190   0.626  11.559 -0.1710 -0.7818 -0.2813
  607MPD2    H7 9004   3.176   0.717  11.603 -1.3643 -1.8087  1.4777
  608TMC3    C1 9005   3.329   0.755  11.430  0.5029  0.6063 -0.4300
  608TMC3    C2 9006   3.363   0.829  11.543  0.0369  0.1030  0.2528
  608TMC3    C3 9007   3.457   0.931  11.537 -0.1143  0.1217 -0.4746
  608TMC3    C4 9008   3.380   0.782  11.310  0.3443  0.0702  0.1478
  608TMC3    C5 9009   3.473   0.882  11.304 -0.4498  0.9241  0.7304
  608TMC3    C6 9010   3.511   0.959  11.412  0.0156  0.7569 -0.0245
  608TMC3     C 9011   3.254   0.634  11.442  0.3754  0.1564 -0.4302
  608TMC3     O 9012   3.285   0.538  11.374  0.3336 -0.4879 -0.5505
  608TMC3     H 9013   3.331   0.787  11.638 -0.0133  1.3650  0.7908
  608TMC3    H1 9014   3.360   0.722  11.222  0.0805  0.5610 -0.1248
  608TMC3    H2 9015   3.594   1.028  11.410 -0.8306  1.7811  0.3013
  608TMC3    C7 9016   3.541   0.910  11.180  0.2621 -0.3166 -0.1791
  608TMC3    C8 9017   3.487   1.007  11.654  0.0484  0.1145 -0.7391
  608TMC3    O1 9018   3.472   0.912  11.080 -0.1971  0.3375 -0.2257
  608TMC3    O2 9019   3.587   1.077  11.647 -0.0598  0.5755 -0.8911
  609TMC3    C1 9020   1.409   4.688   8.746 -0.4981 -0.3618 -0.7585
  609TMC3    C2 9021   1.449   0.087   8.700  0.0879  0.8770  0.4117
  609TMC3    C3 9022   1.581   0.101   8.683  0.3460 -0.7957  0.3647
  609TMC3    C4 9023   1.499   4.581   8.742 -0.2136  0.7419  1.5441
  609TMC3    C5 9024   1.629   4.597   8.721  0.3237  0.5046 -0.2668
  609TMC3    C6 9025   1.673   0.001   8.692  0.0817 -0.8633  0.2472
  609TMC3     C 9026   1.280   4.682   8.817 -0.0644 -0.0264  0.2478
  609TMC3     O 9027   1.247   4.568   8.845  0.5153 -0.0885 -0.3048
  609TMC3     H 9028   1.385   0.174   8.694  0.6699  1.2637 -0.1754
  609TMC3    H1 9029   1.466   4.485   8.782  0.5705 -0.1002  0.1762
  609TMC3    H2 9030   1.778   0.017   8.673 -0.0709 -2.2894 -1.8049
  609TMC3    C7 9031   1.732   4.494   8.726 -0.6564  0.5368 -0.3342
  609TMC3    C8 9032   1.624   0.236   8.649  0.3950  0.2196 -0.4237
  609TMC3    O1 9033   1.851   4.532   8.737  0.0453 -0.1857  0.1550
  609TMC3    O2 9034   1.545   0.319   8.602 -0.1705 -0.1246 -0.3189
  610TMC3    C1 9035   3.795   0.352  12.536 -0.1495 -0.3636  0.7193
  610TMC3    C2 9036   3.825   0.439  12.436  0.5234  0.2226 -0.6949
  610TMC3    C3 9037   3.934   0.415  12.356 -0.1480  0.4442  0.3160
  610TMC3    C4 9038   3.889   0.256  12.567 -0.1599  0.8524  0.3683
  610TMC3    C5 9039   4.007   0.249  12.503 -0.0107 -0.5581  0.0901
  610TMC3    C6 9040   4.030   0.323  12.394 -0.2288 -0.0528 -0.3782
  610TMC3     C 9041   3.665   0.354  12.606  0.3715 -0.1125  0.3986
  610TMC3     O 9042   3.650   0.258  12.682 -0.5993 -0.3588 -0.3839
  610TMC3     H 9043   3.759   0.515  12.395  1.1427  1.1479  0.0205
  610TMC3    H1 9044   3.864   0.176  12.636 -1.2105  0.5938 -0.3027
  610TMC3    H2 9045   4.101   0.297  12.316  0.6875  2.8385 -0.5061
  610TMC3    C7 9046   4.121   0.203  12.575 -0.3570 -1.0960 -0.0890
  610TMC3    C8 9047   3.958   0.483  12.232 -0.1469  0.3343  0.2369
  610TMC3    O1 9048   4.092   0.133  12.666 -0.0495 -0.4325  0.2882
  610TMC3    O2 9049   4.074   0.508  12.199 -0.3380  0.0151 -0.7399
  611MPD2     C 9050   2.856   0.666  10.513  0.3300 -0.3503  0.7334
  611MPD2    C1 9051   2.864   0.674  10.381  0.2031 -0.0998 -0.4876
  611MPD2    C2 9052   2.965   0.750  10.328 -0.1663 -0.1954 -0.0930
  611MPD2    C3 9053   3.063   0.807  10.413  0.6875  0.4986 -1.0724
  611MPD2    C4 9054   3.064   0.785  10.540 -0.3834  0.4328 -0.4643
  611MPD2    C5 9055   2.953   0.719  10.594  0.5291 -0.8103  0.3733
  611MPD2     H 9056   2.981   0.757  10.221 -1.3980  1.5006 -0.1658
  611MPD2    H1 9057   3.135   0.829  10.609  1.4517  2.0021 -3.3539
  611MPD2    H2 9058   2.770   0.617  10.556  0.0776 -1.0680 -0.5929
  611MPD2    H3 9059   2.940   0.707  10.701  0.9791 -0.0649  0.5177
  611MPD2     N 9060   3.174   0.863  10.342 -0.7416  0.0895 -0.1522
  611MPD2    H5 9061   3.172   0.863  10.240  2.3926 -0.1698 -0.1973
  611MPD2    N1 9062   2.751   0.616  10.312  0.5284  0.2386  0.1262
  611MPD2    H7 9063   2.686   0.568  10.374  1.2913 -0.0330  0.7142
  612TMC3    C1 9064   3.380   0.975  10.299 -0.3525  0.2464  1.0856
  612TMC3    C2 9065   3.504   1.001  10.340  0.1321 -0.0375  0.4240
  612TMC3    C3 9066   3.586   1.071  10.255 -0.2067 -0.0642  0.0371
  612TMC3    C4 9067   3.331   1.022  10.183 -0.3781  0.5681  0.0821
  612TMC3    C5 9068   3.408   1.086  10.097 -0.4785  1.0596 -0.7268
  612TMC3    C6 9069   3.536   1.120  10.137  0.2768  0.6103  0.2387
  612TMC3     C 9070   3.290   0.909  10.398 -0.2516 -0.4655 -0.3554
  612TMC3     O 9071   3.346   0.857  10.495  0.8278  0.3760 -0.2831
  612TMC3     H 9072   3.539   0.982  10.441  2.7502  2.6868  0.0237
  612TMC3    H1 9073   3.224   1.008  10.168 -0.9310  2.4226  2.2429
  612TMC3    H2 9074   3.596   1.172  10.063 -0.2228  0.5299 -0.2239
  612TMC3    C7 9075   3.368   1.151   9.968 -0.0202 -0.2793  0.4242
  612TMC3    C8 9076   3.722   1.096  10.293  0.3200 -0.6791 -0.5990
  612TMC3    O1 9077   3.432   1.245   9.924  0.8066  0.0805  0.7249
  612TMC3    O2 9078   3.781   1.193  10.248  0.2905  0.1805 -0.2220
  613MPD2     C 9079   2.529   2.507  16.013 -0.0916  0.1253 -0.1276
  613MPD2    C1 9080   2.470   2.591  15.919 -0.9543 -0.0644  0.0310
  613MPD2    C2 9081   2.354   2.550  15.852 -1.1849 -0.4271  0.8150
  613MPD2    C3 9082   2.293   2.434  15.877 -0.1726 -0.3088  0.1887
  613MPD2    C4 9083   2.349   2.352  15.975  0.0800 -0.1215  0.2324
  613MPD2    C5 9084   2.468   2.383  16.036 -0.3658  0.7768 -0.3064
  613MPD2     H 9085   2.313   2.624  15.784 -1.3416  0.4412  1.8447
  613MPD2    H1 9086   2.302   2.256  15.996 -1.5484  0.7680  0.6368
  613MPD2    H2 9087   2.618   2.533  16.070  0.4251 -2.6995  0.3346
  613MPD2    H3 9088   2.520   2.316  16.104  0.7611 -1.0473 -2.9510
  613MPD2     N 9089   2.184   2.387  15.803  0.1000  0.2383 -0.2938
  613MPD2    H5 9090   2.153   2.293  15.825  0.0786  0.1254 -0.7984
  613MPD2    N1 9091   2.544   2.711  15.892 -0.0139  0.0995 -0.3209
  613MPD2    H7 9092   2.637   2.714  15.934  0.2143 -0.0765 -0.8079
  614TMC3    C1 9093   2.608   2.894  15.761 -0.1332  0.0907  0.0098
  614TMC3    C2 9094   2.690   2.808  15.701  0.2587  0.2353 -0.0568
  614TMC3    C3 9095   2.719   2.818  15.564 -0.2967 -0.0092 -0.1619
  614TMC3    C4 9096   2.555   3.002  15.702 -0.3194  0.6566  0.1099
  614TMC3    C5 9097   2.594   3.020  15.575  1.2467 -0.0526 -0.2954
  614TMC3    C6 9098   2.676   2.935  15.501  0.1386 -0.0568  0.6255
  614TMC3     C 9099   2.499   2.813  15.821  0.4831 -0.4204 -0.2505
  614TMC3     O 9100   2.385   2.851  15.793  0.3323 -0.4095  1.0101
  614TMC3     H 9101   2.726   2.717  15.747 -0.3562  0.4773  0.9030
  614TMC3    H1 9102   2.476   3.054  15.755 -0.3364  2.0286 -1.2587
  614TMC3    H2 9103   2.698   2.968  15.401  0.4097 -0.9097  0.4051
  614TMC3    C7 9104   2.496   3.091  15.489  0.6657  0.4274 -0.5562
  614TMC3    C8 9105   2.699   2.693  15.487  0.1745 -0.7426  0.4953
  614TMC3    O1 9106   2.443   3.187  15.540 -0.0387  0.6431  0.4658
  614TMC3    O2 9107   2.658   2.597  15.551 -0.4135  0.4225  0.0975
  615MPD2     C 9108   1.887   3.952  16.482  0.2465  0.1023 -0.5542
  615MPD2    C1 9109   1.766   3.924  16.543  0.0837 -0.5107 -0.5809
  615MPD2    C2 9110   1.649   3.945  16.472  0.0949  0.3270 -0.5857
  615MPD2    C3 9111   1.657   3.976  16.337  0.8462 -0.3745  0.1951
  615MPD2    C4 9112   1.780   3.996  16.276  0.0283 -0.9860  0.9119
  615MPD2    C5 9113   1.893   3.975  16.348 -1.1615  0.1330  0.0086
  615MPD2     H 9114   1.555   3.932  16.524  0.4659 -2.3720 -0.5715
  615MPD2    H1 9115   1.796   4.033  16.175  0.6839 -0.3135  1.2572
  615MPD2    H2 9116   1.982   3.940  16.533 -1.1613 -1.0189  1.7656
  615MPD2    H3 9117   1.990   3.999  16.306 -0.9562  2.2596  1.7046
  615MPD2     N 9118   1.545   4.010  16.262  0.0984 -0.0573  0.3279
  615MPD2    H5 9119   1.559   4.032  16.164  2.8067  0.3742  0.8032
  615MPD2    N1 9120   1.752   3.901  16.684 -0.1371  0.2725 -0.2762
  615MPD2    H7 9121   1.658   3.880  16.718 -0.0107  1.7973  0.9885
  616TMC3    C1 9122   1.807   3.884  16.916 -0.2413 -0.4907 -0.2070
  616TMC3    C2 9123   1.901   3.848  17.007 -0.0774 -0.2938 -0.0012
  616TMC3    C3 9124   1.870   3.839  17.139  0.0046  0.0544 -0.1206
  616TMC3    C4 9125   1.679   3.906  16.955  0.3159  0.1637  0.3735
  616TMC3    C5 9126   1.653   3.890  17.086 -1.3655 -0.1680 -0.3484
  616TMC3    C6 9127   1.746   3.858  17.177  0.5193 -0.4450 -0.2449
  616TMC3     C 9128   1.852   3.892  16.778  0.2448  0.6784  0.7424
  616TMC3     O 9129   1.970   3.908  16.757 -1.4349  0.6191  0.1792
  616TMC3     H 9130   2.000   3.822  16.972  0.1314  0.1639  0.2605
  616TMC3    H1 9131   1.606   3.944  16.884  0.1440  0.8712  0.9345
  616TMC3    H2 9132   1.729   3.847  17.284 -1.6756 -2.8735 -0.8311
  616TMC3    C7 9133   1.523   3.932  17.132 -0.1978 -0.6177 -0.2960
  616TMC3    C8 9134   1.971   3.797  17.237 -0.5653 -0.5721 -0.4104
  616TMC3    O1 9135   1.514   3.978  17.243 -0.3752 -0.3842  0.1169
  616TMC3    O2 9136   1.935   3.769  17.350  0.2816 -1.2429 -0.2294
  617MPD2     C 9137   4.105   2.034  13.647 -0.8737  0.4081 -0.3391
  617MPD2    C1 9138   4.151   2.014  13.770 -0.4846 -0.2805 -0.7845
  617MPD2    C2 9139   4.056   1.975  13.866  0.0841 -0.2368  0.0299
  617MPD2    C3 9140   3.925   1.943  13.837 -0.0496 -0.1867 -0.1116
  617MPD2    C4 9141   3.885   1.962  13.709  0.4927 -0.4761 -0.1932
  617MPD2    C5 9142   3.975   2.006  13.616  0.1384 -0.6019 -0.3278
  617MPD2     H 9143   4.081   1.973  13.972 -3.6300 -4.1857  0.8164
  617MPD2    H1 9144   3.780   1.953  13.683  0.5212  1.7187 -1.0793
  617MPD2    H2 9145   4.160   2.064  13.558  1.0329  2.3357  1.5015
  617MPD2    H3 9146   3.938   2.013  13.515 -0.9315  2.0133  0.2424
  617MPD2     N 9147   3.836   1.891  13.931  0.1208  0.3768 -0.1860
  617MPD2    H5 9148   3.743   1.870  13.897  0.4663  0.7812 -1.3799
  617MPD2    N1 9149   4.285   2.041  13.802 -0.3868 -0.5576 -0.1646
  617MPD2    H7 9150   4.339   2.085  13.728  1.7870 -1.1078  1.0969
  618TMC3    C1 9151   4.483   2.021  13.919  0.3205  0.7942 -0.6534
  618TMC3    C2 9152   4.560   1.918  13.933 -0.1606  0.2047 -0.3529
  618TMC3    C3 9153   4.693   1.931  13.922 -0.2655  0.1920 -0.0060
  618TMC3    C4 9154   4.528   2.151  13.895  0.3643 -0.6215 -0.2330
  618TMC3    C5 9155   4.663   2.161  13.879  0.0223  0.1939  0.0709
  618TMC3    C6 9156   0.022   2.051  13.891 -0.6822  0.3379  0.1024
  618TMC3     C 9157   4.344   1.991  13.909 -0.9492  0.5159 -0.4785
  618TMC3     O 9158   4.304   1.908  13.991 -0.0569 -0.5390  0.2795
  618TMC3     H 9159   4.514   1.820  13.926 -0.3969  0.2201  0.9977
  618TMC3    H1 9160   4.460   2.235  13.892  1.0426  0.0140  1.7865
  618TMC3    H2 9161   0.126   2.078  13.900 -0.3617 -0.3272 -1.5987
  618TMC3    C7 9162   4.720   2.284  13.836  0.4741  0.0858  0.3096
  618TMC3    C8 9163   0.034   1.816  13.850 -0.3864  0.0289  0.2279
  618TMC3    O1 9164   4.672   2.380  13.895  0.0833  0.0316  0.0974
  618TMC3    O2 9165   4.703   1.709  13.841  0.4540 -0.8166 -0.7203
  619MPD2     C 9166   1.031   3.208  13.327  0.6247 -0.0033  0.1382
  619MPD2    C1 9167   1.023   3.205  13.189 -0.1362  0.5568  0.3742
  619MPD2    C2 9168   0.901   3.242  13.133  0.1769  0.3077  0.2638
  619MPD2    C3 9169   0.795   3.273  13.206 -0.1340  0.4204 -0.8091
  619MPD2    C4 9170   0.813   3.279  13.342  0.6335  0.3244  0.1819
  619MPD2    C5 9171   0.927   3.245  13.401  0.6096  0.6114 -0.6445
  619MPD2     H 9172   0.880   3.252  13.027 -0.1160  0.0886  0.2995
  619MPD2    H1 9173   0.734   3.310  13.409 -0.9328 -1.4563 -0.8464
  619MPD2    H2 9174   1.126   3.188  13.376  0.2123 -0.6230  0.6763
  619MPD2    H3 9175   0.943   3.267  13.505  2.6303 -4.0574  0.0474
  619MPD2     N 9176   0.671   3.317  13.152 -0.4219 -0.2823  0.3496
  619MPD2    H5 9177   0.600   3.352  13.216 -1.6590 -0.5327 -0.8589
  619MPD2    N1 9178   1.136   3.200  13.103 -0.0168 -0.6456 -0.3414
  619MPD2    H7 9179   1.115   3.207  13.004 -2.8277  1.2356  0.4127
  620TMC3    C1 9180   1.350   3.249  13.030 -0.4953 -0.4015  0.6667
  620TMC3    C2 9181   1.293   3.258  12.910  0.0475 -0.3602 -0.2176
  620TMC3    C3 9182   1.334   3.358  12.833 -0.0241 -0.2570  0.3269
  620TMC3    C4 9183   1.446   3.334  13.076 -0.0464  0.2877  0.9464
  620TMC3    C5 9184   1.492   3.432  12.994  0.3418  0.0448  0.6685
  620TMC3    C6 9185   1.437   3.445  12.865 -0.4805 -0.0584  0.4426
  620TMC3     C 9186   1.268   3.194  13.137 -0.6586  0.4704  0.3890
  620TMC3     O 9187   1.312   3.195  13.254 -0.4633 -0.0542 -0.4719
  620TMC3     H 9188   1.231   3.179  12.869  0.4262  0.1315 -1.7516
  620TMC3    H1 9189   1.476   3.333  13.180  0.7391 -3.6852  0.6735
  620TMC3    H2 9190   1.462   3.516  12.787 -1.0745 -1.0150 -0.5976
  620TMC3    C7 9191   1.538   3.560  13.054 -0.1840  0.3710  0.2731
  620TMC3    C8 9192   1.283   3.380  12.704  0.0272 -0.1673 -0.2530
  620TMC3    O1 9193   1.533   3.657  12.987  0.1185  0.2187 -0.1068
  620TMC3    O2 9194   1.360   3.375  12.608  0.3883  0.2747 -0.0008
  621MPD2     C 9195   0.973   3.422   9.824 -0.2855 -0.9377  0.3007
  621MPD2    C1 9196   1.071   3.422   9.728 -0.1876  0.1260 -0.6525
  621MPD2    C2 9197   1.088   3.540   9.659 -0.1097 -0.8666  0.4201
  621MPD2    C3 9198   1.016   3.652   9.687 -0.7837  0.7880  0.8091
  621MPD2    C4 9199   0.922   3.660   9.789 -0.2109 -0.1657 -0.4059
  621MPD2    C5 9200   0.900   3.540   9.857  0.2352 -0.5619  0.5615
  621MPD2     H 9201   1.157   3.525   9.577  1.1189  1.8308  0.9514
  621MPD2    H1 9202   0.868   3.750   9.817 -1.9698 -0.7377 -1.9502
  621MPD2    H2 9203   0.941   3.333   9.877 -1.8548 -0.4132  0.2435
  621MPD2    H3 9204   0.827   3.545   9.937 -1.5749  2.2116 -1.2942
  621MPD2     N 9205   1.039   3.761   9.592 -1.0402  0.1222 -0.0673
  621MPD2    H5 9206   1.102   3.742   9.514 -0.8918 -2.8062  0.7617
  621MPD2    N1 9207   1.148   3.310   9.686  0.5758  0.3900 -0.1897
  621MPD2    H7 9208   1.199   3.328   9.600  2.3315  1.2985  1.0384
  622TMC3    C1 9209   1.206   3.075   9.660  0.5403  0.7315 -0.2971
  622TMC3    C2 9210   1.180   2.955   9.729 -0.2481 -0.1260  0.1541
  622TMC3    C3 9211   1.138   2.845   9.657 -0.0444 -0.2411 -0.1859
  622TMC3    C4 9212   1.201   3.078   9.525 -0.7496 -0.2692 -0.3778
  622TMC3    C5 9213   1.164   2.958   9.466  0.0124  0.3902  0.8957
  622TMC3    C6 9214   1.131   2.839   9.525  0.4080 -0.1507 -0.3736
  622TMC3     C 9215   1.136   3.182   9.731 -0.1238 -0.2398  0.1797
  622TMC3     O 9216   1.066   3.135   9.822  0.2818  0.0263 -0.6085
  622TMC3     H 9217   1.185   2.950   9.838  1.1959  2.7479  0.2297
  622TMC3    H1 9218   1.235   3.169   9.476 -1.0527  0.4170  0.6807
  622TMC3    H2 9219   1.102   2.750   9.471 -2.0889 -0.3207  1.2859
  622TMC3    C7 9220   1.183   2.956   9.320 -0.1873 -0.2512 -0.6240
  622TMC3    C8 9221   1.007   2.800   9.717 -0.0962  0.1847 -0.3251
  622TMC3    O1 9222   1.184   2.844   9.268  0.3546 -0.2213  0.1387
  622TMC3    O2 9223   0.972   2.696   9.668 -0.3108 -0.0580  0.1106
  623MPD2     C 9224   0.258   3.803  15.941  0.2656  1.1630 -0.4626
  623MPD2    C1 9225   0.201   3.884  16.039  0.0661 -0.1720 -0.1947
  623MPD2    C2 9226   0.244   3.877  16.175 -0.1203  0.2273 -0.1331
  623MPD2    C3 9227   0.354   3.796  16.201 -0.2876 -0.2014  0.2057
  623MPD2    C4 9228   0.412   3.721  16.103  0.8625 -0.5520  0.4351
  623MPD2    C5 9229   0.358   3.719  15.978  0.6789 -0.6016  0.1761
  623MPD2     H 9230   0.193   3.926  16.257 -0.1694  0.3368 -0.2286
  623MPD2    H1 9231   0.496   3.657  16.129  1.7991 -0.1198 -1.5171
  623MPD2    H2 9232   0.223   3.810  15.839  0.1478  1.3492 -0.4108
  623MPD2    H3 9233   0.406   3.663  15.899  0.9506 -0.5226  0.2837
  623MPD2     N 9234   0.399   3.797  16.338  0.5336  0.1733 -0.1746
  623MPD2    H5 9235   0.363   3.859  16.410  0.4076  0.0946 -0.1703
  623MPD2    N1 9236   0.093   3.971  16.008  0.2811 -0.4428 -0.2319
  623MPD2    H7 9237   0.073   3.977  15.908  0.7057  1.0581 -0.2182
  624TMC3    C1 9238   0.621   3.786  16.725  0.1208  0.6465 -0.4512
  624TMC3    C2 9239   0.508   3.847  16.781 -0.6587 -0.3825  0.4225
  624TMC3    C3 9240   0.388   3.841  16.717  0.3923 -0.0491  0.2508
  624TMC3    C4 9241   0.617   3.712  16.609  0.1976  0.5173 -0.0829
  624TMC3    C5 9242   0.500   3.723  16.535  0.0830  0.0468  0.0786
  624TMC3    C6 9243   0.389   3.778  16.593 -0.5232 -0.6707 -0.8986
  624TMC3     C 9244   0.713   3.744  16.823 -0.1091 -0.9926  0.0720
  624TMC3     O 9245   0.750   3.823  16.909 -0.0917  0.0067  0.2136
  624TMC3     H 9246   0.534   3.899  16.873  4.8384 -1.4268 -0.5255
  624TMC3    H1 9247   0.708   3.681  16.560  0.4840 -2.1500  2.1244
  624TMC3    H2 9248   0.301   3.746  16.539 -0.8505 -1.2039 -0.0525
  624TMC3    C7 9249   0.511   3.733  16.387 -0.1026 -0.4339 -0.4246
  624TMC3    C8 9250   0.299   3.953  16.718  0.4540 -0.3319 -0.2810
  624TMC3    O1 9251   0.608   3.695  16.325  0.6509 -0.6170 -0.1710
  624TMC3    O2 9252   0.231   3.964  16.617  0.1153  0.0856 -0.3864
  625MPD2     C 9253   1.541   0.406   0.595 -0.1988  0.3358  0.2001
  625MPD2    C1 9254   1.606   0.510   0.532  0.3647 -0.2465  0.5204
  625MPD2    C2 9255   1.725   0.490   0.469  0.4249 -0.3940  0.0830
  625MPD2    C3 9256   1.787   0.367   0.462 -0.8784 -0.3461  0.2134
  625MPD2    C4 9257   1.729   0.264   0.537  0.0472 -0.5430  0.6819
  625MPD2    C5 9258   1.603   0.285   0.595  0.1556  0.2645  0.0356
  625MPD2     H 9259   1.776   0.573   0.420  2.2160 -1.5508 -0.0026
  625MPD2    H1 9260   1.778   0.167   0.538  0.1960 -0.4519  1.6069
  625MPD2    H2 9261   1.445   0.416   0.644 -0.2305 -0.7656  0.3439
  625MPD2    H3 9262   1.553   0.206   0.651  3.0202 -1.8603 -0.4174
  625MPD2     N 9263   1.901   0.358   0.383 -0.2294 -0.1537  0.1288
  625MPD2    H5 9264   1.927   0.438   0.327 -2.4119  0.3707 -0.1294
  625MPD2    N1 9265   1.548   0.637   0.525 -0.1649  0.6055 -0.0792
  625MPD2    H7 9266   1.605   0.711   0.484 -0.3439  0.9878  0.3613
  626TMC3    C1 9267   1.390   0.803   0.516 -0.1954 -0.7836  1.0302
  626TMC3    C2 9268   1.278   0.834   0.440  0.5270  0.8028 -0.4209
  626TMC3    C3 9269   1.258   0.962   0.407 -0.0210 -0.6344 -0.5882
  626TMC3    C4 9270   1.475   0.901   0.558  0.6422 -0.9947 -0.2160
  626TMC3    C5 9271   1.441   1.033   0.524  0.4568 -0.3341  0.5557
  626TMC3    C6 9272   1.339   1.066   0.439 -0.2178  0.5718  0.0871
  626TMC3     C 9273   1.413   0.659   0.549  0.1441  0.8240 -0.8095
  626TMC3     O 9274   1.321   0.578   0.543  1.0971 -0.3459 -0.4881
  626TMC3     H 9275   1.219   0.749   0.407 -0.2704  2.1992 -2.5796
  626TMC3    H1 9276   1.539   0.870   0.639 -1.1953 -2.7625  0.5766
  626TMC3    H2 9277   1.318   1.165   0.401  2.6677  1.4893  0.9100
  626TMC3    C7 9278   1.512   1.138   0.596 -0.1254  0.8928 -0.0308
  626TMC3    C8 9279   1.136   0.991   0.328 -0.0377 -0.0500  0.5495
  626TMC3    O1 9280   1.560   1.228   0.527 -0.6166  0.0963 -0.4170
  626TMC3    O2 9281   1.141   1.090   0.252 -0.6290  0.3730 -0.0758
  627MPD2     C 9282   3.863   0.999  15.192 -0.1601 -0.2453  0.6243
  627MPD2    C1 9283   3.906   0.927  15.083  0.2495 -0.2293  0.5142
  627MPD2    C2 9284   3.822   0.824  15.035  0.1734  0.3489 -0.3660
  627MPD2    C3 9285   3.712   0.781  15.117  0.1697  0.6118 -0.4027
  627MPD2    C4 9286   3.681   0.846  15.238  0.3080 -0.1220  0.4807
  627MPD2    C5 9287   3.765   0.952  15.270 -0.1228 -0.5598  0.1271
  627MPD2     H 9288   3.842   0.766  14.945 -1.1530 -3.2094  1.6040
  627MPD2    H1 9289   3.597   0.821  15.300 -0.8746  0.4050 -0.9025
  627MPD2    H2 9290   3.915   1.089  15.223  1.1575 -0.8446  0.1896
  627MPD2    H3 9291   3.746   1.005  15.363 -2.3343  0.1885 -0.7531
  627MPD2     N 9292   3.626   0.668  15.084  0.2588 -0.0588  0.3601
  627MPD2    H5 9293   3.547   0.652  15.145  0.2477 -1.3619 -0.0105
  627MPD2    N1 9294   4.022   0.957  15.009  0.2053 -0.6434  0.6681
  627MPD2    H7 9295   4.048   0.906  14.926 -3.0851 -2.1737  0.5941
  628TMC3    C1 9296   4.230   1.054  14.957 -0.2572 -0.6001  0.0755
  628TMC3    C2 9297   4.352   1.030  15.010  0.7384  0.0846  0.0353
  628TMC3    C3 9298   4.457   1.112  14.970  0.0916 -0.1484  0.3453
  628TMC3    C4 9299   4.198   1.153  14.878 -0.5928 -0.0354  0.4176
  628TMC3    C5 9300   4.302   1.235  14.840 -1.0991  0.0879  0.4701
  628TMC3    C6 9301   4.431   1.221  14.890  0.2155 -0.1141 -0.0195
  628TMC3     C 9302   4.125   1.033  15.056 -0.2109  0.6173  0.7093
  628TMC3     O 9303   4.136   1.105  15.153 -0.4165  0.0463  0.0850
  628TMC3     H 9304   4.373   0.951  15.081  0.1833 -0.2767 -0.2017
  628TMC3    H1 9305   4.094   1.172  14.852 -1.3267 -4.2950  0.2931
  628TMC3    H2 9306   4.514   1.265  14.835 -0.1668  0.3560 -0.2248
  628TMC3    C7 9307   4.284   1.380  14.815 -0.1098  0.3811 -0.0683
  628TMC3    C8 9308   4.590   1.114  15.026 -0.4119  0.0253  0.5898
  628TMC3    O1 9309   4.375   1.455  14.850 -0.3033  0.6073  0.5711
  628TMC3    O2 9310   4.645   1.220  15.026 -0.2152  0.3976  0.8876
  629MPD2     C 9311   2.450   3.644  17.360 -0.1231 -0.4879 -0.2300
  629MPD2    C1 9312   2.455   3.703  17.236  0.4202 -0.6396 -0.1088
  629MPD2    C2 9313   2.340   3.757  17.178 -0.3523  0.1484 -0.3168
  629MPD2    C3 9314   2.218   3.738  17.234 -0.5154  1.0276  0.6056
  629MPD2    C4 9315   2.213   3.660  17.352  0.2467  0.1582 -0.4609
  629MPD2    C5 9316   2.330   3.623  17.414 -0.6405  0.5387 -0.2769
  629MPD2     H 9317   2.346   3.815  17.087 -1.0556  0.5918 -0.0824
  629MPD2    H1 9318   2.125   3.634  17.410  0.8429 -0.2355  0.2713
  629MPD2    H2 9319   2.537   3.614  17.417  0.0868  0.5973  0.0298
  629MPD2    H3 9320   2.333   3.575  17.511  2.6782  0.2767 -0.5112
  629MPD2     N 9321   2.098   3.800  17.181  0.3906 -0.3444  0.7945
  629MPD2    H5 9322   2.108   3.853  17.095  2.4226  0.2187  1.3862
  629MPD2    N1 9323   2.588   3.719  17.187  0.1338 -0.6128 -0.2146
  629MPD2    H7 9324   2.662   3.706  17.256  1.6044 -2.4720 -2.1700
  630TMC3    C1 9325   2.756   3.760  17.021  0.4195 -0.5774 -0.4742
  630TMC3    C2 9326   2.784   3.806  16.903  0.7121  0.1401  0.3116
  630TMC3    C3 9327   2.916   3.841  16.891 -0.1013  0.2914 -0.1036
  630TMC3    C4 9328   2.849   3.729  17.118  0.0055 -0.0365  0.2655
  630TMC3    C5 9329   2.978   3.750  17.098 -0.4984  0.7474  0.0519
  630TMC3    C6 9330   3.017   3.812  16.979  0.0944 -0.2103 -0.1389
  630TMC3     C 9331   2.618   3.767  17.062  0.8944 -0.1345  0.7985
  630TMC3     O 9332   2.540   3.789  16.973  0.7770 -0.7057  0.0431
  630TMC3     H 9333   2.716   3.820  16.820 -0.7166 -1.4797  1.2265
  630TMC3    H1 9334   2.819   3.671  17.205  0.8948 -0.1288  0.5138
  630TMC3    H2 9335   3.123   3.833  16.967  0.2887 -1.7681 -1.2515
  630TMC3    C7 9336   3.040   3.813  17.207 -0.5425  0.0095 -0.5207
  630TMC3    C8 9337   2.960   3.941  16.803 -0.4158  0.7720 -0.4601
  630TMC3    O1 9338   3.055   3.930  17.182 -0.2470  0.0490 -0.1770
  630TMC3    O2 9339   3.078   3.944  16.766  0.3872  0.2278  0.5134
  631MPD2     C 9340   0.510   4.061  15.917  0.1424 -0.7516  0.0328
  631MPD2    C1 9341   0.591   4.016  15.813 -0.0366 -0.8127  0.0787
  631MPD2    C2 9342   0.726   3.986  15.850 -0.2321  0.2518  0.0479
  631MPD2    C3 9343   0.767   4.001  15.982  0.0680  0.0778 -1.2752
  631MPD2    C4 9344   0.681   4.043  16.079  0.7128  0.0528 -0.5867
  631MPD2    C5 9345   0.553   4.071  16.050 -0.5030 -0.1590 -0.0081
  631MPD2     H 9346   0.797   3.959  15.772  2.9734  2.1065  2.2875
  631MPD2    H1 9347   0.706   4.058  16.184  0.1660  0.3787 -0.5013
  631MPD2    H2 9348   0.407   4.091  15.896  1.0040  1.1400 -1.5092
  631MPD2    H3 9349   0.489   4.108  16.129 -2.5356 -1.9924 -0.7903
  631MPD2     N 9350   0.900   3.986  16.011  0.3639 -0.2428  0.7311
  631MPD2    H5 9351   0.957   3.971  15.928 -0.6006 -2.1262  0.3962
  631MPD2    N1 9352   0.548   4.029  15.678 -0.1251 -1.1340 -0.2977
  631MPD2    H7 9353   0.457   4.073  15.669 -0.7132 -1.8897  2.0675
  632TMC3    C1 9354   0.553   4.029  15.436  0.0407  0.4547 -0.2067
  632TMC3    C2 9355   0.443   4.110  15.475  0.6194  0.4003  0.0720
  632TMC3    C3 9356   0.434   4.244  15.434 -0.1494  0.0820 -0.2371
  632TMC3    C4 9357   0.648   4.082  15.353 -0.3625 -0.3960  0.3322
  632TMC3    C5 9358   0.639   4.208  15.307  0.1238 -0.4077  0.5243
  632TMC3    C6 9359   0.531   4.291  15.348 -0.3190 -0.2789 -0.5168
  632TMC3     C 9360   0.610   3.984  15.563 -0.6078  0.0123 -0.0287
  632TMC3     O 9361   0.724   3.944  15.546 -0.0088 -0.0190  0.0345
  632TMC3     H 9362   0.355   4.062  15.516  2.6057 -1.7384  1.8221
  632TMC3    H1 9363   0.726   4.013  15.323 -2.3883 -1.3298 -2.7191
  632TMC3    H2 9364   0.531   4.394  15.312  0.4595  0.2317  0.9604
  632TMC3    C7 9365   0.732   4.264  15.206 -0.5483  0.2892  0.6609
  632TMC3    C8 9366   0.380   4.321  15.543 -0.1857  0.4424  0.2348
  632TMC3    O1 9367   0.677   4.345  15.135  0.0111 -0.2468  0.2556
  632TMC3    O2 9368   0.346   4.257  15.642  0.2819 -0.0948 -0.2014
  633MPD2     C 9369   0.623   2.190  17.368 -0.1029 -0.1381  0.6177
  633MPD2    C1 9370   0.696   2.168  17.254 -0.4668  0.7876 -0.3618
  633MPD2    C2 9371   0.777   2.062  17.250 -0.7437  0.3674  0.1588
  633MPD2    C3 9372   0.794   1.978  17.358 -0.1591  1.0145 -0.0626
  633MPD2    C4 9373   0.737   2.011  17.478  0.2398  0.2608 -0.5005
  633MPD2    C5 9374   0.646   2.110  17.475  0.1410  0.0391  0.0571
  633MPD2     H 9375   0.816   2.034  17.153 -0.1892  1.9297 -0.0648
  633MPD2    H1 9376   0.739   1.946  17.565  0.9688  1.0249  0.0556
  633MPD2    H2 9377   0.552   2.271  17.372  1.8700  1.6616 -0.5396
  633MPD2    H3 9378   0.596   2.136  17.568  1.4678  1.2984  0.4336
  633MPD2     N 9379   0.859   1.851  17.357 -0.2446  0.0209  0.6664
  633MPD2    H5 9380   0.855   1.798  17.443 -0.1386  1.5230  1.5973
  633MPD2    N1 9381   0.690   2.240  17.138  0.1994 -0.1212  0.3520
  633MPD2    H7 9382   0.745   2.207  17.060  1.3035 -0.7303  1.3829
  634TMC3    C1 9383   0.631   2.407  16.982  0.5082  0.2999 -0.2533
  634TMC3    C2 9384   0.662   2.318  16.884 -0.1188 -0.1028  0.3603
  634TMC3    C3 9385   0.697   2.366  16.765  0.4034 -0.6640  0.4307
  634TMC3    C4 9386   0.613   2.536  16.957 -0.2671 -0.1478 -0.0512
  634TMC3    C5 9387   0.655   2.591  16.836 -0.0697 -0.0061 -0.1747
  634TMC3    C6 9388   0.703   2.502  16.743  0.4269 -0.3709 -0.2957
  634TMC3     C 9389   0.628   2.365  17.116 -0.7384 -0.3473  0.0419
  634TMC3     O 9390   0.554   2.432  17.192  0.3211 -0.1587 -0.2608
  634TMC3     H 9391   0.664   2.211  16.900  0.5825  0.1362  1.8448
  634TMC3    H1 9392   0.576   2.596  17.040 -1.7496 -1.7515  0.4485
  634TMC3    H2 9393   0.729   2.547  16.648  0.2265  0.9468  0.2749
  634TMC3    C7 9394   0.593   2.708  16.788  0.4538  0.1130 -0.4641
  634TMC3    C8 9395   0.713   2.278  16.653  0.2589 -0.2378  0.0190
  634TMC3    O1 9396   0.584   2.720  16.663  0.0866 -0.3968  0.3862
  634TMC3    O2 9397   0.688   2.159  16.670 -0.4507 -0.0487 -0.3683
  635TMC3    C1 9398   0.923   3.011  17.584  0.3937  0.3138 -0.0572
  635TMC3    C2 9399   1.027   2.947  17.515 -0.5130  0.0066  0.0838
  635TMC3    C3 9400   1.043   2.813  17.534  0.0922 -0.6123 -0.9652
  635TMC3    C4 9401   0.835   2.944  17.655  0.4048  0.0213 -0.0722
  635TMC3    C5 9402   0.853   2.807  17.667  0.3428  0.3700  0.3715
  635TMC3    C6 9403   0.952   2.734  17.604  0.0128  0.2090  0.5736
  635TMC3     C 9404   0.933   3.153  17.612  0.2280  0.6931  0.1784
  635TMC3     O 9405   0.838   3.208  17.658 -0.2603 -1.2062 -0.2990
  635TMC3     H 9406   1.093   2.996  17.445 -0.6236 -0.5479 -0.4076
  635TMC3    H1 9407   0.757   2.990   0.016  1.0314 -0.3458  1.0355
  635TMC3    H2 9408   0.982   2.634  17.632 -3.0981 -1.2101 -1.1127
  635TMC3    C7 9409   0.774   2.748   0.077 -0.3518 -0.1478  0.3691
  635TMC3    C8 9410   1.140   2.746  17.453  0.1492  0.2479  0.0986
  635TMC3    O1 9411   0.719   2.826   0.153 -0.1061 -0.1998  0.1829
  635TMC3    O2 9412   1.115   2.627  17.444 -0.0682 -0.6576 -0.3525
  636MPD2     C 9413   1.457   2.963  15.415  0.3260  0.3794 -0.4623
  636MPD2    C1 9414   1.534   2.963  15.521  0.1380 -0.1347 -0.1118
  636MPD2    C2 9415   1.625   2.861  15.535 -0.3012  0.4331  0.7907
  636MPD2    C3 9416   1.651   2.764  15.442 -0.1308 -0.6467  0.5083
  636MPD2    C4 9417   1.569   2.765  15.331 -0.0640 -0.1093  0.1550
  636MPD2    C5 9418   1.471   2.859  15.324 -0.5311  0.2470  0.7137
  636MPD2     H 9419   1.696   2.858  15.617  0.6106  2.5420  0.0687
  636MPD2    H1 9420   1.582   2.695  15.249 -3.4250 -0.5573 -0.0349
  636MPD2    H2 9421   1.379   3.038  15.404 -0.3444 -0.0508  1.2391
  636MPD2    H3 9422   1.399   2.859  15.243  0.6021  0.9820 -0.2893
  636MPD2     N 9423   1.752   2.667  15.477 -0.2938 -0.1081 -0.5137
  636MPD2    H5 9424   1.787   2.676  15.572 -0.6412  1.5416 -0.5440
  636MPD2    N1 9425   1.509   3.067  15.617  0.8908  0.1242 -0.3393
  636MPD2    H7 9426   1.432   3.133  15.603 -0.8219 -1.7839  0.0602
  637TMC3    C1 9427   1.927   2.503  15.449 -0.1591 -0.1664 -0.2853
  637TMC3    C2 9428   1.928   2.481  15.579  0.3592 -0.1878  0.3748
  637TMC3    C3 9429   2.023   2.394  15.626 -0.0986  0.0388 -0.8616
  637TMC3    C4 9430   2.024   2.452  15.364 -0.2479 -0.4591 -0.3904
  637TMC3    C5 9431   2.119   2.360  15.408 -0.0769  0.3150  0.1009
  637TMC3    C6 9432   2.105   2.321  15.536 -0.6867  0.2486 -0.2388
  637TMC3     C 9433   1.817   2.583  15.388 -0.1721  0.5283 -0.1262
  637TMC3     O 9434   1.817   2.583  15.264  0.1677  0.8698 -0.2066
  637TMC3     H 9435   1.862   2.519  15.657  1.0905 -0.9420  1.3596
  637TMC3    H1 9436   2.008   2.460  15.257  1.2394  1.5569 -0.4622
  637TMC3    H2 9437   2.182   2.261  15.582 -1.5148 -1.1064 -0.6148
  637TMC3    C7 9438   2.256   2.405  15.398  0.7315  0.4165  0.1292
  637TMC3    C8 9439   2.100   2.463  15.728  0.4842  0.2135  0.6273
  637TMC3    O1 9440   2.303   2.447  15.500 -0.4257  0.1737  0.2391
  637TMC3    O2 9441   2.089   2.584  15.718 -0.1108  0.3417  0.0780
  638MPD2     C 9442   1.820   1.859  14.731 -0.5534  0.1980 -0.0537
  638MPD2    C1 9443   1.784   1.756  14.650 -0.0885 -0.3747  0.2665
  638MPD2    C2 9444   1.736   1.642  14.713  0.7342 -0.3693 -0.2866
  638MPD2    C3 9445   1.716   1.634  14.849 -0.0459  0.6378 -0.7192
  638MPD2    C4 9446   1.735   1.749  14.926 -0.6781 -0.3936 -0.1267
  638MPD2    C5 9447   1.792   1.856  14.865  0.3715  0.1054  0.0335
  638MPD2     H 9448   1.718   1.549  14.659 -1.5171 -0.5491  0.7575
  638MPD2    H1 9449   1.716   1.753  15.032  3.6803  2.2838  0.5763
  638MPD2    H2 9450   1.858   1.952  14.689 -1.2893 -0.1691 -1.4947
  638MPD2    H3 9451   1.823   1.944  14.921  1.5148  0.6949 -1.5208
  638MPD2     N 9452   1.666   1.508  14.898  0.5112  0.4812 -0.3717
  638MPD2    H5 9453   1.647   1.437  14.827 -1.9095 -0.7181  1.4704
  638MPD2    N1 9454   1.825   1.756  14.515 -0.5810  0.7986 -0.0438
  638MPD2    H7 9455   1.875   1.836  14.479 -1.8686 -0.0134 -3.6557
  639TMC3    C1 9456   1.661   1.318  15.053 -0.3645  0.8658 -0.8219
  639TMC3    C2 9457   1.540   1.280  14.998  0.1122 -0.4755 -0.4571
  639TMC3    C3 9458   1.478   1.163  15.041  0.3480 -0.6210 -0.9874
  639TMC3    C4 9459   1.729   1.241  15.143  0.6448  0.4970 -0.1429
  639TMC3    C5 9460   1.665   1.123  15.173  0.3514 -0.4691  0.1390
  639TMC3    C6 9461   1.538   1.082  15.131 -0.4061  0.4810  0.2439
  639TMC3     C 9462   1.696   1.459  15.029  0.0850 -0.2944  0.0052
  639TMC3     O 9463   1.767   1.515  15.106 -0.2270 -0.3225 -0.4225
  639TMC3     H 9464   1.485   1.352  14.939  0.7317 -0.2984 -0.8239
  639TMC3    H1 9465   1.824   1.265  15.187  0.5505  1.2476 -0.3432
  639TMC3    H2 9466   1.498   0.989  15.170  0.1831  0.2602  0.3209
  639TMC3    C7 9467   1.739   1.034  15.251 -0.1634 -0.2630  0.4696
  639TMC3    C8 9468   1.383   1.095  14.955  0.8475 -0.3706  0.0654
  639TMC3    O1 9469   1.684   0.972  15.343  0.0804  0.6490  0.0804
  639TMC3    O2 9470   1.402   1.101  14.834 -0.1077 -0.1418 -0.0142
  640MPD2     C 9471   2.164   0.072  10.092 -0.5691 -0.1134  0.3452
  640MPD2    C1 9472   2.143   0.186  10.014  0.1309  1.1131 -0.4902
  640MPD2    C2 9473   2.057   0.283  10.063 -0.3722  0.1185 -0.2478
  640MPD2    C3 9474   1.983   0.255  10.176  0.0313  0.5107 -0.3630
  640MPD2    C4 9475   2.010   0.138  10.252 -0.2106 -0.0148  0.0903
  640MPD2    C5 9476   2.106   0.052  10.216  0.6043 -0.8423  0.3134
  640MPD2     H 9477   2.038   0.374  10.006 -0.8995 -1.4410 -2.5305
  640MPD2    H1 9478   1.956   0.111  10.341 -0.3864  2.1677  0.6466
  640MPD2    H2 9479   2.234   4.723  10.054  0.2334 -0.0003  1.6086
  640MPD2    H3 9480   2.125   4.684  10.270 -0.0547 -1.0037  0.2647
  640MPD2     N 9481   1.872   0.336  10.215 -0.0781 -0.3606 -0.3968
  640MPD2    H5 9482   1.827   0.312  10.302  2.1039  2.9306  1.6497
  640MPD2    N1 9483   2.210   0.193   9.891  0.3805 -0.3841 -0.1165
  640MPD2    H7 9484   2.270   0.112   9.879 -0.9217 -1.6211  1.7114
  641TMC3    C1 9485   2.201   0.255   9.665 -0.4330 -0.3217 -0.2999
  641TMC3    C2 9486   2.266   0.144   9.630 -0.2728 -0.3361  0.4197
  641TMC3    C3 9487   2.215   0.089   9.515  1.4937  0.3788  0.0157
  641TMC3    C4 9488   2.098   0.310   9.593  0.3385  0.0973  0.4552
  641TMC3    C5 9489   2.051   0.255   9.482  0.3150 -1.1353  0.0979
  641TMC3    C6 9490   2.115   0.140   9.442  0.4951 -0.0499  0.0210
  641TMC3     C 9491   2.202   0.295   9.801  0.2842  0.4912 -0.8164
  641TMC3     O 9492   2.172   0.411   9.815 -0.1004 -0.2477 -0.2462
  641TMC3     H 9493   2.361   0.129   9.681  0.2156 -1.7722 -0.9095
  641TMC3    H1 9494   2.054   0.397   9.640  1.1676  0.2098  1.0297
  641TMC3    H2 9495   2.092   0.099   9.345 -0.6015  0.1279  0.2055
  641TMC3    C7 9496   1.914   0.269   9.444  0.2102  0.0910  0.7319
  641TMC3    C8 9497   2.273   4.686   9.462 -0.3512  0.6170 -0.0038
  641TMC3    O1 9498   1.876   0.167   9.386  0.0992 -0.2484 -0.0505
  641TMC3    O2 9499   2.241   4.656   9.347 -0.2262  0.0212 -0.0330
  642TMC3    C1 9500   3.239   1.485  11.888 -0.1658  0.4624 -0.0016
  642TMC3    C2 9501   3.301   1.505  12.008  0.5135 -0.1736 -0.1945
  642TMC3    C3 9502   3.311   1.409  12.105  0.0709 -1.0461  0.2621
  642TMC3    C4 9503   3.196   1.363  11.854  0.7128 -0.3220  0.2261
  642TMC3    C5 9504   3.196   1.265  11.951  0.0730 -0.3320  0.0601
  642TMC3    C6 9505   3.255   1.282  12.079  0.0625 -0.8059 -0.0619
  642TMC3     C 9506   3.155   1.599  11.835 -0.8683 -0.3028  0.2135
  642TMC3     O 9507   3.141   1.590  11.713  0.2541 -0.0632 -0.1056
  642TMC3     H 9508   3.335   1.606  12.030  2.1097 -0.5697 -0.8344
  642TMC3    H1 9509   3.155   1.349  11.755  0.1962 -0.0652  0.4045
  642TMC3    H2 9510   3.270   1.202  12.150  0.9424 -1.0640 -0.5343
  642TMC3    C7 9511   3.101   1.159  11.933  0.3169  0.2405 -0.2891
  642TMC3    C8 9512   3.398   1.419  12.220 -0.3664 -0.0441  0.3531
  642TMC3    O1 9513   3.051   1.136  11.825 -0.7252 -0.4692 -0.0193
  642TMC3    O2 9514   3.418   1.318  12.283 -0.2897  0.0034 -0.4223
  643TMC3    C1 9515   2.523   0.528  17.558 -0.0311  0.4087  0.0770
  643TMC3    C2 9516   2.424   0.578  17.472 -0.5395  0.2973  0.0163
  643TMC3    C3 9517   2.395   0.505  17.360  0.5259  0.6399 -0.4939
  643TMC3    C4 9518   2.587   0.409  17.537  0.7080 -0.0608  0.1517
  643TMC3    C5 9519   2.566   0.346  17.417 -0.3602  0.3638 -0.3311
  643TMC3    C6 9520   2.464   0.387  17.335 -0.5307 -0.9751 -0.0081
  643TMC3     C 9521   2.578   0.619  17.659  0.1155  0.1591  0.0950
  643TMC3     O 9522   2.516   0.721  17.669 -0.1312 -0.8886 -0.9006
  643TMC3     H 9523   2.370   0.670  17.489  1.3132  1.2430  0.7812
  643TMC3    H1 9524   2.674   0.373  17.589 -0.2836 -1.4009  0.8914
  643TMC3    H2 9525   2.418   0.321  17.263 -1.1488 -0.7796  0.2036
  643TMC3    C7 9526   2.685   0.365  17.339  0.9096 -0.4716 -0.0404
  643TMC3    C8 9527   2.405   0.577  17.234 -0.1260 -0.3025  0.0414
  643TMC3    O1 9528   2.772   0.434  17.390 -0.1688  0.4256  0.0747
  643TMC3    O2 9529   2.391   0.512  17.132  0.3398 -0.0595  0.3695
  644MPD2     C 9530   1.871   1.163   9.056 -0.5042  0.0802  0.5604
  644MPD2    C1 9531   1.779   1.061   9.053  0.0099  0.1486 -0.4928
  644MPD2    C2 9532   1.649   1.103   9.083 -0.5008 -0.4560  0.6678
  644MPD2    C3 9533   1.606   1.225   9.109 -0.1347  0.5590 -0.0448
  644MPD2    C4 9534   1.702   1.321   9.117  0.6846  0.2701 -0.3429
  644MPD2    C5 9535   1.835   1.286   9.087 -0.3495 -0.0121  0.8246
  644MPD2     H 9536   1.576   1.023   9.079 -1.2903  0.2274  1.6265
  644MPD2    H1 9537   1.682   1.427   9.127 -1.2827 -0.4151  2.8416
  644MPD2    H2 9538   1.975   1.150   9.029 -1.1071 -1.6874 -0.9715
  644MPD2    H3 9539   1.911   1.362   9.070  0.4506 -1.2075 -0.8310
  644MPD2     N 9540   1.465   1.251   9.139  0.3635  0.0349 -0.2687
  644MPD2    H5 9541   1.404   1.171   9.152  0.2768 -0.2660 -2.5399
  644MPD2    N1 9542   1.823   0.930   9.030  0.1380 -0.1355  0.1073
  644MPD2    H7 9543   1.920   0.919   9.001  0.1868  1.1600 -0.2167
  645TMC3    C1 9544   1.279   1.369   9.212 -0.3091  0.4748  0.2972
  645TMC3    C2 9545   1.209   1.255   9.205  0.0635 -0.6622 -0.3172
  645TMC3    C3 9546   1.087   1.255   9.260  0.3901  0.2205 -0.5855
  645TMC3    C4 9547   1.234   1.488   9.255  0.0544  0.0906  0.3951
  645TMC3    C5 9548   1.110   1.482   9.314 -0.5023 -0.6822 -0.7173
  645TMC3    C6 9549   1.040   1.367   9.321 -0.1437 -0.2433 -0.0418
  645TMC3     C 9550   1.417   1.376   9.170  0.1228  0.4753  0.0209
  645TMC3     O 9551   1.468   1.487   9.154 -0.8547 -0.3002 -0.4943
  645TMC3     H 9552   1.249   1.158   9.177  2.0519  0.4507 -1.3536
  645TMC3    H1 9553   1.299   1.574   9.249 -0.1156  0.2553  0.9169
  645TMC3    H2 9554   0.948   1.363   9.377 -0.4639  1.7707 -0.4429
  645TMC3    C7 9555   1.051   1.602   9.367 -0.5658  0.4706  0.0687
  645TMC3    C8 9556   1.010   1.133   9.244  0.5739 -0.5567  0.4193
  645TMC3    O1 9557   0.970   1.586   9.460  0.3092  0.1554 -0.0991
  645TMC3    O2 9558   1.050   1.052   9.165  0.5799 -0.3754 -0.1797
  646MPD2     C 9559   1.683   0.382  14.409  0.1232  0.4317 -0.5593
  646MPD2    C1 9560   1.585   0.328  14.486 -0.3915  0.7367 -0.3606
  646MPD2    C2 9561   1.458   0.386  14.477 -0.7210 -0.6571  0.2064
  646MPD2    C3 9562   1.428   0.478  14.377  0.9616  0.3278  0.4662
  646MPD2    C4 9563   1.532   0.532  14.303  0.8966  0.3518 -0.3113
  646MPD2    C5 9564   1.653   0.480  14.321 -0.4543  0.2459  0.3522
  646MPD2     H 9565   1.381   0.355  14.547 -1.3082 -2.9783 -1.4431
  646MPD2    H1 9566   1.519   0.602  14.222 -2.3843  0.4056  0.2866
  646MPD2    H2 9567   1.786   0.349  14.412 -0.4051 -1.3041 -1.3979
  646MPD2    H3 9568   1.726   0.512  14.248 -0.6915 -1.3713 -0.5779
  646MPD2     N 9569   1.293   0.522  14.353 -0.6386  0.3126  0.2801
  646MPD2    H5 9570   1.218   0.481  14.409  0.3556  0.5311  1.7582
  646MPD2    N1 9571   1.626   0.238  14.584 -0.0269 -0.3732 -0.7370
  646MPD2    H7 9572   1.710   0.186  14.561  0.4977  0.2380 -0.1812
  647TMC3    C1 9573   1.603   0.086  14.768 -0.2705  0.8686 -0.0585
  647TMC3    C2 9574   1.517   0.013  14.851 -0.1831  0.4100 -0.2091
  647TMC3    C3 9575   1.573   4.653  14.943 -0.0549 -0.6487 -0.6634
  647TMC3    C4 9576   1.741   0.061  14.769  0.4191  0.3301 -0.2809
  647TMC3    C5 9577   1.787   4.697  14.864  0.5413 -0.0205  0.5744
  647TMC3    C6 9578   1.703   4.637  14.956 -0.0317  0.4600  0.1409
  647TMC3     C 9579   1.550   0.194  14.685  0.0867  0.3085  0.5042
  647TMC3     O 9580   1.431   0.219  14.711  0.0218  0.5676  0.4978
  647TMC3     H 9581   1.410   0.025  14.858 -0.3059  0.4647 -2.3383
  647TMC3    H1 9582   1.813   0.104  14.700 -2.3499  1.9682 -2.1698
  647TMC3    H2 9583   1.745   4.582  15.039  4.3933  0.0028 -2.3621
  647TMC3    C7 9584   1.924   4.666  14.864 -0.3338  0.5426  0.1128
  647TMC3    C8 9585   1.491   4.567  15.037  0.9856 -0.7860  0.5597
  647TMC3    O1 9586   1.982   4.654  14.974 -0.0033 -1.1312  0.6481
  647TMC3    O2 9587   1.560   4.476  15.080  0.1286 -0.2441  0.2613
  648TMC3    C1 9588   1.109   2.474  16.094 -0.3346  0.4336 -1.0427
  648TMC3    C2 9589   1.202   2.408  16.027 -0.6418  0.5555  0.5237
  648TMC3    C3 9590   1.181   2.414  15.892  0.5763  0.6377  0.2348
  648TMC3    C4 9591   1.006   2.539  16.030 -0.0648  0.0547  0.4624
  648TMC3    C5 9592   0.999   2.553  15.896  0.0305  0.0474  0.1102
  648TMC3    C6 9593   1.085   2.482  15.825  0.6788 -0.1880  0.0613
  648TMC3     C 9594   1.118   2.471  16.241  0.3860  0.8045 -0.1136
  648TMC3     O 9595   1.064   2.562  16.301 -0.1326  0.1938  0.6650
  648TMC3     H 9596   1.288   2.354  16.064 -2.3006 -2.2470  0.2893
  648TMC3    H1 9597   0.940   2.599  16.092 -2.2150 -1.3824 -0.4137
  648TMC3    H2 9598   1.073   2.491  15.717  2.9494 -1.1762 -0.2756
  648TMC3    C7 9599   0.914   2.643  15.821  0.3313 -0.9213 -0.7737
  648TMC3    C8 9600   1.252   2.309  15.827  0.0243  0.9228  0.3478
  648TMC3    O1 9601   0.891   2.620  15.702  0.6549 -0.1913 -0.1773
  648TMC3    O2 9602   1.371   2.284  15.848 -0.5062  0.3397  0.3270
  649TMC3    C1 9603   4.406   3.655  12.641 -0.0435 -0.4463  0.1328
  649TMC3    C2 9604   4.540   3.659  12.687  0.7068 -0.2283  0.3704
  649TMC3    C3 9605   4.570   3.588  12.798  0.4034  1.1196 -0.0753
  649TMC3    C4 9606   4.319   3.554  12.693 -0.6317  0.1698 -0.2979
  649TMC3    C5 9607   4.361   3.479  12.802 -0.3095 -0.4414 -0.6507
  649TMC3    C6 9608   4.483   3.495  12.854  0.5262 -0.1219 -0.4691
  649TMC3     C 9609   4.355   3.716  12.519 -0.1530 -0.4314  0.3756
  649TMC3     O 9610   4.232   3.729  12.507  0.1165 -0.3738  0.1797
  649TMC3     H 9611   4.603   3.746  12.674 -1.4780  1.2488 -0.4863
  649TMC3    H1 9612   4.215   3.540  12.666 -0.3326  0.9496 -1.9307
  649TMC3    H2 9613   4.511   3.451  12.949  0.4776 -0.1082 -0.4488
  649TMC3    C7 9614   4.268   3.398  12.877 -0.2111 -0.4156  0.2295
  649TMC3    C8 9615   4.705   3.584  12.856 -0.0161 -0.3999  0.2170
  649TMC3    O1 9616   4.149   3.417  12.852  0.7224 -0.1058  0.2345
  649TMC3    O2 9617   4.720   3.566  12.974 -0.3699  0.2100  0.0965
  650TMC3    C1 9618   2.523   0.681  12.626  0.4693  0.2391  0.2354
  650TMC3    C2 9619   2.537   0.814  12.651  0.3068  0.1238  0.3033
  650TMC3    C3 9620   2.531   0.905  12.541 -0.3927 -0.2935 -0.0498
  650TMC3    C4 9621   2.509   0.632  12.499  0.1194  0.6220 -0.2310
  650TMC3    C5 9622   2.496   0.724  12.402  0.4354  0.1389 -0.1321
  650TMC3    C6 9623   2.514   0.859  12.416  0.0436  0.0565 -0.1317
  650TMC3     C 9624   2.530   0.604  12.746  0.6787  0.2317 -0.6619
  650TMC3     O 9625   2.523   0.659  12.854  0.4833  0.2470 -0.4261
  650TMC3     H 9626   2.517   0.854  12.750 -2.7779  0.9317 -0.6651
  650TMC3    H1 9627   2.503   0.525  12.481 -0.0933  0.0924  2.9501
  650TMC3    H2 9628   2.512   0.932  12.335  0.0145  1.1502  0.8555
  650TMC3    C7 9629   2.445   0.673  12.279 -0.4077  0.0079 -0.2230
  650TMC3    C8 9630   2.538   1.052  12.562  0.4849 -0.4612 -0.2728
  650TMC3    O1 9631   2.456   0.555  12.255  0.8396 -0.2403  0.1884
  650TMC3    O2 9632   2.538   1.118  12.462 -0.6441  0.6325 -0.3967
  651MPD2     C 9633   0.976   2.618  10.007 -0.3508  0.3648 -0.6584
  651MPD2    C1 9634   0.983   2.745  10.062 -0.9889  0.0024 -0.2837
  651MPD2    C2 9635   1.099   2.812  10.077 -0.5707 -0.1420 -0.2970
  651MPD2    C3 9636   1.218   2.760  10.042  0.3463 -0.1504 -0.1637
  651MPD2    C4 9637   1.216   2.638   9.984  0.5331  0.0365 -0.1170
  651MPD2    C5 9638   1.102   2.571   9.962 -0.3821 -0.1619 -0.2671
  651MPD2     H 9639   1.097   2.910  10.122 -2.2567  0.3119 -1.3749
  651MPD2    H1 9640   1.301   2.587   9.940  0.5413 -1.8851  2.0981
  651MPD2    H2 9641   0.887   2.556  10.001 -0.0745 -0.2094  1.3724
  651MPD2    H3 9642   1.109   2.479   9.905  0.4215 -0.6483  0.6091
  651MPD2     N 9643   1.332   2.843  10.060 -0.1731 -0.1530  0.0783
  651MPD2    H5 9644   1.316   2.933  10.104 -1.5713  0.1765 -1.1013
  651MPD2    N1 9645   0.870   2.820  10.098 -0.7234 -0.0954  0.3571
  651MPD2    H7 9646   0.886   2.918  10.118 -1.4872 -0.1372  1.2056
  652TMC3    C1 9647   1.754   2.889  10.223 -0.2651  0.0159  0.2653
  652TMC3    C2 9648   1.674   2.815  10.139 -0.1427  0.1152  0.0113
  652TMC3    C3 9649   1.567   2.884  10.088  0.1643  0.7465 -0.5546
  652TMC3    C4 9650   1.734   3.016  10.269 -0.3998 -0.0953  0.3711
  652TMC3    C5 9651   1.637   3.072  10.209 -0.1831  0.5986  0.3753
  652TMC3    C6 9652   1.553   3.019  10.113 -0.3637  0.1696  0.5298
  652TMC3     C 9653   1.862   2.818  10.287 -0.6612 -0.6831 -0.6183
  652TMC3     O 9654   1.874   2.840  10.405 -0.0604  0.1183 -0.4080
  652TMC3     H 9655   1.699   2.717  10.100 -1.3395  0.9801 -2.9101
  652TMC3    H1 9656   1.800   3.063  10.342  0.9272  0.7282 -1.3506
  652TMC3    H2 9657   1.468   3.070  10.069 -0.6755 -2.0673 -1.4180
  652TMC3    C7 9658   1.626   3.210  10.225  0.4422  0.2899  0.0302
  652TMC3    C8 9659   1.463   2.799  10.036 -0.1550 -0.0678 -0.1304
  652TMC3    O1 9660   1.584   3.286  10.139  0.1546 -0.1498 -0.0513
  652TMC3    O2 9661   1.500   2.690   9.983  0.3742  0.2687  0.2933
  653MPD2     C 9662   0.280   2.321   0.198  0.2408  0.4170 -0.5255
  653MPD2    C1 9663   0.312   2.402   0.090  0.2956  0.7850 -0.2938
  653MPD2    C2 9664   0.324   2.351  17.661  0.3674  0.0846  0.2759
  653MPD2    C3 9665   0.295   2.219  17.638 -0.0856  0.3751  0.9745
  653MPD2    C4 9666   0.280   2.139   0.046  0.4478  0.2411 -0.5335
  653MPD2    C5 9667   0.260   2.183   0.171 -0.4511  0.6672  0.4409
  653MPD2     H 9668   0.344   2.410  17.572  0.7367  0.2878  0.4957
  653MPD2    H1 9669   0.279   2.030   0.046 -0.3747  0.2521 -0.0072
  653MPD2    H2 9670   0.270   2.362   0.298  0.9202  1.6573 -0.9736
  653MPD2    H3 9671   0.241   2.116   0.255 -3.4402 -0.4803 -1.1532
  653MPD2     N 9672   0.302   2.177  17.502 -0.2564 -0.1796  0.0019
  653MPD2    H5 9673   0.313   2.250  17.432  0.0213  1.0062  1.2786
  653MPD2    N1 9674   0.344   2.541   0.110 -0.6873  0.9216 -0.6033
  653MPD2    H7 9675   0.370   2.589   0.025  1.7817 -1.6128 -1.2772
  654TMC3    C1 9676   0.235   2.047  17.311 -0.5491  0.0015  0.0071
  654TMC3    C2 9677   0.186   2.162  17.254  0.2022 -0.3010 -0.4662
  654TMC3    C3 9678   0.139   2.150  17.127  0.3931  0.1071 -0.0455
  654TMC3    C4 9679   0.232   1.924  17.243  0.8447 -0.4310  0.4884
  654TMC3    C5 9680   0.198   1.921  17.111  0.2821 -0.1915  0.0067
  654TMC3    C6 9681   0.143   2.031  17.055  0.5996 -0.3588 -0.2760
  654TMC3     C 9682   0.273   2.053  17.452 -0.6618  0.7183 -0.7711
  654TMC3     O 9683   0.272   1.944  17.507  0.5498  0.5665  0.5309
  654TMC3     H 9684   0.173   2.256  17.306 -2.3127  0.0219 -1.7047
  654TMC3    H1 9685   0.266   1.836  17.298  1.9759 -0.4789 -0.2814
  654TMC3    H2 9686   0.116   2.031  16.949 -0.3451 -0.6862 -0.0367
  654TMC3    C7 9687   0.163   1.794  17.050  0.4341 -0.2771 -0.0024
  654TMC3    C8 9688   0.022   2.232  17.097 -0.0323  0.1797  0.3164
  654TMC3    O1 9689   0.084   1.796  16.957  0.7416  0.0771  0.2870
  654TMC3    O2 9690   0.004   2.341  17.150 -0.3062 -0.2757 -0.4241
  655MPD2     C 9691   1.371   2.598  15.579  0.4818 -0.4119 -0.2058
  655MPD2    C1 9692   1.255   2.667  15.529  0.0821  0.3210  0.5237
  655MPD2    C2 9693   1.207   2.638  15.406 -0.6771  0.2656  0.2102
  655MPD2    C3 9694   1.264   2.534  15.335 -0.3672  0.5047 -0.3728
  655MPD2    C4 9695   1.368   2.464  15.385 -0.1748 -0.4240  0.5394
  655MPD2    C5 9696   1.423   2.493  15.507  0.2488  0.3422  0.6125
  655MPD2     H 9697   1.126   2.694  15.361  0.0150  0.8111 -0.3716
  655MPD2    H1 9698   1.421   2.385  15.333  1.6013 -0.2862  2.1422
  655MPD2    H2 9699   1.424   2.622  15.671 -1.3716  0.1271  0.7131
  655MPD2    H3 9700   1.514   2.452  15.548 -0.9459 -0.8373  2.0707
  655MPD2     N 9701   1.224   2.493  15.207 -0.2321 -0.1182 -0.6937
  655MPD2    H5 9702   1.267   2.418  15.155  0.9912 -0.6466  1.0758
  655MPD2    N1 9703   1.195   2.767  15.608 -0.1651 -0.3000  0.2618
  655MPD2    H7 9704   1.108   2.802  15.571 -0.9437 -2.7479 -0.2390
  656TMC3    C1 9705   1.174   2.931  15.775 -0.1658 -0.5293  0.2086
  656TMC3    C2 9706   1.201   2.957  15.911  0.1655 -0.6208 -0.2888
  656TMC3    C3 9707   1.121   3.049  15.975  0.1072  0.4923 -0.3493
  656TMC3    C4 9708   1.073   2.995  15.709  0.2656 -0.0125 -0.0340
  656TMC3    C5 9709   1.009   3.093  15.778  0.4071  0.5914 -0.5940
  656TMC3    C6 9710   1.021   3.115  15.913  0.4775 -0.4917  0.0261
  656TMC3     C 9711   1.252   2.825  15.719 -0.1461 -0.3391  0.4205
  656TMC3     O 9712   1.348   2.798  15.788  0.4590  0.1103  0.0075
  656TMC3     H 9713   1.278   2.901  15.962 -0.4060 -1.2463 -0.1106
  656TMC3    H1 9714   1.045   2.977  15.606 -0.1352 -1.4257  0.3334
  656TMC3    H2 9715   0.959   3.194  15.954  1.5298  0.0819  0.5365
  656TMC3    C7 9716   0.907   3.150  15.691 -0.9525  0.0979  0.1173
  656TMC3    C8 9717   1.070   2.995  16.098 -0.8947 -0.5195 -0.3074
  656TMC3    O1 9718   0.942   3.155  15.571  0.0479  0.3895  0.0810
  656TMC3    O2 9719   1.072   2.872  16.113 -0.2831  0.2772  0.2278
  657TMC3    C1 9720   0.458   1.742  15.075  0.4222  0.6063  0.5512
  657TMC3    C2 9721   0.538   1.710  15.179 -0.2286  0.3219  0.1219
  657TMC3    C3 9722   0.512   1.766  15.298  0.1609 -0.6502  0.4182
  657TMC3    C4 9723   0.342   1.805  15.095 -0.3621  0.0309  0.5926
  657TMC3    C5 9724   0.323   1.866  15.216  0.2114  0.0652  0.8526
  657TMC3    C6 9725   0.407   1.852  15.317 -0.0483 -0.3530 -0.0612
  657TMC3     C 9726   0.493   1.696  14.944  0.1737 -0.3703  0.4239
  657TMC3     O 9727   0.422   1.618  14.884 -0.3099 -0.1127  0.2314
  657TMC3     H 9728   0.625   1.648  15.161 -0.5042  0.1015 -0.4539
  657TMC3    H1 9729   0.290   1.827  15.003 -0.4976  0.1962  0.7113
  657TMC3    H2 9730   0.405   1.926  15.396  2.4160 -0.2710 -0.0681
  657TMC3    C7 9731   0.218   1.966  15.238 -0.1704 -0.2128  0.8821
  657TMC3    C8 9732   0.627   1.793  15.381  0.0967 -0.4357 -0.7007
  657TMC3    O1 9733   0.225   2.026  15.344 -0.0206 -0.5067  0.2076
  657TMC3    O2 9734   0.622   1.890  15.458  0.1562 -0.5639 -0.2770
  658MPD2     C 9735   1.645   2.250  14.869  0.3160 -0.1707 -0.2624
  658MPD2    C1 9736   1.555   2.300  14.778 -0.2951  0.3711 -0.3873
  658MPD2    C2 9737   1.588   2.307  14.644  0.0493  0.1000  0.3847
  658MPD2    C3 9738   1.721   2.299  14.607  1.2189  0.5119 -0.4616
  658MPD2    C4 9739   1.810   2.245  14.696 -0.6085  0.3810  0.0704
  658MPD2    C5 9740   1.769   2.220  14.825  0.5347  1.0234  0.6774
  658MPD2     H 9741   1.521   2.345  14.568 -2.0884  0.7762  2.6049
  658MPD2    H1 9742   1.910   2.217  14.667 -0.8318  0.7779 -1.0951
  658MPD2    H2 9743   1.635   2.225  14.974  1.9629 -0.8742 -0.2610
  658MPD2    H3 9744   1.839   2.172  14.892 -0.7665  0.1915  1.4476
  658MPD2     N 9745   1.736   2.323  14.466 -0.1405 -0.5304 -0.2958
  658MPD2    H5 9746   1.661   2.356  14.407 -1.1125 -0.1799  1.1224
  658MPD2    N1 9747   1.423   2.315  14.828 -0.6192  0.8678 -0.3821
  658MPD2    H7 9748   1.407   2.320  14.928 -1.6004  2.9905 -0.6368
  659TMC3    C1 9749   1.198   2.362  14.836  0.1113 -0.1370  0.2539
  659TMC3    C2 9750   1.210   2.435  14.954  0.0601  0.0308 -0.4611
  659TMC3    C3 9751   1.093   2.464  15.018 -0.3162 -0.7164 -0.3851
  659TMC3    C4 9752   1.075   2.321  14.785  0.6549  0.6836 -0.6176
  659TMC3    C5 9753   0.966   2.358  14.859  0.4430  0.3650 -0.7476
  659TMC3    C6 9754   0.970   2.427  14.979  0.2912  0.3730 -0.4042
  659TMC3     C 9755   1.313   2.340  14.747 -0.1045  0.0206 -0.9270
  659TMC3     O 9756   1.290   2.339  14.627  0.5147  0.0166 -0.1450
  659TMC3     H 9757   1.307   2.468  14.990 -1.2237  0.5566  2.5282
  659TMC3    H1 9758   1.075   2.267  14.691  5.3455  0.3281 -0.4194
  659TMC3    H2 9759   0.884   2.433  15.044  0.2660 -0.6165 -0.3409
  659TMC3    C7 9760   0.841   2.298  14.815 -0.0691 -0.0833  0.7833
  659TMC3    C8 9761   1.106   2.534  15.139  0.5303  0.3091  0.1748
  659TMC3    O1 9762   0.741   2.343  14.871  0.7042 -0.6519  0.0076
  659TMC3    O2 9763   1.007   2.588  15.179  0.7151  0.1944  0.2869
  660MPD2     C 9764   4.440   0.951  12.718  0.5456 -0.8141  0.2846
  660MPD2    C1 9765   4.311   0.966  12.679  0.9750  0.0719  0.0635
  660MPD2    C2 9766   4.206   0.929  12.769 -0.7190  0.4399 -0.3064
  660MPD2    C3 9767   4.245   0.875  12.892 -0.1346 -0.4065 -0.6287
  660MPD2    C4 9768   4.372   0.871  12.932 -0.0645  0.1792  0.2024
  660MPD2    C5 9769   4.474   0.903  12.843  0.2860 -0.2376 -0.2727
  660MPD2     H 9770   4.102   0.943  12.743 -1.4183 -2.0976  1.1083
  660MPD2    H1 9771   4.405   0.830  13.027  0.3682 -0.6300 -0.2872
  660MPD2    H2 9772   4.522   0.957  12.647  0.7079 -1.4948  0.4121
  660MPD2    H3 9773   4.579   0.886  12.865  0.0846  2.7036  2.9652
  660MPD2     N 9774   4.146   0.825  12.985 -0.1279 -0.0871  0.8010
  660MPD2    H5 9775   4.183   0.780  13.069 -0.7411  0.4663  1.3709
  660MPD2    N1 9776   4.292   1.005  12.543  0.7817 -0.3954  0.3246
  660MPD2    H7 9777   4.374   1.030  12.488 -1.2252  1.4018 -1.8519
  661TMC3    C1 9778   4.180   1.067  12.342  0.0056 -0.1423 -0.4288
  661TMC3    C2 9779   4.290   1.061  12.260 -0.5061  0.1441 -0.1925
  661TMC3    C3 9780   4.282   1.125  12.138  0.3132  0.0922  0.0589
  661TMC3    C4 9781   4.057   1.120  12.299  0.0723  0.0763  0.2224
  661TMC3    C5 9782   4.050   1.159  12.166  0.2545 -0.1613 -0.5543
  661TMC3    C6 9783   4.161   1.170  12.085  0.0077 -0.5913 -0.6197
  661TMC3     C 9784   4.173   1.010  12.477 -0.2582  0.6677  0.2570
  661TMC3     O 9785   4.060   0.994  12.529  0.0036 -0.4564 -0.3634
  661TMC3     H 9786   4.381   1.008  12.284 -2.6039 -2.0708  2.8446
  661TMC3    H1 9787   3.973   1.126  12.366  0.0845  2.4490  0.0171
  661TMC3    H2 9788   4.161   1.225  11.992  0.7267 -1.2006 -0.9832
  661TMC3    C7 9789   3.959   1.272  12.144 -0.0618 -0.0302  0.4120
  661TMC3    C8 9790   4.400   1.147  12.052 -0.2325  0.4715 -0.7427
  661TMC3    O1 9791   3.931   1.336  12.243 -0.1238 -0.0511 -0.0058
  661TMC3    O2 9792   4.378   1.177  11.937  0.5377  0.2490 -0.5611
  662MPD2     C 9793   0.317   0.506   0.265  0.5062  0.1418  0.3546
  662MPD2    C1 9794   0.253   0.443   0.162 -0.6031  0.4584 -0.0165
  662MPD2    C2 9795   0.224   0.518   0.048  0.0073  0.6035  0.1960
  662MPD2    C3 9796   0.274   0.646   0.036 -0.1402 -0.2578  0.6485
  662MPD2    C4 9797   0.339   0.704   0.137  0.5458 -0.6621  1.1660
  662MPD2    C5 9798   0.359   0.638   0.253  0.2695  0.1135 -0.1717
  662MPD2     H 9799   0.150   0.481  17.676 -0.8265  1.3363  0.6958
  662MPD2    H1 9800   0.361   0.809   0.120  0.3069 -0.5134  1.7550
  662MPD2    H2 9801   0.353   0.450   0.351 -1.4442 -2.0442 -0.2687
  662MPD2    H3 9802   0.419   0.682   0.332 -1.1682 -0.4792  1.2528
  662MPD2     N 9803   0.233   0.724  17.625 -0.5305 -0.1547  0.2356
  662MPD2    H5 9804   0.233   0.823  17.643 -1.1902 -0.0416 -0.4106
  662MPD2    N1 9805   0.228   0.306   0.156  0.7497 -0.0045  0.0862
  662MPD2    H7 9806   0.189   0.273   0.069 -1.3111  0.3525  0.8879
  663TMC3    C1 9807   0.161   0.101   0.223  0.0943  0.1801  0.8523
  663TMC3    C2 9808   0.142   0.072   0.092  0.0011 -0.1216  0.7201
  663TMC3    C3 9809   0.041   4.710   0.058 -1.3344 -0.7149 -0.1060
  663TMC3    C4 9810   0.086   0.048   0.326 -0.4502 -0.1674  0.6069
  663TMC3    C5 9811   4.710   4.690   0.289 -0.6015 -0.5939 -0.0412
  663TMC3    C6 9812   4.688   4.659   0.156  0.0571 -0.0195 -0.0849
  663TMC3     C 9813   0.249   0.216   0.259 -0.2877 -0.0727 -0.0295
  663TMC3     O 9814   0.278   0.229   0.377 -0.5192 -0.5885  0.0187
  663TMC3     H 9815   0.218   0.091   0.017 -1.0008 -0.7953 -0.4672
  663TMC3    H1 9816   0.091   0.090   0.426  1.3082 -1.3481  1.0178
  663TMC3    H2 9817   4.588   4.624   0.130  0.9035 -0.2383 -3.0827
  663TMC3    C7 9818   4.652   4.612   0.398 -0.0273 -0.6679 -0.0314
  663TMC3    C8 9819   4.686   0.053  17.656 -0.4962 -0.7341  0.3294
  663TMC3    O1 9820   4.694   4.641   0.509  0.0472  0.1784 -0.5920
  663TMC3    O2 9821   4.688   0.010  17.543  0.4763  0.4658 -0.3255
  664MPD2     C 9822   2.620   4.423   0.306  0.0454 -0.1104 -0.0956
  664MPD2    C1 9823   2.753   4.473   0.299  0.2598  0.2054 -0.6204
  664MPD2    C2 9824   2.817   4.539   0.401 -0.5454 -0.4375 -0.6925
  664MPD2    C3 9825   2.751   4.540   0.527  0.0093 -1.5423 -0.0681
  664MPD2    C4 9826   2.620   4.499   0.533 -0.1623 -0.2952 -0.2900
  664MPD2    C5 9827   2.552   4.453   0.419  0.4650 -0.1164  0.1699
  664MPD2     H 9828   2.918   4.571   0.379 -0.5299 -1.3967 -2.0508
  664MPD2    H1 9829   2.560   4.530   0.617 -0.6409 -1.6243 -0.1391
  664MPD2    H2 9830   2.567   4.384   0.221 -1.8899 -0.0410  1.0755
  664MPD2    H3 9831   2.450   4.418   0.405  0.9292 -1.0303 -0.9395
  664MPD2     N 9832   2.818   4.603   0.634 -0.0931 -0.1286 -0.4407
  664MPD2    H5 9833   2.906   4.645   0.608 -0.3114  0.1253 -0.7792
  664MPD2    N1 9834   2.821   4.468   0.184 -0.0212 -0.0496 -0.2054
  664MPD2    H7 9835   2.921   4.485   0.175  0.4297 -1.3714  2.4099
  665TMC3    C1 9836   2.856   4.701   0.849  0.0469 -0.5996  0.3721
  665TMC3    C2 9837   2.802   0.032   0.963 -0.5423 -0.7571 -0.9301
  665TMC3    C3 9838   2.881   0.088   1.063  0.5840  0.7772  0.7749
  665TMC3    C4 9839   2.991   4.716   0.827  0.3969  0.7576 -0.1205
  665TMC3    C5 9840   3.070   0.057   0.922  1.0124  0.4112 -0.2732
  665TMC3    C6 9841   3.016   0.102   1.039 -0.2746  0.6510 -0.1194
  665TMC3     C 9842   2.778   4.612   0.765  0.3775 -0.2268  0.3040
  665TMC3     O 9843   2.685   4.560   0.822 -0.6544 -0.1235  0.0373
  665TMC3     H 9844   2.693   0.035   0.963 -0.5978 -2.8933 -1.3897
  665TMC3    H1 9845   3.039   4.665   0.744  0.4236  0.2968  0.1781
  665TMC3    H2 9846   3.078   0.148   1.115 -0.6232 -2.2386  1.9253
  665TMC3    C7 9847   3.203   0.102   0.884  0.9989  0.7942  0.2907
  665TMC3    C8 9848   2.823   0.143   1.187 -0.0307  0.9713  0.6600
  665TMC3    O1 9849   3.235   0.064   0.769  0.0949 -0.0142  0.1497
  665TMC3    O2 9850   2.894   0.226   1.241  0.1417  0.4755  0.5723
  666TMC3    C1 9851   1.045   3.975   9.495 -0.5690  0.3897  0.4327
  666TMC3    C2 9852   1.180   3.958   9.471 -0.3579 -0.2132 -0.0521
  666TMC3    C3 9853   1.257   4.074   9.452  0.0366 -0.4252  0.0278
  666TMC3    C4 9854   0.992   4.106   9.499 -0.0027 -0.0860  0.5960
  666TMC3    C5 9855   1.071   4.213   9.476 -0.4239  0.6886 -0.1763
  666TMC3    C6 9856   1.202   4.197   9.450 -0.1798 -0.0028 -0.0361
  666TMC3     C 9857   0.987   3.886   9.604  0.1191 -0.1617 -0.1419
  666TMC3     O 9858   0.915   3.943   9.682  0.7974  1.0527  0.2224
  666TMC3     H 9859   1.233   3.864   9.468  0.7858  0.4339 -0.3060
  666TMC3    H1 9860   0.887   4.123   9.522 -0.6726 -1.0906 -1.7226
  666TMC3    H2 9861   1.259   4.289   9.443  1.6052 -1.0139  1.0990
  666TMC3    C7 9862   1.046   4.329   9.557 -0.0888  0.8017  0.1963
  666TMC3    C8 9863   1.383   4.059   9.513 -0.4805 -0.4386 -0.3608
  666TMC3    O1 9864   1.140   4.390   9.608 -0.0607  0.1504  0.5431
  666TMC3    O2 9865   1.405   3.969   9.590 -0.0948 -0.5981  0.1198
  667MPD2     C 9866   3.643   3.983  14.663  0.5992 -0.0248  0.3549
  667MPD2    C1 9867   3.575   3.941  14.776 -0.1005 -0.1162 -0.6916
  667MPD2    C2 9868   3.532   3.809  14.793  0.3948  0.1821  0.4153
  667MPD2    C3 9869   3.559   3.715  14.697  1.3111  0.4918  0.9212
  667MPD2    C4 9870   3.637   3.759  14.589  0.0024 -0.4764  0.2072
  667MPD2    C5 9871   3.681   3.889  14.574 -0.2832 -0.3123  0.7260
  667MPD2     H 9872   3.464   3.796  14.877  0.9711  2.7413  1.3031
  667MPD2    H1 9873   3.660   3.690  14.508 -2.3178 -2.0384  0.8973
  667MPD2    H2 9874   3.678   4.085  14.654 -0.4120  0.2732 -0.2513
  667MPD2    H3 9875   3.739   3.917  14.487 -2.7078  0.2912 -0.7152
  667MPD2     N 9876   3.508   3.583  14.702 -0.5559  0.2669  0.6755
  667MPD2    H5 9877   3.509   3.525  14.618  2.1356 -1.3272  1.7824
  667MPD2    N1 9878   3.526   4.036  14.878  0.6115 -0.4229 -0.1929
  667MPD2    H7 9879   3.483   3.996  14.960  0.7994 -0.0505  0.0877
  668TMC3    C1 9880   3.518   4.246  14.996 -0.1670 -0.5532  0.6264
  668TMC3    C2 9881   3.596   4.354  15.024 -0.5368 -0.7021 -0.0907
  668TMC3    C3 9882   3.601   4.412  15.146 -0.0719 -0.2846  0.6407
  668TMC3    C4 9883   3.427   4.196  15.084 -0.3146 -0.5604 -0.0543
  668TMC3    C5 9884   3.435   4.254  15.214  0.2010 -0.8993 -0.1268
  668TMC3    C6 9885   3.527   4.350  15.244  0.2653  0.6328  0.0550
  668TMC3     C 9886   3.543   4.174  14.875 -0.2099  0.4032  0.8100
  668TMC3     O 9887   3.582   4.241  14.783 -0.3326 -0.0756 -0.3238
  668TMC3     H 9888   3.652   4.384  14.936 -2.2633  0.1340 -0.9128
  668TMC3    H1 9889   3.362   4.114  15.057  0.4980 -0.6409 -1.7925
  668TMC3    H2 9890   3.530   4.396  15.342 -0.3232 -1.7592  1.1956
  668TMC3    C7 9891   3.333   4.215  15.311 -0.3915 -0.1295  0.3628
  668TMC3    C8 9892   3.675   4.534  15.167  0.9114 -0.0157 -0.0125
  668TMC3    O1 9893   3.346   4.276  15.416 -0.2905 -0.4697  0.4053
  668TMC3    O2 9894   3.706   4.556  15.283  0.3976  0.5519 -0.2985
  669TMC3    C1 9895   1.071   4.249  14.373 -0.2238 -0.8016  0.6088
  669TMC3    C2 9896   0.971   4.245  14.273  0.1846  0.3443 -0.8557
  669TMC3    C3 9897   0.972   4.342  14.177  0.4803  0.6075  0.2059
  669TMC3    C4 9898   1.167   4.354  14.379 -0.3162  0.1543 -0.4606
  669TMC3    C5 9899   1.164   4.446  14.280 -0.6651  0.3184  1.1026
  669TMC3    C6 9900   1.078   4.439  14.175 -0.0839  0.2713 -0.2256
  669TMC3     C 9901   1.067   4.153  14.476 -0.2542  0.5440 -0.2596
  669TMC3     O 9902   0.962   4.101  14.503  0.6555 -0.4070 -0.5449
  669TMC3     H 9903   0.889   4.174  14.277  0.9606 -0.4971 -0.0653
  669TMC3    H1 9904   1.238   4.349  14.460  0.6987 -1.6868 -1.4439
  669TMC3    H2 9905   1.085   4.505  14.089 -0.3416  0.9900  0.3101
  669TMC3    C7 9906   1.298   4.498  14.241  0.1266 -0.1986 -0.5764
  669TMC3    C8 9907   0.882   4.336  14.061  0.3571  0.2044  0.0661
  669TMC3    O1 9908   1.384   4.469  14.326  0.5200 -0.4543 -0.0200
  669TMC3    O2 9909   0.864   4.441  14.006  0.3207  0.1240 -0.0801
  670MPD2     C 9910   3.954   1.530  13.681 -0.4765 -0.1352  0.1250
  670MPD2    C1 9911   4.077   1.579  13.721  0.3993  0.4780 -0.3486
  670MPD2    C2 9912   4.107   1.581  13.860 -0.3737 -0.2917  0.3412
  670MPD2    C3 9913   4.030   1.517  13.948  0.4529 -0.1839  0.2548
  670MPD2    C4 9914   3.897   1.476  13.906 -0.5362  1.0073  0.1183
  670MPD2    C5 9915   3.870   1.479  13.772  0.7934 -0.2887  0.6250
  670MPD2     H 9916   4.203   1.615  13.897 -1.4284  0.2884  2.5541
  670MPD2    H1 9917   3.828   1.424  13.972  0.4823  0.3160  0.6395
  670MPD2    H2 9918   3.924   1.511  13.578  2.4087 -0.4381 -0.6445
  670MPD2    H3 9919   3.781   1.434  13.728 -0.8153  1.8801  1.6610
  670MPD2     N 9920   4.077   1.496  14.082  0.3866 -0.4906  0.8011
  670MPD2    H5 9921   4.160   1.544  14.117  0.7604 -1.0560  0.6950
  670MPD2    N1 9922   4.165   1.643  13.624  0.3648  0.6983 -0.5742
  670MPD2    H7 9923   4.250   1.680  13.665 -1.3864  1.9285  1.9402
  671TMC3    C1 9924   4.086   1.396  14.302 -0.0559 -0.0715 -0.3185
  671TMC3    C2 9925   4.215   1.439  14.313  0.3376  0.4666 -0.1273
  671TMC3    C3 9926   4.296   1.375  14.404 -0.5060 -0.2337  0.7912
  671TMC3    C4 9927   4.042   1.292  14.380 -0.5170  1.0472  0.1136
  671TMC3    C5 9928   4.124   1.236  14.471  0.2728  0.1371  0.0258
  671TMC3    C6 9929   4.249   1.274  14.482  0.2743  0.2589  0.4679
  671TMC3     C 9930   4.014   1.413  14.176 -0.5337  0.4466 -0.1416
  671TMC3     O 9931   3.919   1.344  14.156  0.1408 -0.6890  0.0106
  671TMC3     H 9932   4.263   1.483  14.226 -0.1736 -1.5862 -1.4364
  671TMC3    H1 9933   3.952   1.240  14.351  1.3968 -1.8086 -0.7293
  671TMC3    H2 9934   4.325   1.215  14.533  0.3362  0.2100  0.3181
  671TMC3    C7 9935   4.098   1.100  14.477  0.3154  0.3135  0.3472
  671TMC3    C8 9936   4.436   1.374  14.357 -0.3083 -0.1285 -0.3263
  671TMC3    O1 9937   4.123   1.039  14.582  0.4688 -0.0649 -0.0571
  671TMC3    O2 9938   4.492   1.266  14.341  0.1931 -0.0132  0.7268
  672MPD2     C 9939   0.079   1.879   1.664 -0.4714 -0.0450  0.3094
  672MPD2    C1 9940   0.088   1.961   1.554  0.0970  0.0019 -0.2536
  672MPD2    C2 9941   0.141   2.089   1.568 -0.0930 -0.1622 -0.5241
  672MPD2    C3 9942   0.176   2.136   1.693 -0.5338 -0.8959 -0.4082
  672MPD2    C4 9943   0.163   2.047   1.799  0.2625 -0.3335  0.3896
  672MPD2    C5 9944   0.111   1.921   1.787  0.6773 -0.3073 -0.4633
  672MPD2     H 9945   0.138   2.146   1.476 -0.3364  2.1983  0.9473
  672MPD2    H1 9946   0.209   2.067   1.895 -0.8915  0.9573  0.6799
  672MPD2    H2 9947   0.029   1.784   1.649 -1.8256  0.5159  1.3654
  672MPD2    H3 9948   0.096   1.855   1.871 -0.1800  0.5275  0.0374
  672MPD2     N 9949   0.238   2.264   1.716 -0.2201 -0.3168 -0.3833
  672MPD2    H5 9950   0.258   2.298   1.809 -0.7382 -0.7359 -0.1143
  672MPD2    N1 9951   0.056   1.901   1.427 -0.4801  0.6576  0.3404
  672MPD2    H7 9952   0.020   1.807   1.423  1.9841 -0.2765 -0.4335
  673TMC3    C1 9953   0.075   1.854   1.198 -0.5359 -0.4867 -0.4622
  673TMC3    C2 9954   0.121   1.724   1.230  0.0156  0.1327 -0.7015
  673TMC3    C3 9955   0.149   1.649   1.120  0.1601  0.5041 -0.2004
  673TMC3    C4 9956   0.073   1.901   1.072 -0.2668 -0.5662  0.1634
  673TMC3    C5 9957   0.114   1.826   0.972  0.1112 -0.1428  0.1788
  673TMC3    C6 9958   0.145   1.692   0.991  0.7965  0.1594 -0.3821
  673TMC3     C 9959   0.089   1.955   1.302  0.1701  0.4731 -0.6018
  673TMC3     O 9960   0.142   2.058   1.269  0.4908 -0.3146 -0.2663
  673TMC3     H 9961   0.130   1.676   1.327  0.3890 -1.0517 -1.3221
  673TMC3    H1 9962   0.049   2.006   1.062  0.3942 -0.3492  0.8443
  673TMC3    H2 9963   0.186   1.634   0.909 -1.0267  0.4613 -1.5074
  673TMC3    C7 9964   0.160   1.890   0.852  0.1355 -0.2644  0.1583
  673TMC3    C8 9965   0.242   1.536   1.136  0.6680 -0.0545  0.3588
  673TMC3    O1 9966   0.247   1.843   0.785  0.6712 -0.8919 -0.0807
  673TMC3    O2 9967   0.231   1.429   1.076  0.0601 -0.4555 -0.7268
  674MPD2     C 9968   0.757   1.949   0.667 -0.2593  0.4926 -0.1387
  674MPD2    C1 9969   0.685   1.849   0.730 -0.0947 -0.5165  0.1541
  674MPD2    C2 9970   0.557   1.824   0.670 -1.1875  0.3926  0.4911
  674MPD2    C3 9971   0.523   1.879   0.548  0.0955 -0.9766  0.0256
  674MPD2    C4 9972   0.600   1.981   0.493 -0.4839  0.2645  0.1993
  674MPD2    C5 9973   0.718   2.016   0.552  0.4955  0.2039 -0.1146
  674MPD2     H 9974   0.494   1.750   0.718 -0.0807 -1.7424 -1.3121
  674MPD2    H1 9975   0.578   2.034   0.401 -0.8923  0.8185  0.6186
  674MPD2    H2 9976   0.856   1.969   0.707  1.7359 -1.6213 -4.0392
  674MPD2    H3 9977   0.786   2.087   0.507  0.2848  0.2639 -0.3385
  674MPD2     N 9978   0.406   1.836   0.496 -0.7872 -0.5145 -0.1515
  674MPD2    H5 9979   0.352   1.782   0.563 -0.4638  3.7519  3.5098
  674MPD2    N1 9980   0.731   1.797   0.852 -0.0592 -0.4431  0.0429
  674MPD2    H7 9981   0.812   1.839   0.896 -1.0156 -1.2851  2.5590
  675TMC3    C1 9982   0.756   1.646   1.029  0.4988 -0.0057 -0.2911
  675TMC3    C2 9983   0.764   1.511   1.037  0.1618 -1.0872 -0.5201
  675TMC3    C3 9984   0.871   1.453   1.100 -0.3909 -0.4256 -0.5783
  675TMC3    C4 9985   0.862   1.717   1.066  0.7428 -0.2045 -0.6227
  675TMC3    C5 9986   0.980   1.658   1.109  0.6688 -0.1776  0.2332
  675TMC3    C6 9987   0.987   1.525   1.128 -1.2251  0.2758  0.5150
  675TMC3     C 9988   0.676   1.691   0.916 -0.4413  0.5880  0.2276
  675TMC3     O 9989   0.579   1.618   0.887 -0.1563 -0.1532 -0.4752
  675TMC3     H 9990   0.669   1.459   1.027 -0.4361 -0.6163  2.8761
  675TMC3    H1 9991   0.854   1.825   1.064 -0.3729 -0.2814 -0.3364
  675TMC3    H2 9992   1.080   1.488   1.169 -0.2920  0.5520 -1.3316
  675TMC3    C7 9993   1.076   1.738   1.185  0.4413  0.2017 -0.6401
  675TMC3    C8 9994   0.866   1.315   1.114 -0.0976 -0.1076 -0.6464
  675TMC3    O1 9995   1.176   1.682   1.220  0.2100 -0.0775 -0.4358
  675TMC3    O2 9996   0.802   1.253   1.031  0.2303  0.2802  0.3224
  676MPD2     C 9997   2.321   0.703  10.729  0.2064  0.4447  0.2187
  676MPD2    C1 9998   2.334   0.613  10.834 -0.4908  0.9299  0.2955
  676MPD2    C2 9999   2.418   0.505  10.827  0.4903  0.2548 -0.1194
  676MPD2    C310000   2.502   0.483  10.716  0.0803  1.1376 -0.1200
  676MPD2    C410001   2.505   0.581  10.613  0.2847  0.1091  0.5474
  676MPD2    C510002   2.411   0.683  10.625  0.0409 -0.1055 -0.2308
  676MPD2     H10003   2.410   0.437  10.911  0.0582  0.6785  0.1803
  676MPD2    H110004   2.564   0.584  10.522  0.8051  0.1341  0.8848
  676MPD2    H210005   2.239   0.774  10.720 -0.7412 -0.5116  1.3033
  676MPD2    H310006   2.415   0.759  10.548 -2.1815  1.2930  1.0565
  676MPD2     N10007   2.587   0.378  10.706  0.8133  0.4680  1.1394
  676MPD2    H510008   2.582   0.304  10.776 -2.9477  0.3074  0.6821
  676MPD2    N110009   2.264   0.627  10.955  0.2304 -0.4944  0.5334
  676MPD2    H710010   2.261   0.550  11.021  2.2772  0.0228  1.2715
  677TMC3    C110011   2.140   0.736  11.126  0.0623  0.2574 -0.4207
  677TMC3    C210012   2.096   0.613  11.178 -0.0418  0.7407 -0.3340
  677TMC3    C310013   2.059   0.605  11.309  0.4793  0.6518 -0.4585
  677TMC3    C410014   2.153   0.846  11.211  0.5385  0.3201 -0.8396
  677TMC3    C510015   2.125   0.828  11.344 -0.1530 -0.6723  0.0460
  677TMC3    C610016   2.063   0.717  11.388  0.3151 -0.5884 -0.7540
  677TMC3     C10017   2.207   0.743  10.997  0.3935 -0.2045  0.1674
  677TMC3     O10018   2.196   0.848  10.938 -0.7729  0.2372 -0.9906
  677TMC3     H10019   2.099   0.526  11.114  0.0433  0.8753 -0.5134
  677TMC3    H110020   2.179   0.946  11.180 -1.7138  1.3590  0.6161
  677TMC3    H210021   2.053   0.695  11.493 -1.2446  1.8786 -0.3963
  677TMC3    C710022   2.173   0.917  11.445  0.1233 -0.2649  0.3822
  677TMC3    C810023   2.122   0.493  11.374 -0.3572  0.4202 -1.3658
  677TMC3    O110024   2.128   0.899  11.564  0.3624 -0.8044  0.3308
  677TMC3    O210025   2.216   0.445  11.314  0.1379 -0.4433 -0.5130
  678MPD2     C10026   0.231   1.056   1.417  0.2877  0.5182  0.4884
  678MPD2    C110027   0.200   0.999   1.295  0.0439 -0.6910  0.0000
  678MPD2    C210028   0.064   0.983   1.262 -1.3101 -0.8592  0.1249
  678MPD2    C310029   4.683   1.037   1.333 -0.2114  0.0861 -0.0618
  678MPD2    C410030   4.722   1.101   1.446  0.1262 -0.4169 -0.5418
  678MPD2    C510031   0.133   1.120   1.480 -0.9468  0.3096 -0.1709
  678MPD2     H10032   0.039   0.929   1.172  0.7355  0.8991 -1.5027
  678MPD2    H110033   4.651   1.139   1.519  0.6013 -1.1858  0.3396
  678MPD2    H210034   0.330   1.078   1.456 -0.0914  0.4239  1.4977
  678MPD2    H310035   0.150   1.163   1.578  1.7894  0.7463 -0.8319
  678MPD2     N10036   4.547   1.021   1.292  0.2323 -0.4166 -0.0748
  678MPD2    H510037   4.528   0.971   1.205 -0.9857  0.7905 -0.5139
  678MPD2    N110038   0.305   0.951   1.213  0.6885  0.2133  0.0296
  678MPD2    H710039   0.272   0.926   1.120 -0.8002 -0.4081  0.7308
  679TMC3    C110040   0.697   0.739   1.075 -0.4487 -0.0709  0.3409
  679TMC3    C210041   0.617   0.793   1.171  0.3514  0.0771 -0.2450
  679TMC3    C310042   0.515   0.881   1.131 -0.1278 -0.5483  0.1479
  679TMC3    C410043   0.659   0.761   0.944 -0.5579 -0.9660 -0.4427
  679TMC3    C510044   0.568   0.858   0.913 -0.4600  0.5102 -0.1624
  679TMC3    C610045   0.491   0.925   1.005  0.2300 -0.7639 -0.7256
  679TMC3     C10046   0.768   0.615   1.108  0.0951 -0.1472 -0.0603
  679TMC3     O10047   0.732   0.555   1.205 -0.4734  0.3731 -0.6499
  679TMC3     H10048   0.625   0.764   1.275 -2.9729 -0.9588 -0.2944
  679TMC3    H110049   0.700   0.710   0.857 -0.0289 -1.4776  0.1110
  679TMC3    H210050   0.409   0.986   0.968  1.4866 -0.4222 -2.9496
  679TMC3    C710051   0.514   0.867   0.778  0.5930 -0.4656  0.1960
  679TMC3    C810052   0.444   0.941   1.241 -0.3071  0.2200 -0.4729
  679TMC3    O110053   0.391   0.857   0.779  0.1071 -0.4720  0.0347
  679TMC3    O210054   0.505   0.969   1.346 -0.1900  0.0171 -0.2809
  680MPD2     C10055   3.326   3.461  13.125 -0.1794  0.3455  0.1776
  680MPD2    C110056   3.378   3.417  13.242  0.4431  0.0034  1.0765
  680MPD2    C210057   3.389   3.492  13.359 -0.8030 -0.2535 -0.0440
  680MPD2    C310058   3.360   3.625  13.347  0.3717 -0.1403  0.0330
  680MPD2    C410059   3.301   3.682  13.229 -0.5681  0.0590  0.8155
  680MPD2    C510060   3.286   3.595  13.121  0.2764 -0.1677 -0.8188
  680MPD2     H10061   3.435   3.447  13.446  0.1327  0.0636 -0.3837
  680MPD2    H110062   3.290   3.790  13.226 -0.7012 -0.0316 -1.8247
  680MPD2    H210063   3.322   3.406  13.032 -0.1903 -1.3883  1.2196
  680MPD2    H310064   3.257   3.626  13.021 -1.4039 -1.9099 -0.8774
  680MPD2     N10065   3.400   3.721  13.447  0.4195  0.6237 -0.0368
  680MPD2    H510066   3.370   3.818  13.441 -1.3899 -0.0721 -2.4418
  680MPD2    N110067   3.436   3.291  13.263  0.9403  0.7269 -0.1398
  680MPD2    H710068   3.469   3.271  13.357 -0.8401  0.3657  0.4128
  681TMC3    C110069   3.539   3.094  13.234 -0.4929  0.6114  0.3165
  681TMC3    C210070   3.498   3.079  13.360 -0.6712  0.4428 -0.5051
  681TMC3    C310071   3.585   3.039  13.450  0.3430  0.2106  0.3197
  681TMC3    C410072   3.666   3.082  13.197  0.0583 -0.3447 -0.3513
  681TMC3    C510073   3.752   3.026  13.279  0.0542 -0.6280 -0.6631
  681TMC3    C610074   3.714   3.006  13.415 -0.3919  0.1702  0.2914
  681TMC3     C10075   3.460   3.193  13.173 -0.2665 -0.0471 -0.1058
  681TMC3     O10076   3.426   3.171  13.054 -0.2940  0.2339  0.1073
  681TMC3     H10077   3.395   3.089  13.394 -0.1253 -0.0646  1.2893
  681TMC3    H110078   3.691   3.129  13.103  2.4074 -0.7313  0.0700
  681TMC3    H210079   3.785   2.964  13.486  0.3018 -1.0074 -1.0772
  681TMC3    C710080   3.894   3.012  13.259 -0.4405  0.3408 -0.5427
  681TMC3    C810081   3.561   3.097  13.577  0.3413 -0.0908 -0.7420
  681TMC3    O110082   3.947   2.936  13.331 -0.5051 -0.3651 -0.4919
  681TMC3    O210083   3.452   3.089  13.627 -0.4339 -0.7502  0.4062
  682MPD2     C10084   1.106   0.374  10.686 -1.0920  0.1781  0.1147
  682MPD2    C110085   1.141   0.244  10.683 -0.0088 -0.4405 -0.5340
  682MPD2    C210086   1.146   0.170  10.800  0.9980 -0.1557  0.7238
  682MPD2    C310087   1.106   0.227  10.921  1.2199 -0.1028  0.5513
  682MPD2    C410088   1.080   0.363  10.923  0.1074  0.1786 -0.2254
  682MPD2    C510089   1.085   0.434  10.808  0.0136  0.1096  0.0816
  682MPD2     H10090   1.184   0.069  10.798  2.0820  0.3050 -1.2194
  682MPD2    H110091   1.068   0.408  11.021 -0.1175 -2.1156  0.8020
  682MPD2    H210092   1.105   0.439  10.600  2.8866  1.0876  0.7510
  682MPD2    H310093   1.067   0.541  10.815 -0.9060 -0.2664  3.6273
  682MPD2     N10094   1.103   0.155  11.040 -0.0490 -0.4045  0.7654
  682MPD2    H510095   1.093   0.209  11.125 -1.1918 -2.4029  1.9118
  682MPD2    N110096   1.163   0.179  10.559 -0.2448 -0.1496  0.0644
  682MPD2    H710097   1.181   0.079  10.562  1.8583  0.2269  0.1264
  683TMC3    C110098   1.203   4.635  11.379 -0.7354 -0.5797 -0.1458
  683TMC3    C210099   1.115   4.529  11.410  0.4828  0.3479 -0.4299
  683TMC3    C310100   1.031   4.498  11.310 -0.6731  0.3182  0.3575
  683TMC3    C410101   1.191   4.715  11.268  0.6158 -0.1481 -0.1683
  683TMC3    C510102   1.088   4.687  11.183  0.2599  0.7082  0.7912
  683TMC3    C610103   1.013   4.569  11.201  0.4657 -0.4465  0.1196
  683TMC3     C10104   1.310   4.668  11.469  0.6650 -0.1417 -0.4096
  683TMC3     O10105   1.368   0.051  11.456  0.1098  0.0731  0.1035
  683TMC3     H10106   1.130   4.460  11.492  0.7112 -1.1499 -1.7105
  683TMC3    H110107   1.256   0.073  11.241  0.5086 -0.8494 -2.6162
  683TMC3    H210108   0.939   4.534  11.131 -1.3321  1.6732  0.9423
  683TMC3    C710109   1.109   0.017  11.046  0.8503 -0.1642 -0.2481
  683TMC3    C810110   0.938   4.390  11.330  0.5044 -0.0686 -0.4585
  683TMC3    O110111   1.104   4.656  10.958 -0.3681  0.0336 -1.3890
  683TMC3    O210112   0.830   4.403  11.272 -0.3257  0.1997 -0.2397
  684MPD2     C10113   4.573   4.684  16.210  0.1202  0.2404 -0.2050
  684MPD2    C110114   4.620   4.676  16.083 -0.3122 -0.0324  0.7703
  684MPD2    C210115   4.711   0.046  16.034 -0.1029 -0.0059  0.2963
  684MPD2    C310116   0.039   0.140  16.126 -0.1689  0.0203  0.3900
  684MPD2    C410117   0.007   0.131  16.262  0.2843 -0.0760  0.4612
  684MPD2    C510118   4.627   0.048  16.299 -0.1301 -0.2899  0.9684
  684MPD2     H10119   0.024   0.033  15.933  0.4292  1.2896  0.3253
  684MPD2    H110120   0.051   0.202  16.332 -2.4844  1.8485  0.2840
  684MPD2    H210121   4.495   4.624  16.255  2.1710 -0.1661  2.8748
  684MPD2    H310122   4.590   0.063  16.400 -1.3283  3.7118 -0.0442
  684MPD2     N10123   0.128   0.242  16.081 -0.3086 -0.9243 -0.1292
  684MPD2    H510124   0.182   0.290  16.152  1.1626 -0.7203 -1.3914
  684MPD2    N110125   4.596   4.553  16.008  0.2829  0.7719  0.3577
  684MPD2    H710126   4.644   4.539  15.920  0.5874  1.2314  0.4508
  685TMC3    C110127   4.552   4.331  15.986  0.4679  0.4077  0.0335
  685TMC3    C210128   4.507   4.309  15.861 -0.7111 -0.2616 -0.6204
  685TMC3    C310129   4.536   4.186  15.816  0.3290 -1.1097 -0.6272
  685TMC3    C410130   4.601   4.237  16.072  0.1528  0.4311 -0.6008
  685TMC3    C510131   4.633   4.115  16.018 -0.1631  0.2972 -0.0843
  685TMC3    C610132   4.612   4.090  15.882 -0.3253 -0.4097 -0.3323
  685TMC3     C10133   4.516   4.454  16.052 -0.3927  0.0017  0.0353
  685TMC3     O10134   4.432   4.438  16.137 -0.0748 -0.2695  0.8100
  685TMC3     H10135   4.467   4.384  15.794  0.0625  0.3191 -0.4363
  685TMC3    H110136   4.620   4.264  16.175 -0.4428  0.4567 -0.5002
  685TMC3    H210137   4.635   3.993  15.842 -1.7175 -2.6019  4.1826
  685TMC3    C710138   4.720   4.026  16.088 -0.1367 -0.1050  0.5550
  685TMC3    C810139   4.454   4.132  15.711  0.3822 -0.5451  0.5176
  685TMC3    O110140   4.719   4.037  16.210  0.0750 -0.2575  0.0558
  685TMC3    O210141   4.506   4.052  15.635 -0.2785  0.2240  0.3574
  686MPD2     C10142   0.856   4.423  16.047 -0.0268  0.1775 -0.1805
  686MPD2    C110143   0.973   4.400  16.125 -0.5592 -0.3076 -0.8331
  686MPD2    C210144   1.093   4.410  16.066  0.5448  0.0713  0.4174
  686MPD2    C310145   1.103   4.405  15.931 -0.1949 -0.7112 -0.7576
  686MPD2    C410146   0.991   4.431  15.851  0.2704  0.2145 -0.7178
  686MPD2    C510147   0.870   4.439  15.912 -0.4728 -0.1813 -0.0549
  686MPD2     H10148   1.174   4.375  16.129  3.0782 -0.5995 -3.1708
  686MPD2    H110149   1.002   4.440  15.744 -2.5548 -0.1192 -1.0403
  686MPD2    H210150   0.757   4.411  16.089 -0.1826  0.4506 -0.4685
  686MPD2    H310151   0.784   4.455  15.848 -0.8387 -2.6921 -0.1917
  686MPD2     N10152   1.220   4.370  15.870  0.3114 -0.4218 -0.3704
  686MPD2    H510153   1.239   4.423  15.786 -0.1294 -2.0270 -1.4758
  686MPD2    N110154   0.959   4.379  16.264  0.4676  0.1954 -0.4956
  686MPD2    H710155   0.869   4.340  16.290  0.4342  0.7836  0.2934
  687TMC3    C110156   1.270   4.177  16.014  0.5756  0.1027 -0.3096
  687TMC3    C210157   1.144   4.122  16.004 -0.0534  0.2087 -0.7077
  687TMC3    C310158   1.108   4.035  16.099  0.1173 -0.0695 -0.1911
  687TMC3    C410159   1.362   4.135  16.103  0.1691  0.0818 -0.6789
  687TMC3    C510160   1.319   4.055  16.200  0.4967  0.2602  0.1894
  687TMC3    C610161   1.192   4.012  16.203  0.4048  0.0762  0.3043
  687TMC3     C10162   1.317   4.284  15.923  0.0368  0.3150 -0.2975
  687TMC3     O10163   1.436   4.292  15.893 -0.1008 -0.1110 -0.1514
  687TMC3     H10164   1.077   4.137  15.920  0.7181 -0.6137 -1.4670
  687TMC3    H110165   1.455   4.191  16.108  1.4539 -1.9289 -2.0697
  687TMC3    H210166   1.160   3.938  16.276  2.3653 -1.7088 -0.6603
  687TMC3    C710167   1.411   4.000  16.298  0.2328  0.1097 -0.7212
  687TMC3    C810168   0.968   4.001  16.127 -0.2422  0.4633 -0.2698
  687TMC3    O110169   1.360   3.960  16.401 -0.4774 -0.5003  0.4610
  687TMC3    O210170   0.930   3.968  16.241  0.0768  0.3982 -0.1466
  688MPD2     C10171   0.572   3.128  17.409 -0.1144  0.4059 -0.9103
  688MPD2    C110172   0.579   3.000  17.451  0.1389 -0.5078 -0.4612
  688MPD2    C210173   0.654   2.912  17.373 -0.4995 -0.2290 -0.0276
  688MPD2    C310174   0.734   2.961  17.266  0.1122  1.2259 -0.0772
  688MPD2    C410175   0.728   3.088  17.227 -0.3516 -0.1631 -0.0225
  688MPD2    C510176   0.653   3.170  17.303 -0.4610  0.0010  0.0404
  688MPD2     H10177   0.631   2.807  17.383 -2.3398  0.0081 -1.9084
  688MPD2    H110178   0.783   3.126  17.142 -1.2958 -1.8676 -1.4006
  688MPD2    H210179   0.504   3.196  17.459 -0.4389  1.6058 -2.9799
  688MPD2    H310180   0.639   3.274  17.275  0.0123  0.4035  1.2837
  688MPD2     N10181   0.821   2.881  17.192 -0.5224  0.1181 -0.5282
  688MPD2    H510182   0.865   2.925  17.112 -0.6015 -2.1456 -1.8207
  688MPD2    N110183   0.504   2.955  17.563 -0.5640 -0.0249 -0.0840
  688MPD2    H710184   0.527   2.859  17.586  1.4647  0.3645 -0.4755
  689TMC3    C110185   0.421   2.949   0.087 -0.7968  0.6686  0.0597
  689TMC3    C210186   0.424   3.027   0.199  0.1489 -0.3589 -0.4477
  689TMC3    C310187   0.411   2.960   0.314 -0.0964  0.0508 -0.2272
  689TMC3    C410188   0.393   2.814   0.084  0.2951  0.0456  0.7982
  689TMC3    C510189   0.362   2.760   0.210 -0.5558 -0.6851  0.1184
  689TMC3    C610190   0.380   2.830   0.326 -0.2059 -0.5623  0.1828
  689TMC3     C10191   0.443   3.026  17.664  0.2224  1.0657  0.2082
  689TMC3     O10192   0.420   3.144  17.660 -0.0907 -0.1480 -0.6154
  689TMC3     H10193   0.428   3.135   0.190 -0.0928 -0.3942 -1.0415
  689TMC3    H110194   0.353   2.768  17.693  2.9527  2.5296 -1.6620
  689TMC3    H210195   0.373   2.777   0.420 -0.0325  0.6303  0.8711
  689TMC3    C710196   0.332   2.614   0.225  0.2887 -0.6642  0.1975
  689TMC3    C810197   0.403   3.039   0.436  0.0507 -0.1448  0.3647
  689TMC3    O110198   0.298   2.593   0.337 -0.0266 -0.4014 -0.6217
  689TMC3    O210199   0.351   2.989   0.535 -0.7157 -0.0752  0.0911
  690MPD2     C10200   2.663   4.694  16.161 -0.3062 -0.1823 -1.0814
  690MPD2    C110201   2.621   0.073  16.084 -0.7868 -0.2493 -0.5745
  690MPD2    C210202   2.706   0.173  16.053 -0.0483  0.3211  0.1316
  690MPD2    C310203   2.832   0.171  16.098 -0.5360 -0.5840 -0.4748
  690MPD2    C410204   2.880   0.067  16.172  0.5176 -0.9856  0.3833
  690MPD2    C510205   2.791   4.694  16.205 -0.3832  0.4883 -0.6093
  690MPD2     H10206   2.680   0.249  15.980  2.6064  1.3559  0.2656
  690MPD2    H110207   2.980   0.066  16.215  0.6109 -0.3406  0.1834
  690MPD2    H210208   2.601   4.609  16.186 -2.0113  1.4357  0.1350
  690MPD2    H310209   2.831   4.619  16.272 -1.9590 -1.5196 -1.9347
  690MPD2     N10210   2.913   0.287  16.062 -0.1397 -0.6912  0.5771
  690MPD2    H510211   2.868   0.354  16.001  0.5827 -2.4128 -1.8425
  690MPD2    N110212   2.498   0.063  16.014  1.2290 -0.1404  0.3100
  690MPD2    H710213   2.484   0.143  15.954 -1.9219 -0.8876  0.0141
  691TMC3    C110214   2.308   4.688  15.909  0.2434  0.4976 -0.5051
  691TMC3    C210215   2.269   0.086  15.869 -0.0575  0.4133 -0.6471
  691TMC3    C310216   2.178   0.083  15.769  0.4678 -0.6765  0.1396
  691TMC3    C410217   2.268   4.569  15.852 -0.0314  0.4507 -0.0208
  691TMC3    C510218   2.188   4.570  15.745 -0.3011  0.1158 -1.1009
  691TMC3    C610219   2.137   4.689  15.702 -0.6787 -0.7011 -0.4430
  691TMC3     C10220   2.407   4.684  16.017  0.1481  0.2046 -0.2744
  691TMC3     O10221   2.415   4.570  16.057  0.1820  0.3879  0.1170
  691TMC3     H10222   2.291   0.175  15.928  0.8859  0.1821 -0.6546
  691TMC3    H110223   2.293   4.467  15.880  1.2831  0.9448  0.6348
  691TMC3    H210224   2.049   4.686  15.639 -1.3840 -0.2719  0.5239
  691TMC3    C710225   2.164   4.452  15.668 -0.0422 -0.3395 -0.5792
  691TMC3    C810226   2.095   0.202  15.751  0.4804 -0.2127  0.2014
  691TMC3    O110227   2.256   4.372  15.672 -0.3192 -0.0102 -0.3885
  691TMC3    O210228   2.092   0.293  15.834  0.6229  0.1950 -0.0800
  692TMC3    C110229   4.657   1.548  15.989 -0.6926  0.0022  0.3718
  692TMC3    C210230   0.060   1.507  16.037  0.1562  0.0712 -0.0229
  692TMC3    C310231   0.135   1.433  15.948  0.0535 -0.0689 -0.3191
  692TMC3    C410232   4.612   1.521  15.861  0.6395  0.2619 -1.0380
  692TMC3    C510233   4.677   1.428  15.787  0.1837  0.3910 -0.2692
  692TMC3    C610234   0.076   1.385  15.831 -0.0478  0.5434 -0.0974
  692TMC3     C10235   4.561   1.596  16.084  0.7962  0.6165  0.8065
  692TMC3     O10236   4.442   1.604  16.055  0.1258  0.3260  0.3648
  692TMC3     H10237   0.109   1.577  16.104 -0.1216 -1.6989  2.0120
  692TMC3    H110238   4.508   1.538  15.835  0.1440 -0.2748  0.6188
  692TMC3    H210239   0.142   1.343  15.757  0.2110  1.6775 -0.5080
  692TMC3    C710240   4.595   1.306  15.774 -0.1517 -0.0079 -0.1997
  692TMC3    C810241   0.191   1.314  16.020 -0.7005  0.3802  0.5272
  692TMC3    O110242   4.477   1.311  15.752 -0.0966 -0.2661  0.5448
  692TMC3    O210243   0.220   1.220  15.952 -0.5690 -0.1511 -0.5287
  693MPD2     C10244   3.203   4.550  10.479 -0.8634 -0.5642 -0.3439
  693MPD2    C110245   3.180   4.445  10.385  0.1780 -0.1971 -0.1379
  693MPD2    C210246   3.288   4.369  10.335  0.3250  0.2036 -0.0254
  693MPD2    C310247   3.411   4.396  10.373  0.0117 -1.0724  0.0115
  693MPD2    C410248   3.435   4.501  10.457  0.4818 -0.6355  0.1889
  693MPD2    C510249   3.338   4.581  10.506 -0.5543  0.2172 -0.0114
  693MPD2     H10250   3.271   4.290  10.263  1.6926 -0.6740  0.6254
  693MPD2    H110251   3.533   4.544  10.475  1.1636 -2.2026  0.1811
  693MPD2    H210252   3.128   4.624  10.506 -0.5390 -0.7163  0.9496
  693MPD2    H310253   3.356   4.672  10.563  1.5722 -0.6565  0.7188
  693MPD2     N10254   3.524   4.329  10.332  0.4759 -0.5516 -0.8386
  693MPD2    H510255   3.614   4.360  10.367  0.0816 -0.9134  0.5002
  693MPD2    N110256   3.044   4.413  10.363  0.2032  0.2742 -0.7128
  693MPD2    H710257   2.980   4.451  10.432  0.4350 -0.2766 -0.2006
  694TMC3    C110258   2.884   4.250  10.324 -0.1567  0.0275  0.3471
  694TMC3    C210259   2.792   4.195  10.236  0.4034 -0.6332  0.0317
  694TMC3    C310260   2.699   4.112  10.295 -0.0309  0.2788  0.3068
  694TMC3    C410261   2.892   4.208  10.455  0.8605 -0.6714 -0.1216
  694TMC3    C510262   2.802   4.111  10.502  0.1230  0.0830 -0.0562
  694TMC3    C610263   2.706   4.056  10.422  0.3658 -0.1858  0.3315
  694TMC3     C10264   3.001   4.320  10.268 -0.2715  0.1006 -0.3566
  694TMC3     O10265   3.052   4.270  10.170 -0.5809 -0.4190  0.1199
  694TMC3     H10266   2.789   4.220  10.131 -1.2539  0.1071  0.2652
  694TMC3    H110267   2.967   4.248  10.523  1.1126  1.6305 -1.7764
  694TMC3    H210268   2.643   3.976  10.459 -2.2836  2.7900  2.2452
  694TMC3    C710269   2.824   4.074  10.645 -0.7103 -1.1364  0.4959
  694TMC3    C810270   2.579   4.074  10.220  0.2394 -0.4749  0.2611
  694TMC3    O110271   2.911   4.137  10.702  0.1219 -0.7475 -0.3400
  694TMC3    O210272   2.510   3.988  10.273  0.1040 -0.7067  0.0919
  695MPD2     C10273   4.489   1.088  13.305 -0.5291  0.6284 -0.6004
  695MPD2    C110274   4.493   1.064  13.437  0.3718 -0.1824  0.2126
  695MPD2    C210275   4.383   1.000  13.496 -0.2240 -0.4056 -0.6692
  695MPD2    C310276   4.267   0.964  13.425  0.3703  0.3889  0.1841
  695MPD2    C410277   4.271   0.997  13.295  0.7224 -0.1044 -0.0505
  695MPD2    C510278   4.384   1.043  13.228 -0.0632  0.0041 -0.3246
  695MPD2     H10279   4.380   0.969  13.599  0.6498  0.1146 -0.4877
  695MPD2    H110280   4.185   0.982  13.231  0.1907  3.1641 -0.0916
  695MPD2    H210281   4.577   1.119  13.249 -0.3790  1.5259  0.1345
  695MPD2    H310282   4.387   1.064  13.121 -2.9150  0.1310 -0.3886
  695MPD2     N10283   4.153   0.919  13.494  0.0218  1.0456 -0.4445
  695MPD2    H510284   4.150   0.924  13.595 -2.4670  2.3254 -0.5703
  695MPD2    N110285   4.599   1.107  13.519  0.5596 -0.1429  0.4134
  695MPD2    H710286   4.593   1.075  13.616  2.1766  0.5700  0.7482
  696TMC3    C110287   3.924   0.865  13.541 -0.3223  0.0155  0.0493
  696TMC3    C210288   3.950   0.825  13.667 -0.5935  0.1590  0.6879
  696TMC3    C310289   3.846   0.812  13.748 -1.1055 -0.3945 -0.4955
  696TMC3    C410290   3.801   0.914  13.505  0.5786 -0.8349 -0.1633
  696TMC3    C510291   3.702   0.905  13.594 -0.0732 -0.1826  0.8745
  696TMC3    C610292   3.721   0.855  13.714 -0.8002  0.3955  0.0465
  696TMC3     C10293   4.030   0.893  13.444  0.9625 -0.1507 -0.1903
  696TMC3     O10294   3.998   0.916  13.329 -0.1690  0.6150  0.1472
  696TMC3     H10295   4.038   0.772  13.702 -0.3857 -0.4898 -0.8025
  696TMC3    H110296   3.793   0.953  13.404 -0.5257  1.3135  0.7448
  696TMC3    H210297   3.642   0.854  13.788 -0.3449  2.0622  0.5490
  696TMC3    C710298   3.600   1.008  13.579 -1.0127  0.5443 -0.5927
  696TMC3    C810299   3.857   0.777  13.892 -0.5272  0.7516 -0.3946
  696TMC3    O110300   3.556   1.026  13.464 -0.2662  0.5788  0.0786
  696TMC3    O210301   3.758   0.727  13.943 -0.3810  0.5908  0.0801
  697MPD2     C10302   3.912   3.190  15.721 -0.3757  0.3955 -0.1779
  697MPD2    C110303   3.967   3.125  15.605  0.1818  0.3917 -0.5577
  697MPD2    C210304   3.978   3.199  15.487 -0.1738  0.3309 -0.0151
  697MPD2    C310305   3.940   3.331  15.479  0.0072  0.1616  0.0015
  697MPD2    C410306   3.889   3.389  15.593  0.9667  0.9559  0.7567
  697MPD2    C510307   3.883   3.322  15.713  0.7186  0.2075 -0.1994
  697MPD2     H10308   4.012   3.150  15.397 -0.8292 -1.3728  0.6779
  697MPD2    H110309   3.858   3.493  15.595  0.7941  0.8598  3.6040
  697MPD2    H210310   3.891   3.139  15.814  0.4289  1.6216  0.6742
  697MPD2    H310311   3.858   3.365  15.809  2.2233  0.7832 -0.0604
  697MPD2     N10312   3.957   3.399  15.356  0.2687  0.5127 -0.0856
  697MPD2    H510313   3.994   3.346  15.278 -0.5760 -0.4690  0.1928
  697MPD2    N110314   4.004   2.988  15.600  0.5510  0.3521 -0.0076
  697MPD2    H710315   4.007   2.948  15.507  1.3836 -1.1936  0.6891
  698TMC3    C110316   3.991   3.560  15.201  0.7885 -0.2112  0.0673
  698TMC3    C210317   4.061   3.674  15.190 -0.4697  0.1873  0.4946
  698TMC3    C310318   4.122   3.706  15.075  0.3070 -0.4414  0.4936
  698TMC3    C410319   3.993   3.468  15.101  0.0545  0.1381 -0.0956
  698TMC3    C510320   4.071   3.493  14.995  0.3913  0.6191  0.0189
  698TMC3    C610321   4.130   3.619  14.975 -0.5028 -0.1668  0.0386
  698TMC3     C10322   3.941   3.533  15.334 -0.7055 -0.1171  0.1118
  698TMC3     O10323   3.913   3.628  15.407 -0.6404 -0.3617 -0.4376
  698TMC3     H10324   4.073   3.740  15.275  0.4718  2.0406 -1.0598
  698TMC3    H110325   3.923   3.385  15.104  2.9722 -2.2234  2.9659
  698TMC3    H210326   4.195   3.633  14.889 -0.9219  0.2244 -0.2136
  698TMC3    C710327   4.073   3.392  14.891 -0.1664 -0.0785  0.3037
  698TMC3    C810328   4.200   3.833  15.066 -0.6463  0.3243 -0.3802
  698TMC3    O110329   3.965   3.333  14.871  0.4140  0.3067 -0.5118
  698TMC3    O210330   4.225   3.898  15.160  0.4302 -0.4239  0.9832
  699TMC3    C110331   3.924   0.789  13.076 -0.1613 -0.5720 -0.5306
  699TMC3    C210332   3.956   0.664  13.123  0.5591 -0.4728 -0.4269
  699TMC3    C310333   3.859   0.598  13.197 -0.0090 -0.0918  0.2080
  699TMC3    C410334   3.796   0.832  13.077  0.3567 -0.2669 -0.2168
  699TMC3    C510335   3.701   0.770  13.163 -0.4413 -0.2520 -0.0300
  699TMC3    C610336   3.733   0.644  13.206 -0.0370 -0.4372  0.0463
  699TMC3     C10337   4.011   0.855  12.982 -0.3385  0.0049  0.6160
  699TMC3     O10338   3.955   0.932  12.908  0.1699 -0.1836 -0.0524
  699TMC3     H10339   4.054   0.618  13.122  1.2355  0.9624 -0.1561
  699TMC3    H110340   3.770   0.916  13.014  1.9718  1.9336  2.0222
  699TMC3    H210341   3.661   0.593  13.270  0.6715  0.3170  1.4602
  699TMC3    C710342   3.564   0.792  13.117 -0.1260 -0.2461 -0.5518
  699TMC3    C810343   3.899   0.529  13.313 -0.6971 -1.1721 -0.6025
  699TMC3    O110344   3.536   0.911  13.104  0.4191 -0.4057  0.0385
  699TMC3    O210345   3.812   0.461  13.365  0.2009  0.3570  0.0304
  700TMC3    C110346   3.378   3.448  17.581 -0.6811  0.1814  0.6668
  700TMC3    C210347   3.383   3.329  17.654  0.0850  0.3308  0.4143
  700TMC3    C310348   3.479   3.312   0.053 -0.2415 -0.5502 -0.9210
  700TMC3    C410349   3.454   3.553  17.616  0.1747  0.1905 -1.3233
  700TMC3    C510350   3.532   3.539   0.024  0.0278 -0.4006  0.9349
  700TMC3    C610351   3.557   3.416   0.081  0.8360 -0.2459 -0.1192
  700TMC3     C10352   3.409   3.426  17.437 -0.1793  0.2399  0.1477
  700TMC3     O10353   3.457   3.520  17.370  0.8118 -0.7462  0.1169
  700TMC3     H10354   3.318   3.247  17.626  1.1062 -0.3143 -0.0771
  700TMC3    H110355   3.457   3.647  17.561 -1.9674  0.3491 -1.1640
  700TMC3    H210356   3.630   3.410   0.161 -1.2497  1.5188  1.9125
  700TMC3    C710357   3.569   3.658   0.094 -0.2806 -0.6063 -0.7959
  700TMC3    C810358   3.559   3.186   0.052 -0.9277 -0.5180  0.4118
  700TMC3    O110359   3.649   3.648   0.182  0.1492 -0.0835  0.1024
  700TMC3    O210360   3.677   3.180   0.078 -0.0004 -0.3857  0.3430
  701TMC3    C110361   3.313   2.173  15.999  0.4171 -0.1069 -0.5074
  701TMC3    C210362   3.257   2.092  15.908 -0.2299  0.2709 -0.3131
  701TMC3    C310363   3.304   2.090  15.783  0.1154  0.2031 -0.9163
  701TMC3    C410364   3.403   2.269  15.964 -0.4153  1.0621  0.1327
  701TMC3    C510365   3.452   2.269  15.836 -0.0018 -0.4296  0.0423
  701TMC3    C610366   3.403   2.182  15.744  0.3704 -0.2351  0.4294
  701TMC3     C10367   3.257   2.191  16.131 -0.3982 -0.0958  0.3463
  701TMC3     O10368   3.279   2.289  16.199  0.2513  0.3518 -0.3514
  701TMC3     H10369   3.169   2.032  15.929  0.4831 -0.2887  1.1237
  701TMC3    H110370   3.444   2.333  16.041  1.5791  0.5419 -0.4952
  701TMC3    H210371   3.454   2.174  15.648  1.8509  0.3240  1.1769
  701TMC3    C710372   3.524   2.389  15.780 -0.1614 -0.6556  0.6266
  701TMC3    C810373   3.231   2.037  15.676  0.5571  0.2908 -0.1323
  701TMC3    O110374   3.517   2.415  15.662 -0.0802  0.5150  0.0203
  701TMC3    O210375   3.186   1.927  15.695  0.0832 -0.1676  0.2682
  702MPD2     C10376   2.836   4.640  10.042  1.0919 -0.2296  0.1927
  702MPD2    C110377   2.822   0.042  10.091  0.0938 -0.1410  0.2532
  702MPD2    C210378   2.788   0.146  10.011 -0.6077 -0.7357 -0.3659
  702MPD2    C310379   2.749   0.133   9.883  0.1313  0.3091 -0.0558
  702MPD2    C410380   2.770   0.006   9.829  0.0885 -0.2403 -0.4686
  702MPD2    C510381   2.823   4.623   9.905 -0.5582  0.0267 -0.6104
  702MPD2     H10382   2.782   0.247  10.049  1.0445 -1.0770  0.8302
  702MPD2    H110383   2.756   4.714   9.723 -0.5903  1.0835 -0.5841
  702MPD2    H210384   2.888   4.560  10.094 -0.2006 -1.0275  0.2581
  702MPD2    H310385   2.848   4.528   9.859  0.1046 -1.0762  2.0295
  702MPD2     N10386   2.703   0.235   9.798 -0.0012 -0.2827 -0.3688
  702MPD2    H510387   2.714   0.212   9.700 -2.7149  0.2635 -0.7999
  702MPD2    N110388   2.817   0.070  10.231 -0.4969  0.3631 -0.0431
  702MPD2    H710389   2.801   0.164  10.266 -1.7168 -1.3541  4.0374
  703TMC3    C110390   2.593   0.410   9.953  0.1580 -0.4658 -0.0091
  703TMC3    C210391   2.523   0.322  10.031 -0.4168 -0.1354 -0.6601
  703TMC3    C310392   2.499   0.355  10.161  0.0140 -0.2296 -0.0423
  703TMC3    C410393   2.636   0.530  10.000  0.3445  0.4315  0.2502
  703TMC3    C510394   2.620   0.551  10.133  0.0825 -0.3689 -0.0984
  703TMC3    C610395   2.549   0.470  10.220 -0.0624 -0.7660  0.0507
  703TMC3     C10396   2.657   0.369   9.829  0.2897 -1.1413  0.3789
  703TMC3     O10397   2.679   0.467   9.758 -0.6184 -0.3168  0.4287
  703TMC3     H10398   2.492   0.226   9.993 -0.8376 -0.6366  0.9323
  703TMC3    H110399   2.690   0.595   9.932  1.0261  1.0309  1.3734
  703TMC3    H210400   2.518   0.508  10.318  1.4533 -0.9356  0.5873
  703TMC3    C710401   2.738   0.626  10.179  0.0941 -0.3317 -0.3269
  703TMC3    C810402   2.460   0.251  10.248  0.2109 -0.3760 -0.0919
  703TMC3    O110403   2.804   0.691  10.093 -0.0103  0.1917  0.1674
  703TMC3    O210404   2.507   0.138  10.228 -0.0704 -0.2630 -0.1120
  704TMC3    C110405   0.156   2.764  11.972 -0.0015  0.5940 -0.0476
  704TMC3    C210406   0.275   2.817  11.944  0.1494 -0.1910 -0.3013
  704TMC3    C310407   0.384   2.778  12.013 -0.8661  0.7791 -0.2875
  704TMC3    C410408   0.137   2.684  12.078  0.2240  0.0183 -0.3394
  704TMC3    C510409   0.246   2.621  12.134 -0.2081 -0.2407 -0.3300
  704TMC3    C610410   0.371   2.665  12.091 -0.0591 -0.6042 -0.7975
  704TMC3     C10411   0.037   2.808  11.911  0.8041  0.0400 -0.8692
  704TMC3     O10412   4.661   2.793  11.975  0.2437 -0.1039 -0.5219
  704TMC3     H10413   0.283   2.907  11.885 -1.0813  0.5515  0.6779
  704TMC3    H110414   0.039   2.639  12.093  0.3939  0.4924  2.1872
  704TMC3    H210415   0.457   2.623  12.143 -1.2600 -0.8668  0.9618
  704TMC3    C710416   0.240   2.484  12.180 -0.0202  0.0101  0.0818
  704TMC3    C810417   0.512   2.782  11.941  0.5332 -1.0101 -1.3039
  704TMC3    O110418   0.340   2.412  12.179 -0.4210 -0.3352  0.4766
  704TMC3    O210419   0.513   2.797  11.820  0.1811 -0.2816  0.1350
  705MPD2     C10420   0.212   0.697  16.503 -0.1393  0.2498 -0.6254
  705MPD2    C110421   0.211   0.829  16.540 -0.4825  0.1200 -0.0188
  705MPD2    C210422   0.121   0.872  16.635  0.7652  0.5031  1.0859
  705MPD2    C310423   0.018   0.790  16.684  0.9651 -0.6682 -0.1010
  705MPD2    C410424   0.018   0.659  16.654 -0.2103  0.5035 -0.3947
  705MPD2    C510425   0.105   0.619  16.555 -0.2580  0.3353  0.1714
  705MPD2     H10426   0.132   0.976  16.664 -0.9218  1.0524 -0.2740
  705MPD2    H110427   4.672   0.590  16.700  0.4005  0.5187  0.5680
  705MPD2    H210428   0.287   0.658  16.436  0.5682 -0.0209  0.3232
  705MPD2    H310429   0.111   0.512  16.542  3.0653  0.6086 -0.5869
  705MPD2     N10430   4.643   0.830  16.780 -0.4628 -0.6501 -0.4544
  705MPD2    H510431   4.556   0.777  16.784 -1.0910  0.5068  0.9927
  705MPD2    N110432   0.299   0.922  16.477  0.3056 -0.7865  0.2480
  705MPD2    H710433   0.312   1.021  16.498  3.0259 -1.0166 -0.2742
  706TMC3    C110434   0.504   1.094  16.087  0.6580 -0.3930  0.5892
  706TMC3    C210435   0.523   1.219  16.145 -0.3040  0.3850 -0.0116
  706TMC3    C310436   0.481   1.236  16.276 -0.0395  0.6859 -0.2587
  706TMC3    C410437   0.450   0.990  16.147  0.8655 -0.1994  1.0710
  706TMC3    C510438   0.420   1.014  16.281 -0.0299 -0.7503 -0.0559
  706TMC3    C610439   0.436   1.133  16.351 -1.2936  0.1191 -0.5898
  706TMC3     C10440   0.582   1.083  15.963  0.6642 -0.4208 -0.0174
  706TMC3     O10441   0.678   1.154  15.956  0.5697 -0.2075  0.1250
  706TMC3     H10442   0.559   1.308  16.095  0.8592 -2.0642 -3.5537
  706TMC3    H110443   0.444   0.895  16.095  0.3264 -0.7788  2.1893
  706TMC3    H210444   0.418   1.150  16.457  1.9550  0.4765 -0.1196
  706TMC3    C710445   0.358   0.898  16.352  0.1427 -0.1619  0.0225
  706TMC3    C810446   0.460   1.374  16.313 -0.6292  0.3958 -0.5740
  706TMC3    O110447   0.345   0.803  16.272  0.0639 -0.5488 -0.1987
  706TMC3    O210448   0.429   1.450  16.223 -0.6964  0.2476 -0.0864
  707TMC3    C110449   1.879   0.170   2.036 -0.5084  0.1486  0.3021
  707TMC3    C210450   1.931   0.257   2.129  0.0524 -0.0664 -0.1208
  707TMC3    C310451   1.900   0.253   2.256  0.1880 -0.6624 -0.2584
  707TMC3    C410452   1.788   0.073   2.080 -0.0984  0.5670 -0.0431
  707TMC3    C510453   1.745   0.071   2.207  0.9423  0.2972  0.4159
  707TMC3    C610454   1.800   0.163   2.297  0.4294  0.0517  0.2974
  707TMC3     C10455   1.947   0.168   1.908  0.3878  0.8888 -0.5057
  707TMC3     O10456   2.062   0.214   1.903  0.4503  0.3779 -0.8604
  707TMC3     H10457   2.000   0.333   2.095 -1.9918  2.4425  1.3697
  707TMC3    H110458   1.734   0.005   2.015  2.4124  0.5296 -2.1099
  707TMC3    H210459   1.774   0.159   2.402  2.2199  0.0997  0.7462
  707TMC3    C710460   1.612   0.016   2.246 -0.9231  0.1155 -0.5020
  707TMC3    C810461   2.014   0.285   2.339  0.3401  0.3911  0.0783
  707TMC3    O110462   1.551   0.073   2.333 -0.1519  0.0868 -0.2638
  707TMC3    O210463   1.999   0.258   2.457  0.0477 -0.2309  0.0079
  708MPD2     C10464   3.493   3.930  13.847  0.3140  0.7176  0.3741
  708MPD2    C110465   3.377   3.972  13.788 -0.1869 -0.1665 -0.4456
  708MPD2    C210466   3.264   3.894  13.803 -0.4483 -0.3310  0.9405
  708MPD2    C310467   3.262   3.780  13.880  0.4296  0.1695  0.2953
  708MPD2    C410468   3.382   3.733  13.931  1.0075  0.4487 -0.2753
  708MPD2    C510469   3.497   3.808  13.908  0.2467  0.1455  0.2224
  708MPD2     H10470   3.181   3.921  13.739  0.5353  1.0384  0.2183
  708MPD2    H110471   3.393   3.643  13.989  0.6237  0.9195  0.5281
  708MPD2    H210472   3.582   3.991  13.837  0.9899 -0.3750 -0.3651
  708MPD2    H310473   3.596   3.781  13.944  0.1191 -2.1561 -1.1540
  708MPD2     N10474   3.139   3.707  13.904  0.2063 -0.5310 -0.5163
  708MPD2    H510475   3.145   3.636  13.977  0.5935 -1.3117 -1.3147
  708MPD2    N110476   3.363   4.102  13.745  0.0656 -0.8949 -0.0271
  708MPD2    H710477   3.268   4.133  13.726  0.3107  1.6399  2.9051
  709TMC3    C110478   3.409   4.306  13.657 -0.3730 -0.1002  0.4295
  709TMC3    C210479   3.408   4.321  13.522  0.5292 -0.0474 -0.5244
  709TMC3    C310480   3.305   4.385  13.457  0.4033 -0.0653 -0.2611
  709TMC3    C410481   3.296   4.346  13.724 -0.2601 -0.4196 -0.0388
  709TMC3    C510482   3.185   4.398  13.662  0.3430  0.4873  0.4085
  709TMC3    C610483   3.194   4.420  13.525  0.3859 -0.2901  0.0444
  709TMC3     C10484   3.465   4.188  13.710  0.1604  0.0560  0.5389
  709TMC3     O10485   3.587   4.175  13.694  0.2532 -0.5441  0.2880
  709TMC3     H10486   3.496   4.287  13.470 -0.3130 -0.9254 -1.3790
  709TMC3    H110487   3.280   4.332  13.830  0.1709 -1.4473 -0.1128
  709TMC3    H210488   3.101   4.440  13.473 -0.5029 -0.0214  1.7228
  709TMC3    C710489   3.070   4.315  13.701 -0.8956 -0.4934 -0.7980
  709TMC3    C810490   3.286   4.370  13.316 -0.4042  0.6858  0.6490
  709TMC3    O110491   3.105   4.212  13.762 -0.6556 -0.3558 -0.0348
  709TMC3    O210492   3.212   4.448  13.263 -0.1900 -0.2911 -0.0166
  710TMC3    C110493   4.703   1.041   0.070 -0.3543  0.3256 -0.6310
  710TMC3    C210494   4.647   0.918   0.043  0.0311  0.1864  0.0580
  710TMC3    C310495   4.672   0.816   0.128 -0.2526  0.1388  0.2376
  710TMC3    C410496   0.065   1.059   0.175 -0.1792  0.0551 -0.4998
  710TMC3    C510497   0.084   0.952   0.261 -0.5753 -0.6878  1.1229
  710TMC3    C610498   0.010   0.834   0.242  0.5269  0.4763  0.1113
  710TMC3     C10499   4.618   1.159   0.046 -0.2210  0.3544 -0.0262
  710TMC3     O10500   4.555   1.168  17.638  0.1117  0.3984  0.1907
  710TMC3     H10501   4.571   0.910  17.664  0.4355 -0.1032 -0.3104
  710TMC3    H110502   0.123   1.150   0.192 -0.1868 -0.4895  2.3327
  710TMC3    H210503   0.023   0.747   0.306 -2.3117  0.8574  1.2017
  710TMC3    C710504   0.200   0.932   0.350  0.3289  0.1231  0.2178
  710TMC3    C810505   4.629   0.677   0.110 -0.5039  0.1330 -0.9602
  710TMC3    O110506   0.180   0.859   0.446 -0.0496 -0.4851 -0.4281
  710TMC3    O210507   4.658   0.599   0.194  0.2819  0.8272 -0.5200
  711TMC3    C110508   3.978   2.126  15.323 -0.0489 -0.2878  0.1266
  711TMC3    C210509   4.066   2.170  15.422 -0.2762  0.4268 -0.2837
  711TMC3    C310510   4.202   2.189  15.387  0.4614 -0.5783 -0.9185
  711TMC3    C410511   4.024   2.091  15.200  0.7017 -0.6051 -0.3125
  711TMC3    C510512   4.162   2.089  15.177  1.0155  0.2307 -0.0112
  711TMC3    C610513   4.245   2.158  15.257  0.0201 -0.0171 -0.2041
  711TMC3     C10514   3.869   2.042  15.369  0.4372  1.0275  0.5148
  711TMC3     O10515   3.824   1.974  15.278  0.0034  0.4061  0.5116
  711TMC3     H10516   4.035   2.169  15.526  0.0892 -0.7551 -0.1854
  711TMC3    H110517   3.965   2.062  15.114  2.6965 -1.6884 -1.2891
  711TMC3    H210518   4.352   2.143  15.246 -0.0672 -1.3705  0.7956
  711TMC3    C710519   4.211   1.951  15.156  0.0036  0.3895 -0.7483
  711TMC3    C810520   4.283   2.171  15.508  0.0910  0.4357  0.3367
  711TMC3    O110521   4.325   1.923  15.198 -0.7538  0.1756 -0.0951
  711TMC3    O210522   4.246   2.219  15.610  0.0729 -0.2293 -0.0956
  712MPD2     C10523   0.201   2.616  12.865  1.2361 -0.2910  0.3863
  712MPD2    C110524   0.106   2.710  12.844 -0.6268  0.2090  0.0966
  712MPD2    C210525   0.131   2.839  12.877 -0.4314 -0.3513  0.0812
  712MPD2    C310526   0.248   2.878  12.933  0.1377 -0.5047 -0.1698
  712MPD2    C410527   0.348   2.785  12.948  0.2138  0.2501 -0.0579
  712MPD2    C510528   0.326   2.659  12.898  0.0349 -0.1699  0.1854
  712MPD2     H10529   0.059   2.911  12.841  1.4608 -0.3470 -3.7483
  712MPD2    H110530   0.445   2.817  12.983  0.6898  1.2629 -2.3196
  712MPD2    H210531   0.185   2.509  12.858  0.2863 -0.0120 -1.6434
  712MPD2    H310532   0.408   2.587  12.894 -0.4135 -0.7634  1.8682
  712MPD2     N10533   0.283   3.012  12.958  0.4530 -0.5820  0.4023
  712MPD2    H510534   0.377   3.031  12.992 -0.0435  0.3266  1.2589
  712MPD2    N110535   4.698   2.672  12.804 -0.1643  0.5811 -0.0584
  712MPD2    H710536   4.679   2.572  12.806 -0.4941  0.6237 -0.9516
  713TMC3    C110537   0.257   3.237  12.972 -0.1293 -0.5353 -0.1525
  713TMC3    C210538   0.394   3.238  12.948 -0.3942 -0.5219  0.3412
  713TMC3    C310539   0.470   3.319  13.023  0.0909 -0.4770 -0.0607
  713TMC3    C410540   0.196   3.334  13.053 -0.4210 -0.1308  0.4587
  713TMC3    C510541   0.276   3.423  13.114 -0.2178 -0.2630 -0.4091
  713TMC3    C610542   0.413   3.404  13.115 -0.5350 -0.6297  0.4501
  713TMC3     C10543   0.194   3.114  12.938  0.6108 -0.2205  0.0228
  713TMC3     O10544   0.073   3.105  12.941  0.2212 -0.4478  0.3725
  713TMC3     H10545   0.450   3.171  12.885  1.8198  0.0409  1.6805
  713TMC3    H110546   0.093   3.314  13.080  0.1779 -1.3279  1.8258
  713TMC3    H210547   0.479   3.465  13.176 -1.4811 -0.1305  0.9764
  713TMC3    C710548   0.229   3.494  13.235 -1.0463 -0.4953  0.5046
  713TMC3    C810549   0.619   3.291  13.026  0.1729  0.0258  0.2219
  713TMC3    O110550   0.314   3.508  13.325  0.5031 -0.6349  0.0814
  713TMC3    O210551   0.661   3.227  12.926  0.5106  0.4676 -0.9083
  714MPD2     C10552   2.772   1.810   0.942  0.3000  0.2096  0.7799
  714MPD2    C110553   2.748   1.680   0.918 -1.1801 -1.1372  0.9123
  714MPD2    C210554   2.644   1.634   0.840  0.3536 -0.3802 -0.1609
  714MPD2    C310555   2.567   1.727   0.771 -0.1295 -0.0405  0.0263
  714MPD2    C410556   2.607   1.861   0.774  0.4961 -0.7540 -0.0472
  714MPD2    C510557   2.708   1.899   0.857  0.5303 -0.0922  0.3750
  714MPD2     H10558   2.618   1.529   0.851 -0.2967 -0.1065  0.9020
  714MPD2    H110559   2.560   1.937   0.712  0.5888 -1.5922 -1.1442
  714MPD2    H210560   2.849   1.857   1.001  0.1421  0.6711  0.6135
  714MPD2    H310561   2.737   2.004   0.859 -0.3694  0.1663 -0.0142
  714MPD2     N10562   2.461   1.679   0.691  0.4066  0.2565 -0.0325
  714MPD2    H510563   2.455   1.577   0.690 -0.5303  0.3424 -2.7664
  714MPD2    N110564   2.826   1.589   0.993 -0.0509  0.4518 -0.1269
  714MPD2    H710565   2.892   1.620   1.063  3.5816  0.1210 -3.4308
  715TMC3    C110566   2.971   1.413   1.018  0.1978 -0.2615  0.1139
  715TMC3    C210567   3.013   1.289   0.974 -0.5068 -0.0312  0.5679
  715TMC3    C310568   3.131   1.239   1.033  0.2303 -0.1622 -0.3116
  715TMC3    C410569   3.049   1.486   1.102  0.0793 -0.1884  0.8992
  715TMC3    C510570   3.166   1.435   1.155 -0.0214  0.6622  0.1049
  715TMC3    C610571   3.201   1.309   1.127 -0.1595  0.6883  0.2059
  715TMC3     C10572   2.869   1.470   0.938  0.4987  0.2067  0.3777
  715TMC3     O10573   2.839   1.412   0.836  0.0408  0.2301 -0.0089
  715TMC3     H10574   2.950   1.221   0.917 -0.0711  0.0199  0.0299
  715TMC3    H110575   3.019   1.586   1.132 -1.1129 -0.4193  0.4657
  715TMC3    H210576   3.286   1.259   1.174 -1.6598 -0.2352  1.9406
  715TMC3    C710577   3.249   1.518   1.236 -0.2843 -0.1922  0.2341
  715TMC3    C810578   3.186   1.116   0.985  0.5751 -0.3745 -0.7541
  715TMC3    O110579   3.374   1.524   1.226 -0.0269  0.2674  0.6059
  715TMC3    O210580   3.102   1.035   0.944  0.2397 -0.4688  0.2123
  716MPD2     C10581   2.520   4.463   9.623 -0.8639  0.1518 -0.6655
  716MPD2    C110582   2.410   4.499   9.540 -0.0339  0.0441  0.0846
  716MPD2    C210583   2.366   4.408   9.450  0.4075 -0.1114  0.7263
  716MPD2    C310584   2.431   4.289   9.428  0.3204 -0.6176  0.4207
  716MPD2    C410585   2.537   4.262   9.511 -0.4809 -0.0270 -0.2669
  716MPD2    C510586   2.579   4.342   9.606 -0.1878 -0.1209 -0.4966
  716MPD2     H10587   2.278   4.434   9.393  1.6502  0.1886 -1.0571
  716MPD2    H110588   2.602   4.176   9.501 -0.4780 -0.1319  0.6128
  716MPD2    H210589   2.547   4.536   9.698 -0.5766 -0.4918 -0.1388
  716MPD2    H310590   2.667   4.317   9.665 -1.2334 -1.1034  0.6563
  716MPD2     N10591   2.399   4.215   9.312  0.3667  0.0224  0.1577
  716MPD2    H510592   2.320   4.243   9.254 -1.0747 -2.0103  1.1156
  716MPD2    N110593   2.363   4.631   9.555 -0.2022 -0.6728 -0.2394
  716MPD2    H710594   2.396   4.682   9.636 -0.1259 -0.8537 -0.1574
  717TMC3    C110595   2.383   4.039   9.152  0.2282 -0.2276 -0.5012
  717TMC3    C210596   2.286   4.105   9.080 -0.0835 -0.1341  0.4948
  717TMC3    C310597   2.228   4.047   8.968  0.3283  0.1469  0.2776
  717TMC3    C410598   2.420   3.906   9.120 -0.1478  0.4895  0.1013
  717TMC3    C510599   2.347   3.848   9.019  0.6269  0.8152 -0.0276
  717TMC3    C610600   2.255   3.917   8.932 -0.3091 -0.6589 -0.3647
  717TMC3     C10601   2.451   4.093   9.274 -0.1891 -0.2632 -0.2008
  717TMC3     O10602   2.538   4.029   9.332  0.0596 -0.0415  0.2569
  717TMC3     H10603   2.266   4.209   9.101  0.5903  0.2079 -0.5449
  717TMC3    H110604   2.497   3.855   9.176  1.3437  3.3308  0.6486
  717TMC3    H210605   2.213   3.877   8.840 -1.4766 -1.7358  0.6446
  717TMC3    C710606   2.309   3.709   9.031  0.1561  0.4085  0.1215
  717TMC3    C810607   2.109   4.120   8.913  0.7011 -0.0877  0.7657
  717TMC3    O110608   2.226   3.669   8.950 -0.7382  0.0767  0.5273
  717TMC3    O210609   2.067   4.229   8.958 -0.3575 -0.4039  0.2623
  718MPD2     C10610   1.691   3.112  12.965  0.5475  0.5006 -0.1531
  718MPD2    C110611   1.704   3.194  12.854  0.2490  1.2108 -0.2293
  718MPD2    C210612   1.627   3.167  12.746 -0.2003  0.0493  0.7067
  718MPD2    C310613   1.539   3.064  12.739  0.0075  0.3291 -0.6993
  718MPD2    C410614   1.511   2.988  12.857  0.0049  1.3610  0.4750
  718MPD2    C510615   1.594   3.015  12.967  0.4542 -0.1875  0.3024
  718MPD2     H10616   1.618   3.242  12.669  0.4079  0.2916  0.8694
  718MPD2    H110617   1.434   2.912  12.854  1.1393  0.2552 -1.0627
  718MPD2    H210618   1.746   3.127  13.057  0.0108  0.5342  0.1635
  718MPD2    H310619   1.579   2.951  13.054  0.0472 -0.3485  0.1136
  718MPD2     N10620   1.465   3.050  12.620 -0.1791 -0.3551 -1.2244
  718MPD2    H510621   1.496   3.101  12.538  0.5307 -1.8538 -1.8957
  718MPD2    N110622   1.791   3.306  12.849 -0.3405  0.1297 -0.2315
  718MPD2    H710623   1.782   3.367  12.768 -1.6174  0.0810 -0.1382
  719TMC3    C110624   1.935   3.467  12.895  0.2002  0.2783  0.1308
  719TMC3    C210625   1.845   3.539  12.824 -0.3592 -0.4583 -0.0001
  719TMC3    C310626   1.878   3.592  12.706  0.0386  0.4957  0.0603
  719TMC3    C410627   2.062   3.454  12.850 -1.0040  0.1453  0.6155
  719TMC3    C510628   2.094   3.508  12.728 -0.5505  0.1073  1.0397
  719TMC3    C610629   2.005   3.584  12.650  0.6575 -0.9655 -0.1502
  719TMC3     C10630   1.883   3.343  12.943 -0.4163 -0.5769  0.2821
  719TMC3     O10631   1.932   3.274  13.032 -0.0157 -0.4336  0.4017
  719TMC3     H10632   1.744   3.539  12.862 -0.0464  0.4051  0.8468
  719TMC3    H110633   2.115   3.372  12.898 -1.2447 -0.2738  0.1603
  719TMC3    H210634   2.033   3.620  12.551  3.5129  2.1539  1.8047
  719TMC3    C710635   2.224   3.475  12.676  0.4042 -0.2419 -0.6050
  719TMC3    C810636   1.764   3.600  12.612 -0.2891 -0.0083 -0.5183
  719TMC3    O110637   2.252   3.498  12.557 -0.3748 -0.2206 -0.0850
  719TMC3    O210638   1.651   3.599  12.658  0.0508 -0.0112  0.2086
  720MPD2     C10639   0.402   0.325  14.349  0.0628 -0.8360 -0.1942
  720MPD2    C110640   0.482   0.261  14.251 -0.9776  0.7100  0.0650
  720MPD2    C210641   0.578   0.174  14.294 -0.7105  0.6651 -0.1000
  720MPD2    C310642   0.611   0.168  14.431 -0.2568  0.1570  0.0898
  720MPD2    C410643   0.522   0.222  14.521  0.3558  0.3294  0.5755
  720MPD2    C510644   0.417   0.295  14.480  0.3509 -0.2411  0.6284
  720MPD2     H10645   0.638   0.128  14.216  0.6468  0.9343  0.7788
  720MPD2    H110646   0.539   0.212  14.628 -1.6899  1.0195  0.9691
  720MPD2    H210647   0.329   0.399  14.315 -1.5355 -2.5438 -0.4803
  720MPD2    H310648   0.346   0.342  14.548 -0.2290 -0.9123  0.4887
  720MPD2     N10649   0.732   0.101  14.469  0.2303  0.1027 -0.1525
  720MPD2    H510650   0.800   0.074  14.398  0.0356  0.2662 -0.4023
  720MPD2    N110651   0.470   0.282  14.110 -0.0268  0.4316  0.2804
  720MPD2    H710652   0.519   0.214  14.052 -0.2867  1.1004 -0.7269
  721TMC3    C110653   0.911   0.035  14.604  0.4646 -0.0115  0.3892
  721TMC3    C210654   0.959   4.680  14.703  0.2203 -0.2516 -0.1964
  721TMC3    C310655   1.094   4.653  14.719 -0.8249 -0.1123 -0.0005
  721TMC3    C410656   0.992   0.063  14.496  0.5780 -0.6763 -0.0389
  721TMC3    C510657   1.121   0.032  14.508 -0.0901  0.2742 -0.4485
  721TMC3    C610658   1.174   4.688  14.618 -0.2946 -0.7646  0.0641
  721TMC3     C10659   0.765   0.061  14.596 -0.1254 -0.4474 -0.2119
  721TMC3     O10660   0.688   0.048  14.691 -0.4580  0.1041 -0.0529
  721TMC3     H10661   0.885   4.628  14.763  0.2180  0.3302  0.2984
  721TMC3    H110662   0.956   0.124  14.414 -0.0717 -1.1540 -0.1128
  721TMC3    H210663   1.277   4.658  14.609 -0.5789 -1.5992 -0.4482
  721TMC3    C710664   1.211   0.085  14.408  0.5089  0.1065  0.5942
  721TMC3    C810665   1.141   4.545  14.797 -0.6488 -0.1855  0.0390
  721TMC3    O110666   1.333   0.094  14.432  0.1159 -1.1674 -0.0833
  721TMC3    O210667   1.239   4.488  14.755 -0.4005  0.1587  0.1533
  722MPD2     C10668   3.796   3.755  13.208 -0.2184  0.0615  0.1986
  722MPD2    C110669   3.826   3.852  13.111  0.0923  0.2079 -0.2417
  722MPD2    C210670   3.744   3.866  13.000 -1.3226  0.2168 -0.5318
  722MPD2    C310671   3.645   3.773  12.982  0.5095 -0.3446 -0.1857
  722MPD2    C410672   3.618   3.679  13.077  0.8960  0.5055 -0.0985
  722MPD2    C510673   3.689   3.679  13.193 -0.6620 -0.4376 -0.3463
  722MPD2     H10674   3.771   3.936  12.922 -1.1552 -0.7461 -1.3407
  722MPD2    H110675   3.554   3.592  13.069 -0.5520  1.4628  1.0864
  722MPD2    H210676   3.847   3.751  13.303  1.4744 -0.8027 -0.7581
  722MPD2    H310677   3.679   3.605  13.271 -1.8613  1.3805  1.2094
  722MPD2     N10678   3.570   3.783  12.857 -0.3870  0.1764 -0.5047
  722MPD2    H510679   3.594   3.868  12.806 -3.0199  0.9052 -0.5313
  722MPD2    N110680   3.935   3.935  13.122 -0.3465  0.5137  0.3679
  722MPD2    H710681   3.957   3.992  13.041  0.8160 -0.4062  0.0432
  723TMC3    C110682   3.427   3.716  12.675  0.0690  0.7987 -0.0007
  723TMC3    C210683   3.345   3.613  12.633  0.1825  1.0142 -0.1772
  723TMC3    C310684   3.228   3.645  12.575  0.0327  0.1229  0.1129
  723TMC3    C410685   3.394   3.848  12.654  0.2952 -0.1925  0.2384
  723TMC3    C510686   3.268   3.876  12.605  0.9272  0.3782  0.5230
  723TMC3    C610687   3.189   3.770  12.563  0.3179 -0.2232 -0.3526
  723TMC3     C10688   3.493   3.679  12.803 -0.0160 -0.0587 -0.1720
  723TMC3     O10689   3.469   3.569  12.849 -0.1783 -0.1174 -0.4681
  723TMC3     H10690   3.376   3.512  12.660 -1.3244  0.5060 -0.3411
  723TMC3    H110691   3.456   3.926  12.697  1.8071 -1.4894  0.4195
  723TMC3    H210692   3.088   3.789  12.527  0.4971  0.5148 -0.4710
  723TMC3    C710693   3.225   4.008  12.570 -0.2920 -0.3311  0.6586
  723TMC3    C810694   3.121   3.546  12.609  1.3839  0.4742 -0.8117
  723TMC3    O110695   3.122   4.015  12.500  0.5503  0.1388  0.5451
  723TMC3    O210696   3.015   3.582  12.662 -0.1698 -0.1564  0.3879
  724TMC3    C110697   4.411   1.924  10.048  0.7499  0.6922 -0.0716
  724TMC3    C210698   4.321   1.863   9.962 -0.1782 -0.3441 -0.0268
  724TMC3    C310699   4.341   1.894   9.829  0.0529 -0.3831  0.3891
  724TMC3    C410700   4.498   2.023  10.007  0.4944 -0.4267 -0.1970
  724TMC3    C510701   4.519   2.045   9.873 -0.7198  0.4382 -0.5759
  724TMC3    C610702   4.440   1.979   9.778 -0.2533 -0.3515 -0.2346
  724TMC3     C10703   4.410   1.896  10.191  0.2444 -0.8258  0.0154
  724TMC3     O10704   4.478   1.972  10.256 -0.0386 -0.4882 -0.1350
  724TMC3     H10705   4.262   1.775   9.987 -0.1503 -0.4438 -0.3045
  724TMC3    H110706   4.559   2.083  10.074 -0.5468 -0.9121  1.2056
  724TMC3    H210707   4.444   2.015   9.676  0.4092  0.9628  0.2440
  724TMC3    C710708   4.630   2.128   9.827 -0.3844 -0.1936 -0.1902
  724TMC3    C810709   4.221   1.875   9.749 -0.8558 -0.3604 -0.1134
  724TMC3    O110710   4.669   2.100   9.714 -0.0948  0.1313 -0.2615
  724TMC3    O210711   4.119   1.828   9.804 -0.4902  0.0307 -0.1676
  725TMC3    C110712   1.029   0.276  12.948 -1.0318 -0.5990  0.0281
  725TMC3    C210713   0.915   0.318  12.887  0.4239  0.4382 -0.3315
  725TMC3    C310714   0.827   0.224  12.851  0.0665  0.4533 -0.0727
  725TMC3    C410715   1.057   0.144  12.978 -0.2149  0.0889 -0.3246
  725TMC3    C510716   0.971   0.047  12.923 -0.1128 -0.0671  0.2098
  725TMC3    C610717   0.851   0.089  12.869 -0.2855 -0.3823  0.5346
  725TMC3     C10718   1.124   0.385  12.978 -0.0851  0.1193  0.5501
  725TMC3     O10719   1.086   0.492  12.935  0.3656  0.8133  0.4181
  725TMC3     H10720   0.902   0.419  12.850 -0.7685  1.0886  1.8617
  725TMC3    H110721   1.146   0.111  13.030 -2.3851  1.6307  4.3551
  725TMC3    H210722   0.791   0.018  12.814  1.0003 -0.6809 -0.4951
  725TMC3    C710723   1.029   4.637  12.901  0.7813 -0.3982 -0.0324
  725TMC3    C810724   0.733   0.245  12.743 -1.2555  0.1142  0.2106
  725TMC3    O110725   1.152   4.637  12.904  0.5941 -0.1999 -0.0923
  725TMC3    O210726   0.644   0.166  12.729  0.0875  0.4805 -0.4477
  726MPD2     C10727   3.641   2.194  10.219  0.7643 -0.5629  0.3128
  726MPD2    C110728   3.546   2.286  10.180  0.1601  0.7424 -0.2008
  726MPD2    C210729   3.418   2.254  10.189  0.3554 -0.1217  0.3453
  726MPD2    C310730   3.372   2.132  10.237 -0.0930 -0.4457  0.5331
  726MPD2    C410731   3.467   2.041  10.286  0.5199 -0.3087 -0.0049
  726MPD2    C510732   3.601   2.071  10.280 -0.1156  0.0194  0.3913
  726MPD2     H10733   3.342   2.326  10.158  1.9231  0.2815 -2.5481
  726MPD2    H110734   3.433   1.957  10.345 -2.0508  0.3430 -0.5822
  726MPD2    H210735   3.748   2.212  10.214  0.3991  1.4659 -0.3597
  726MPD2    H310736   3.673   1.996  10.309 -0.7318 -0.1286  1.5392
  726MPD2     N10737   3.234   2.097  10.250  0.1418 -0.0900 -0.8697
  726MPD2    H510738   3.213   2.012  10.302  2.1122  1.3211  2.2511
  726MPD2    N110739   3.574   2.410  10.118 -0.2737 -0.2474 -0.0796
  726MPD2    H710740   3.494   2.464  10.087  0.0187 -1.5060 -2.9740
  727TMC3    C110741   3.695   2.595  10.050  0.8943  0.4392  0.5548
  727TMC3    C210742   3.818   2.655  10.045 -0.4792  0.3019 -0.6312
  727TMC3    C310743   3.816   2.789  10.052  0.0274 -0.7531  0.5968
  727TMC3    C410744   3.574   2.663  10.050 -0.4419  0.2224  0.0461
  727TMC3    C510745   3.583   2.802  10.047 -0.3096 -0.2860  0.8114
  727TMC3    C610746   3.703   2.867  10.049 -0.0112 -0.1510  0.1193
  727TMC3     C10747   3.702   2.455  10.084 -0.1853 -0.2180  0.0048
  727TMC3     O10748   3.810   2.402  10.090  0.2294 -0.4289 -0.4521
  727TMC3     H10749   3.911   2.600  10.033 -1.0813 -1.1959  1.5940
  727TMC3    H110750   3.476   2.619  10.040 -0.8481  0.3456  3.4845
  727TMC3    H210751   3.708   2.974  10.036  0.6077 -0.1611  0.2860
  727TMC3    C710752   3.457   2.869  10.071  0.7974 -0.3244  0.4403
  727TMC3    C810753   3.954   2.851  10.040 -0.6897 -0.0057  0.3525
  727TMC3    O110754   3.373   2.801  10.121  0.0571  0.2935 -0.1481
  727TMC3    O210755   4.034   2.797   9.966  0.2236 -0.0192 -0.9140
  728TMC3    C110756   3.082   0.436  16.056  0.3259 -0.8732 -0.4457
  728TMC3    C210757   3.135   0.522  16.147 -0.4067 -0.2957 -0.3338
  728TMC3    C310758   3.167   0.652  16.108  0.1773 -0.2285  0.9114
  728TMC3    C410759   3.033   0.486  15.945  0.8519  0.2205 -0.2265
  728TMC3    C510760   3.061   0.614  15.909  0.3070  0.0916 -0.1480
  728TMC3    C610761   3.133   0.702  15.986 -0.1233  0.5524 -0.2831
  728TMC3     C10762   3.042   0.310  16.102 -0.4597 -0.3652  0.1930
  728TMC3     O10763   3.109   0.251  16.185  0.1917 -0.9428  0.1773
  728TMC3     H10764   3.161   0.487  16.247 -0.3133  0.8545  0.0437
  728TMC3    H110765   2.971   0.429  15.876  1.6885 -2.0299  0.8537
  728TMC3    H210766   3.180   0.791  15.948 -0.9974  0.2076 -2.1845
  728TMC3    C710767   3.027   0.648  15.770  0.7448  0.1902  0.3681
  728TMC3    C810768   3.203   0.750  16.208 -0.3068 -0.6553  0.0419
  728TMC3    O110769   2.960   0.573  15.707  0.0310  0.2700 -0.2692
  728TMC3    O210770   3.199   0.866  16.178  0.2551 -0.0844  0.3939
  729MPD2     C10771   0.576   1.869  16.750  1.3170  0.5118  0.1715
  729MPD2    C110772   0.642   1.749  16.717  0.4776  0.3013 -0.2589
  729MPD2    C210773   0.690   1.668  16.816  0.0432  0.0424 -0.4504
  729MPD2    C310774   0.678   1.710  16.947 -0.1289  0.3417  0.1254
  729MPD2    C410775   0.619   1.832  16.980 -0.5965  0.4507 -0.0164
  729MPD2    C510776   0.569   1.913  16.879  0.1022 -0.7985 -0.4055
  729MPD2     H10777   0.746   1.577  16.799  1.3610  0.6374  0.7241
  729MPD2    H110778   0.616   1.865  17.084 -1.8229  0.6559 -0.1146
  729MPD2    H210779   0.524   1.927  16.675 -0.6588 -0.8480  0.4926
  729MPD2    H310780   0.525   2.010  16.898  0.9853 -0.2112 -1.3929
  729MPD2     N10781   0.734   1.634  17.053 -0.2262 -0.1373  0.1565
  729MPD2    H510782   0.740   1.690  17.137 -0.5094  1.9008 -1.1792
  729MPD2    N110783   0.653   1.725  16.573 -0.5660  0.3328  0.2011
  729MPD2    H710784   0.599   1.789  16.517  0.5703 -1.7481 -3.2257
  730TMC3    C110785   0.908   1.496  17.147  0.0380  1.1361 -0.2699
  730TMC3    C210786   1.029   1.473  17.088 -0.1757 -1.0953 -0.0020
  730TMC3    C310787   1.136   1.562  17.108 -0.1391  0.3518 -0.2911
  730TMC3    C410788   0.898   1.583  17.248 -0.1336 -0.3336 -0.2494
  730TMC3    C510789   1.002   1.678  17.268  0.0935  0.0738  0.0897
  730TMC3    C610790   1.116   1.668  17.194 -0.3388  0.1395 -0.6065
  730TMC3     C10791   0.796   1.505  17.048 -0.8485 -0.2721  0.2857
  730TMC3     O10792   0.783   1.418  16.964  0.2500 -0.4760  0.0725
  730TMC3     H10793   1.039   1.398  17.011  0.8014  0.9670 -1.8793
  730TMC3    H110794   0.798   1.600  17.288 -0.4665 -1.6915 -0.5074
  730TMC3    H210795   1.189   1.741  17.226 -1.0739  1.7059 -2.5354
  730TMC3    C710796   0.945   1.811  17.260 -0.1020  0.4245 -0.5015
  730TMC3    C810797   1.206   1.581  16.985  0.6054 -0.3572  0.3913
  730TMC3    O110798   1.002   1.875  17.172  0.2827 -0.7053 -0.3246
  730TMC3    O210799   1.214   1.483  16.915 -0.9224  0.7377  0.3679
  731MPD2     C10800   0.929   4.668  12.320  0.4007  0.3550  0.7905
  731MPD2    C110801   0.878   4.567  12.232 -0.1121 -0.6396 -0.4058
  731MPD2    C210802   0.771   4.490  12.284 -0.5061  0.2476 -0.4381
  731MPD2    C310803   0.709   4.511  12.407  0.0443 -0.3002 -0.0264
  731MPD2    C410804   0.756   4.612  12.490 -0.4839  0.0150 -0.5616
  731MPD2    C510805   0.868   4.683  12.448 -0.1330 -0.3178  0.4991
  731MPD2     H10806   0.731   4.410  12.223  0.2502  0.5588 -1.3346
  731MPD2    H110807   0.725   4.622  12.593 -0.8723  1.7092 -0.8503
  731MPD2    H210808   1.021   4.722  12.301  0.6292  0.1250  1.2346
  731MPD2    H310809   0.919   0.032  12.510  1.5829 -0.4086 -0.8198
  731MPD2     N10810   0.599   4.423  12.442 -0.0783 -0.5462  0.1842
  731MPD2    H510811   0.586   4.344  12.379 -2.0586  0.5208 -0.7074
  731MPD2    N110812   0.945   4.549  12.110  0.0213  0.2466 -0.1002
  731MPD2    H710813   1.035   4.592  12.094  0.7840 -1.3080  0.0461
  732TMC3    C110814   1.014   4.417  11.922  0.6821 -0.3107  0.1121
  732TMC3    C210815   0.957   4.337  11.825  0.5935  0.5119 -0.1707
  732TMC3    C310816   1.013   4.217  11.782  0.8313 -0.1283 -0.4070
  732TMC3    C410817   1.134   4.375  11.976 -0.0191 -0.4184  0.2850
  732TMC3    C510818   1.194   4.265  11.916  0.4394 -0.1273 -0.5737
  732TMC3    C610819   1.135   4.176  11.832  0.6511 -0.5272  0.3553
  732TMC3     C10820   0.916   4.443  12.024  0.7524 -0.1640 -0.0887
  732TMC3     O10821   0.801   4.394  11.998 -0.3231  0.2309 -0.6054
  732TMC3     H10822   0.867   4.370  11.776  0.4088 -0.0039 -0.1764
  732TMC3    H110823   1.167   4.422  12.068 -1.4084  1.4402 -0.1698
  732TMC3    H210824   1.168   4.078  11.798 -0.6319 -1.2674  1.2399
  732TMC3    C710825   1.313   4.221  11.980 -0.0194 -0.1246  0.0994
  732TMC3    C810826   0.919   4.106  11.802  0.2626  0.8053  0.1423
  732TMC3    O110827   1.355   4.294  12.069  0.0554 -0.4608 -0.3633
  732TMC3    O210828   0.962   3.990  11.800 -0.1010  0.0872 -0.1835
  733TMC3    C110829   1.054   3.133  12.425  0.1893  0.5664 -0.5260
  733TMC3    C210830   1.122   3.066  12.526 -0.6390  0.0162  0.2003
  733TMC3    C310831   1.260   3.067  12.514 -0.2587  0.4656 -0.1873
  733TMC3    C410832   1.113   3.202  12.319 -0.1226 -0.2859 -0.2328
  733TMC3    C510833   1.248   3.194  12.313 -0.2692 -0.6875  0.0403
  733TMC3    C610834   1.317   3.133  12.408  0.5514 -0.2994 -0.1150
  733TMC3     C10835   0.910   3.142  12.425 -0.6423  0.4430 -0.2441
  733TMC3     O10836   0.860   3.218  12.340  0.5315  0.1963  0.2891
  733TMC3     H10837   1.075   3.030  12.617 -0.4180 -0.4297  0.1431
  733TMC3    H110838   1.062   3.259  12.243 -0.7035 -1.5300 -0.7667
  733TMC3    H210839   1.425   3.123  12.402  0.6468  0.7744 -0.1379
  733TMC3    C710840   1.318   3.298  12.243  0.7658  0.2378 -0.3094
  733TMC3    C810841   1.339   3.004  12.617  0.0520 -0.2661 -0.8865
  733TMC3    O110842   1.336   3.278  12.123 -1.1133 -0.3554 -0.2675
  733TMC3    O210843   1.271   2.947  12.700  0.4394 -0.5305 -0.1022
  734MPD2     C10844   3.476   1.011  12.166  0.2517 -0.1020  0.3278
  734MPD2    C110845   3.378   0.924  12.117  0.1705  0.4602 -0.5078
  734MPD2    C210846   3.354   0.923  11.984 -0.0844 -0.4658 -0.1104
  734MPD2    C310847   3.423   1.003  11.895 -0.0394 -0.3259 -0.0023
  734MPD2    C410848   3.503   1.104  11.940  0.5562 -0.4537 -0.7982
  734MPD2    C510849   3.528   1.102  12.077 -0.1509 -0.3855  0.0590
  734MPD2     H10850   3.276   0.863  11.938 -0.7555  0.5127 -0.2545
  734MPD2    H110851   3.556   1.162  11.865  0.2580 -3.0361 -2.9639
  734MPD2    H210852   3.496   1.024  12.271 -0.0427  1.3821  0.1993
  734MPD2    H310853   3.596   1.179  12.112 -0.4267  0.0802 -0.4374
  734MPD2     N10854   3.403   0.972  11.760 -0.3695  0.4359  0.3140
  734MPD2    H510855   3.333   0.899  11.748 -0.5352  0.6204  0.1565
  734MPD2    N110856   3.331   0.824  12.200 -0.2211 -0.2879  0.3534
  734MPD2    H710857   3.355   0.826  12.299  0.0352  0.2364  0.2811
  735TMC3    C110858   3.246   0.612  12.260 -0.0148  0.2739 -0.3091
  735TMC3    C210859   3.129   0.537  12.229  0.1538  0.9787  0.0645
  735TMC3    C310860   3.141   0.402  12.207 -0.7842  0.0207 -0.2279
  735TMC3    C410861   3.359   0.549  12.290 -0.0504  0.4781 -0.1689
  735TMC3    C510862   3.362   0.416  12.265  0.5443 -0.3416  0.1051
  735TMC3    C610863   3.257   0.336  12.239 -0.1527 -0.2241 -0.3115
  735TMC3     C10864   3.264   0.714  12.160 -0.3427  0.7851  0.1781
  735TMC3     O10865   3.196   0.697  12.060 -0.2462 -0.1364  0.1616
  735TMC3     H10866   3.039   0.593  12.208 -0.0474  0.6137 -0.0390
  735TMC3    H110867   3.452   0.604  12.287 -0.4972  1.1380 -2.2074
  735TMC3    H210868   3.268   0.231  12.214 -1.3827 -0.2693 -0.6839
  735TMC3    C710869   3.494   0.354  12.260 -0.2537 -0.1164 -0.3753
  735TMC3    C810870   3.088   0.353  12.084  0.2772 -0.4755  0.1652
  735TMC3    O110871   3.589   0.418  12.220 -0.0777 -0.0680  0.1887
  735TMC3    O210872   3.077   0.231  12.075 -0.2977 -0.3353 -0.3968
  736MPD2     C10873   3.592   0.042  12.426 -0.1304 -0.8986 -0.2216
  736MPD2    C110874   3.602   0.141  12.328 -1.0169 -0.1162  0.0363
  736MPD2    C210875   3.716   0.146  12.245  0.2532 -0.5295 -0.1038
  736MPD2    C310876   3.806   0.045  12.260  0.0980 -0.1499 -0.6792
  736MPD2    C410877   3.794   4.674  12.350  0.0050  0.0456 -0.2876
  736MPD2    C510878   3.688   4.675  12.439 -0.0227 -0.3970  0.6159
  736MPD2     H10879   3.719   0.230  12.177  0.9629 -0.9185 -0.5515
  736MPD2    H110880   3.868   4.595  12.346 -2.7145 -2.3100 -3.5756
  736MPD2    H210881   3.506   0.029  12.490 -0.1362  0.6972  0.0927
  736MPD2    H310882   3.692   4.602  12.520  1.0854  0.2630  1.1451
  736MPD2     N10883   3.919   0.040  12.167  0.4942  0.0949 -0.5087
  736MPD2    H510884   3.975   4.680  12.184  0.1251  0.2338  1.3880
  736MPD2    N110885   3.495   0.237  12.324  0.4092  0.4089 -0.5346
  736MPD2    H710886   3.412   0.207  12.376  0.6948  0.7735  0.1356
  737TMC3    C110887   4.070   0.121  12.010  0.2317 -0.0236  0.6391
  737TMC3    C210888   4.124   0.240  11.969  0.6949  0.4136  0.2771
  737TMC3    C310889   4.237   0.241  11.891  0.0121 -0.5385  0.7520
  737TMC3    C410890   4.133   4.723  11.991  0.8066  0.8152 -0.0362
  737TMC3    C510891   4.231   0.002  11.900 -0.7158  0.2066  0.5847
  737TMC3    C610892   4.280   0.118  11.850  1.3951 -0.3070 -0.3614
  737TMC3     C10893   3.943   0.131  12.068  0.0997 -0.3520 -0.2476
  737TMC3     O10894   3.875   0.227  12.033 -0.2171  0.0761 -0.4245
  737TMC3     H10895   4.065   0.331  11.970  1.8326  1.1593  0.5061
  737TMC3    H110896   4.097   4.628  12.030  2.7695 -0.1192 -0.5237
  737TMC3    H210897   4.373   0.117  11.793  1.5782 -0.8688 -0.0476
  737TMC3    C710898   4.279   4.601  11.842  0.0824  0.3668  0.2516
  737TMC3    C810899   4.263   0.366  11.823 -0.1666  0.0889  1.2173
  737TMC3    O110900   4.255   4.500  11.900  0.5843 -0.3947 -0.3675
  737TMC3    O210901   4.251   0.463  11.891 -0.1546  0.1952  0.1655
  738MPD2     C10902   4.357   4.074  14.982 -0.1693  0.1404  0.3062
  738MPD2    C110903   4.295   3.985  14.899  0.3019  0.0150  0.0423
  738MPD2    C210904   4.310   4.010  14.764  0.2951  0.1524  0.4194
  738MPD2    C310905   4.374   4.113  14.702 -0.0966 -0.4726 -0.0472
  738MPD2    C410906   4.435   4.200  14.791 -0.2696 -0.0408 -0.5328
  738MPD2    C510907   4.425   4.180  14.930 -0.3582 -0.1053  0.1063
  738MPD2     H10908   4.271   3.933  14.699 -0.4195  1.5167 -0.7678
  738MPD2    H110909   4.491   4.286  14.755  1.2425 -0.2744  1.2524
  738MPD2    H210910   4.356   4.067  15.090  2.8346 -0.2267  0.3219
  738MPD2    H310911   4.483   4.242  14.997  1.1201  0.0884 -1.3546
  738MPD2     N10912   4.409   4.124  14.568 -0.3232 -0.5532 -0.1313
  738MPD2    H510913   4.483   4.183  14.531 -0.0982  0.2114  1.5088
  738MPD2    N110914   4.220   3.873  14.938  0.0698 -0.0732  0.1431
  738MPD2    H710915   4.177   3.811  14.870  2.3914 -0.1987 -1.2000
  739TMC3    C110916   4.394   4.039  14.343 -0.4741  0.3454  1.0737
  739TMC3    C210917   4.332   3.949  14.258  0.0680  0.2592 -0.1164
  739TMC3    C310918   4.404   3.891  14.157 -0.4200  0.6432 -0.1367
  739TMC3    C410919   4.533   4.052  14.340 -0.8307  0.5826  0.1686
  739TMC3    C510920   4.599   3.990  14.242 -0.0036 -0.3128 -0.0263
  739TMC3    C610921   4.541   3.911  14.148 -0.2369 -0.1406  0.0700
  739TMC3     C10922   4.335   4.052  14.477 -0.0313 -0.8803 -0.0165
  739TMC3     O10923   4.220   4.011  14.488  0.5083 -0.2880 -0.0944
  739TMC3     H10924   4.224   3.949  14.252 -0.0277 -0.9261  1.6412
  739TMC3    H110925   4.586   4.135  14.384  0.1675 -0.0606  0.1640
  739TMC3    H210926   4.596   3.858  14.070  1.5285  0.5306  0.8754
  739TMC3    C710927   0.019   3.996  14.252 -0.4590  0.1372  0.4930
  739TMC3    C810928   4.333   3.837  14.044  0.3365 -0.3932 -0.8957
  739TMC3    O110929   0.071   4.090  14.313 -0.5363 -0.8694 -0.4763
  739TMC3    O210930   4.213   3.811  14.067 -0.8693 -0.2674 -0.4674
  740TMC3    C110931   0.693   0.584  14.256 -0.2778 -0.6296  0.2940
  740TMC3    C210932   0.742   0.525  14.370  0.0024 -0.1233 -0.0150
  740TMC3    C310933   0.830   0.421  14.358 -0.5469 -0.1215  0.4607
  740TMC3    C410934   0.730   0.550  14.128 -0.0789  0.6011  0.2692
  740TMC3    C510935   0.823   0.447  14.115 -0.1720  0.0401  0.7045
  740TMC3    C610936   0.865   0.382  14.230  1.2198 -0.2483 -0.4035
  740TMC3     C10937   0.611   0.698  14.268 -0.0370 -0.1670 -0.6380
  740TMC3     O10938   0.618   0.779  14.175 -0.3883  0.3011 -0.2795
  740TMC3     H10939   0.728   0.579  14.462  1.7334  0.9475 -0.3644
  740TMC3    H110940   0.684   0.599  14.042 -0.1539  1.0183  0.5503
  740TMC3    H210941   0.931   0.296  14.220  0.6046 -0.8629  0.8183
  740TMC3    C710942   0.813   0.363  13.997 -0.1069  0.0995 -0.1863
  740TMC3    C810943   0.919   0.395  14.465  0.1080  0.5789  0.0588
  740TMC3    O110944   0.808   0.242  14.025 -0.1155 -0.4618  0.1289
  740TMC3    O210945   1.039   0.378  14.432 -0.4904 -0.1935 -0.0779
  741TMC3    C110946   4.653   4.619  14.157 -0.1845  0.4861  0.3251
  741TMC3    C210947   4.584   4.510  14.137 -0.7358  0.1619  0.1300
  741TMC3    C310948   4.550   4.430  14.242  0.2702 -0.0947 -0.2298
  741TMC3    C410949   4.700   4.657  14.283  0.3245 -0.3439  0.1503
  741TMC3    C510950   4.661   4.575  14.389  0.1767  0.6218  0.6111
  741TMC3    C610951   4.597   4.456  14.367  0.2538  0.0799  0.0802
  741TMC3     C10952   4.685   4.696  14.039 -0.7955 -0.4777  0.0429
  741TMC3     O10953   4.690   4.638  13.932  0.3718 -0.4311  0.1865
  741TMC3     H10954   4.536   4.498  14.040  0.8030 -1.5628 -0.4001
  741TMC3    H110955   0.039   0.018  14.306 -0.6664  0.7589 -1.2380
  741TMC3    H210956   4.565   4.395  14.451 -0.9573  0.7594  0.1112
  741TMC3    C710957   4.677   4.616  14.529 -0.1296 -0.6144  0.3612
  741TMC3    C810958   4.427   4.361  14.236  0.3605  0.6895 -0.5027
  741TMC3    O110959   4.647   4.531  14.612 -0.3556  0.3778 -0.5430
  741TMC3    O210960   4.339   4.386  14.321  0.1619 -0.1510 -0.3335
  742TMC3    C110961   4.293   3.064  14.978  0.4883  0.3719  0.6962
  742TMC3    C210962   4.198   3.020  14.897  0.1572  0.0267 -0.6008
  742TMC3    C310963   4.228   2.924  14.799 -0.2519 -0.1438 -0.1352
  742TMC3    C410964   4.407   2.985  14.994 -0.3333 -0.4113 -0.2096
  742TMC3    C510965   4.410   2.864  14.931  0.3808 -0.7510 -0.1541
  742TMC3    C610966   4.337   2.845  14.813  0.3289  0.2422 -0.5761
  742TMC3     C10967   4.271   3.176  15.065  0.2517 -0.2631 -0.5000
  742TMC3     O10968   4.164   3.177  15.120  0.1435 -0.0253 -0.3764
  742TMC3     H10969   4.109   3.081  14.881 -0.6548 -0.7765  0.8943
  742TMC3    H110970   4.496   3.013  15.049 -1.4167  2.8457 -0.1341
  742TMC3    H210971   4.362   2.762  14.747  0.0913  0.1899 -0.5989
  742TMC3    C710972   4.527   2.788  14.944 -0.5208  0.5129  0.4449
  742TMC3    C810973   4.154   2.901  14.668  0.4598 -0.1175  0.1968
  742TMC3    O110974   4.559   2.707  14.856 -0.3715 -0.6766 -0.4555
  742TMC3    O210975   4.216   2.832  14.583 -0.5367  0.4813  0.7164
  743MPD2     C10976   3.161   0.327   2.325 -0.2060  0.4882 -0.1423
  743MPD2    C110977   3.162   0.267   2.205 -0.8164  0.4854  0.7694
  743MPD2    C210978   3.272   0.200   2.167  0.6853  0.1430 -0.0363
  743MPD2    C310979   3.366   0.166   2.260  0.1677  0.6281  0.3585
  743MPD2    C410980   3.365   0.228   2.385 -0.2042  0.3181  0.4823
  743MPD2    C510981   3.257   0.302   2.419  0.8680  0.5547 -0.5021
  743MPD2     H10982   3.273   0.158   2.067  2.0966  0.6871 -0.2533
  743MPD2    H110983   3.442   0.223   2.461  0.2892 -1.9878 -0.1718
  743MPD2    H210984   3.079   0.392   2.353  0.3884  1.2749 -0.1935
  743MPD2    H310985   3.237   0.337   2.519 -0.4556 -3.0245  0.4930
  743MPD2     N10986   3.477   0.088   2.215  0.0436 -0.0506  0.3689
  743MPD2    H510987   3.469   0.049   2.121  0.9318 -2.9348  1.4849
  743MPD2    N110988   3.048   0.296   2.124 -0.5943 -0.4624  0.1320
  743MPD2    H710989   2.964   0.335   2.166  0.0884  2.7338 -1.4028
  744TMC3    C110990   2.910   0.312   1.939 -0.1461 -0.2450 -0.6992
  744TMC3    C210991   2.812   0.338   2.030 -0.3124 -0.2659 -0.6416
  744TMC3    C310992   2.714   0.422   1.990  0.8334 -0.2354  0.2427
  744TMC3    C410993   2.906   0.369   1.814 -0.5232  0.7181 -0.2675
  744TMC3    C510994   2.809   0.456   1.778 -0.2636  0.3867 -0.3240
  744TMC3    C610995   2.705   0.478   1.865 -0.1528 -0.1420  0.0471
  744TMC3     C10996   3.040   0.265   1.987  0.0097 -0.2130 -0.1584
  744TMC3     O10997   3.134   0.246   1.904  0.5018 -0.1786  0.1600
  744TMC3     H10998   2.804   0.268   2.112 -0.4697 -0.5332 -0.8876
  744TMC3    H110999   2.997   0.377   1.755  0.9220  0.2168  1.9015
  744TMC3    H211000   2.628   0.548   1.834 -1.0971 -0.7387  1.0347
  744TMC3    C711001   2.767   0.431   1.646 -1.0276  0.0658 -0.4028
  744TMC3    C811002   2.586   0.419   2.060  0.3586 -0.4657  0.3188
  744TMC3    O111003   2.844   0.456   1.561  0.3128 -0.4515  0.2672
  744TMC3    O211004   2.488   0.453   1.999  0.3990  0.2204 -0.0559
  745TMC3    C111005   4.466   2.693  12.763 -0.4340 -0.5562 -0.7595
  745TMC3    C211006   4.449   2.650  12.891 -0.1979 -0.0501 -0.3810
  745TMC3    C311007   4.328   2.680  12.943 -0.7073  0.4734  0.2815
  745TMC3    C411008   4.370   2.771  12.699  0.2994  0.1153  0.1583
  745TMC3    C511009   4.252   2.797  12.762 -0.4016  0.2357  0.8188
  745TMC3    C611010   4.225   2.751  12.887 -0.4274  0.4587 -0.7737
  745TMC3     C11011   4.602   2.745  12.750  0.5926 -0.7479  0.8624
  745TMC3     O11012   4.608   2.862  12.709  0.2568  0.0881 -0.2789
  745TMC3     H11013   4.516   2.578  12.937 -1.8648 -1.3697 -0.0028
  745TMC3    H111014   4.400   2.804  12.601  0.1116  1.0573  0.4150
  745TMC3    H211015   4.148   2.799  12.946 -0.2645  0.3107 -0.4399
  745TMC3    C711016   4.201   2.925  12.739  0.5080 -0.0509 -0.5584
  745TMC3    C811017   4.296   2.644  13.085 -0.2747 -0.5984 -0.1200
  745TMC3    O111018   4.085   2.945  12.766  0.4874 -0.6307 -0.3900
  745TMC3    O211019   4.176   2.626  13.104  0.1470 -0.0402  0.4254
  746TMC3    C111020   2.702   0.206  10.607  0.5031 -0.2642  0.1235
  746TMC3    C211021   2.755   0.155  10.484 -0.4375 -0.4891  0.2051
  746TMC3    C311022   2.766   0.019  10.462 -0.4366  0.4005 -0.1836
  746TMC3    C411023   2.646   0.110  10.685  0.5327 -0.2421 -0.0764
  746TMC3    C511024   2.659   4.700  10.669 -0.3699  0.3300  0.2463
  746TMC3    C611025   2.712   4.650  10.551 -0.9732  0.2475  0.7235
  746TMC3     C11026   2.644   0.334  10.594 -0.0499  0.6474  0.0463
  746TMC3     O11027   2.663   0.392  10.493  0.5439  0.3594 -0.5612
  746TMC3     H11028   2.802   0.229  10.419 -0.5552 -0.9753 -0.4292
  746TMC3    H111029   2.568   0.145  10.751  1.0258 -0.9431  0.8694
  746TMC3    H211030   2.718   4.545  10.525  0.1679 -0.0786  2.3472
  746TMC3    C711031   2.544   4.624  10.718 -0.2461  0.2315 -0.4329
  746TMC3    C811032   2.800   4.696  10.329 -0.3756  0.1963  0.1054
  746TMC3    O111033   2.509   4.531  10.643 -0.3015  0.1119 -0.2214
  746TMC3    O211034   2.785   4.575  10.310  0.2608  0.0978 -0.2095
  747TMC3    C111035   4.325   4.533  10.851 -0.2552 -0.8822  0.4658
  747TMC3    C211036   4.354   4.432  10.938  0.0535 -0.9939  0.1110
  747TMC3    C311037   4.451   4.447  11.033 -0.1752  0.5384  0.1425
  747TMC3    C411038   4.396   4.648  10.850 -0.5395  0.3163  0.1785
  747TMC3    C511039   4.487   4.662  10.950 -0.1651 -0.4014 -0.0004
  747TMC3    C611040   4.507   4.572  11.047  0.3646  0.4771  0.0803
  747TMC3     C11041   4.275   4.501  10.717 -0.7479  0.1594 -0.5533
  747TMC3     O11042   4.224   4.598  10.667 -0.2230  0.4327  0.6459
  747TMC3     H11043   4.288   4.345  10.936  0.1585 -1.1344  2.8601
  747TMC3    H111044   4.370   0.005  10.782  0.1526  2.0804  2.0139
  747TMC3    H211045   4.591   4.571  11.115  0.9435 -0.2851 -0.6322
  747TMC3    C711046   4.579   0.046  10.952 -0.5335  0.8455 -0.3245
  747TMC3    C811047   4.435   4.369  11.151 -0.4379  0.3651 -0.7095
  747TMC3    O111048   4.648   0.061  11.052  0.4844 -0.4253  0.2302
  747TMC3    O211049   4.415   4.250  11.145  0.2098 -0.0491  0.2064
  748MPD2     C11050   2.054   0.830   1.775 -0.3855  0.0840 -0.1042
  748MPD2    C111051   2.072   0.810   1.639  0.1188 -0.1548 -0.0164
  748MPD2    C211052   2.159   0.895   1.577 -0.4392  0.3244 -0.1713
  748MPD2    C311053   2.232   0.998   1.641 -0.1570  0.2872  0.3560
  748MPD2    C411054   2.205   1.017   1.771 -0.0640 -0.0401 -0.0116
  748MPD2    C511055   2.118   0.931   1.833 -0.6381  0.2293  0.4562
  748MPD2     H11056   2.171   0.896   1.469  0.7873  0.6475 -0.0296
  748MPD2    H111057   2.256   1.093   1.829 -1.3895  1.7938 -1.2538
  748MPD2    H211058   1.985   0.767   1.829 -0.1103 -0.5578 -0.5004
  748MPD2    H311059   2.103   0.942   1.940 -0.6942 -1.9264  0.6562
  748MPD2     N11060   2.320   1.079   1.567  0.2998 -0.1443  0.0557
  748MPD2    H511061   2.326   1.039   1.474 -0.7151 -3.8404  1.5530
  748MPD2    N111062   1.996   0.705   1.586 -0.1286 -0.6683  0.6444
  748MPD2    H711063   1.958   0.631   1.644 -1.0479 -0.8744 -0.2222
  749TMC3    C111064   2.495   1.248   1.530  0.2908 -0.4687 -0.1692
  749TMC3    C211065   2.598   1.318   1.593 -1.5414  0.5941  0.0440
  749TMC3    C311066   2.691   1.370   1.511 -0.4174 -0.0159  0.0321
  749TMC3    C411067   2.481   1.229   1.397  0.2736  1.0711 -0.3430
  749TMC3    C511068   2.582   1.275   1.315 -0.3753  0.0777 -0.4135
  749TMC3    C611069   2.686   1.341   1.375  0.8765 -0.9927  0.6338
  749TMC3     C11070   2.396   1.187   1.619  0.1928  0.2068  0.3807
  749TMC3     O11071   2.384   1.242   1.731 -0.0973  0.3620  0.0673
  749TMC3     H11072   2.587   1.355   1.695  1.8248  0.7194  0.3643
  749TMC3    H111073   2.388   1.202   1.348  1.3089 -2.1635 -0.5210
  749TMC3    H211074   2.761   1.381   1.308 -2.6292  0.4282 -2.4277
  749TMC3    C711075   2.566   1.290   1.171 -0.1584 -0.5115  0.4236
  749TMC3    C811076   2.822   1.399   1.557  0.9405  0.0344 -0.5367
  749TMC3    O111077   2.597   1.395   1.117  0.2813 -0.2929 -0.6068
  749TMC3    O211078   2.822   1.448   1.666 -0.4565 -0.3923  0.2289
  750MPD2     C11079   2.468   1.957  10.840  0.3423 -0.2538 -1.1693
  750MPD2    C111080   2.382   1.909  10.938  0.1156  0.4806  0.1108
  750MPD2    C211081   2.290   1.820  10.887 -0.4942  1.0266 -0.3308
  750MPD2    C311082   2.298   1.777  10.757 -0.5198  0.2664 -0.2064
  750MPD2    C411083   2.383   1.836  10.663  0.5105 -0.3058  0.0447
  750MPD2    C511084   2.468   1.922  10.709 -0.0317  0.4781 -0.4008
  750MPD2     H11085   2.225   1.762  10.952  0.9862  1.4460  1.5311
  750MPD2    H111086   2.397   1.813  10.558  2.0875  1.0760 -0.0537
  750MPD2    H211087   2.554   2.020  10.859 -0.6634  0.6904  0.2445
  750MPD2    H311088   2.542   1.958  10.637 -0.6979 -1.3523 -1.9875
  750MPD2     N11089   2.198   1.683  10.707  0.4136 -0.3175  0.1437
  750MPD2    H511090   2.219   1.652  10.613 -0.4751  1.9823 -0.8135
  750MPD2    N111091   2.410   1.942  11.070  0.2851 -0.2060  0.1083
  750MPD2    H711092   2.488   2.005  11.085  0.1467 -0.2440  1.0243
  751TMC3    C111093   2.046   1.501  10.704  0.1642 -0.4672 -0.4615
  751TMC3    C211094   1.937   1.435  10.748  0.4013 -0.3759  0.4605
  751TMC3    C311095   1.918   1.309  10.696 -0.0370  0.5551 -0.7261
  751TMC3    C411096   2.129   1.449  10.607  0.1145 -1.2785 -0.0967
  751TMC3    C511097   2.103   1.330  10.563 -0.0140  0.2964 -0.0044
  751TMC3    C611098   1.999   1.254  10.604  0.3150  0.5211  0.3884
  751TMC3     C11099   2.092   1.621  10.773  0.2049  0.0363  0.8455
  751TMC3     O11100   2.036   1.646  10.876  0.2114 -0.3915 -0.8146
  751TMC3     H11101   1.872   1.484  10.820 -0.7540  0.3972 -1.1182
  751TMC3    H111102   2.228   1.490  10.592  0.8687 -2.5927  1.3657
  751TMC3    H211103   1.986   1.164  10.545  1.2099  0.2575  0.5786
  751TMC3    C711104   2.194   1.283  10.464  0.5943  0.1564  0.1041
  751TMC3    C811105   1.820   1.217  10.748  0.2315  0.5471 -0.4810
  751TMC3    O111106   2.252   1.370  10.401 -0.9899  0.6129 -0.3734
  751TMC3    O211107   1.796   1.119  10.677  0.4071 -0.3313  0.2731
  752TMC3    C111108   1.741   1.602  16.502  0.0441  0.0973 -0.1930
  752TMC3    C211109   1.696   1.520  16.602  0.3289 -0.3873 -0.5607
  752TMC3    C311110   1.709   1.568  16.730  0.2454 -0.4672  0.2949
  752TMC3    C411111   1.791   1.726  16.517 -0.2923 -0.1016 -0.3236
  752TMC3    C511112   1.811   1.763  16.640 -0.0808 -0.1371 -0.1133
  752TMC3    C611113   1.768   1.691  16.747 -0.0676 -0.0806  0.2702
  752TMC3     C11114   1.691   1.569  16.372 -0.0302  0.3263 -0.0310
  752TMC3     O11115   1.758   1.603  16.275 -0.2870 -0.3876 -0.6250
  752TMC3     H11116   1.662   1.417  16.590 -0.0484 -0.3184 -0.0634
  752TMC3    H111117   1.818   1.792  16.435  0.0206 -0.3702 -0.4350
  752TMC3    H211118   1.795   1.736  16.842 -0.9376  1.7984 -0.3729
  752TMC3    C711119   1.858   1.903  16.658  0.1568  0.1872  0.2831
  752TMC3    C811120   1.634   1.509  16.836 -0.4304 -1.0597 -0.5253
  752TMC3    O111121   1.887   1.936  16.772  0.4273 -0.1291 -0.3071
  752TMC3    O211122   1.572   1.403  16.814 -0.3661 -0.3513  0.1467
  753TMC3    C111123   3.101   2.886  13.344 -0.4925 -0.8175 -0.1309
  753TMC3    C211124   3.206   2.836  13.412  0.0624  0.1540 -0.0114
  753TMC3    C311125   3.246   2.708  13.391 -0.6245  0.0975  0.0872
  753TMC3    C411126   3.031   2.811  13.260 -0.2017 -0.8010 -0.4172
  753TMC3    C511127   3.047   2.675  13.263  0.1036 -0.2040  0.1190
  753TMC3    C611128   3.161   2.623  13.324  0.1834  0.8482  0.6297
  753TMC3     C11129   3.063   3.024  13.376 -0.1067 -0.0212  0.1561
  753TMC3     O11130   2.991   3.084  13.298  0.2315 -0.2854 -0.0533
  753TMC3     H11131   3.279   2.900  13.461  2.0734  0.0409 -2.8683
  753TMC3    H111132   2.948   2.859  13.209 -1.7890 -0.6797  2.2590
  753TMC3    H211133   3.190   2.519  13.310 -2.1944  0.3370 -0.4289
  753TMC3    C711134   3.003   2.607  13.141  0.7520  0.3025 -0.8520
  753TMC3    C811135   3.379   2.667  13.428  0.0710 -0.1359 -0.8282
  753TMC3    O111136   2.974   2.680  13.047 -0.7962  0.5289 -0.1877
  753TMC3    O211137   3.429   2.576  13.358 -0.0021  0.2921 -0.3107
  754MPD2     C11138   2.051   1.543  12.801 -0.3152 -0.2284  0.1478
  754MPD2    C111139   2.035   1.435  12.884 -0.0430  0.6024  0.5557
  754MPD2    C211140   1.924   1.351  12.876 -0.5749 -0.4461  0.3152
  754MPD2    C311141   1.822   1.374  12.787 -0.0586  0.4641 -0.2014
  754MPD2    C411142   1.835   1.486  12.704 -0.2366  0.5603  0.8963
  754MPD2    C511143   1.943   1.573  12.719 -0.0824  0.6322 -0.5651
  754MPD2     H11144   1.924   1.255  12.925 -0.7919 -0.3723  0.4579
  754MPD2    H111145   1.762   1.513  12.629 -0.5277 -0.2085  0.9059
  754MPD2    H211146   2.124   1.621  12.817 -0.0888 -0.2062 -0.9369
  754MPD2    H311147   1.948   1.660  12.654 -2.5914  1.4331  0.3155
  754MPD2     N11148   1.703   1.297  12.785  0.0950  0.1010  0.2497
  754MPD2    H511149   1.633   1.320  12.715  0.6810  0.3960 -0.2455
  754MPD2    N111150   2.141   1.409  12.982  1.0125 -0.4570 -0.1208
  754MPD2    H711151   2.200   1.487  13.008 -0.1581  1.2042 -2.3430
  755MPD2     C11152   0.751   1.539  12.887  0.5428  0.6076 -0.5408
  755MPD2    C111153   0.863   1.576  12.967 -0.1780  0.3924 -0.1805
  755MPD2    C211154   0.982   1.495  12.958  0.5589  0.6106 -0.4550
  755MPD2    C311155   0.983   1.380  12.885  0.2288  0.5987  0.6579
  755MPD2    C411156   0.872   1.348  12.807 -0.0656 -0.6394 -0.2557
  755MPD2    C511157   0.762   1.428  12.799 -0.7320 -0.1037  0.1646
  755MPD2     H11158   1.073   1.525  13.008 -0.3063 -0.2660  1.6048
  755MPD2    H111159   0.870   1.255  12.751  0.5582 -1.0619  0.4240
  755MPD2    H211160   0.660   1.596  12.874 -1.1105 -1.2297  2.9082
  755MPD2    H311161   0.675   1.392  12.746 -0.5746 -0.5716  0.2211
  755MPD2     N11162   1.096   1.293  12.880 -0.0176  0.3567 -0.4512
  755MPD2    H511163   1.086   1.202  12.837  1.5341 -0.2451  0.4439
  755MPD2    N111164   0.855   1.685  13.051  0.1415  0.7243 -0.3711
  755MPD2    H711165   0.943   1.698  13.100  0.4712 -1.3145 -0.4251
  756MPD2     C11166   2.021   2.056   9.408  0.5650 -0.4874  0.0862
  756MPD2    C111167   1.954   2.011   9.523 -0.2934  0.2639 -0.6570
  756MPD2    C211168   1.875   1.900   9.515  0.7608  0.0657  0.0024
  756MPD2    C311169   1.874   1.815   9.406 -0.0489 -1.0928 -0.2282
  756MPD2    C411170   1.946   1.852   9.298  0.5423 -0.5404  0.1993
  756MPD2    C511171   2.023   1.969   9.303  0.0166 -0.9543 -0.3054
  756MPD2     H11172   1.826   1.870   9.607 -0.0061 -0.8604 -0.7104
  756MPD2    H111173   1.943   1.789   9.209  0.3617  0.4622 -0.5123
  756MPD2    H211174   2.076   2.149   9.399 -0.5288  0.4366  2.8743
  756MPD2    H311175   2.085   1.990   9.217  0.2540 -0.2774  0.0359
  756MPD2     N11176   1.794   1.698   9.421 -0.2533 -0.7661  0.2454
  756MPD2    H511177   1.738   1.684   9.504 -0.2980  1.5645  0.6018
  756MPD2    N111178   1.941   2.094   9.634  0.4648  0.2603 -0.2658
  756MPD2    H711179   1.878   2.066   9.709 -1.6910  1.9742 -1.4305
  757MPD2     C11180   1.937   0.707   9.808  0.1128  0.6361 -0.1783
  757MPD2    C111181   1.809   0.702   9.768 -0.3294 -0.2192  0.7938
  757MPD2    C211182   1.762   0.804   9.685  0.5317 -0.1366  0.0576
  757MPD2    C311183   1.833   0.916   9.646  0.2163  0.5839 -0.4861
  757MPD2    C411184   1.970   0.921   9.686 -0.1019  0.2955 -0.1522
  757MPD2    C511185   2.011   0.817   9.764 -0.6841  0.0635 -0.4949
  757MPD2     H11186   1.663   0.806   9.639  0.8703 -0.7082 -0.6942
  757MPD2    H111187   2.041   1.000   9.664  0.3657  0.1418  0.7942
  757MPD2    H211188   1.976   0.624   9.865  1.3502 -0.0262 -1.9759
  757MPD2    H311189   2.112   0.825   9.802 -0.3004  0.9383 -1.7098
  757MPD2     N11190   1.772   1.021   9.576 -0.2657  0.2603 -0.2871
  757MPD2    H511191   1.672   1.013   9.562 -0.1149 -0.1680 -1.1137
  757MPD2    N111192   1.732   0.592   9.810  0.4217 -0.0544 -0.1828
  757MPD2    H711193   1.792   0.530   9.864  1.8864  0.4664 -1.2091
  758MPD2     C11194   2.362   1.279  15.622  0.1132 -0.5970  0.1127
  758MPD2    C111195   2.438   1.242  15.728  0.1937 -0.6053 -0.7926
  758MPD2    C211196   2.435   1.327  15.837 -0.2093  0.3614 -0.0079
  758MPD2    C311197   2.366   1.447  15.837 -0.0476 -0.1170 -0.2838
  758MPD2    C411198   2.284   1.476  15.732  0.0856  0.8137  0.1330
  758MPD2    C511199   2.288   1.398  15.620  0.3236  0.6157  0.3660
  758MPD2     H11200   2.492   1.294  15.923  1.5269  1.2162 -0.8022
  758MPD2    H111201   2.205   1.549  15.747 -1.2218 -0.1792 -1.8591
  758MPD2    H211202   2.349   1.214  15.536 -0.6135  0.3773 -0.5143
  758MPD2    H311203   2.215   1.417  15.543  0.8263 -0.8768 -0.4966
  758MPD2     N11204   2.363   1.531  15.957  0.1914  0.3567  0.1358
  758MPD2    H511205   2.305   1.614  15.966  0.1534  0.4736 -1.1370
  758MPD2    N111206   2.510   1.129  15.717 -0.1775  0.0623  0.2443
  758MPD2    H711207   2.486   1.062  15.644 -1.2906 -0.1065  0.7608
  759MPD2     C11208   0.772   3.770   9.313 -0.3069  0.4081  0.2274
  759MPD2    C111209   0.643   3.824   9.342  0.0610 -0.6495 -0.0430
  759MPD2    C211210   0.595   3.927   9.268  0.0417  0.6721  0.5613
  759MPD2    C311211   0.677   3.992   9.173  0.4686 -0.8041  0.3248
  759MPD2    C411212   0.800   3.940   9.142  0.3999 -0.0778 -0.1290
  759MPD2    C511213   0.844   3.836   9.215 -0.6464  0.0167  0.0833
  759MPD2     H11214   0.497   3.970   9.285 -1.4496 -2.7712  0.4554
  759MPD2    H111215   0.871   3.980   9.072  2.2969 -0.0440  1.8107
  759MPD2    H211216   0.802   3.685   9.373 -0.0590 -0.8976 -1.7795
  759MPD2    H311217   0.939   3.806   9.173 -0.1592 -1.0868  1.9761
  759MPD2     N11218   0.614   4.095   9.105 -0.6498  0.5405  0.1257
  759MPD2    H511219   0.528   4.125   9.151 -1.5361 -3.2381  1.0036
  759MPD2    N111220   0.556   3.756   9.436 -0.1688 -0.2555 -0.2909
  759MPD2    H711221   0.457   3.779   9.444 -0.0625 -0.1280  0.7263
  760MPD2     C11222   0.622   1.245  11.947 -0.1862  0.1338 -0.1581
  760MPD2    C111223   0.755   1.272  11.946  0.3300 -0.7160  0.0120
  760MPD2    C211224   0.846   1.166  11.966 -0.2354 -0.2007 -0.2493
  760MPD2    C311225   0.797   1.038  11.997 -0.8072  0.0953  0.2844
  760MPD2    C411226   0.666   1.011  11.987 -0.1611  0.0726 -0.7182
  760MPD2    C511227   0.577   1.120  11.963 -0.3318 -0.4290 -0.2330
  760MPD2     H11228   0.952   1.187  11.961  0.0399 -1.7267 -0.7770
  760MPD2    H111229   0.622   0.913  12.002  0.5525 -0.4344 -1.9823
  760MPD2    H211230   0.541   1.315  11.932  0.0693  0.5455  0.3841
  760MPD2    H311231   0.472   1.096  11.956 -1.0412  2.6529  0.1189
  760MPD2     N11232   0.883   0.931  12.033  0.2746  0.1294 -0.5613
  760MPD2    H511233   0.839   0.841  12.047  1.5100 -0.3565  0.2021
  760MPD2    N111234   0.803   1.402  11.931  0.2637 -0.0354 -0.1714
  760MPD2    H711235   0.905   1.410  11.931  0.1610  1.3722 -0.5122
  761MPD2     C11236   1.636   0.990  11.161  0.4074 -0.5131 -0.9538
  761MPD2    C111237   1.683   0.934  11.037  0.2028  0.0107 -0.0332
  761MPD2    C211238   1.703   1.025  10.937 -0.3889  0.3635  0.1698
  761MPD2    C311239   1.701   1.161  10.960 -0.2603  0.3510  0.1136
  761MPD2    C411240   1.648   1.210  11.075 -0.4820  0.4982  0.7047
  761MPD2    C511241   1.624   1.127  11.181 -0.4562  0.3400 -0.3540
  761MPD2     H11242   1.741   0.992  10.841 -4.3687  0.3573 -1.4219
  761MPD2    H111243   1.655   1.317  11.090 -1.8772  0.9879 -2.0275
  761MPD2    H211244   1.629   0.919  11.241  0.8791 -1.1745 -1.4957
  761MPD2    H311245   1.608   1.175  11.277 -3.5058  2.8859 -2.1008
  761MPD2     N11246   1.764   1.254  10.877  0.0598  0.0576 -0.1747
  761MPD2    H511247   1.776   1.348  10.911  3.6512 -1.3244  2.3912
  761MPD2    N111248   1.719   0.790  11.033 -0.0954  0.0777  0.1115
  761MPD2    H711249   1.718   0.732  11.116 -0.1904 -0.3789 -0.2070
  762MPD2     C11250   2.209   0.078  10.654 -0.5632  0.4747 -0.4226
  762MPD2    C111251   2.175   0.206  10.638  0.3628  0.0616  0.4121
  762MPD2    C211252   2.239   0.283  10.541  0.4242 -0.1629  0.9370
  762MPD2    C311253   2.321   0.215  10.454  0.7261  0.0956  0.6871
  762MPD2    C411254   2.337   0.083  10.457 -1.0136 -0.0930  0.0924
  762MPD2    C511255   2.284   0.017  10.561 -0.7952 -0.4629  1.0214
  762MPD2     H11256   2.222   0.389  10.527 -1.8939 -0.3375  2.4685
  762MPD2    H111257   2.400   0.028  10.387 -1.6918 -0.2766 -0.3767
  762MPD2    H211258   2.183   0.024  10.744  0.4896 -0.7204 -0.8398
  762MPD2    H311259   2.302   4.635  10.571 -0.4145 -0.5623 -0.7674
  762MPD2     N11260   2.383   0.295  10.348 -0.2820 -0.0661  0.0564
  762MPD2    H511261   2.353   0.391  10.353 -1.3225 -0.2776 -2.1541
  762MPD2    N111262   2.085   0.262  10.736 -0.7316  0.0528  0.5472
  762MPD2    H711263   2.042   0.204  10.807  0.6296 -0.4816  0.9298
  763MPD2     C11264   3.935   0.998  16.213 -0.6074  0.1220  0.6674
  763MPD2    C111265   4.046   1.057  16.159  0.3435  0.5995 -0.0386
  763MPD2    C211266   4.123   1.131  16.243 -0.0105  0.1072 -0.7453
  763MPD2    C311267   4.085   1.155  16.378 -0.2452 -0.5864  0.0488
  763MPD2    C411268   3.977   1.088  16.422 -0.0929 -0.9300  0.3081
  763MPD2    C511269   3.898   1.015  16.340 -0.4910  0.4945  0.5553
  763MPD2     H11270   4.216   1.178  16.214 -0.2972  1.0078 -0.2000
  763MPD2    H111271   3.960   1.076  16.528  1.1924 -2.0580  0.3745
  763MPD2    H211272   3.874   0.928  16.158 -0.0870  0.4695 -0.3625
  763MPD2    H311273   3.813   0.966  16.385 -3.0760  2.3213 -2.3083
  763MPD2     N11274   4.174   1.233  16.458  0.7827  0.4425  0.5352
  763MPD2    H511275   4.251   1.279  16.409 -0.7198  2.5248  0.1501
  763MPD2    N111276   4.088   1.043  16.027  0.1824  0.5491  0.2820
  763MPD2    H711277   4.157   1.110  15.995  0.9778 -0.3131  0.2062
  764MPD2     C11278   2.661   3.066   0.020 -0.0041  0.1345  0.1159
  764MPD2    C111279   2.632   3.019  17.588 -0.3186  0.4358 -0.6364
  764MPD2    C211280   2.515   2.945  17.573 -0.3975 -0.8917 -0.4911
  764MPD2    C311281   2.447   2.893  17.680  0.0126 -0.1662 -0.4255
  764MPD2    C411282   2.484   2.934   0.105 -0.0956 -0.5215  0.2944
  764MPD2    C511283   2.586   3.022   0.128  0.1807  0.0456 -0.3155
  764MPD2     H11284   2.496   2.905  17.474 -1.3530  1.2681 -1.1686
  764MPD2    H111285   2.445   2.901   0.201 -0.6099  1.9987  0.9340
  764MPD2    H211286   2.737   3.137   0.051  0.5150 -0.2381 -0.3095
  764MPD2    H311287   2.600   3.055   0.230 -0.5784 -0.7447  0.0426
  764MPD2     N11288   2.347   2.800  17.664  0.6582  0.1681 -0.1694
  764MPD2    H511289   2.343   2.760  17.571  1.0120 -0.1669 -0.0427
  764MPD2    N111290   2.706   3.052  17.469  0.7438 -0.1635 -0.2619
  764MPD2    H711291   2.660   3.024  17.383  0.7706  1.5418 -0.8348
  765MPD2     C11292   1.826   0.452  15.399 -0.2488  0.9759  0.2886
  765MPD2    C111293   1.831   0.467  15.538 -0.5692  0.0248  0.6338
  765MPD2    C211294   1.919   0.393  15.619  0.3077  0.0890 -0.0160
  765MPD2    C311295   1.995   0.299  15.556 -0.0080  0.5112 -0.0424
  765MPD2    C411296   1.995   0.296  15.416  0.1911 -0.4157  1.2513
  765MPD2    C511297   1.910   0.369  15.335  0.2834  0.3574  0.3658
  765MPD2     H11298   1.919   0.403  15.727  1.1109  0.8998 -0.0866
  765MPD2    H111299   2.065   0.229  15.367  0.1485  1.7700 -1.8028
  765MPD2    H211300   1.753   0.512  15.346  0.1071  0.1564 -1.1135
  765MPD2    H311301   1.918   0.372  15.227 -0.8064 -1.8160  0.2306
  765MPD2     N11302   2.069   0.201  15.620  0.6220  0.1913 -0.2053
  765MPD2    H511303   2.104   0.124  15.565  3.1419 -0.4286  2.2650
  765MPD2    N111304   1.739   0.561  15.593 -0.9576  0.2841 -0.5435
  765MPD2    H711305   1.673   0.603  15.528 -1.8734 -0.6963 -0.2485
  766MPD2     C11306   1.103   0.764  15.423  0.2324  0.8794  0.5157
  766MPD2    C111307   1.231   0.703  15.412 -0.1624 -0.5753 -0.3221
  766MPD2    C211308   1.269   0.651  15.292  0.4398  0.3923 -0.0675
  766MPD2    C311309   1.194   0.650  15.180  0.0692 -0.1826 -0.3465
  766MPD2    C411310   1.069   0.703  15.193  0.2080 -0.6035  0.0332
  766MPD2    C511311   1.023   0.759  15.313 -0.1857  0.1412  0.6225
  766MPD2     H11312   1.376   0.632  15.292  0.3274 -0.2569  0.5114
  766MPD2    H111313   1.008   0.709  15.104  0.6290  2.7197 -0.0396
  766MPD2    H211314   1.051   0.799  15.511 -1.3432 -2.2002  0.8272
  766MPD2    H311315   0.929   0.812  15.314  2.0308  4.0521  0.5257
  766MPD2     N11316   1.238   0.615  15.052  0.1204  0.6371 -1.1246
  766MPD2    H511317   1.180   0.637  14.972 -0.1805  2.1412 -0.4870
  766MPD2    N111318   1.320   0.698  15.517 -0.0861 -0.1875 -0.4547
  766MPD2    H711319   1.407   0.654  15.488 -0.7962 -0.6491 -1.8760
  767MPD2     C11320   1.041   0.974  15.025  0.3576  0.6879  0.4008
  767MPD2    C111321   1.162   0.987  14.958 -0.1527  0.4480 -0.6407
  767MPD2    C211322   1.158   0.946  14.829 -0.2659  0.0184  0.2811
  767MPD2    C311323   1.044   0.900  14.767  0.4746 -0.6547 -0.4452
  767MPD2    C411324   0.924   0.909  14.827 -0.1983 -0.8464 -0.0437
  767MPD2    C511325   0.925   0.949  14.954  0.2698  0.6736 -0.5946
  767MPD2     H11326   1.253   0.961  14.779 -0.6809 -0.3922 -0.6220
  767MPD2    H111327   0.832   0.874  14.782  1.5497 -3.4265 -1.5950
  767MPD2    H211328   1.037   1.007  15.128 -0.1205 -0.4096  0.7397
  767MPD2    H311329   0.829   0.939  15.002  0.3816  0.7868 -0.3443
  767MPD2     N11330   1.053   0.842  14.635  0.0504 -0.2082  0.0240
  767MPD2    H511331   1.148   0.832  14.603 -0.6893  0.9225 -2.5204
  767MPD2    N111332   1.273   1.048  15.020 -0.4123  0.0504  0.0715
  767MPD2    H711333   1.267   1.066  15.120 -2.2918  1.1104 -0.2411
  768MPD2     C11334   1.818   3.631  11.036  0.0182 -0.1177 -0.3373
  768MPD2    C111335   1.911   3.735  11.041 -0.5165 -0.1013  0.2275
  768MPD2    C211336   2.013   3.723  11.132  0.6680 -0.5839 -0.2994
  768MPD2    C311337   2.030   3.610  11.210  0.0260 -0.0674  0.3895
  768MPD2    C411338   1.951   3.506  11.181 -0.6287  0.1561  0.1591
  768MPD2    C511339   1.836   3.519  11.109  0.3430  0.6275 -0.1358
  768MPD2     H11340   2.084   3.803  11.144 -0.9206  0.4294  2.5097
  768MPD2    H111341   1.960   3.415  11.238  0.0941 -1.2508 -2.2108
  768MPD2    H211342   1.738   3.638  10.963  1.4186  1.1227 -1.7495
  768MPD2    H311343   1.774   3.431  11.093 -0.3152  1.4039 -1.7992
  768MPD2     N11344   2.138   3.579  11.290 -0.3021 -0.2352  0.7834
  768MPD2    H511345   2.123   3.510  11.362 -0.4207 -2.7571 -1.6627
  768MPD2    N111346   1.905   3.853  10.962 -0.5520  0.2649 -0.6866
  768MPD2    H711347   1.979   3.922  10.973  0.4981 -1.2840  2.0261
  769MPD2     C11348   3.012   2.103  15.216 -0.0312  0.3073  0.3521
  769MPD2    C111349   3.005   1.996  15.305 -0.1006 -0.3966 -0.5457
  769MPD2    C211350   3.074   1.996  15.425  0.0027  0.0685  0.3263
  769MPD2    C311351   3.155   2.108  15.452  0.2336  0.2693  0.4348
  769MPD2    C411352   3.167   2.209  15.357 -0.6298  0.2902 -0.3445
  769MPD2    C511353   3.100   2.205  15.238  0.4949  0.2279 -0.2758
  769MPD2     H11354   3.069   1.915  15.497  2.5784 -1.3156 -1.0229
  769MPD2    H111355   3.232   2.296  15.365  2.2357 -1.7657 -1.2966
  769MPD2    H211356   2.968   2.093  15.117  0.1123  1.4514  0.1822
  769MPD2    H311357   3.122   2.283  15.166 -0.5082  0.6991 -0.0770
  769MPD2     N11358   3.230   2.117  15.570 -0.3008  0.2277  0.5583
  769MPD2    H511359   3.273   2.208  15.584  1.4638 -0.2924 -1.4657
  769MPD2    N111360   2.934   1.885  15.254  0.0106 -0.0332  0.0323
  769MPD2    H711361   2.888   1.895  15.164  0.2723 -0.5784 -0.1589
  770MPD2     C11362   2.910   0.890  14.835  0.2899 -0.3714  0.5497
  770MPD2    C111363   2.780   0.928  14.847 -0.4991 -0.2013  0.3733
  770MPD2    C211364   2.746   1.045  14.914  0.0303  0.0638  1.0508
  770MPD2    C311365   2.843   1.124  14.961  0.7828 -0.3754 -0.0211
  770MPD2    C411366   2.979   1.085  14.954 -0.0272  0.2464  0.0364
  770MPD2    C511367   3.013   0.963  14.897 -0.1414 -0.1354  0.7453
  770MPD2     H11368   2.642   1.073  14.923  0.1241  0.2637  1.5025
  770MPD2    H111369   3.059   1.141  15.001 -0.2523  1.4141 -0.9613
  770MPD2    H211370   2.935   0.793  14.795  1.8354  0.3419 -0.2237
  770MPD2    H311371   3.112   0.926  14.877 -0.4076 -0.4080 -0.0626
  770MPD2     N11372   2.800   1.247  15.016 -0.3370  0.2943 -0.4062
  770MPD2    H511373   2.707   1.285  14.999  0.5257  2.2740 -0.7314
  770MPD2    N111374   2.690   0.828  14.799  0.4465 -0.1608 -0.2152
  770MPD2    H711375   2.728   0.753  14.742  0.8081  1.5232 -2.2125
  771MPD2     C11376   3.721   4.553  13.673  0.5613 -0.5909 -0.7071
  771MPD2    C111377   3.640   4.661  13.681  0.2927  0.3926  0.1282
  771MPD2    C211378   3.568   4.706  13.569  0.0621  0.4470 -0.7761
  771MPD2    C311379   3.577   4.629  13.455 -1.0412  0.8391 -0.2281
  771MPD2    C411380   3.656   4.515  13.448  0.8023  0.0544 -0.3063
  771MPD2    C511381   3.729   4.484  13.553  0.9438 -0.1848 -0.5181
  771MPD2     H11382   3.503   0.067  13.582  1.9599  1.7302  0.3197
  771MPD2    H111383   3.670   4.453  13.360 -0.2846 -0.3647 -0.1893
  771MPD2    H211384   3.780   4.514  13.754  1.8307  1.2849 -0.7277
  771MPD2    H311385   3.795   4.398  13.545  1.5002 -0.0105  2.1107
  771MPD2     N11386   3.486   4.670  13.359 -1.2702  0.2238  0.6399
  771MPD2    H511387   3.427   0.023  13.389  0.5166  1.5230  0.7960
  771MPD2    N111388   3.639   0.020  13.794 -0.4209 -0.2560  0.0744
  771MPD2    H711389   3.634   0.119  13.770  0.5122 -0.7456 -2.0991
  772MPD2     C11390   3.543   0.482  14.429  0.4015 -0.6195 -0.2847
  772MPD2    C111391   3.487   0.387  14.342 -0.2437 -0.1881  0.8520
  772MPD2    C211392   3.356   0.382  14.313  0.7080 -0.1849 -0.6956
  772MPD2    C311393   3.274   0.470  14.380  0.0040 -0.2968 -0.5078
  772MPD2    C411394   3.326   0.559  14.469  0.1372 -0.0711 -0.0566
  772MPD2    C511395   3.461   0.564  14.498 -0.1756 -0.3836 -0.4325
  772MPD2     H11396   3.310   0.313  14.243 -0.4362 -0.4274  0.2867
  772MPD2    H111397   3.253   0.619  14.523 -1.4729 -0.7035 -1.5291
  772MPD2    H211398   3.651   0.492  14.433  0.3988 -1.2266  1.2254
  772MPD2    H311399   3.494   0.642  14.565 -2.1751  0.0592  0.0471
  772MPD2     N11400   3.133   0.478  14.354 -0.0703  0.4148  0.4274
  772MPD2    H511401   3.076   0.546  14.404 -0.6180 -1.2069  1.9847
  772MPD2    N111402   3.568   0.294  14.276 -0.2274 -0.2976  0.4686
  772MPD2    H711403   3.529   0.249  14.194  0.7517  1.1941 -0.8144
  773MPD2     C11404   2.887   1.328   0.082  0.6235  0.7791  0.4893
  773MPD2    C111405   2.876   1.258  17.665  0.1282 -0.1730  0.8679
  773MPD2    C211406   2.932   1.132  17.670  0.4047  0.5272 -0.3408
  773MPD2    C311407   3.009   1.084   0.078  1.0565  0.2699 -0.1189
  773MPD2    C411408   3.013   1.164   0.195  0.4213 -0.1083 -0.1395
  773MPD2    C511409   2.953   1.290   0.194  0.6335  0.7685  0.0463
  773MPD2     H11410   2.928   1.077  17.576 -0.9744  1.6056 -0.9199
  773MPD2    H111411   3.058   1.129   0.287  0.8287  1.2648  0.1869
  773MPD2    H211412   2.838   1.424   0.091  0.1688  0.5906  0.0340
  773MPD2    H311413   2.950   1.349   0.285 -0.4213 -1.5879  1.5288
  773MPD2     N11414   3.070   0.957   0.071  0.7147  0.1727  0.5693
  773MPD2    H511415   3.046   0.897  17.691  1.1035  1.0139 -0.2034
  773MPD2    N111416   2.814   1.307  17.553  0.4068  0.0118  0.3566
  773MPD2    H711417   2.822   1.243  17.474 -2.2187  0.1750 -0.0456
  774MPD2     C11418   1.869   0.641  13.473  0.3736  0.8934  0.3564
  774MPD2    C111419   1.927   0.699  13.587 -0.3830  0.0961  0.2162
  774MPD2    C211420   2.027   0.798  13.573 -0.3239 -0.1855 -0.0562
  774MPD2    C311421   2.064   0.842  13.449  0.3595  0.9337  0.4321
  774MPD2    C411422   2.000   0.789  13.339 -0.2106  0.1079  0.2568
  774MPD2    C511423   1.912   0.683  13.346  1.5520  0.1883  0.2086
  774MPD2     H11424   2.077   0.833  13.663 -0.4519  0.6377 -0.3003
  774MPD2    H111425   2.020   0.828  13.240  0.3692 -2.3981 -0.6248
  774MPD2    H211426   1.792   0.565  13.473  0.1089  1.1606  0.0666
  774MPD2    H311427   1.865   0.642  13.257  1.1954  0.0829  0.4479
  774MPD2     N11428   2.156   0.946  13.440 -0.0843 -0.6559  0.0066
  774MPD2    H511429   2.173   0.999  13.525  0.7365 -0.2843 -0.3834
  774MPD2    N111430   1.879   0.642  13.700  0.4696  0.4691 -0.0325
  774MPD2    H711431   1.825   0.556  13.694  0.7635  0.2994 -0.2279
  775MPD2     C11432   3.926   1.976  15.988 -0.2968 -0.2865 -0.2879
  775MPD2    C111433   3.864   2.091  16.035  0.8346 -0.1857 -0.4948
  775MPD2    C211434   3.907   2.213  15.983  0.2307 -0.3350  0.2460
  775MPD2    C311435   4.003   2.213  15.882  0.2050  0.4018 -0.8319
  775MPD2    C411436   4.058   2.096  15.831 -0.4596 -0.0119  0.1031
  775MPD2    C511437   4.022   1.978  15.893 -0.0176  0.1035  0.4440
  775MPD2     H11438   3.876   2.307  16.026 -1.2090  1.2975 -4.3949
  775MPD2    H111439   4.124   2.093  15.745  1.9406 -0.8291  1.9647
  775MPD2    H211440   3.903   1.882  16.038 -0.0313 -0.7251 -0.9996
  775MPD2    H311441   4.064   1.888  15.851 -0.0034  0.4859 -0.3488
  775MPD2     N11442   4.059   2.331  15.824  0.4203 -0.0943  0.2561
  775MPD2    H511443   4.107   2.316  15.736 -0.6817  2.4069 -0.7767
  775MPD2    N111444   3.749   2.068  16.123  0.2284  0.1195  0.2431
  775MPD2    H711445   3.723   1.974  16.149 -1.9159  0.3049 -1.2703
  776MPD2     C11446   2.870   2.361  11.372  0.0527 -0.2274  1.1076
  776MPD2    C111447   2.735   2.354  11.335  0.0046 -0.4786  0.0445
  776MPD2    C211448   2.669   2.464  11.280  0.3665 -0.2327  0.3708
  776MPD2    C311449   2.740   2.577  11.242  0.5255 -0.5179 -0.5850
  776MPD2    C411450   2.874   2.587  11.283 -0.1350 -0.3512 -0.0490
  776MPD2    C511451   2.936   2.480  11.339  0.3384  0.6299  0.9281
  776MPD2     H11452   2.565   2.450  11.253  0.3335 -1.2098  1.0179
  776MPD2    H111453   2.940   2.672  11.271 -3.4469  2.2658  0.2523
  776MPD2    H211454   2.915   2.272  11.416 -2.0304 -1.7544  0.1483
  776MPD2    H311455   3.041   2.496  11.359  0.4830 -0.2821  0.9179
  776MPD2     N11456   2.689   2.690  11.175 -0.3698 -0.1387  0.2125
  776MPD2    H511457   2.748   2.766  11.142  0.4880 -0.7751  0.2959
  776MPD2    N111458   2.660   2.240  11.359  0.7547 -0.7147  0.0771
  776MPD2    H711459   2.575   2.232  11.304  0.5255  3.0978 -0.0790
  777MPD2     C11460   3.620   0.399   0.899  0.3273  0.3383 -0.4580
  777MPD2    C111461   3.514   0.466   0.972 -0.2676  0.0106 -0.2123
  777MPD2    C211462   3.391   0.395   0.992 -0.1998 -0.1320  0.9221
  777MPD2    C311463   3.362   0.280   0.931  0.3147 -0.0450  0.2502
  777MPD2    C411464   3.459   0.233   0.842  0.1976  0.2410 -0.1667
  777MPD2    C511465   3.587   0.282   0.840 -0.1348 -0.4661  0.3090
  777MPD2     H11466   3.312   0.439   1.051 -0.6547  1.1539 -0.6607
  777MPD2    H111467   3.444   0.142   0.786  1.4916 -1.3173  1.9913
  777MPD2    H211468   3.722   0.429   0.877 -0.1223  1.6477 -0.7227
  777MPD2    H311469   3.666   0.233   0.785 -0.4186  1.5225 -1.8945
  777MPD2     N11470   3.242   0.215   0.952 -0.2677 -0.4214 -0.6815
  777MPD2    H511471   3.174   0.255   1.016  0.3001 -0.9007  0.2198
  777MPD2    N111472   3.547   0.586   1.035  0.7007  0.5649  0.0366
  777MPD2    H711473   3.639   0.617   1.006 -0.3256  0.4570 -3.3690
  778MPD2     C11474   3.916   4.699  15.150 -0.0495 -0.0153  0.3939
  778MPD2    C111475   3.834   4.674  15.043 -0.3050 -0.0960  0.2835
  778MPD2    C211476   3.863   0.020  14.922  0.2230 -0.7513 -0.6070
  778MPD2    C311477   3.966   0.116  14.913 -0.2465 -0.3567 -0.7477
  778MPD2    C411478   4.052   0.129  15.017  0.1280 -0.4636 -0.7089
  778MPD2    C511479   4.027   0.059  15.132  0.4502 -0.2456 -0.1880
  778MPD2     H11480   3.801   0.000  14.835 -0.0786  0.4459 -0.6608
  778MPD2    H111481   4.146   0.183  15.010 -0.4850  0.7292  0.2947
  778MPD2    H211482   3.906   4.656  15.249 -0.8019 -0.2144  0.2311
  778MPD2    H311483   4.110   0.055  15.202  1.7589 -2.9361 -1.9033
  778MPD2     N11484   3.984   0.165  14.781 -0.1064 -0.6732  0.3855
  778MPD2    H511485   3.918   0.137  14.709  0.3427  1.9708 -1.0655
  778MPD2    N111486   3.731   4.578  15.048 -0.2040  0.2411  0.5337
  778MPD2    H711487   3.683   4.551  14.963  2.2831 -0.2593 -0.7321
  779MPD2     C11488   3.419   3.423  14.280 -0.1446  0.3892  0.8898
  779MPD2    C111489   3.558   3.451  14.274  0.1770 -0.7035  0.7702
  779MPD2    C211490   3.599   3.585  14.266 -0.0368  0.1216 -0.3423
  779MPD2    C311491   3.507   3.688  14.269 -0.0815 -0.2401 -0.8303
  779MPD2    C411492   3.372   3.660  14.284  0.0839  0.2747 -0.1078
  779MPD2    C511493   3.328   3.530  14.291 -0.0284 -0.0428  0.0991
  779MPD2     H11494   3.703   3.614  14.267  0.0902 -0.3420  0.0884
  779MPD2    H111495   3.301   3.737  14.311 -0.8311 -0.6814  0.2121
  779MPD2    H211496   3.381   3.322  14.274  0.7062  0.1192  0.0318
  779MPD2    H311497   3.221   3.513  14.288 -0.0331 -0.0827  0.4718
  779MPD2     N11498   3.563   3.816  14.260 -0.6015  0.2923 -0.1443
  779MPD2    H511499   3.663   3.820  14.246 -0.6564 -0.2830 -0.7123
  779MPD2    N111500   3.652   3.343  14.259 -0.3543 -0.0520  0.0428
  779MPD2    H711501   3.743   3.383  14.236  0.1869 -0.8952  0.6679
  780MPD2     C11502   3.314   3.787   1.492  0.5465 -0.0518  0.3829
  780MPD2    C111503   3.448   3.803   1.490  0.2355  0.4440  0.3846
  780MPD2    C211504   3.510   3.763   1.378  0.1411  0.0923  0.0275
  780MPD2    C311505   3.448   3.687   1.278 -0.6304  0.4568 -0.0940
  780MPD2    C411506   3.314   3.672   1.280  0.3088 -0.5057 -0.0533
  780MPD2    C511507   3.251   3.721   1.391  0.4007 -0.0401 -0.4902
  780MPD2     H11508   3.618   3.770   1.377 -0.0565  2.7995 -0.6462
  780MPD2    H111509   3.252   3.601   1.228 -2.4682  0.9278  1.2859
  780MPD2    H211510   3.248   3.812   1.574 -0.0497 -0.1227 -0.0727
  780MPD2    H311511   3.145   3.698   1.396  0.5245 -0.6220 -0.6116
  780MPD2     N11512   3.512   3.639   1.165  0.4684 -0.3906  0.8610
  780MPD2    H511513   3.613   3.648   1.162  0.5612 -2.4185 -2.4900
  780MPD2    N111514   3.516   3.859   1.607  0.2906 -0.4653  0.3028
  780MPD2    H711515   3.460   3.882   1.689  1.9565  3.6012  0.2938
  781MPD2     C11516   0.028   0.732  11.825 -0.1871  0.4062 -0.3316
  781MPD2    C111517   0.131   0.637  11.835 -0.3652  0.0750 -0.1439
  781MPD2    C211518   0.190   0.591  11.715  0.0481  0.2509  0.1572
  781MPD2    C311519   0.156   0.639  11.589 -0.2821 -0.2620  0.6644
  781MPD2    C411520   0.052   0.728  11.581 -0.9136 -0.1291  0.2089
  781MPD2    C511521   4.710   0.772  11.699  0.1637  0.0607  0.2857
  781MPD2     H11522   0.266   0.516  11.731  1.5490  1.7348 -0.0302
  781MPD2    H111523   0.038   0.777  11.486 -0.7762  0.2605  0.3892
  781MPD2    H211524   4.702   0.767  11.914 -1.4321 -1.4799 -0.2973
  781MPD2    H311525   4.629   0.843  11.690 -0.0861 -0.1768  0.6832
  781MPD2     N11526   0.233   0.621  11.475  0.0078 -0.5061  0.2841
  781MPD2    H511527   0.198   0.658  11.387 -0.6026  0.7592  1.0731
  781MPD2    N111528   0.152   0.575  11.960  0.1496 -1.0027  0.0421
  781MPD2    H711529   0.179   0.477  11.970  0.6821 -1.0916 -2.2507
  782MPD2     C11530   2.336   1.703  10.030  0.9512 -0.4672 -0.5568
  782MPD2    C111531   2.473   1.696  10.014  0.2920  0.2083  0.2302
  782MPD2    C211532   2.554   1.795  10.073 -0.0467 -0.4462  0.7837
  782MPD2    C311533   2.500   1.899  10.137  0.2447  0.3699  0.3669
  782MPD2    C411534   2.369   1.896  10.159  0.7362 -0.4232  0.3491
  782MPD2    C511535   2.288   1.808  10.102 -0.0278  0.4539 -0.2824
  782MPD2     H11536   2.662   1.786  10.074  0.0204  0.2618 -0.0049
  782MPD2    H111537   2.318   1.976  10.212 -0.3163 -1.9570  1.6691
  782MPD2    H211538   2.265   1.643   9.974  0.8354  0.0434 -0.9530
  782MPD2    H311539   2.181   1.824  10.105 -0.0322  0.3075  0.2591
  782MPD2     N11540   2.574   1.999  10.201  0.1157 -0.1168 -0.1501
  782MPD2    H511541   2.525   2.052  10.272  1.1905  0.0650  0.4485
  782MPD2    N111542   2.524   1.583   9.947  0.2529  0.5841 -0.1166
  782MPD2    H711543   2.459   1.509   9.919  0.2276  0.0974  1.2090
  783MPD2     C11544   2.314   0.938  10.394  0.2638  0.5115 -0.1818
  783MPD2    C111545   2.310   1.077  10.381  0.1075  0.1900 -0.2877
  783MPD2    C211546   2.380   1.146  10.283 -0.4932  0.3744 -0.3496
  783MPD2    C311547   2.467   1.076  10.203 -0.7783  0.1158  0.4981
  783MPD2    C411548   2.490   0.942  10.231 -0.0884 -0.7434 -0.0533
  783MPD2    C511549   2.404   0.869  10.319 -0.3027 -0.2328  1.1104
  783MPD2     H11550   2.366   1.251  10.259 -0.2604  0.3091 -0.7763
  783MPD2    H111551   2.570   0.886  10.183  1.9442  0.7072  1.6121
  783MPD2    H211552   2.246   0.883  10.458 -2.3634  3.5004 -0.4468
  783MPD2    H311553   2.409   0.761  10.317 -1.0450 -0.2708  1.3496
  783MPD2     N11554   2.534   1.155  10.109 -0.3625  0.6226 -0.0659
  783MPD2    H511555   2.537   1.255  10.127 -0.9538  1.0534 -2.2693
  783MPD2    N111556   2.219   1.149  10.467 -0.2368  0.5926 -0.0903
  783MPD2    H711557   2.173   1.104  10.545 -1.3044  0.5940 -0.7338
  784MPD2     C11558   0.673   1.359   1.366  0.1987 -0.8427 -0.9813
  784MPD2    C111559   0.666   1.499   1.385  0.2364  0.0842  0.0778
  784MPD2    C211560   0.554   1.565   1.337 -0.0230  0.3757 -0.0754
  784MPD2    C311561   0.456   1.501   1.267  0.2878  0.0317 -0.8286
  784MPD2    C411562   0.466   1.364   1.248  0.3546 -0.2557  0.7843
  784MPD2    C511563   0.573   1.296   1.294 -0.1907 -0.4615 -0.1289
  784MPD2     H11564   0.546   1.672   1.348  0.9647  0.6535 -2.0548
  784MPD2    H111565   0.388   1.301   1.208  0.2688  0.3601 -0.0331
  784MPD2    H211566   0.760   1.298   1.387  2.7723  2.4930 -1.8658
  784MPD2    H311567   0.589   1.189   1.287 -0.9011 -0.5086 -0.9663
  784MPD2     N11568   0.337   1.574   1.223  0.0905  0.5583 -0.9205
  784MPD2    H511569   0.338   1.674   1.240 -0.1434  0.4309 -0.1541
  784MPD2    N111570   0.771   1.579   1.447 -0.6147 -0.6829  0.7292
  784MPD2    H711571   0.747   1.674   1.472  1.8079 -0.6462  2.9068
  785MPD2     C11572   0.277   0.670  10.290 -0.2006  0.6785 -0.4186
  785MPD2    C111573   0.202   0.686  10.174 -0.5285 -0.0038  0.2210
  785MPD2    C211574   0.086   0.617  10.154 -0.1198  0.5902  0.0662
  785MPD2    C311575   0.049   0.517  10.245 -0.1567 -0.0880 -0.0644
  785MPD2    C411576   0.131   0.492  10.348  0.5189 -0.6330 -0.5891
  785MPD2    C511577   0.242   0.566  10.370 -0.1664 -1.0802 -0.3851
  785MPD2     H11578   0.015   0.639  10.075  1.9233 -0.2143 -1.9861
  785MPD2    H111579   0.099   0.409  10.409  0.9284 -0.8528 -0.6745
  785MPD2    H211580   0.358   0.732  10.325 -1.5146  1.9548  0.3131
  785MPD2    H311581   0.299   0.545  10.460  0.7653 -0.0661 -0.7347
  785MPD2     N11582   4.654   0.446  10.208  0.4129 -0.0065  0.1554
  785MPD2    H511583   4.606   0.485  10.127 -1.4231 -1.6179  0.4928
  785MPD2    N111584   0.228   0.783  10.074  0.3171 -0.0294 -0.0611
  785MPD2    H711585   0.169   0.780   9.992 -0.1434  0.0851  0.2639
  786MPD2     C11586   3.739   2.849  14.375 -0.2092  0.2789  0.6943
  786MPD2    C111587   3.870   2.799  14.364  0.1532  0.3380 -1.1568
  786MPD2    C211588   3.965   2.832  14.457 -0.2551  0.2862 -0.9369
  786MPD2    C311589   3.935   2.918  14.564 -0.3908 -0.0353  0.3906
  786MPD2    C411590   3.805   2.959  14.571 -0.5009  0.0285 -0.1399
  786MPD2    C511591   3.711   2.926  14.483 -0.1757  0.0926  0.1231
  786MPD2     H11592   4.057   2.778  14.441  1.7898  2.9992  1.8129
  786MPD2    H111593   3.761   3.005  14.659  2.1963 -0.6757  1.5959
  786MPD2    H211594   3.667   2.826  14.297 -0.1179 -0.0256  0.6975
  786MPD2    H311595   3.608   2.952  14.506  0.0573  0.9081  0.2441
  786MPD2     N11596   4.025   2.943  14.671  0.5080  0.5307  0.3425
  786MPD2    H511597   3.997   3.015  14.736 -2.3644 -1.3835  1.2334
  786MPD2    N111598   3.904   2.707  14.261 -0.3315 -0.3746 -0.0016
  786MPD2    H711599   3.997   2.668  14.268  0.4779  1.3240 -1.2699
  787MPD2     C11600   4.035   2.197  14.568 -0.6640  0.2234  0.2098
  787MPD2    C111601   4.112   2.198  14.455 -0.3654  0.0175 -0.0291
  787MPD2    C211602   4.229   2.127  14.459 -0.6135  0.6199 -0.1727
  787MPD2    C311603   4.282   2.089  14.578  0.4381  0.4599 -0.4477
  787MPD2    C411604   4.218   2.116  14.694 -0.1007 -0.5602  0.0184
  787MPD2    C511605   4.090   2.155  14.684  0.5042  0.2890  1.0225
  787MPD2     H11606   4.279   2.104  14.366  1.0154  2.0701  0.3407
  787MPD2    H111607   4.273   2.110  14.787 -0.1127 -0.7317  0.0146
  787MPD2    H211608   3.928   2.215  14.560 -0.5986  1.0583  1.1759
  787MPD2    H311609   4.024   2.166  14.770 -0.8497 -1.2305  0.1604
  787MPD2     N11610   4.403   2.018  14.578 -0.3151  0.1158 -0.1931
  787MPD2    H511611   4.461   2.033  14.496  0.1588  1.3118  0.3522
  787MPD2    N111612   4.050   2.249  14.338 -0.3100 -0.7323 -0.4460
  787MPD2    H711613   3.962   2.294  14.360  0.6380  1.9939 -2.1127
  788MPD2     C11614   2.489   0.732   0.425  0.4224  0.3927  0.0321
  788MPD2    C111615   2.384   0.731   0.336  0.8044  0.2692 -0.0183
  788MPD2    C211616   2.312   0.845   0.334  0.5873 -0.4703 -0.8320
  788MPD2    C311617   2.351   0.963   0.394 -0.0757 -0.6231 -0.8800
  788MPD2    C411618   2.464   0.966   0.470  0.4470  0.0214  0.0834
  788MPD2    C511619   2.528   0.850   0.482  0.6845 -0.2430  0.3305
  788MPD2     H11620   2.222   0.845   0.274  0.4910  4.1519 -0.7130
  788MPD2    H111621   2.502   1.059   0.509  0.0687  0.7697 -1.2966
  788MPD2    H211622   2.543   0.638   0.433 -1.1618 -0.4096  1.2818
  788MPD2    H311623   2.617   0.854   0.544  1.1548 -0.7895 -0.3155
  788MPD2     N11624   2.284   1.088   0.380  0.1107 -0.5775  0.0813
  788MPD2    H511625   2.343   1.169   0.400 -1.6452  1.2121 -2.0144
  788MPD2    N111626   2.316   0.619   0.274  0.2425  0.3297  0.0446
  788MPD2    H711627   2.230   0.638   0.224  0.2463 -1.4625 -0.6107
  789MPD2     C11628   2.064   0.443  16.387 -0.7091  0.2508  0.5669
  789MPD2    C111629   1.950   0.452  16.314  0.1973  0.0158  0.3701
  789MPD2    C211630   1.840   0.526  16.363 -0.3903  0.0502 -0.7807
  789MPD2    C311631   1.853   0.602  16.482  0.3520  0.2764 -0.1169
  789MPD2    C411632   1.968   0.582  16.552 -0.1863  0.2516  0.7904
  789MPD2    C511633   2.077   0.508  16.503 -0.4522 -0.4559 -0.1865
  789MPD2     H11634   1.746   0.523  16.309 -2.0574  1.0340  2.0468
  789MPD2    H111635   1.974   0.634  16.647  0.3674  1.6249  0.0012
  789MPD2    H211636   2.145   0.385  16.345 -0.5695  0.0250  1.1483
  789MPD2    H311637   2.162   0.499  16.571  0.9359  1.1620 -1.6979
  789MPD2     N11638   1.752   0.691  16.538  0.5296  0.2953  0.1230
  789MPD2    H511639   1.784   0.748  16.615 -0.1800  2.0288 -0.8544
  789MPD2    N111640   1.925   0.377  16.195 -0.1393  0.5383 -0.4073
  789MPD2    H711641   1.829   0.386  16.162 -0.6787  0.5645  1.1924
  790MPD2     C11642   2.710   2.768  13.382  0.7720  0.0531 -0.2133
  790MPD2    C111643   2.736   2.632  13.393  0.7648 -0.8849  0.0608
  790MPD2    C211644   2.706   2.554  13.282 -0.3632  0.0296 -0.2124
  790MPD2    C311645   2.646   2.606  13.174 -0.0467 -0.2524 -0.1700
  790MPD2    C411646   2.616   2.746  13.173 -0.4475  0.5140  0.1578
  790MPD2    C511647   2.657   2.829  13.274 -0.3886 -0.0923  0.4268
  790MPD2     H11648   2.722   2.447  13.288  0.4861  0.2278  1.1239
  790MPD2    H111649   2.569   2.806  13.096 -2.2961 -0.1135  0.8151
  790MPD2    H211650   2.723   2.839  13.463  2.8507  1.3459 -1.6467
  790MPD2    H311651   2.627   2.933  13.272 -0.3679 -0.0660  1.3565
  790MPD2     N11652   2.612   2.520  13.065  0.6485 -0.1055  0.1704
  790MPD2    H511653   2.646   2.425  13.069 -2.0344 -1.0414  0.5931
  790MPD2    N111654   2.785   2.582  13.515 -0.3815  0.1891 -0.4731
  790MPD2    H711655   2.776   2.636  13.600 -0.6159  1.5740 -1.3867
  791MPD2     C11656   1.932   2.571  12.646  0.0257 -0.1167 -0.2267
  791MPD2    C111657   1.980   2.444  12.672  0.7102 -0.4593  0.6612
  791MPD2    C211658   1.903   2.343  12.619  0.0854 -0.6681  0.3791
  791MPD2    C311659   1.782   2.360  12.559  0.3231  0.1140  0.1380
  791MPD2    C411660   1.730   2.485  12.550 -0.1168  0.3055  0.7162
  791MPD2    C511661   1.812   2.588  12.586  0.4661  0.1507  0.8392
  791MPD2     H11662   1.932   2.241  12.642  2.0381 -0.5744 -1.6747
  791MPD2    H111663   1.630   2.498  12.509  0.0457 -2.3752 -0.5855
  791MPD2    H211664   1.992   2.660  12.664 -0.5744  0.7176 -2.3587
  791MPD2    H311665   1.769   2.686  12.573  0.0482 -0.1705 -0.1299
  791MPD2     N11666   1.712   2.249  12.514 -0.3431  0.0186  0.2667
  791MPD2    H511667   1.776   2.171  12.502  1.1976  1.4145 -0.5568
  791MPD2    N111668   2.107   2.426  12.729 -0.5950 -0.0441 -0.2413
  791MPD2    H711669   2.150   2.513  12.759 -1.1486 -0.1450  0.8537
  792MPD2     C11670   2.301   2.308  11.229  0.0559 -0.2801 -0.0983
  792MPD2    C111671   2.265   2.307  11.099 -0.2911  0.5908 -0.6599
  792MPD2    C211672   2.143   2.253  11.060  0.5177  0.0339 -0.4411
  792MPD2    C311673   2.052   2.226  11.158  0.8015 -0.1171  0.0544
  792MPD2    C411674   2.086   2.226  11.289  0.4773 -0.3835  0.6156
  792MPD2    C511675   2.209   2.272  11.324 -0.1351 -0.3469 -0.4627
  792MPD2     H11676   2.110   2.251  10.956 -4.3129  2.5427  1.0303
  792MPD2    H111677   2.023   2.188  11.368 -0.2657 -0.7403 -0.1382
  792MPD2    H211678   2.399   2.342  11.260 -1.4865  3.7224  0.4221
  792MPD2    H311679   2.244   2.267  11.426  0.1386 -2.0917 -0.6328
  792MPD2     N11680   1.918   2.189  11.122  0.3665 -0.2683  0.1337
  792MPD2    H511681   1.863   2.136  11.189 -0.1350 -0.3446 -0.3453
  792MPD2    N111682   2.362   2.368  11.011  0.3473 -0.1470  0.3575
  792MPD2    H711683   2.444   2.412  11.053  1.2866 -0.6640 -0.9650
  793MPD2     C11684   1.487   2.084  10.165 -0.2333  0.4389  0.5242
  793MPD2    C111685   1.591   2.154  10.230 -0.3705  0.2103  0.1435
  793MPD2    C211686   1.596   2.184  10.364  0.7966  0.1136 -0.0539
  793MPD2    C311687   1.504   2.121  10.450  0.0691  0.0093  0.9118
  793MPD2    C411688   1.396   2.061  10.384  0.0969  0.6568  0.7445
  793MPD2    C511689   1.382   2.047  10.250 -0.4156 -0.1909 -0.2442
  793MPD2     H11690   1.682   2.231  10.410  1.2020 -0.8369  0.1718
  793MPD2    H111691   1.313   2.024  10.444  0.6986 -1.2792  0.3760
  793MPD2    H211692   1.490   2.040  10.066 -0.1664  4.6467 -1.3478
  793MPD2    H311693   1.300   1.984  10.218  1.9194 -2.9303 -0.8327
  793MPD2     N11694   1.495   2.134  10.594  0.2921  0.1609 -0.1967
  793MPD2    H511695   1.418   2.082  10.636 -0.4166  2.2841  1.1466
  793MPD2    N111696   1.714   2.185  10.160 -0.0095  0.3760 -0.7473
  793MPD2    H711697   1.791   2.232  10.207 -1.1718 -0.2914  1.7880
  794MPD2     C11698   2.425   1.954  17.119  0.1438 -0.0409  0.0547
  794MPD2    C111699   2.529   1.899  17.051 -0.6700  0.1120  0.3297
  794MPD2    C211700   2.573   1.966  16.939  0.1091  0.3220 -0.1733
  794MPD2    C311701   2.519   2.088  16.899  0.2485  0.0871 -0.5202
  794MPD2    C411702   2.401   2.136  16.962  0.1045 -0.0060 -0.0061
  794MPD2    C511703   2.358   2.066  17.074  0.1939  0.9357 -0.2309
  794MPD2     H11704   2.655   1.925  16.880 -0.0582 -0.4071  0.0932
  794MPD2    H111705   2.343   2.222  16.930 -1.5210 -0.2541  2.3196
  794MPD2    H211706   2.375   1.898  17.197 -0.3820  1.2047  0.6093
  794MPD2    H311707   2.262   2.086  17.121  0.2040 -2.0775  1.0124
  794MPD2     N11708   2.572   2.170  16.791  0.1897  0.1880 -0.2174
  794MPD2    H511709   2.523   2.256  16.769 -1.0896 -1.2827 -3.1928
  794MPD2    N111710   2.586   1.777  17.087  0.1893 -0.2258  0.1874
  794MPD2    H711711   2.652   1.726  17.030  0.1844 -0.5536  0.4707
  795MPD2     C11712   4.718   3.925  13.396 -0.0663 -0.2938  0.2210
  795MPD2    C111713   4.659   3.880  13.284  0.7548  0.1623 -0.0358
  795MPD2    C211714   4.707   3.761  13.223  0.3294 -0.0102  0.2810
  795MPD2    C311715   0.084   3.682  13.277  0.1198  0.1863  0.6266
  795MPD2    C411716   0.142   3.730  13.394  0.5415 -0.1729 -0.5106
  795MPD2    C511717   0.105   3.855  13.441  0.1208 -0.1887 -0.8430
  795MPD2     H11718   4.664   3.726  13.130 -1.2433 -0.3418  1.1496
  795MPD2    H111719   0.231   3.682  13.432 -0.5757 -2.1032 -0.3571
  795MPD2    H211720   4.703   4.019  13.448  2.6333  0.2740 -0.0212
  795MPD2    H311721   0.159   3.898  13.525 -1.4078  1.2139 -0.5793
  795MPD2     N11722   0.124   3.576  13.206 -0.4794 -0.3003 -0.2200
  795MPD2    H511723   0.083   3.556  13.115  3.2049 -0.2449 -1.8614
  795MPD2    N111724   4.556   3.950  13.231 -0.1671 -0.5743  0.3438
  795MPD2    H711725   4.499   3.921  13.152  0.9834 -0.6816 -0.4407
  796MPD2     C11726   4.568   0.799  15.800 -0.4373 -0.9211 -0.1086
  796MPD2    C111727   4.696   0.831  15.829 -0.1630 -0.6301  0.5657
  796MPD2    C211728   0.013   0.964  15.828 -0.0672  0.5772 -0.3111
  796MPD2    C311729   4.638   1.062  15.807 -0.2801  0.5851 -0.7951
  796MPD2    C411730   4.507   1.022  15.781 -1.0041  0.1655 -0.1869
  796MPD2    C511731   4.472   0.894  15.775  0.4001  0.5808  0.1467
  796MPD2     H11732   0.116   0.995  15.841 -0.1723  0.8701 -0.1812
  796MPD2    H111733   4.430   1.092  15.752 -0.3701  0.2670 -1.6713
  796MPD2    H211734   4.541   0.695  15.800 -0.1637 -0.9905  0.5119
  796MPD2    H311735   4.371   0.863  15.751  0.3661  0.3699  0.5445
  796MPD2     N11736   4.678   1.199  15.795  0.5830  0.4035  0.1710
  796MPD2    H511737   0.053   1.222  15.797  0.4013  1.3158 -1.7772
  796MPD2    N111738   0.066   0.727  15.848  0.6028  0.0827 -0.2030
  796MPD2    H711739   0.025   0.634  15.851  1.1295 -0.1345  0.1083
  797MPD2     C11740   0.472   0.194  17.247  0.7154 -0.0611 -0.5661
  797MPD2    C111741   0.586   0.268  17.276  0.3907  0.5568  0.4832
  797MPD2    C211742   0.593   0.393  17.223  0.4286 -0.3045  0.0862
  797MPD2    C311743   0.495   0.444  17.143 -0.1073  0.4806 -0.5221
  797MPD2    C411744   0.383   0.369  17.105 -0.1342  0.1909  0.0170
  797MPD2    C511745   0.375   0.241  17.165 -0.3722 -0.1636  0.1313
  797MPD2     H11746   0.685   0.450  17.227 -0.2206  0.6390  1.6840
  797MPD2    H111747   0.302   0.392  17.036  0.1963  2.9411  0.5565
  797MPD2    H211748   0.459   0.097  17.295  2.0269  0.5329  0.9618
  797MPD2    H311749   0.285   0.185  17.145  0.2138 -1.5478  1.3403
  797MPD2     N11750   0.518   0.569  17.085 -0.9523 -0.3492  0.3375
  797MPD2    H511751   0.607   0.611  17.110 -0.6895 -0.1014 -0.9889
  797MPD2    N111752   0.696   0.218  17.354  0.4625  0.0484  0.9406
  797MPD2    H711753   0.781   0.271  17.336 -1.5084  2.8268 -0.2028
  798MPD2     C11754   1.158   0.763  17.235  0.2989  0.3577  0.4387
  798MPD2    C111755   1.031   0.710  17.213  0.0389 -0.4413 -0.1632
  798MPD2    C211756   0.996   0.590  17.282 -0.2435  0.1471 -0.2037
  798MPD2    C311757   1.089   0.532  17.369 -0.3392  0.4591  0.3168
  798MPD2    C411758   1.212   0.594  17.397  0.0126  0.4402  0.3148
  798MPD2    C511759   1.238   0.714  17.332  0.5359 -0.5128  0.6998
  798MPD2     H11760   0.905   0.536  17.259  0.7231 -0.4835 -2.5551
  798MPD2    H111761   1.284   0.552  17.468  0.5859 -1.2576 -1.2732
  798MPD2    H211762   1.198   0.854  17.190 -1.2095  1.2225  0.8724
  798MPD2    H311763   1.333   0.761  17.353  1.1300 -1.3942  0.0014
  798MPD2     N11764   1.055   0.409  17.423  0.3704 -0.8179  0.7998
  798MPD2    H511765   0.963   0.371  17.401  0.1088 -0.2612  0.9354
  798MPD2    N111766   0.940   0.785  17.134 -0.0375 -0.4934  0.3172
  798MPD2    H711767   0.972   0.866  17.081  2.2024 -2.0474 -0.7040
  799MPD2     C11768   4.185   1.663  14.751  0.1357 -0.0039  0.7478
  799MPD2    C111769   4.118   1.546  14.716  0.6154  0.5329 -0.5583
  799MPD2    C211770   4.014   1.565  14.632 -0.0986  0.0416  0.3409
  799MPD2    C311771   3.970   1.691  14.585  0.4581  0.1287 -0.2068
  799MPD2    C411772   4.030   1.803  14.627 -0.0826 -0.7112  0.5383
  799MPD2    C511773   4.135   1.786  14.719  0.0895  0.1636 -0.2675
  799MPD2     H11774   3.961   1.477  14.597  0.8922 -0.0258 -0.9766
  799MPD2    H111775   3.994   1.904  14.609  0.9500 -0.7050 -1.5197
  799MPD2    H211776   4.276   1.659  14.809  1.1598  2.4367 -0.6863
  799MPD2    H311777   4.170   1.868  14.780 -0.1025 -0.4918  0.7195
  799MPD2     N11778   3.858   1.705  14.495 -0.3693 -0.2254  0.1266
  799MPD2    H511779   3.835   1.799  14.466  1.8653  0.7826  1.6265
  799MPD2    N111780   4.165   1.415  14.750  0.5550  0.4332  0.5050
  799MPD2    H711781   4.107   1.339  14.716  1.9675  0.1820 -1.3789
  800MPD2     C11782   4.392   2.667  13.594  1.2170 -0.7843  0.0583
  800MPD2    C111783   4.514   2.656  13.526 -0.9858 -0.6592 -0.5673
  800MPD2    C211784   4.515   2.648  13.386  0.1965  0.3061 -0.5890
  800MPD2    C311785   4.396   2.640  13.315  0.3213 -0.2564  0.1404
  800MPD2    C411786   4.273   2.661  13.380 -0.0367 -0.5873 -0.4378
  800MPD2    C511787   4.275   2.662  13.524  0.6483  0.0979  0.0870
  800MPD2     H11788   4.608   2.668  13.335  0.8398 -2.2794 -0.3896
  800MPD2    H111789   4.177   2.654  13.331 -1.3840 -0.7394  2.2445
  800MPD2    H211790   4.381   2.692  13.699 -1.0150  0.5094 -0.4839
  800MPD2    H311791   4.183   2.690  13.573  0.9014 -0.3589  0.8146
  800MPD2     N11792   4.405   2.637  13.173  0.5968 -0.0631 -0.0430
  800MPD2    H511793   4.499   2.633  13.134 -0.6380  0.1564 -3.0792
  800MPD2    N111794   4.632   2.671  13.603 -0.3054 -0.4439 -0.1068
  800MPD2    H711795   4.621   2.687  13.702 -1.6879 -1.2176 -0.1416
  801MPD2     C11796   4.711   3.315  13.563 -0.1406 -0.8682  0.2317
  801MPD2    C111797   4.698   3.233  13.673  0.9231  0.1772  0.1463
  801MPD2    C211798   4.594   3.251  13.759 -0.3512  0.5243  0.3213
  801MPD2    C311799   4.518   3.370  13.744 -0.2119 -0.1862 -0.0191
  801MPD2    C411800   4.515   3.441  13.632 -0.4180 -0.3550 -0.2373
  801MPD2    C511801   4.611   3.408  13.537 -0.7185  0.0979 -0.8366
  801MPD2     H11802   4.578   3.188  13.846 -2.0447 -1.3081 -1.3094
  801MPD2    H111803   4.446   3.524  13.624 -2.7396 -2.2570 -0.1628
  801MPD2    H211804   0.070   3.298  13.495 -0.5439  0.9954 -0.7100
  801MPD2    H311805   4.621   3.459  13.442 -1.8304 -1.3368 -1.7225
  801MPD2     N11806   4.410   3.394  13.833  0.2804 -0.7704 -0.6777
  801MPD2    H511807   4.338   3.463  13.817  0.1851 -0.7567 -0.1933
  801MPD2    N111808   0.050   3.115  13.692 -0.7076 -0.1775  0.4069
  801MPD2    H711809   0.022   3.058  13.771  0.2214  1.5840  1.9896
  802MPD2     C11810   3.786   3.390  17.460  0.3309 -0.4619  0.5542
  802MPD2    C111811   3.916   3.437  17.470 -0.2664 -0.5494 -0.3511
  802MPD2    C211812   4.016   3.348  17.501  0.0868 -0.1993 -0.4464
  802MPD2    C311813   3.985   3.214  17.519  0.1147  0.4498  0.6329
  802MPD2    C411814   3.859   3.165  17.492  0.0228 -0.2203 -0.5648
  802MPD2    C511815   3.755   3.253  17.464 -0.5774 -0.1236 -0.2682
  802MPD2     H11816   4.113   3.386  17.529  0.2362 -1.5063  0.7819
  802MPD2    H111817   3.835   3.060  17.493 -0.2554 -0.1605 -0.7974
  802MPD2    H211818   3.706   3.456  17.430 -0.6027 -1.1434  1.5496
  802MPD2    H311819   3.662   3.206  17.437 -0.0910 -1.2447 -0.0106
  802MPD2     N11820   4.095   3.128  17.552 -0.0387  0.4196  0.2183
  802MPD2    H511821   4.185   3.175  17.549 -0.4942  1.3346  0.7619
  802MPD2    N111822   3.951   3.566  17.464 -0.3582  0.2856 -0.5550
  802MPD2    H711823   4.043   3.589  17.500 -1.3543  1.8834  0.9734
  803MPD2     C11824   0.681   2.116  11.241  0.1562 -0.0433 -0.0280
  803MPD2    C111825   0.726   2.173  11.361 -0.3373 -0.2854  0.3552
  803MPD2    C211826   0.695   2.115  11.482  0.2330 -1.3754 -0.6497
  803MPD2    C311827   0.628   1.995  11.486 -0.5094 -0.4514 -0.2934
  803MPD2    C411828   0.604   1.933  11.363  0.1724  0.1736  0.3680
  803MPD2    C511829   0.618   1.999  11.242  0.4753 -0.2360  0.0820
  803MPD2     H11830   0.712   2.174  11.571  1.0690 -1.3103 -0.8504
  803MPD2    H111831   0.549   1.840  11.358 -0.9256  0.8938 -1.0163
  803MPD2    H211832   0.700   2.165  11.147 -1.3036 -0.1190 -0.3656
  803MPD2    H311833   0.582   1.941  11.157  1.3937 -0.2942 -0.2707
  803MPD2     N11834   0.577   1.935  11.604  0.5052 -0.1852 -0.5219
  803MPD2    H511835   0.516   1.854  11.591  0.8588 -0.2761 -1.6807
  803MPD2    N111836   0.803   2.292  11.376  0.3882 -0.0172  0.4449
  803MPD2    H711837   0.834   2.320  11.468 -0.7801 -0.2553  0.9058
  804MPD2     C11838   0.130   3.528  17.023 -1.4314 -0.6393  0.4271
  804MPD2    C111839   0.170   3.508  17.154 -0.1441  0.2660  0.3107
  804MPD2    C211840   0.214   3.611  17.225 -0.1627  0.1451  0.3621
  804MPD2    C311841   0.229   3.737  17.173 -0.5318 -0.0252 -0.0264
  804MPD2    C411842   0.190   3.758  17.040 -0.5659  0.0404  0.1237
  804MPD2    C511843   0.135   3.650  16.966  0.5660 -0.1378  0.7216
  804MPD2     H11844   0.250   3.599  17.327 -0.1384  1.5774  0.5107
  804MPD2    H111845   0.196   3.854  16.992  0.8830  0.1416  0.5115
  804MPD2    H211846   0.090   3.453  16.955 -1.3074  0.5233 -0.9216
  804MPD2    H311847   0.111   3.668  16.862 -0.0506 -1.5540  0.6206
  804MPD2     N11848   0.279   3.840  17.258 -0.1737 -0.4897 -0.2670
  804MPD2    H511849   0.288   3.802  17.351 -0.9649 -1.4581 -0.5773
  804MPD2    N111850   0.169   3.377  17.213  0.2601 -0.3490  0.2596
  804MPD2    H711851   0.182   3.368  17.314 -1.3234 -2.1636  0.2959
  805MPD2     C11852   4.602   1.994  15.497 -0.2568 -0.6128 -0.0966
  805MPD2    C111853   4.489   2.045  15.562  0.3325  0.9352 -0.4996
  805MPD2    C211854   4.485   2.049  15.702  0.2329 -0.4611  0.4169
  805MPD2    C311855   4.600   2.006  15.775  0.1675 -0.0764 -0.1166
  805MPD2    C411856   4.707   1.954  15.699 -0.5323 -0.1220  0.0570
  805MPD2    C511857   4.715   1.945  15.561  0.3275  0.1830 -0.3420
  805MPD2     H11858   4.396   2.080  15.754 -0.8529  0.3876 -1.9275
  805MPD2    H111859   0.079   1.936  15.746 -0.9430  1.4812  1.5095
  805MPD2    H211860   4.606   1.975  15.390 -1.2055 -0.1635 -0.2197
  805MPD2    H311861   0.078   1.913  15.506 -0.0233  0.7998 -1.2628
  805MPD2     N11862   4.606   2.008  15.916  0.1770 -0.2552  0.2829
  805MPD2    H511863   4.538   2.062  15.969  0.4456  0.9657 -0.6052
  805MPD2    N111864   4.382   2.084  15.477 -0.3632 -0.7641  0.0113
  805MPD2    H711865   4.402   2.085  15.377 -3.1853 -3.3900 -0.5804
  806MPD2     C11866   1.066   0.887   1.329  0.1909 -0.3189  0.8003
  806MPD2    C111867   1.111   1.005   1.388  0.5177 -0.0921 -0.0014
  806MPD2    C211868   1.059   1.128   1.356 -0.0617 -0.2899 -0.5350
  806MPD2    C311869   0.966   1.141   1.259  0.4036 -0.5408 -0.0450
  806MPD2    C411870   0.899   1.031   1.216 -0.3004  0.0780  0.1985
  806MPD2    C511871   0.963   0.910   1.244  0.6978  0.3670  0.6216
  806MPD2     H11872   1.098   1.222   1.392 -2.3520  0.3996  0.1363
  806MPD2    H111873   0.817   1.027   1.145 -1.2297  0.9364  1.2454
  806MPD2    H211874   1.108   0.788   1.336  2.7874  0.8803  2.3639
  806MPD2    H311875   0.922   0.822   1.194  0.8283  0.8575 -0.3437
  806MPD2     N11876   0.942   1.270   1.216 -0.2563 -0.7623 -0.4931
  806MPD2    H511877   0.986   1.345   1.268 -0.2335 -0.0919 -1.4606
  806MPD2    N111878   1.228   1.008   1.471  0.0565 -0.5611 -0.4879
  806MPD2    H711879   1.287   0.925   1.475  1.2000  0.2932  0.5117
  807MPD2     C11880   1.442   1.613   1.922 -0.4132 -0.2169 -0.1892
  807MPD2    C111881   1.354   1.530   1.860 -0.6743 -0.4570 -0.0521
  807MPD2    C211882   1.217   1.541   1.880  0.8196 -0.1055 -0.9514
  807MPD2    C311883   1.167   1.651   1.949  0.1812  0.4053  0.1495
  807MPD2    C411884   1.251   1.748   1.996 -0.0955  0.2981 -0.0976
  807MPD2    C511885   1.391   1.722   1.988 -0.0616  0.0815  0.4551
  807MPD2     H11886   1.146   1.471   1.838 -0.6411  1.4103 -1.0275
  807MPD2    H111887   1.218   1.837   2.047 -1.4046  1.5577 -3.1383
  807MPD2    H211888   1.550   1.607   1.910 -0.2047 -0.6394  1.7684
  807MPD2    H311889   1.458   1.789   2.041  2.5897 -1.9959 -0.2864
  807MPD2     N11890   1.026   1.662   1.971 -0.0315 -0.1449 -0.0242
  807MPD2    H511891   0.966   1.591   1.932 -0.1032 -0.3779  0.5033
  807MPD2    N111892   1.400   1.415   1.792 -0.2510  0.7316 -0.2164
  807MPD2    H711893   1.334   1.345   1.759  0.6329  0.2222 -0.9013
  808MPD2     C11894   0.199   2.226   8.801 -0.0604 -0.3522  0.6628
  808MPD2    C111895   0.074   2.281   8.824 -0.2024  0.5735  0.1611
  808MPD2    C211896   0.064   2.418   8.839  0.0004  0.4376  0.7929
  808MPD2    C311897   0.172   2.504   8.813 -0.3952 -0.8049 -0.2950
  808MPD2    C411898   0.288   2.449   8.779 -0.2576  0.6363 -0.5204
  808MPD2    C511899   0.299   2.315   8.777  0.5003 -0.5094  0.3165
  808MPD2     H11900   4.686   2.451   8.853 -0.2986 -0.1322 -0.0253
  808MPD2    H111901   0.380   2.502   8.758 -0.4071 -0.4759 -4.0791
  808MPD2    H211902   0.211   2.120   8.788  2.3006 -0.1286  1.0537
  808MPD2    H311903   0.396   2.273   8.751  1.8334  3.1450 -0.6122
  808MPD2     N11904   0.163   2.645   8.831  0.4638  0.4743 -0.1123
  808MPD2    H511905   0.253   2.692   8.827 -0.0533  1.4283 -0.6157
  808MPD2    N111906   4.680   2.214   8.841  0.0830  0.4037 -0.0262
  808MPD2    H711907   4.603   2.262   8.887 -1.0561 -0.9077 -0.5521
  809MPD2     C11908   0.633   3.328   8.458  0.0986 -0.2966 -0.4718
  809MPD2    C111909   0.604   3.344   8.590 -0.3330  0.1549 -0.3041
  809MPD2    C211910   0.510   3.268   8.646 -0.2699  0.3970  0.2779
  809MPD2    C311911   0.444   3.169   8.582 -0.0634  0.3991  0.7841
  809MPD2    C411912   0.478   3.146   8.450  0.2998 -0.1886  0.6342
  809MPD2    C511913   0.574   3.224   8.386  0.4109  0.5527  0.4785
  809MPD2     H11914   0.499   3.290   8.752  0.5636  0.3229  0.3826
  809MPD2    H111915   0.424   3.069   8.396 -1.4206  1.3743  0.1162
  809MPD2    H211916   0.709   3.383   8.403 -0.2068 -0.5197 -1.1148
  809MPD2    H311917   0.604   3.206   8.283 -2.3251  0.8872 -0.3862
  809MPD2     N11918   0.334   3.106   8.637  0.4043 -0.5013 -0.0165
  809MPD2    H511919   0.290   3.027   8.591 -1.2781 -0.0600  0.7917
  809MPD2    N111920   0.670   3.443   8.660 -0.4915  0.0051 -0.4601
  809MPD2    H711921   0.680   3.431   8.761  2.5388  1.6619 -0.5717
  810MPD2     C11922   4.457   2.308   9.523  0.1926 -0.3844 -0.3072
  810MPD2    C111923   4.394   2.362   9.634  1.0044 -0.2415  0.1018
  810MPD2    C211924   4.451   2.462   9.710 -0.5721  0.0567 -0.7305
  810MPD2    C311925   4.573   2.507   9.675 -0.0436 -0.5112 -0.2481
  810MPD2    C411926   4.639   2.460   9.558  0.0005  0.1650  0.0094
  810MPD2    C511927   4.576   2.365   9.480  0.9446  0.2148  0.8824
  810MPD2     H11928   4.391   2.497   9.793  0.2520  2.7214 -1.2837
  810MPD2    H111929   0.021   2.474   9.537 -0.0385  1.2289  0.5289
  810MPD2    H211930   4.405   2.233   9.463  0.6708 -0.5269 -0.5414
  810MPD2    H311931   4.626   2.329   9.391 -0.7850 -0.3671  0.1439
  810MPD2     N11932   4.644   2.601   9.748 -0.9685 -0.2527  0.1888
  810MPD2    H511933   0.004   2.633   9.701 -0.1152 -0.8984  1.2762
  810MPD2    N111934   4.267   2.306   9.664  0.3236  0.6783 -0.5357
  810MPD2    H711935   4.211   2.252   9.599  0.3942  0.5912 -0.5242
  811MPD2     C11936   3.418   2.418   9.817  0.3272 -0.1407  0.0017
  811MPD2    C111937   3.537   2.464   9.763  1.0178  0.0805  0.1049
  811MPD2    C211938   3.546   2.593   9.717 -0.4130  0.2868 -0.1671
  811MPD2    C311939   3.432   2.677   9.720  0.4403  0.3569  0.7565
  811MPD2    C411940   3.309   2.624   9.757 -0.4945  0.5281  0.3049
  811MPD2    C511941   3.313   2.501   9.822  0.7001  0.0360 -0.1346
  811MPD2     H11942   3.643   2.637   9.696 -1.4606  1.7929 -1.8739
  811MPD2    H111943   3.216   2.680   9.765 -0.7508  0.3409 -1.4651
  811MPD2    H211944   3.401   2.319   9.859 -0.3756 -0.4744 -1.0751
  811MPD2    H311945   3.215   2.472   9.859  0.7406 -2.1202 -1.7258
  811MPD2     N11946   3.444   2.808   9.677 -0.2532 -0.8512  0.1693
  811MPD2    H511947   3.537   2.839   9.652 -0.4055 -2.3130 -2.1559
  811MPD2    N111948   3.641   2.362   9.764  0.5155  0.5892 -0.2931
  811MPD2    H711949   3.611   2.265   9.774  1.9944  0.3295  1.4727
  812MPD2     C11950   3.271   2.472  11.645  0.1082 -0.3649 -1.1505
  812MPD2    C111951   3.204   2.516  11.755 -0.5077 -0.1870 -0.6639
  812MPD2    C211952   3.202   2.435  11.876  0.1286  0.2021  0.5271
  812MPD2    C311953   3.262   2.311  11.875 -0.8395  0.6073  0.3415
  812MPD2    C411954   3.331   2.274  11.760  0.0511 -0.4100 -0.3811
  812MPD2    C511955   3.326   2.346  11.643 -0.0897 -0.1267  0.0966
  812MPD2     H11956   3.144   2.474  11.960  0.0750 -0.2032  0.6755
  812MPD2    H111957   3.365   2.172  11.746  0.7602  0.0586 -2.1015
  812MPD2    H211958   3.283   2.533  11.555 -0.9908 -0.1223 -1.1391
  812MPD2    H311959   3.360   2.304  11.549  0.2221 -0.7299  0.4823
  812MPD2     N11960   3.253   2.235  11.996 -0.1741  0.1074 -0.5305
  812MPD2    H511961   3.221   2.287  12.077 -2.9346  0.5352 -1.8903
  812MPD2    N111962   3.147   2.643  11.733  0.2180  0.2093 -0.3617
  812MPD2    H711963   3.160   2.680  11.639 -0.6067 -0.9395 -0.9335
  813MPD2     C11964   2.560   4.030  13.262  0.3680 -0.3233  0.4131
  813MPD2    C111965   2.499   4.144  13.214 -0.1421 -0.1803  0.1728
  813MPD2    C211966   2.398   4.206  13.294 -0.0986 -0.0325 -0.4020
  813MPD2    C311967   2.348   4.149  13.408  0.1172 -0.0829 -0.1419
  813MPD2    C411968   2.406   4.031  13.448  0.4116 -0.1870 -0.1352
  813MPD2    C511969   2.503   3.970  13.375  0.0886  0.0110 -0.3210
  813MPD2     H11970   2.356   4.304  13.275  0.0686  0.1475  0.1599
  813MPD2    H111971   2.387   3.983  13.543  2.2224 -0.1593  0.2492
  813MPD2    H211972   2.645   3.996  13.203 -0.7849 -1.6619 -0.4610
  813MPD2    H311973   2.548   3.880  13.416 -1.4746 -0.7921 -0.3648
  813MPD2     N11974   2.252   4.217  13.485  0.2528  0.0815  0.6573
  813MPD2    H511975   2.205   4.297  13.444  0.9971  0.4164  0.4687
  813MPD2    N111976   2.562   4.202  13.095  0.0761  0.2997  0.5941
  813MPD2    H711977   2.639   4.157  13.047 -0.5422  0.1127 -0.2245
  814MPD2     C11978   2.839   0.766  12.129  0.1008 -1.0067  0.2793
  814MPD2    C111979   2.859   0.801  11.998 -0.9811 -0.7083 -0.9191
  814MPD2    C211980   2.943   0.905  11.977  0.7384  0.3875 -0.5389
  814MPD2    C311981   2.999   0.976  12.079  0.1257 -0.2227  0.1202
  814MPD2    C411982   2.975   0.941  12.209 -0.3427 -0.1697 -0.0149
  814MPD2    C511983   2.897   0.829  12.224  0.3649  0.1491 -0.0285
  814MPD2     H11984   2.960   0.932  11.873 -1.1068 -0.9796 -1.2098
  814MPD2    H111985   3.019   0.983  12.299 -0.2604  0.6777 -0.4523
  814MPD2    H211986   2.773   0.684  12.157  0.4755 -1.5318 -0.3646
  814MPD2    H311987   2.879   0.801  12.327  2.5614 -1.4599 -0.0864
  814MPD2     N11988   3.079   1.086  12.049  0.0493 -0.1426  0.2002
  814MPD2    H511989   3.104   1.140  12.131 -2.3437  1.8007 -0.3685
  814MPD2    N111990   2.825   0.729  11.887  0.2801 -0.0085  0.4287
  814MPD2    H711991   2.851   0.775  11.800  0.2098 -3.5581 -1.4514
  815MPD2     C11992   3.299   3.644  11.824  0.3184  0.0277  0.4024
  815MPD2    C111993   3.290   3.509  11.791  0.4632 -0.6062 -0.6659
  815MPD2    C211994   3.239   3.419  11.885  0.2464 -0.2336 -0.3874
  815MPD2    C311995   3.175   3.463  12.003 -0.3817  0.2818 -0.3032
  815MPD2    C411996   3.181   3.599  12.027  0.2337  0.0780  0.2081
  815MPD2    C511997   3.256   3.683  11.943 -0.4004 -0.2129  0.0679
  815MPD2     H11998   3.242   3.311  11.876 -2.5069 -0.0798 -2.7979
  815MPD2    H111999   3.140   3.638  12.119  0.0531 -0.2538  0.2695
  815MPD2    H212000   3.346   3.714  11.756  1.9324  0.3144  1.8077
  815MPD2    H312001   3.272   3.784  11.978  0.2080 -0.7425  1.3286
  815MPD2     N12002   3.103   3.366  12.082  0.4056  0.3079  0.0903
  815MPD2    H512003   3.105   3.269  12.054  2.3257 -0.0348  1.3992
  815MPD2    N112004   3.334   3.467  11.658 -0.2177  0.6796  0.6433
  815MPD2    H712005   3.370   3.540  11.598 -1.3363  0.2184 -0.5816
  816MPD2     C12006   3.402   2.861  17.695 -0.6478  0.0589  0.1465
  816MPD2    C112007   3.507   2.949  17.693  0.4900  0.2638 -0.5471
  816MPD2    C212008   3.635   2.907  17.656  0.9527  0.4848  0.0369
  816MPD2    C312009   3.658   2.773  17.631  0.7299 -0.5171  0.3752
  816MPD2    C412010   3.556   2.684  17.646  0.4907  0.1259 -0.3526
  816MPD2    C512011   3.431   2.731  17.678 -0.2361  0.6951 -0.7937
  816MPD2     H12012   3.713   2.981  17.647  1.0610  0.2333 -1.1380
  816MPD2    H112013   3.565   2.576  17.637 -1.6762 -0.0969 -0.0174
  816MPD2    H212014   3.298   2.893  17.693 -1.1098 -1.4475 -0.3694
  816MPD2    H312015   3.347   2.663  17.685  1.2705 -1.1908 -0.8276
  816MPD2     N12016   3.786   2.742  17.586  0.5102 -0.2663  0.0292
  816MPD2    H512017   3.848   2.819  17.563  1.3913 -1.0729 -0.3042
  816MPD2    N112018   3.471   3.077   0.029 -0.2973  0.5152 -0.3498
  816MPD2    H712019   3.378   3.088   0.069 -0.9318 -1.4181 -1.2894
  817MPD2     C12020   2.505   0.348   9.472 -0.2611  0.2829 -0.6831
  817MPD2    C112021   2.470   0.279   9.359 -0.2899 -0.1200 -0.1858
  817MPD2    C212022   2.360   0.313   9.279 -0.5113 -0.1477 -0.4082
  817MPD2    C312023   2.291   0.424   9.312  0.5961  0.3556  0.2943
  817MPD2    C412024   2.325   0.499   9.418  0.0489 -0.2732  0.2937
  817MPD2    C512025   2.433   0.463   9.496 -0.2687  0.5907 -0.7006
  817MPD2     H12026   2.341   0.256   9.189 -1.5608  1.1463 -0.9942
  817MPD2    H112027   2.268   0.589   9.438  0.8707  0.4445 -0.6195
  817MPD2    H212028   2.589   0.326   9.537  0.4470  1.2234 -1.2896
  817MPD2    H312029   2.466   0.513   9.587  0.5359 -0.8301 -0.2098
  817MPD2     N12030   2.180   0.460   9.220  0.0498  0.2713 -0.0813
  817MPD2    H512031   2.167   0.395   9.143  3.2833 -1.3927  0.7992
  817MPD2    N112032   2.533   0.155   9.331  0.6798 -0.8391 -0.0106
  817MPD2    H712033   2.510   0.100   9.248  2.3656 -1.3425 -0.1282
  818MPD2     C12034   0.769   4.646   9.839  0.8072 -0.1987 -0.0491
  818MPD2    C112035   0.886   4.580   9.862 -0.5869 -0.2741 -0.0269
  818MPD2    C212036   0.928   4.481   9.775  0.2793  0.4197  0.7984
  818MPD2    C312037   0.861   4.459   9.655 -1.1343 -0.4529  0.1129
  818MPD2    C412038   0.745   4.532   9.625 -0.1642 -0.1072  0.0125
  818MPD2    C512039   0.703   4.626   9.719 -1.1351  0.8717 -0.3022
  818MPD2     H12040   1.021   4.430   9.799 -1.2941 -2.5012  0.7034
  818MPD2    H112041   0.701   4.517   9.527  1.5704 -0.1352 -0.7623
  818MPD2    H212042   0.729   4.721   9.906  1.5268 -1.4283  1.7328
  818MPD2    H312043   0.617   4.684   9.688 -2.1013 -0.7597 -0.6972
  818MPD2     N12044   0.913   4.366   9.563 -0.2066 -0.8220 -0.0763
  818MPD2    H512045   0.863   4.350   9.476  0.7698  0.4776 -0.8695
  818MPD2    N112046   0.976   4.614   9.971 -0.7152 -0.2517 -0.4979
  818MPD2    H712047   1.046   4.547  10.000  0.3813  1.1292  0.0787
  819MPD2     C12048   0.177   1.633  15.603 -0.0645  0.5954  0.4425
  819MPD2    C112049   0.217   1.509  15.550 -0.0544 -0.0863  0.8576
  819MPD2    C212050   0.349   1.460  15.552  0.6345 -0.4185  0.2119
  819MPD2    C312051   0.443   1.530  15.623  0.2172  0.2850 -0.0846
  819MPD2    C412052   0.404   1.651  15.680 -0.1642  0.5861 -0.9343
  819MPD2    C512053   0.280   1.703  15.666  0.0083 -0.1050 -0.0127
  819MPD2     H12054   0.381   1.368  15.504  0.7433 -0.5433  0.5209
  819MPD2    H112055   0.481   1.705  15.734 -0.7115 -0.7774  1.2421
  819MPD2    H212056   0.083   1.684  15.584  1.1384  2.3571 -0.8030
  819MPD2    H312057   0.267   1.808  15.692  0.7801 -0.5195  2.0779
  819MPD2     N12058   0.577   1.474  15.631  0.1062  0.3546 -0.0471
  819MPD2    H512059   0.602   1.414  15.553 -2.9178 -0.5900 -0.2959
  819MPD2    N112060   0.109   1.442  15.490  0.0166  0.5940  0.1043
  819MPD2    H712061   0.030   1.501  15.466 -1.7422 -0.8089  2.4082
  820MPD2     C12062   3.994   1.670  15.057 -0.7055  0.3368  0.3478
  820MPD2    C112063   4.109   1.728  15.107  0.4776  0.6833  0.3377
  820MPD2    C212064   4.212   1.643  15.158  0.1376 -0.1533 -0.3946
  820MPD2    C312065   4.199   1.506  15.180 -0.1936 -0.6000 -0.6134
  820MPD2    C412066   4.076   1.454  15.141 -0.2305  0.0276 -0.5069
  820MPD2    C512067   3.986   1.534  15.072 -0.3434  0.2795  0.9982
  820MPD2     H12068   4.309   1.681  15.189  0.5329 -1.1442 -0.4156
  820MPD2    H112069   4.060   1.347  15.140 -1.4329  0.1781  2.3877
  820MPD2    H212070   3.911   1.729  15.018 -0.0849  0.9402 -0.0648
  820MPD2    H312071   3.902   1.481  15.030 -0.2426  0.4653  0.5687
  820MPD2     N12072   4.297   1.420  15.236  0.5122 -0.3818 -0.3874
  820MPD2    H512073   4.263   1.335  15.279 -0.7508 -0.3398 -1.3229
  820MPD2    N112074   4.113   1.868  15.107  0.3758 -0.1088 -0.1157
  820MPD2    H712075   4.031   1.915  15.071 -0.0734 -2.1194 -1.7155
  821MPD2     C12076   4.166   3.180  12.591 -0.6154  0.1226  0.0566
  821MPD2    C112077   4.283   3.123  12.626  0.6055  0.2650  0.5959
  821MPD2    C212078   4.397   3.177  12.575  0.7901 -0.0545 -1.0180
  821MPD2    C312079   4.397   3.284  12.490  0.3641  0.6185  0.5142
  821MPD2    C412080   4.276   3.341  12.458  0.0745  0.3570  0.6051
  821MPD2    C512081   4.160   3.293  12.509 -0.0694 -0.1131 -0.1974
  821MPD2     H12082   4.488   3.119  12.579  0.7916 -0.2364 -3.4367
  821MPD2    H112083   4.273   3.432  12.400  0.3596 -0.1390 -0.1927
  821MPD2    H212084   4.067   3.150  12.622 -0.7398  3.0039  2.4111
  821MPD2    H312085   4.070   3.352  12.496 -0.4224 -0.5480  0.3140
  821MPD2     N12086   4.510   3.335  12.428  0.1903 -0.2653  0.4413
  821MPD2    H512087   4.500   3.413  12.364  1.6021 -0.9255 -0.5787
  821MPD2    N112088   4.300   2.997  12.684 -0.1906 -0.3791  0.4813
  821MPD2    H712089   4.390   2.952  12.676  0.4512  0.9067  0.4900
  822MPD2     C12090   0.667   2.781  15.772  0.3761 -0.1399 -0.5942
  822MPD2    C112091   0.752   2.819  15.871  0.2495 -0.3860  0.4822
  822MPD2    C212092   0.711   2.930  15.950  0.4576  0.2324  0.3819
  822MPD2    C312093   0.592   2.991  15.930 -0.5748  0.0817  0.2034
  822MPD2    C412094   0.521   2.955  15.820  0.3894 -0.1780  0.1483
  822MPD2    C512095   0.563   2.853  15.741  0.4212 -0.9953 -0.1056
  822MPD2     H12096   0.769   2.952  16.039  0.1331 -3.3462  1.4595
  822MPD2    H112097   0.422   2.990  15.794  0.4087  0.5897  1.1214
  822MPD2    H212098   0.681   2.703  15.698 -1.7836 -1.1387  0.0518
  822MPD2    H312099   0.498   2.821  15.660  2.1785 -2.2602 -1.0093
  822MPD2     N12100   0.538   3.095  16.010  0.2153  0.8811  0.1586
  822MPD2    H512101   0.449   3.139  15.987  0.6875  1.1823 -1.0844
  822MPD2    N112102   0.873   2.752  15.894 -0.0997 -0.8673  0.4753
  822MPD2    H712103   0.929   2.787  15.971  0.1203  1.2969 -0.6827
  823MPD2     C12104   0.461   3.199  16.875 -0.2902 -0.5183  0.5327
  823MPD2    C112105   0.451   3.125  16.755 -0.2014  1.2003  0.2507
  823MPD2    C212106   0.480   2.987  16.751  0.1078 -0.2980 -0.0243
  823MPD2    C312107   0.511   2.925  16.876 -0.5769  0.3524  0.0302
  823MPD2    C412108   0.496   2.999  16.999 -0.3846  0.6429 -0.4195
  823MPD2    C512109   0.472   3.131  16.998 -0.0674 -0.3426 -0.1787
  823MPD2     H12110   0.482   2.933  16.657 -0.2775  1.3354 -0.9754
  823MPD2    H112111   0.519   2.955  17.095 -2.6962  1.5731  0.5649
  823MPD2    H212112   0.439   3.305  16.875  0.4763 -0.3697  1.7671
  823MPD2    H312113   0.472   3.179  17.095 -1.3620 -1.4895  0.3763
  823MPD2     N12114   0.561   2.796  16.883 -0.0647 -0.2442 -0.9966
  823MPD2    H512115   0.591   2.773  16.978 -0.9816  0.2991 -0.5763
  823MPD2    N112116   0.432   3.204  16.636  0.5939 -0.0706  0.1469
  823MPD2    H712117   0.428   3.306  16.636 -0.8639 -0.1085 -2.2003
  824MPD2     C12118   1.104   2.064  15.608 -0.2594 -0.0216  0.9081
  824MPD2    C112119   1.208   2.137  15.652 -0.1663  0.4285 -0.1626
  824MPD2    C212120   1.335   2.104  15.607 -0.0535 -0.4802  0.0495
  824MPD2    C312121   1.358   1.997  15.520  0.1222  0.5066 -0.2110
  824MPD2    C412122   1.248   1.921  15.479  0.6143  0.2581 -0.1774
  824MPD2    C512123   1.125   1.957  15.522 -0.6477  0.5489  0.8058
  824MPD2     H12124   1.423   2.161  15.635 -0.6672  0.9190 -0.8579
  824MPD2    H112125   1.269   1.839  15.412 -2.4312  2.7110 -4.1117
  824MPD2    H212126   1.007   2.087  15.650 -1.6119 -1.7901 -1.2518
  824MPD2    H312127   1.039   1.903  15.484  0.6200 -0.3734 -0.6999
  824MPD2     N12128   1.484   1.973  15.477  0.1218 -0.0429 -0.5869
  824MPD2    H512129   1.559   2.041  15.491  0.6670 -0.9366  0.8116
  824MPD2    N112130   1.169   2.234  15.746 -0.4428 -0.0702  0.6542
  824MPD2    H712131   1.069   2.232  15.761 -0.1298 -3.1347  2.4109
  825MPD2     C12132   2.117   1.875  14.907  0.2088 -0.5355  0.4471
  825MPD2    C112133   2.066   1.971  14.993 -0.2148  0.4385  0.9117
  825MPD2    C212134   2.087   2.106  14.972 -0.2876 -0.1790  0.4064
  825MPD2    C312135   2.140   2.149  14.857 -0.2115  0.5397 -0.5447
  825MPD2    C412136   2.173   2.056  14.762 -0.3759 -0.9162  0.7029
  825MPD2    C512137   2.181   1.922  14.793 -0.3853 -0.4050 -0.2221
  825MPD2     H12138   2.044   2.174  15.044  0.3540  3.6529 -2.8015
  825MPD2    H112139   2.214   2.076  14.663 -0.4119 -0.2312  0.8245
  825MPD2    H212140   2.107   1.769  14.924  0.3509 -1.0379 -2.5957
  825MPD2    H312141   2.215   1.862  14.709 -2.2347  0.9263 -1.9193
  825MPD2     N12142   2.144   2.284  14.823 -1.1004  0.0885  0.2591
  825MPD2    H512143   2.159   2.316  14.728 -0.7213 -0.6126  0.0789
  825MPD2    N112144   2.003   1.920  15.111  0.2445  0.3414  0.2245
  825MPD2    H712145   2.003   1.819  15.120 -0.1450  0.3998  0.9606
  826MPD2     C12146   1.591   2.263  13.209  0.4767  0.1230 -0.0652
  826MPD2    C112147   1.460   2.246  13.174  0.6980  1.1313  0.0310
  826MPD2    C212148   1.383   2.361  13.166 -0.2762  0.1125  0.1612
  826MPD2    C312149   1.424   2.482  13.213 -0.1095  0.5476  0.2147
  826MPD2    C412150   1.564   2.496  13.240 -0.9472 -0.2460  0.1246
  826MPD2    C512151   1.639   2.390  13.225 -0.1514 -0.0644  0.3927
  826MPD2     H12152   1.280   2.357  13.131 -0.1152  0.9686 -0.4207
  826MPD2    H112153   1.611   2.587  13.275 -1.2901  0.8194 -2.1948
  826MPD2    H212154   1.669   2.187  13.210  0.8594  0.5193  0.0441
  826MPD2    H312155   1.745   2.413  13.237 -1.3544  5.0372  1.1792
  826MPD2     N12156   1.340   2.599  13.236 -0.5827  0.6526  0.5062
  826MPD2    H512157   1.386   2.685  13.264 -0.1354  1.1686 -1.7817
  826MPD2    N112158   1.412   2.119  13.145 -0.6943  0.0599  0.2361
  826MPD2    H712159   1.470   2.038  13.162 -0.4195  0.6256  2.0002
  827MPD2     C12160   1.740   3.810   9.476  0.2567 -0.0123 -0.1388
  827MPD2    C112161   1.784   3.678   9.505 -0.4770 -0.7927  0.5022
  827MPD2    C212162   1.732   3.569   9.436  0.1675  0.2305  0.1924
  827MPD2    C312163   1.635   3.592   9.338  0.2335 -0.0587 -0.5265
  827MPD2    C412164   1.596   3.722   9.309 -0.3433 -0.2962 -0.0861
  827MPD2    C512165   1.644   3.830   9.382  0.4743 -0.7481 -0.1812
  827MPD2     H12166   1.754   3.465   9.456  3.3753  0.7908 -0.4068
  827MPD2    H112167   1.515   3.747   9.242  1.6634 -2.1468 -3.1715
  827MPD2    H212168   1.781   3.891   9.534 -0.4281  0.5420 -0.4216
  827MPD2    H312169   1.611   3.932   9.369  2.9556 -0.3566 -3.6428
  827MPD2     N12170   1.584   3.473   9.270 -0.1260  0.1519  0.4694
  827MPD2    H512171   1.599   3.384   9.317 -0.2303 -0.4673 -0.6688
  827MPD2    N112172   1.884   3.656   9.610 -0.0151 -0.1278  0.4846
  827MPD2    H712173   1.917   3.736   9.664  0.5002 -0.0444  0.0362
  828MPD2     C12174   0.458   3.141  12.078 -0.4487  0.6475  0.1354
  828MPD2    C112175   0.449   3.166  11.939 -0.5433  0.0236  0.7414
  828MPD2    C212176   0.559   3.144  11.860  0.1853 -0.1672  0.6268
  828MPD2    C312177   0.684   3.123  11.921  0.4340 -0.2018 -0.1019
  828MPD2    C412178   0.691   3.123  12.061  0.1244 -0.1689 -0.3607
  828MPD2    C512179   0.579   3.118  12.135 -0.2884 -0.0831  0.4636
  828MPD2     H12180   0.552   3.155  11.752 -1.1913 -0.2266  0.7085
  828MPD2    H112181   0.790   3.121  12.105  0.5670 -2.4148 -1.4530
  828MPD2    H212182   0.374   3.154  12.144 -1.7213 -2.0185 -0.9483
  828MPD2    H312183   0.589   3.104  12.242  3.7005 -1.5492 -0.1012
  828MPD2     N12184   0.806   3.116  11.847  0.1220  0.4049  0.4045
  828MPD2    H512185   0.893   3.133  11.897 -0.2939 -0.8990  1.5586
  828MPD2    N112186   0.329   3.196  11.872 -0.5270 -0.0702  0.2624
  828MPD2    H712187   0.338   3.207  11.771 -2.0908 -1.2220 -0.0062
  829MPD2     C12188   0.374   3.545  11.116  0.4081  0.1633 -0.1245
  829MPD2    C112189   0.239   3.574  11.140  0.1913 -0.4905  0.4837
  829MPD2    C212190   0.177   3.540  11.255  0.3680  0.7957  0.0880
  829MPD2    C312191   0.246   3.457  11.343  0.0434 -0.0369  0.7747
  829MPD2    C412192   0.377   3.420  11.306  0.3588  0.6930 -0.5620
  829MPD2    C512193   0.443   3.480  11.202  0.4704 -0.1203 -0.2326
  829MPD2     H12194   0.082   3.585  11.279 -0.5942 -0.8525 -0.6474
  829MPD2    H112195   0.436   3.359  11.373 -0.4662  0.0727 -0.4058
  829MPD2    H212196   0.428   3.601  11.040 -0.1464  1.6807  0.5951
  829MPD2    H312197   0.546   3.475  11.167  0.4522 -0.5328 -0.2216
  829MPD2     N12198   0.191   3.396  11.463 -0.1291 -0.5545  0.3677
  829MPD2    H512199   0.248   3.328  11.513  0.1654  0.1085  0.9453
  829MPD2    N112200   0.180   3.648  11.035 -0.3140 -0.0636  0.0327
  829MPD2    H712201   0.241   3.663  10.955  0.3386 -0.2754  0.4884
  830MPD2     C12202   0.824   1.271  15.132 -0.0202 -0.1539  0.0250
  830MPD2    C112203   0.933   1.285  15.217 -0.6970  0.1511  0.7014
  830MPD2    C212204   1.045   1.354  15.174  0.2306  0.0103  0.1672
  830MPD2    C312205   1.055   1.393  15.036  0.0344  0.6033  0.4780
  830MPD2    C412206   0.957   1.347  14.950  0.2534 -0.2510 -1.0240
  830MPD2    C512207   0.842   1.293  15.002  0.3951  0.5523  0.5108
  830MPD2     H12208   1.127   1.385  15.237 -1.3776 -1.3530  2.9777
  830MPD2    H112209   0.961   1.360  14.842  0.4705 -0.8812 -1.0914
  830MPD2    H212210   0.726   1.234  15.159  0.4229 -0.9162  0.5817
  830MPD2    H312211   0.763   1.267  14.933  2.0361 -1.5442 -0.5714
  830MPD2     N12212   1.158   1.472  14.978 -0.4657  0.3799 -0.3615
  830MPD2    H512213   1.151   1.499  14.880  1.5467 -0.4544 -0.7236
  830MPD2    N112214   0.900   1.262  15.357  0.0821  0.0170 -0.1766
  830MPD2    H712215   0.808   1.222  15.375  1.3278 -2.7674 -0.0381
  831MPD2     C12216   0.931   3.153  16.399 -0.1112 -0.6359  0.7874
  831MPD2    C112217   0.940   3.071  16.292  0.1357  0.2390  0.3720
  831MPD2    C212218   0.855   2.953  16.283 -0.0914  0.0783  0.0547
  831MPD2    C312219   0.759   2.937  16.383  0.2423  0.4718 -0.2500
  831MPD2    C412220   0.756   3.024  16.495 -0.1557  0.4641 -0.1999
  831MPD2    C512221   0.851   3.127  16.510  0.1928 -0.9060 -0.0864
  831MPD2     H12222   0.863   2.879  16.205  3.4212 -1.0636  1.5036
  831MPD2    H112223   0.703   2.999  16.586 -1.2401 -0.2249 -1.0199
  831MPD2    H212224   0.989   3.244  16.398  2.2806 -2.1757 -1.6247
  831MPD2    H312225   0.846   3.194  16.595  2.8559 -0.8743  0.0568
  831MPD2     N12226   0.644   2.854  16.366  1.0994 -0.6090 -0.0073
  831MPD2    H512227   0.559   2.880  16.415  1.7936 -1.9178  1.9136
  831MPD2    N112228   1.030   3.091  16.189 -0.6267 -0.0775  0.4452
  831MPD2    H712229   1.083   3.177  16.192  0.1718 -0.6095  1.8462
  832MPD2     C12230   4.307   4.027  17.306  0.0333 -0.6056  0.0971
  832MPD2    C112231   4.282   3.898  17.358  0.4158 -0.5340  0.2669
  832MPD2    C212232   4.204   3.814  17.281 -0.2356 -0.0051  1.0920
  832MPD2    C312233   4.162   3.852  17.154 -0.0761  0.4623  0.1241
  832MPD2    C412234   4.183   3.982  17.111  0.2115 -0.4859 -0.4348
  832MPD2    C512235   4.259   4.068  17.185  0.2378  0.8479  0.6737
  832MPD2     H12236   4.197   3.706  17.296  0.7998 -0.1032  0.9064
  832MPD2    H112237   4.127   4.018  17.025  0.2795 -0.4830 -0.4775
  832MPD2    H212238   4.363   4.099  17.364 -0.3185  1.3880 -2.0341
  832MPD2    H312239   4.273   4.167  17.143  1.2916  0.8266  0.9837
  832MPD2     N12240   4.087   3.772  17.067  0.2617 -0.1681 -0.2002
  832MPD2    H512241   4.048   3.810  16.981 -2.9430 -0.1041  1.3043
  832MPD2    N112242   4.306   3.867  17.494 -1.0619 -0.4663 -0.5049
  832MPD2    H712243   4.362   3.936  17.543  1.6260 -4.2608  1.8235
  833MPD2     C12244   1.489   0.615  12.683  0.4240 -0.3837 -0.2076
  833MPD2    C112245   1.526   0.693  12.584 -0.2517  0.4427 -0.2205
  833MPD2    C212246   1.621   0.652  12.490 -0.9725 -0.2746 -0.6126
  833MPD2    C312247   1.666   0.517  12.489 -0.1612 -0.3325 -0.4255
  833MPD2    C412248   1.634   0.443  12.599  0.0590 -0.2446  0.1752
  833MPD2    C512249   1.545   0.487  12.693  0.7051 -0.3615 -0.2173
  833MPD2     H12250   1.656   0.719  12.413  1.0635 -2.7270 -1.8286
  833MPD2    H112251   1.673   0.344  12.620 -1.9451 -0.8218  1.1523
  833MPD2    H212252   1.408   0.634  12.752  1.5953  1.2989  0.6721
  833MPD2    H312253   1.530   0.430  12.785 -2.4233  0.0000 -0.5082
  833MPD2     N12254   1.743   0.458  12.389 -0.1581  0.3472  0.9296
  833MPD2    H512255   1.770   0.361  12.404  0.3035  0.0639 -1.6945
  833MPD2    N112256   1.472   0.827  12.567  0.0920  0.2509 -0.5818
  833MPD2    H712257   1.383   0.844  12.614 -0.0540 -0.5616 -0.5667
  834MPD2     C12258   1.464   4.464  11.744 -0.4773 -0.0701  0.6131
  834MPD2    C112259   1.428   4.578  11.674  0.0220  0.7183 -0.1993
  834MPD2    C212260   1.458   4.701  11.732 -0.0482 -0.2467 -0.4054
  834MPD2    C312261   1.529   4.710  11.851  0.2664  0.3646 -0.4418
  834MPD2    C412262   1.568   4.596  11.911 -0.3272 -0.9384  0.0434
  834MPD2    C512263   1.535   4.476  11.857 -0.4067 -0.6177 -0.3934
  834MPD2     H12264   1.427   0.067  11.682 -1.3748 -0.8522 -0.6730
  834MPD2    H112265   1.628   4.592  12.001 -0.3764 -1.6859  0.0439
  834MPD2    H212266   1.433   4.364  11.716  2.3376 -0.7985  0.1606
  834MPD2    H312267   1.564   4.384  11.907 -1.9930 -0.7656  0.2635
  834MPD2     N12268   1.581   0.113  11.892 -0.0904 -0.0978  0.0693
  834MPD2    H512269   1.571   0.196  11.835  0.6198  0.5334  0.8774
  834MPD2    N112270   1.348   4.566  11.556 -0.7790 -0.5007 -0.2458
  834MPD2    H712271   1.315   4.471  11.540 -0.9001 -0.1550 -2.0713
  835MPD2     C12272   1.371   3.645  10.635  0.1712 -0.1897  0.0924
  835MPD2    C112273   1.240   3.685  10.607 -0.3250  0.0277 -0.0797
  835MPD2    C212274   1.145   3.671  10.703  0.1199  0.3534  0.3846
  835MPD2    C312275   1.184   3.625  10.830  0.5993 -0.5435 -0.7211
  835MPD2    C412276   1.313   3.573  10.844 -0.2356 -0.1566  0.4175
  835MPD2    C512277   1.408   3.602  10.757 -0.9233 -0.4226  0.0828
  835MPD2     H12278   1.048   3.712  10.678 -0.9871 -0.9675  2.4567
  835MPD2    H112279   1.339   3.542  10.944  0.8110  2.7656  1.0286
  835MPD2    H212280   1.447   3.644  10.559 -0.9838  1.0031 -1.0723
  835MPD2    H312281   1.512   3.577  10.777 -0.8933 -0.8246 -0.6206
  835MPD2     N12282   1.095   3.622  10.943 -0.2816 -0.4925  0.2155
  835MPD2    H512283   1.131   3.587  11.031  1.9967  1.5458  0.0722
  835MPD2    N112284   1.206   3.769  10.498 -0.3584 -0.0801 -0.8436
  835MPD2    H712285   1.114   3.812  10.503 -0.6681 -0.8301 -0.1301
  836MPD2     C12286   0.403   4.048  10.965 -0.2859  0.0107  0.0691
  836MPD2    C112287   0.405   3.957  11.064 -0.2083  0.4573  0.4114
  836MPD2    C212288   0.296   3.948  11.149  0.1667 -0.8314 -0.8272
  836MPD2    C312289   0.185   4.026  11.126 -0.3985 -0.2736 -0.5597
  836MPD2    C412290   0.174   4.108  11.019  0.0117 -0.0561  0.1525
  836MPD2    C512291   0.291   4.122  10.942 -0.6651 -0.3807  0.0654
  836MPD2     H12292   0.292   3.868  11.222 -1.8367  1.4539  1.5556
  836MPD2    H112293   0.090   4.174  11.000 -0.3870 -0.7299 -0.4418
  836MPD2    H212294   0.481   4.063  10.891 -1.0441 -1.5173 -1.0503
  836MPD2    H312295   0.289   4.186  10.855  0.5675 -0.8579 -0.3133
  836MPD2     N12296   0.068   4.019  11.201 -0.2473 -0.4390  0.5979
  836MPD2    H512297   4.711   4.071  11.169  0.3058 -1.5976 -2.7488
  836MPD2    N112298   0.529   3.888  11.080  0.1810  0.1712 -0.0602
  836MPD2    H712299   0.596   3.883  11.004  0.3548 -1.8842  0.2087
  837MPD2     C12300   3.948   3.323   9.681  0.0746 -0.9226  0.7654
  837MPD2    C112301   3.837   3.395   9.623  0.4564  0.0094 -0.5728
  837MPD2    C212302   3.825   3.529   9.642  0.4077  0.2906  0.8677
  837MPD2    C312303   3.907   3.603   9.721 -0.1152 -1.0111 -0.6493
  837MPD2    C412304   3.999   3.531   9.797 -0.5419 -0.1257 -0.2439
  837MPD2    C512305   4.023   3.396   9.763 -0.8063 -0.1153  0.0617
  837MPD2     H12306   3.741   3.580   9.596 -0.0572 -0.7378  0.5676
  837MPD2    H112307   4.083   3.580   9.846 -0.4118  1.9142 -2.4868
  837MPD2    H212308   3.969   3.221   9.652 -1.5772 -1.2704  0.7910
  837MPD2    H312309   4.115   3.355   9.802 -0.2119  2.0808  0.9192
  837MPD2     N12310   3.886   3.746   9.728 -0.0642  0.0401 -0.2385
  837MPD2    H512311   3.824   3.783   9.657  0.2025 -0.7911 -0.9116
  837MPD2    N112312   3.724   3.334   9.557 -0.5205  0.0079  0.1696
  837MPD2    H712313   3.667   3.403   9.509 -0.7781  0.7876  1.5892
  838MPD2     C12314   2.119   1.252  11.038  0.1222 -0.7543 -0.6874
  838MPD2    C112315   2.134   1.332  11.144 -0.8454  0.5305 -0.6838
  838MPD2    C212316   2.065   1.307  11.258 -0.3729 -0.2531  0.4857
  838MPD2    C312317   1.988   1.196  11.262 -0.4295  0.1264 -0.0202
  838MPD2    C412318   1.973   1.107  11.154 -0.5127  0.1426  0.0197
  838MPD2    C512319   2.042   1.134  11.035 -0.0339 -0.5999  0.4943
  838MPD2     H12320   2.078   1.376  11.341  1.6324 -1.1139  0.8855
  838MPD2    H112321   1.911   1.019  11.163 -2.4121  1.3839 -0.6468
  838MPD2    H212322   2.167   1.276  10.943  1.9292 -1.6525 -0.0005
  838MPD2    H312323   2.036   1.067  10.950 -1.7452  0.2005 -0.0248
  838MPD2     N12324   1.942   1.167  11.392 -0.8021  0.5663 -0.1715
  838MPD2    H512325   1.948   1.239  11.463 -0.0857 -1.6294  1.9982
  838MPD2    N112326   2.222   1.436  11.152 -0.0403 -1.0487  0.0439
  838MPD2    H712327   2.216   1.494  11.235  0.0020 -0.1625 -0.5628
  839MPD2     C12328   2.232   1.176  11.585 -0.1158 -0.5913 -0.3772
  839MPD2    C112329   2.300   1.134  11.473  0.3965 -0.0667 -0.4430
  839MPD2    C212330   2.403   1.216  11.421  0.3677  0.5595 -0.5090
  839MPD2    C312331   2.446   1.328  11.489 -0.0438  0.6100 -0.6149
  839MPD2    C412332   2.386   1.357  11.618  0.1920 -0.4457  0.0248
  839MPD2    C512333   2.277   1.289  11.655 -0.3561  0.0454  0.3114
  839MPD2     H12334   2.442   1.192  11.322 -1.1143 -0.0121 -0.9579
  839MPD2    H112335   2.416   1.450  11.666 -0.8027 -0.0882 -0.0302
  839MPD2    H212336   2.144   1.125  11.622 -0.8236  1.3650  0.6212
  839MPD2    H312337   2.218   1.322  11.740 -2.0817 -0.2824 -0.7467
  839MPD2     N12338   2.519   1.421  11.407 -0.0791  0.4169  0.2518
  839MPD2    H512339   2.546   1.382  11.317  1.2446 -1.1634  1.3316
  839MPD2    N112340   2.259   1.016  11.400 -0.5300  0.2309  0.7311
  839MPD2    H712341   2.312   0.996  11.315  1.1322  1.5410  1.4486
  840MPD2     C12342   2.281   4.088   9.804  0.2785  0.1720  0.0613
  840MPD2    C112343   2.284   3.996   9.902  0.1285  0.3479 -0.1083
  840MPD2    C212344   2.380   4.013  10.002 -0.1962 -0.1983 -0.3357
  840MPD2    C312345   2.463   4.124  10.009  0.3582 -0.4250 -0.5035
  840MPD2    C412346   2.454   4.217   9.907  0.4218 -0.0148  0.6746
  840MPD2    C512347   2.362   4.199   9.813 -0.1907 -0.3181  0.0006
  840MPD2     H12348   2.391   3.924  10.063  0.7416  0.3056  0.2222
  840MPD2    H112349   2.524   4.299   9.915 -0.2840  0.4800  1.9144
  840MPD2    H212350   2.215   4.093   9.718  0.7639  1.0518 -0.2627
  840MPD2    H312351   2.352   4.268   9.730 -1.3358  0.2217  0.5886
  840MPD2     N12352   2.567   4.146  10.102 -0.2323 -0.2956 -0.2565
  840MPD2    H512353   2.610   4.236  10.083 -2.3243  0.9576  0.9138
  840MPD2    N112354   2.208   3.882   9.883  0.5499 -0.1413  0.2720
  840MPD2    H712355   2.153   3.872   9.798  1.1060 -0.9621  0.0100
  841MPD2     C12356   2.613   3.399  14.421  0.2288  0.2274  0.0677
  841MPD2    C112357   2.663   3.269  14.404 -0.1544 -0.4079 -0.3891
  841MPD2    C212358   2.779   3.234  14.466 -0.7926  0.7475 -0.3995
  841MPD2    C312359   2.844   3.330  14.542  0.0121  0.0389  0.2581
  841MPD2    C412360   2.792   3.462  14.555 -0.3342  0.3935 -0.0559
  841MPD2    C512361   2.675   3.494  14.492 -0.8400  0.1819  0.0894
  841MPD2     H12362   2.823   3.136  14.449 -0.9991  0.5134  0.4540
  841MPD2    H112363   2.842   3.538  14.614 -0.6496  0.8674 -0.3951
  841MPD2    H212364   2.530   3.433  14.361 -1.3422 -0.9216  1.6000
  841MPD2    H312365   2.638   3.596  14.495  2.4945  1.3880  0.2373
  841MPD2     N12366   2.969   3.292  14.602 -0.9965  0.3534 -0.2986
  841MPD2    H512367   2.997   3.194  14.612  1.1757  0.9438 -0.4657
  841MPD2    N112368   2.601   3.167  14.327  0.6830 -0.0211 -0.3146
  841MPD2    H712369   2.644   3.076  14.326  0.4256 -0.1443  0.5275
  842MPD2     C12370   3.135   3.707  17.556 -0.4251  0.0464 -0.5868
  842MPD2    C112371   3.096   3.793  17.458 -0.3780 -0.2805  0.2907
  842MPD2    C212372   3.095   3.933  17.479  0.2868  0.1147 -0.0844
  842MPD2    C312373   3.125   3.985  17.604 -0.0343 -0.1210  0.1046
  842MPD2    C412374   3.154   3.896   0.005 -0.4940 -0.0100 -0.4198
  842MPD2    C512375   3.149   3.761  17.682  0.8026  0.3042 -0.4571
  842MPD2     H12376   3.086   3.998  17.393 -0.0856  0.6878  0.3879
  842MPD2    H112377   3.167   3.936   0.105  1.5977 -1.6395 -0.0427
  842MPD2    H212378   3.120   3.601  17.543  2.9088 -0.4504 -0.5564
  842MPD2    H312379   3.165   3.701   0.073  0.4850  0.6055 -0.1989
  842MPD2     N12380   3.124   4.122  17.629  0.4919 -0.0738  0.0151
  842MPD2    H512381   3.146   4.159   0.023  0.5360 -0.0816  0.0077
  842MPD2    N112382   3.058   3.741  17.325  0.2044  0.3846 -0.1572
  842MPD2    H712383   3.048   3.641  17.313  1.1438  0.3892 -0.9722
  843MPD2     C12384   0.585   0.472  17.567 -0.1514 -0.0565 -0.6034
  843MPD2    C112385   0.649   0.395  17.657  0.4290  0.5464 -0.1730
  843MPD2    C212386   0.777   0.429  17.698  0.5615  0.3548  0.0508
  843MPD2    C312387   0.835   0.539  17.641  0.4197  0.3236 -0.0522
  843MPD2    C412388   0.770   0.612  17.542  0.0048 -0.4643  0.0803
  843MPD2    C512389   0.641   0.585  17.508 -0.2935  0.2533  0.1292
  843MPD2     H12390   0.834   0.367   0.068 -0.6836  1.8031  2.4204
  843MPD2    H112391   0.822   0.698  17.502 -0.1226 -0.4106  0.0304
  843MPD2    H212392   0.490   0.443  17.524  0.2076  0.0895 -1.5024
  843MPD2    H312393   0.592   0.640  17.429  0.5006  1.4879  0.4965
  843MPD2     N12394   0.965   0.583  17.680 -0.0531  0.0185 -0.2330
  843MPD2    H512395   0.999   0.669  17.639 -1.3682  0.9631  0.6369
  843MPD2    N112396   0.591   0.280   0.013 -0.0506 -0.1359 -0.3036
  843MPD2    H712397   0.501   0.254  17.670  0.4103 -1.6128 -0.3872
  844MPD2     C12398   4.075   3.801  16.560  0.3118 -0.1007 -0.1124
  844MPD2    C112399   4.119   3.673  16.574  0.8473 -0.1639  0.1910
  844MPD2    C212400   4.229   3.661  16.657 -0.2033  0.6049 -0.2180
  844MPD2    C312401   4.278   3.770  16.730 -0.0222 -0.1973  0.3789
  844MPD2    C412402   4.216   3.890  16.713 -0.5431 -0.1613 -0.0486
  844MPD2    C512403   4.120   3.913  16.617  0.0445  0.0915 -0.4342
  844MPD2     H12404   4.267   3.561  16.677  2.4339  1.6324 -0.1487
  844MPD2    H112405   4.238   3.973  16.778 -3.1850 -0.9173  1.8310
  844MPD2    H212406   3.993   3.809  16.489 -0.3066 -1.0870  0.4862
  844MPD2    H312407   4.076   4.011  16.605  0.1968  0.6261  3.6378
  844MPD2     N12408   4.388   3.755  16.810 -0.2084 -0.6486 -0.6005
  844MPD2    H512409   4.420   3.660  16.830 -2.0087 -0.8685  1.2449
  844MPD2    N112410   4.047   3.565  16.517  0.0621 -0.0095  0.3947
  844MPD2    H712411   3.962   3.596  16.470 -0.1833 -1.1343  0.0798
  845MPD2     C12412   4.635   4.587  17.245  0.0280 -0.9300  0.5479
  845MPD2    C112413   4.531   4.543  17.163  0.3112  0.6215 -0.4289
  845MPD2    C212414   4.522   4.407  17.142 -0.1750  0.1435  0.6944
  845MPD2    C312415   4.619   4.315  17.187 -0.1775 -0.0349 -0.1488
  845MPD2    C412416   4.720   4.360  17.265  0.1213 -0.6166 -0.3140
  845MPD2    C512417   0.000   4.493  17.284  0.1710  0.8847  0.1674
  845MPD2     H12418   4.444   4.370  17.077  0.4189 -0.3325  0.2484
  845MPD2    H112419   0.085   4.300  17.284 -0.0940 -1.4801 -2.0816
  845MPD2    H212420   4.646   4.691  17.274  0.7905 -0.9033  0.1353
  845MPD2    H312421   0.091   4.525  17.334  0.2502 -0.9962  1.2274
  845MPD2     N12422   4.612   4.187  17.139 -0.4076  0.5403  0.5298
  845MPD2    H512423   4.545   4.162  17.067 -3.4210 -0.3931  3.6662
  845MPD2    N112424   4.435   4.631  17.110 -0.5774 -0.8772  0.4990
  845MPD2    H712425   4.368   4.584  17.050  2.0108 -2.0126 -1.5022
  846MPD2     C12426   0.820   0.261  13.490 -0.5417  0.0249  0.0527
  846MPD2    C112427   0.824   0.399  13.506  0.0312  0.3401  0.1062
  846MPD2    C212428   0.823   0.445  13.640 -0.0100 -0.0639  0.0139
  846MPD2    C312429   0.803   0.361  13.750  0.2179 -0.2999  0.4175
  846MPD2    C412430   0.803   0.226  13.728  0.5648  0.1294 -0.2079
  846MPD2    C512431   0.819   0.175  13.600 -0.3194  0.4890  0.4049
  846MPD2     H12432   0.828   0.552  13.659  0.1073 -0.0849  0.0999
  846MPD2    H112433   0.787   0.150  13.804 -1.6008  0.3469 -0.4692
  846MPD2    H212434   0.838   0.207  13.397 -0.1188  1.4455 -0.6869
  846MPD2    H312435   0.815   0.067  13.591  1.3533  0.5436 -0.9948
  846MPD2     N12436   0.793   0.427  13.876 -0.0382  0.5466  0.0992
  846MPD2    H512437   0.795   0.529  13.881  1.7504  0.5569 -0.8522
  846MPD2    N112438   0.842   0.492  13.402 -0.2535 -0.1685 -0.9648
  846MPD2    H712439   0.833   0.592  13.412  0.7621  0.1795 -3.4624
  847MPD2     C12440   0.915   1.739  13.748  0.0636  0.6081 -0.8507
  847MPD2    C112441   1.026   1.804  13.811  0.7813  0.2833 -0.1167
  847MPD2    C212442   1.135   1.727  13.847  0.1330  0.4621 -0.0274
  847MPD2    C312443   1.150   1.593  13.814  0.2116  0.5576 -0.4531
  847MPD2    C412444   1.042   1.532  13.754  0.7074 -0.5233  0.7316
  847MPD2    C512445   0.930   1.606  13.728 -0.8276  0.2379  0.6341
  847MPD2     H12446   1.215   1.780  13.898 -0.0587  0.4913  0.2433
  847MPD2    H112447   1.044   1.425  13.736 -2.7511 -0.0073 -2.5503
  847MPD2    H212448   0.821   1.779  13.711 -0.1158 -0.5638 -1.6640
  847MPD2    H312449   0.840   1.568  13.680 -0.9156  0.1163  0.8922
  847MPD2     N12450   1.264   1.534  13.867  0.1215 -0.1734  0.2029
  847MPD2    H512451   1.332   1.592  13.915  0.3296  1.0546 -1.5638
  847MPD2    N112452   1.020   1.941  13.857 -0.0349  0.3739  0.3020
  847MPD2    H712453   1.103   1.970  13.909  1.6508  0.0165 -2.1592
  848MPD2     C12454   3.513   3.664  16.450 -0.1042  0.5742 -0.5624
  848MPD2    C112455   3.582   3.742  16.538 -0.6871 -0.9277  0.5350
  848MPD2    C212456   3.578   3.880  16.529  0.4135  0.2111 -0.0750
  848MPD2    C312457   3.493   3.942  16.441 -0.0431  0.0619 -0.3940
  848MPD2    C412458   3.423   3.862  16.353 -0.2421  0.3886 -0.2471
  848MPD2    C512459   3.436   3.729  16.360  0.3337 -0.2684 -0.2101
  848MPD2     H12460   3.631   3.936  16.605 -2.3308  1.5218  0.8879
  848MPD2    H112461   3.368   3.908  16.271  0.5001  3.9851  1.2459
  848MPD2    H212462   3.512   3.556  16.451  0.3945  0.5833  1.0859
  848MPD2    H312463   3.381   3.666  16.291 -2.4696  0.4716  1.3485
  848MPD2     N12464   3.471   4.084  16.425  0.2688 -0.0352 -0.3905
  848MPD2    H512465   3.394   4.103  16.361  1.1067 -0.1892 -1.4580
  848MPD2    N112466   3.659   3.671  16.634 -0.8142 -0.0105 -0.2728
  848MPD2    H712467   3.639   3.572  16.649 -2.0248 -0.2797 -3.7372
  849MPD2     C12468   2.699   4.353  13.669 -0.7904  0.3604  0.1146
  849MPD2    C112469   2.819   4.294  13.683 -0.5582 -0.1905 -0.3829
  849MPD2    C212470   2.817   4.162  13.722 -0.0964 -0.3461  0.9276
  849MPD2    C312471   2.702   4.095  13.745  0.2241  0.5251 -0.1144
  849MPD2    C412472   2.585   4.146  13.703 -0.1843  0.1376  0.5849
  849MPD2    C512473   2.582   4.280  13.671 -0.2705  0.8335  0.3693
  849MPD2     H12474   2.908   4.105  13.730 -0.7727 -1.4603  0.7183
  849MPD2    H112475   2.496   4.084  13.704  0.4818 -0.7794  2.7778
  849MPD2    H212476   2.694   4.458  13.641 -0.2821 -0.0403 -1.4137
  849MPD2    H312477   2.488   4.330  13.651 -1.6238 -1.1191  1.8287
  849MPD2     N12478   2.722   3.961  13.801  0.7904 -0.2748  0.1901
  849MPD2    H512479   2.815   3.923  13.812  0.2821 -1.7208 -0.5297
  849MPD2    N112480   2.946   4.359  13.664 -0.2173  0.3132  0.6505
  849MPD2    H712481   2.946   4.452  13.624  1.7666  0.5700  1.2712
  850MPD2     C12482   0.568   1.914  14.595 -0.3378 -0.0294 -1.2196
  850MPD2    C112483   0.531   2.030  14.664  0.7755  0.1227  0.1122
  850MPD2    C212484   0.616   2.122  14.705 -0.7254  0.2979  0.0874
  850MPD2    C312485   0.749   2.107  14.687  0.2284 -0.1922 -0.5671
  850MPD2    C412486   0.791   1.994  14.615  0.1319  0.5366 -0.4085
  850MPD2    C512487   0.700   1.902  14.570 -0.1750  0.1719  0.5157
  850MPD2     H12488   0.581   2.209  14.761  0.1915  1.2279 -0.7865
  850MPD2    H112489   0.898   1.975  14.611  0.5081  2.2547  1.3737
  850MPD2    H212490   0.495   1.839  14.568 -0.2862 -1.1933  1.9425
  850MPD2    H312491   0.739   1.807  14.534  0.8969  0.3753  1.1248
  850MPD2     N12492   0.858   2.191  14.732 -0.3701 -0.2182  0.0270
  850MPD2    H512493   0.953   2.157  14.721 -0.6228 -0.8900 -0.0416
  850MPD2    N112494   0.391   2.030  14.702  0.2447  0.8293 -0.1022
  850MPD2    H712495   0.339   1.973  14.636 -0.4025  0.6854  0.5385
  851MPD2     C12496   0.933   2.234  15.303  1.0291 -0.0733  0.4109
  851MPD2    C112497   0.876   2.165  15.200 -0.5247  0.2877  0.4261
  851MPD2    C212498   0.971   2.089  15.125 -0.3058  0.1222 -0.3208
  851MPD2    C312499   1.107   2.076  15.158  0.0981  0.3407 -0.7020
  851MPD2    C412500   1.146   2.149  15.270 -0.1652  0.4040 -0.2325
  851MPD2    C512501   1.063   2.231  15.336 -0.1838 -0.2901 -0.6426
  851MPD2     H12502   0.931   2.023  15.049 -1.1412  0.0693  0.1638
  851MPD2    H112503   1.251   2.146  15.294 -0.2837  1.3045  0.4014
  851MPD2    H212504   0.863   2.281  15.371 -0.0788 -1.6429  0.3480
  851MPD2    H312505   1.109   2.277  15.423 -0.2258  0.4162 -0.9931
  851MPD2     N12506   1.189   1.994  15.072  0.3521 -0.4524 -0.7574
  851MPD2    H512507   1.136   1.951  14.997 -0.4958 -0.4328 -0.1701
  851MPD2    N112508   0.740   2.176  15.169  0.1716 -0.3657 -0.2115
  851MPD2    H712509   0.685   2.253  15.206 -0.1399 -0.6805 -0.0224
  852MPD2     C12510   0.060   4.557   9.735  0.4939 -0.4597 -0.2210
  852MPD2    C112511   0.086   4.696   9.726  0.3673 -0.0337  0.2145
  852MPD2    C212512   0.173   0.012   9.632  0.0668 -0.4468  0.0363
  852MPD2    C312513   0.242   4.648   9.553 -0.2987 -0.6493  0.4598
  852MPD2    C412514   0.223   4.513   9.569 -0.1338 -0.3247 -0.2943
  852MPD2    C512515   0.129   4.472   9.663  1.0092 -0.2509 -0.1468
  852MPD2     H12516   0.203   0.116   9.628 -1.6865  0.0027 -1.4327
  852MPD2    H112517   0.272   4.437   9.509  2.4304  0.5961  0.6379
  852MPD2    H212518   4.706   4.533   9.807  0.8828 -2.3552 -0.4390
  852MPD2    H312519   0.122   4.364   9.668  2.1769 -0.4210 -1.9581
  852MPD2     N12520   0.342   4.708   9.463 -0.8286 -0.5581  0.4699
  852MPD2    H512521   0.346   0.085   9.469 -0.5229 -0.4914 -0.7074
  852MPD2    N112522   0.023   0.066   9.810  0.3360 -0.0353  0.5231
  852MPD2    H712523   0.037   0.165   9.793 -1.9575  0.1051 -0.6455
  853MPD2     C12524   2.444   4.457  12.457 -0.5531 -0.4356 -0.4621
  853MPD2    C112525   2.379   4.573  12.407  0.2472 -0.2402  0.8133
  853MPD2    C212526   2.394   4.602  12.271 -0.0071 -0.1362  0.5697
  853MPD2    C312527   2.460   4.521  12.184 -0.1709 -0.6373 -0.1872
  853MPD2    C412528   2.520   4.406  12.235 -0.4731  0.5383 -0.6498
  853MPD2    C512529   2.513   4.374  12.374  0.2746  0.4746 -0.2961
  853MPD2     H12530   2.359   4.693  12.225 -1.4571  0.7273  3.3594
  853MPD2    H112531   2.573   4.336  12.173  0.6672  1.7803 -1.0789
  853MPD2    H212532   2.440   4.429  12.561  1.8077 -0.3865 -0.3674
  853MPD2    H312533   2.559   4.282  12.408  0.9585  1.4305  1.3105
  853MPD2     N12534   2.468   4.543  12.045  0.1216  0.1231 -0.0258
  853MPD2    H512535   2.542   4.492  11.997  0.8852  1.3918 -0.2075
  853MPD2    N112536   2.302   4.652  12.496 -0.5561  1.1067 -0.2156
  853MPD2    H712537   2.271   4.614  12.584  1.1048 -1.3928 -0.7136
  854MPD2     C12538   4.480   0.248  12.532  0.3149 -0.1504  0.0995
  854MPD2    C112539   4.359   0.220  12.598 -0.0576 -0.5773  0.1591
  854MPD2    C212540   4.365   0.172  12.730  0.0781 -0.0519 -0.3820
  854MPD2    C312541   4.484   0.142  12.792  0.3803 -0.1888 -0.5576
  854MPD2    C412542   4.603   0.171  12.729  0.5298 -0.2685 -0.1152
  854MPD2    C512543   4.599   0.226  12.606 -0.3988  0.0168  0.4528
  854MPD2     H12544   4.280   0.165  12.798  1.0598 -0.6913  0.7782
  854MPD2    H112545   4.695   0.153  12.784  0.2197  0.9078  0.7867
  854MPD2    H212546   4.483   0.280  12.428  1.1974  0.4986  0.3242
  854MPD2    H312547   4.694   0.251  12.560 -0.0170 -3.5462 -0.6940
  854MPD2     N12548   4.490   0.098  12.926  0.9310 -0.2137 -0.5796
  854MPD2    H512549   4.587   0.093  12.958  1.3786 -1.1790 -2.0628
  854MPD2    N112550   4.245   0.234  12.520 -0.5612  0.2687  0.0333
  854MPD2    H712551   4.254   0.287  12.433 -1.1571 -0.1633 -0.2902
  855MPD2     C12552   3.796   4.267  13.184 -0.4397 -0.3157  0.8559
  855MPD2    C112553   3.865   4.243  13.304  0.5077  0.8794  0.3611
  855MPD2    C212554   3.980   4.312  13.323 -0.7861 -0.5403  0.2391
  855MPD2    C312555   4.034   4.395  13.226  0.0445  0.5911 -0.4198
  855MPD2    C412556   3.972   4.402  13.104 -0.2415  0.3023  0.2115
  855MPD2    C512557   3.850   4.352  13.090  0.1277 -0.1628  0.4617
  855MPD2     H12558   4.039   4.294  13.412  0.7747  1.0816 -0.4549
  855MPD2    H112559   4.003   4.473  13.029  0.0190 -0.5046 -0.4495
  855MPD2    H212560   3.696   4.227  13.173  1.7164 -4.6376 -2.8299
  855MPD2    H312561   3.794   4.358  12.998 -0.6725 -2.3400  0.8042
  855MPD2     N12562   4.152   4.475  13.240 -0.4090 -0.5617  0.2422
  855MPD2    H512563   4.167   4.548  13.171 -2.8735 -1.6993 -1.5110
  855MPD2    N112564   3.814   4.152  13.401  0.0908 -0.3825 -0.0331
  855MPD2    H712565   3.869   4.129  13.482  1.1567  1.0441 -0.3523
  856MPD2     C12566   1.636   0.832  14.073  0.6009  0.1777 -0.6540
  856MPD2    C112567   1.739   0.934  14.070  0.0482  1.2937 -0.3824
  856MPD2    C212568   1.719   1.036  13.971 -0.2573  0.0206  0.2841
  856MPD2    C312569   1.624   1.027  13.879 -0.4932  0.0101 -0.3737
  856MPD2    C412570   1.542   0.921  13.875  0.0196 -0.1449  0.5484
  856MPD2    C512571   1.538   0.828  13.975  0.4322  0.5851  0.7156
  856MPD2     H12572   1.786   1.122  13.971 -0.1808 -0.0335 -2.5807
  856MPD2    H112573   1.470   0.917  13.795  1.3932  2.7531 -0.8496
  856MPD2    H212574   1.644   0.751  14.144  1.9153  0.0110 -0.9927
  856MPD2    H312575   1.465   0.749  13.966 -0.0748  0.7821  3.0054
  856MPD2     N12576   1.604   1.125  13.778  0.3358 -0.4467 -1.0139
  856MPD2    H512577   1.559   1.099  13.690  1.2009 -3.4605 -0.5471
  856MPD2    N112578   1.848   0.938  14.169  0.5784  0.2611  0.0918
  856MPD2    H712579   1.904   1.022  14.167 -0.2643  0.7898 -2.3971
  857MPD2     C12580   3.019   3.034  12.600 -0.7077  0.1139 -0.5199
  857MPD2    C112581   3.084   3.068  12.481 -0.1857 -0.0515  0.3726
  857MPD2    C212582   3.142   3.199  12.465 -0.4215  0.3321 -1.1820
  857MPD2    C312583   3.110   3.294  12.565 -0.6441 -0.2820 -0.2245
  857MPD2    C412584   3.037   3.261  12.681 -0.2178  0.1570 -0.3724
  857MPD2    C512585   2.993   3.132  12.690 -0.1444 -0.4173  0.1335
  857MPD2     H12586   3.192   3.233  12.375  2.2842 -2.5338 -0.7497
  857MPD2    H112587   3.029   3.336  12.760  1.9850 -1.3961  1.3344
  857MPD2    H212588   2.996   2.931  12.629  0.6923 -0.2099 -0.5684
  857MPD2    H312589   2.938   3.101  12.778  1.0828  2.0696  1.7586
  857MPD2     N12590   3.154   3.428  12.546 -0.0067 -0.4867  0.1401
  857MPD2    H512591   3.230   3.433  12.478 -0.1147  2.3887  0.2075
  857MPD2    N112592   3.105   2.965  12.385 -0.0169  0.2143  0.2841
  857MPD2    H712593   3.080   2.870  12.409 -0.2292  0.5330  1.3244
  858MPD2     C12594   4.070   1.688  17.031  0.6377 -0.8898  0.1408
  858MPD2    C112595   4.211   1.667  17.039  0.1422 -0.5268  0.4071
  858MPD2    C212596   4.289   1.746  17.122 -0.4631 -0.4629 -0.3292
  858MPD2    C312597   4.225   1.833  17.208  0.7891 -0.7224  0.3497
  858MPD2    C412598   4.091   1.852  17.201  0.0803 -0.0224 -0.1046
  858MPD2    C512599   4.015   1.779  17.119 -0.2261  0.2292 -0.5391
  858MPD2     H12600   4.397   1.738  17.128 -0.3770  3.8040  3.9559
  858MPD2    H112601   4.045   1.930  17.262 -0.6266  0.0230 -0.6975
  858MPD2    H212602   4.001   1.624  16.976 -0.2712 -1.5391  2.0477
  858MPD2    H312603   3.908   1.789  17.136 -0.1587 -1.6139  1.0651
  858MPD2     N12604   4.291   1.917  17.305 -0.2553 -0.1614  0.2705
  858MPD2    H512605   4.239   1.982  17.362 -0.7311 -0.1891 -0.1365
  858MPD2    N112606   4.255   1.568  16.951 -0.1527  0.3930 -0.6327
  858MPD2    H712607   4.191   1.511  16.896 -2.0330  0.4131  1.5468
  859MPD2     C12608   2.388   4.085  15.561 -0.0395 -0.4281 -0.7201
  859MPD2    C112609   2.463   4.009  15.466 -0.1473 -0.3267 -0.3201
  859MPD2    C212610   2.510   3.882  15.495  0.1180 -0.1188 -0.4032
  859MPD2    C312611   2.488   3.827  15.619  0.3237 -0.0305 -0.0691
  859MPD2    C412612   2.416   3.900  15.709 -0.2461  0.2599  0.0525
  859MPD2    C512613   2.363   4.023  15.679 -0.9394  0.4605  0.0419
  859MPD2     H12614   2.572   3.824  15.428 -1.2518  0.2186 -1.9595
  859MPD2    H112615   2.399   3.845  15.802  0.2266  1.2390  0.7183
  859MPD2    H212616   2.349   4.183  15.537 -0.1664 -0.5060 -0.8299
  859MPD2    H312617   2.307   4.082  15.750 -0.3658  0.9851  0.0628
  859MPD2     N12618   2.544   3.702  15.661 -0.4196  0.3790  0.0558
  859MPD2    H512619   2.508   3.676  15.752  1.7190 -0.5319  0.6273
  859MPD2    N112620   2.502   4.074  15.347  0.2748  0.6565  0.2942
  859MPD2    H712621   2.577   4.033  15.292  0.5085 -1.6122  2.3538
  860MPD2     C12622   0.708   3.913  11.881 -0.0653  0.3102 -0.0541
  860MPD2    C112623   0.703   4.051  11.907 -0.4556  0.4388 -0.2213
  860MPD2    C212624   0.596   4.106  11.974 -0.0105 -0.1579  0.4230
  860MPD2    C312625   0.488   4.029  12.011  0.1527  0.2673 -0.3032
  860MPD2    C412626   0.481   3.896  11.962 -0.2752 -0.4418  0.9574
  860MPD2    C512627   0.593   3.840  11.904  0.2092 -0.0375 -0.0377
  860MPD2     H12628   0.601   4.212  11.997 -1.3239 -0.1587  0.7210
  860MPD2    H112629   0.389   3.842  11.977 -0.7206 -0.3551 -1.4632
  860MPD2    H212630   0.780   3.852  11.828  0.4025  0.9660 -0.1697
  860MPD2    H312631   0.599   3.737  11.873  2.1720  0.4472 -1.3426
  860MPD2     N12632   0.387   4.079  12.099  0.1138  0.3148  0.1061
  860MPD2    H512633   0.373   4.178  12.113 -1.0309  0.3313 -1.1692
  860MPD2    N112634   0.802   4.149  11.869 -0.5259 -0.2858  0.0986
  860MPD2    H712635   0.793   4.247  11.896  0.3491 -0.6851  1.8183
  861MPD2     C12636   3.743   3.096  10.436 -0.2000  0.4291 -0.2138
  861MPD2    C112637   3.664   3.004  10.499 -0.0484  0.2182 -0.0602
  861MPD2    C212638   3.525   3.004  10.475  0.6118  0.5600 -0.8991
  861MPD2    C312639   3.470   3.096  10.378 -0.4826  0.0581 -0.4044
  861MPD2    C412640   3.559   3.186  10.323 -0.9423  0.7525 -0.5873
  861MPD2    C512641   3.693   3.182  10.351 -0.0191 -0.1888 -0.2418
  861MPD2     H12642   3.459   2.931  10.519  3.2451 -0.3344  1.5413
  861MPD2    H112643   3.517   3.261  10.257 -2.0132 -0.1636 -0.9498
  861MPD2    H212644   3.847   3.107  10.464 -0.4873  0.5380  0.8194
  861MPD2    H312645   3.761   3.254  10.307  0.0871  0.1277  0.4417
  861MPD2     N12646   3.330   3.098  10.345  0.0784  0.0745 -0.2879
  861MPD2    H512647   3.295   3.181  10.298 -1.6911 -0.1588  0.6364
  861MPD2    N112648   3.712   2.908  10.595  0.0954 -0.4716  0.5305
  861MPD2    H712649   3.646   2.850  10.646 -0.4799 -0.1647  0.1281
  862MPD2     C12650   2.557   3.205  10.214  0.0484  0.1148  0.1382
  862MPD2    C112651   2.700   3.192  10.206 -0.1146 -0.6879  0.5601
  862MPD2    C212652   2.757   3.070  10.201  0.0631  0.0304  0.6857
  862MPD2    C312653   2.681   2.962  10.241 -0.1544 -0.0502  0.1049
  862MPD2    C412654   2.543   2.974  10.261 -0.0756  0.1504 -0.3680
  862MPD2    C512655   2.480   3.095  10.237  0.1211  0.1911 -0.7626
  862MPD2     H12656   2.859   3.056  10.165  0.3925  1.2701  1.1534
  862MPD2    H112657   2.481   2.886  10.275 -1.3173  1.1125  0.1474
  862MPD2    H212658   2.508   3.301  10.202  3.2729  1.4273 -2.5660
  862MPD2    H312659   2.374   3.107  10.253  0.6203  0.7445  2.1342
  862MPD2     N12660   2.739   2.833  10.273  0.1057  0.0659  0.1704
  862MPD2    H512661   2.674   2.768  10.316 -0.6770  1.3244  0.8697
  862MPD2    N112662   2.777   3.314  10.199  0.5148  0.1992 -0.1005
  862MPD2    H712663   2.722   3.397  10.177  0.2804  0.2745  0.7684
  863MPD2     C12664   2.836   1.244  16.264 -0.1613 -0.0623  0.1815
  863MPD2    C112665   2.757   1.285  16.374 -0.5573  0.0163  0.3132
  863MPD2    C212666   2.800   1.247  16.500 -0.6310 -0.1065  1.0218
  863MPD2    C312667   2.915   1.177  16.513 -0.7889 -0.1783 -0.4154
  863MPD2    C412668   2.993   1.136  16.405 -0.5869  0.1464  0.1124
  863MPD2    C512669   2.956   1.180  16.280  0.3252 -0.1092 -0.0535
  863MPD2     H12670   2.742   1.272  16.588 -0.5170  1.4539  0.6448
  863MPD2    H112671   3.075   1.067  16.420  1.0424  1.8291 -1.1153
  863MPD2    H212672   2.801   1.284  16.169  1.8548  1.8666  0.2554
  863MPD2    H312673   3.030   1.168  16.202 -0.9573 -3.2908 -0.7752
  863MPD2     N12674   2.957   1.129  16.643 -0.3473  0.0634  0.2284
  863MPD2    H512675   3.050   1.088  16.650 -1.7622 -2.4871  4.0552
  863MPD2    N112676   2.636   1.363  16.353  0.2885 -0.4823 -0.0079
  863MPD2    H712677   2.620   1.385  16.255  0.9061 -0.1879 -0.0467
  864MPD2     C12678   3.217   1.864  17.616  0.3333 -0.9078 -0.4930
  864MPD2    C112679   3.251   1.830  17.481  0.7854  0.4844 -0.4150
  864MPD2    C212680   3.322   1.934  17.413  0.1014  0.8241 -0.2340
  864MPD2    C312681   3.363   2.050  17.477 -0.2290  0.5397 -0.0556
  864MPD2    C412682   3.313   2.079  17.601 -0.0969  0.2902 -0.0720
  864MPD2    C512683   3.228   1.986  17.665  0.1434 -0.1910 -1.0354
  864MPD2     H12684   3.361   1.897  17.319  4.6355 -0.6155  2.2145
  864MPD2    H112685   3.331   2.169  17.658  0.8720  0.5434 -0.7784
  864MPD2    H212686   3.153   1.801  17.677  1.1863 -0.9726  0.3275
  864MPD2    H312687   3.188   2.003   0.066  2.0105  1.7630 -0.6019
  864MPD2     N12688   3.438   2.152  17.419 -0.0499 -0.5262  0.9196
  864MPD2    H512689   3.464   2.225  17.485  2.1609 -0.7257  0.2734
  864MPD2    N112690   3.211   1.708  17.431  0.1669  0.9506  0.4784
  864MPD2    H712691   3.184   1.630  17.490  0.4026 -0.0572 -0.7625
  865MPD2     C12692   3.501   2.629  16.657  0.7459  0.5991 -0.1162
  865MPD2    C112693   3.502   2.500  16.693  0.1481 -0.4303 -0.4151
  865MPD2    C212694   3.502   2.460  16.826 -0.4554 -0.1251  0.3162
  865MPD2    C312695   3.500   2.552  16.927  0.2677  0.3186 -0.0846
  865MPD2    C412696   3.494   2.688  16.887 -0.4736 -0.4124  0.3209
  865MPD2    C512697   3.497   2.723  16.757 -0.2942 -0.6421 -0.0278
  865MPD2     H12698   3.501   2.359  16.864 -3.2418  0.2474  1.2581
  865MPD2    H112699   3.495   2.766  16.963 -0.5972 -0.1273  0.0324
  865MPD2    H212700   3.487   2.665  16.556 -0.8931  0.1373 -0.0599
  865MPD2    H312701   3.483   2.826  16.726 -0.2220 -1.2775 -2.2363
  865MPD2     N12702   3.516   2.499  17.053 -0.0507  0.0600  0.2945
  865MPD2    H512703   3.522   2.399  17.069  1.7165 -0.1141 -1.5661
  865MPD2    N112704   3.501   2.406  16.589 -0.5651 -0.6268 -0.0425
  865MPD2    H712705   3.494   2.445  16.495  1.5198 -0.7384 -0.2310
  866MPD2     C12706   4.084   3.672  10.660  0.3940 -0.2463 -0.6490
  866MPD2    C112707   4.100   3.540  10.692 -0.0049 -0.1664 -0.4322
  866MPD2    C212708   3.980   3.468  10.730  0.5027  0.4798 -0.5297
  866MPD2    C312709   3.855   3.528  10.751 -0.0555  0.4689  0.9774
  866MPD2    C412710   3.852   3.663  10.731  0.3636  0.5154 -0.9186
  866MPD2    C512711   3.964   3.733  10.690 -0.2203  0.3487  0.1119
  866MPD2     H12712   3.996   3.362  10.743  0.1633  0.9265  3.5811
  866MPD2    H112713   3.758   3.713  10.752  0.3460 -0.8990  2.2963
  866MPD2    H212714   4.171   3.732  10.633 -0.2144  0.9934  0.1248
  866MPD2    H312715   3.957   3.842  10.688 -1.0003  0.2986 -0.1662
  866MPD2     N12716   3.743   3.449  10.773 -0.0051 -0.8813 -0.5309
  866MPD2    H512717   3.655   3.498  10.756  0.3954 -0.1293 -0.4588
  866MPD2    N112718   4.224   3.476  10.669 -0.0028 -0.0609 -0.4147
  866MPD2    H712719   4.296   3.531  10.622 -0.3737  1.8893  1.2860
  867MPD2     C12720   2.761   2.907  16.509 -0.4930  0.1325  0.2433
  867MPD2    C112721   2.790   2.817  16.610  0.2859 -0.7306 -0.6960
  867MPD2    C212722   2.826   2.864  16.735  0.0871 -0.3399  0.4699
  867MPD2    C312723   2.819   3.005  16.759 -0.0911 -0.0884 -0.5136
  867MPD2    C412724   2.799   3.090  16.656 -0.4047 -0.6424 -0.1022
  867MPD2    C512725   2.783   3.038  16.530 -0.6727  0.1251  0.1195
  867MPD2     H12726   2.854   2.798  16.816  0.3507 -0.2255  0.4730
  867MPD2    H112727   2.804   3.198  16.660  1.1178 -0.6893 -0.7175
  867MPD2    H212728   2.726   2.878  16.411  1.4976 -0.4091 -0.3113
  867MPD2    H312729   2.773   3.100  16.441  0.1989 -1.0202 -0.7801
  867MPD2     N12730   2.836   3.065  16.888 -0.2028  0.5999  0.1027
  867MPD2    H512731   2.845   3.166  16.889  2.3186  0.4000 -1.9335
  867MPD2    N112732   2.777   2.677  16.583 -0.2468  0.6621 -0.5254
  867MPD2    H712733   2.756   2.654  16.486  1.4700  3.5606 -1.5915
  868MPD2     C12734   3.316   0.524  13.058  0.2483 -0.3684 -0.5546
  868MPD2    C112735   3.368   0.647  13.089  0.0896 -0.2885  0.1855
  868MPD2    C212736   3.276   0.743  13.130 -0.2260  0.0057 -0.4465
  868MPD2    C312737   3.143   0.719  13.162 -0.4025  0.1499  0.0798
  868MPD2    C412738   3.094   0.596  13.135  0.4887 -0.4560 -0.7222
  868MPD2    C512739   3.182   0.501  13.091  0.3547  0.0766  0.3442
  868MPD2     H12740   3.309   0.845  13.145 -3.1845  1.1281 -1.4674
  868MPD2    H112741   2.988   0.571  13.139  0.3826 -0.0458 -0.9444
  868MPD2    H212742   3.378   0.444  13.020 -0.2990 -0.8290 -0.4732
  868MPD2    H312743   3.133   0.408  13.064  0.8239 -0.2376  0.5791
  868MPD2     N12744   3.053   0.829  13.199  0.0398  0.3493  0.5584
  868MPD2    H512745   3.090   0.924  13.199  0.3067  0.2468  0.2548
  868MPD2    N112746   3.507   0.670  13.090  0.0314  0.4377  0.0608
  868MPD2    H712747   3.563   0.588  13.069  2.4886  2.0748  0.2401
  869MPD2     C12748   0.170   4.325   1.532  0.9922  0.1371 -0.1814
  869MPD2    C112749   0.290   4.340   1.603  0.1070  0.7271  0.3022
  869MPD2    C212750   0.407   4.397   1.542 -0.3025 -0.3497 -0.3893
  869MPD2    C312751   0.393   4.438   1.405  0.0850 -0.0833 -0.2546
  869MPD2    C412752   0.266   4.431   1.340 -0.1478  1.0658 -0.6265
  869MPD2    C512753   0.160   4.368   1.402 -0.2582 -0.0375 -0.6702
  869MPD2     H12754   0.502   4.378   1.589 -0.4638 -0.7837 -0.2358
  869MPD2    H112755   0.254   4.451   1.234  1.8942  0.7492 -0.9283
  869MPD2    H212756   0.083   4.285   1.582  0.3609  1.5268 -0.1759
  869MPD2    H312757   0.071   4.357   1.342 -0.2249 -1.0733 -0.5210
  869MPD2     N12758   0.501   4.484   1.325 -0.5632 -0.2077  0.1062
  869MPD2    H512759   0.487   4.490   1.225 -1.0542  1.6029  0.2880
  869MPD2    N112760   0.293   4.297   1.737 -0.3768  0.2843  0.1663
  869MPD2    H712761   0.206   4.255   1.769 -0.3947 -0.7877 -1.3176
  870MPD2     C12762   4.710   3.421   1.625  0.0942 -0.1459  0.4204
  870MPD2    C112763   4.670   3.292   1.600 -0.4435  1.0969 -0.1980
  870MPD2    C212764   4.551   3.274   1.527 -0.3536 -0.1893 -0.2592
  870MPD2    C312765   4.464   3.379   1.496  0.5707 -0.0789  0.1777
  870MPD2    C412766   4.510   3.508   1.527  0.0113  0.4050  0.2563
  870MPD2    C512767   4.630   3.530   1.582  0.1301  0.3908  0.0395
  870MPD2     H12768   4.508   3.174   1.534  0.8719 -0.7037 -0.0181
  870MPD2    H112769   4.449   3.596   1.506 -0.0702  0.5104  0.9487
  870MPD2    H212770   0.070   3.447   1.689  0.6620 -1.7545  0.3143
  870MPD2    H312771   4.658   3.629   1.615  0.3903  0.5084 -0.5284
  870MPD2     N12772   4.343   3.344   1.435 -0.5708 -0.0244  1.2106
  870MPD2    H512773   4.342   3.250   1.397  0.9820  0.0726  0.9337
  870MPD2    N112774   0.029   3.191   1.652 -0.6918  0.9995 -0.7440
  870MPD2    H712775   0.107   3.216   1.711 -1.3970  1.3599  0.0396
  871MPD2     C12776   0.694   2.368  16.301 -0.9688  0.4719  0.5744
  871MPD2    C112777   0.697   2.280  16.404  0.4685 -0.0186 -0.0601
  871MPD2    C212778   0.682   2.145  16.383  0.8758  0.3651 -0.4069
  871MPD2    C312779   0.678   2.095  16.255 -0.0562 -0.4232  0.9064
  871MPD2    C412780   0.682   2.183  16.148  0.0143  0.2689  0.5708
  871MPD2    C512781   0.701   2.317  16.175 -0.1502  0.8676 -0.8375
  871MPD2     H12782   0.689   2.069  16.461  1.6436  0.7114 -0.1445
  871MPD2    H112783   0.687   2.142  16.047 -2.9969  2.0368 -0.2983
  871MPD2    H212784   0.727   2.470  16.313 -0.7374  0.3234  1.2084
  871MPD2    H312785   0.706   2.384  16.090  0.7513  0.7988 -0.8386
  871MPD2     N12786   0.673   1.956  16.246 -0.4323  0.4547  0.5245
  871MPD2    H512787   0.663   1.901  16.331 -1.7358  0.0659  0.1161
  871MPD2    N112788   0.717   2.342  16.527 -0.6601  0.4525 -0.4195
  871MPD2    H712789   0.730   2.443  16.525 -0.2790  0.3558 -2.9681
  872MPD2     C12790   1.287   0.275  13.938 -0.6758 -0.1374  0.2111
  872MPD2    C112791   1.376   0.271  14.044  0.6797 -0.1734  0.7437
  872MPD2    C212792   1.331   0.217  14.166  0.2548  0.0197 -0.3084
  872MPD2    C312793   1.207   0.159  14.173 -0.3515 -0.3551  0.3620
  872MPD2    C412794   1.120   0.160  14.065  0.2920  0.4457 -0.6165
  872MPD2    C512795   1.166   0.208  13.948 -0.2887 -0.6091 -0.2109
  872MPD2     H12796   1.399   0.205  14.249  1.2499  0.4474 -1.0707
  872MPD2    H112797   1.015   0.132  14.066  0.2187  0.7496  0.2802
  872MPD2    H212798   1.325   0.308  13.842  1.1869  0.0027  0.9931
  872MPD2    H312799   1.094   0.212  13.867 -0.1916  0.9409 -0.2325
  872MPD2     N12800   1.149   0.101  14.289  0.4874  0.2577 -0.2189
  872MPD2    H512801   1.056   0.064  14.275 -0.0119  1.9557 -1.3864
  872MPD2    N112802   1.503   0.317  14.033  0.2156  0.2121  0.5591
  872MPD2    H712803   1.565   0.296  14.110 -1.3610 -2.2918  1.1219
  873MPD2     C12804   4.349   0.509   0.950 -0.1723  0.0279  0.4090
  873MPD2    C112805   4.251   0.562   1.023 -0.2112 -0.3254  0.3022
  873MPD2    C212806   4.140   0.485   1.054  0.0222 -0.1745  0.1885
  873MPD2    C312807   4.155   0.343   1.038  0.6830 -0.3668  0.3992
  873MPD2    C412808   4.267   0.292   0.978 -0.1828  0.0657 -0.5240
  873MPD2    C512809   4.353   0.380   0.915  0.3547 -0.5879 -0.1648
  873MPD2     H12810   4.054   0.520   1.109 -1.3549 -2.4299 -0.5391
  873MPD2    H112811   4.276   0.187   0.952 -0.8226  0.0515 -0.7042
  873MPD2    H212812   4.432   0.566   0.909  0.9626 -1.2978  0.8407
  873MPD2    H312813   4.441   0.345   0.863  2.1715  2.4073  0.9302
  873MPD2     N12814   4.052   0.256   1.064 -0.6071 -0.2243  0.1373
  873MPD2    H512815   4.051   0.165   1.019 -1.5256 -1.1874  2.0933
  873MPD2    N112816   4.252   0.695   1.053 -0.0548 -0.3127  0.3394
  873MPD2    H712817   4.339   0.746   1.041 -1.3690  1.5092 -1.5178
  874MPD2     C12818   2.736   4.183  16.627  0.1862  0.4169  1.2403
  874MPD2    C112819   2.855   4.140  16.687  0.1707 -0.2341 -0.2212
  874MPD2    C212820   2.977   4.202  16.663 -0.0444  0.4234 -0.1680
  874MPD2    C312821   2.986   4.299  16.571 -0.5810  0.5953 -0.1016
  874MPD2    C412822   2.868   4.344  16.513 -0.7957 -0.2955 -0.2265
  874MPD2    C512823   2.747   4.290  16.550  0.3767 -0.1185 -0.5434
  874MPD2     H12824   3.061   4.182  16.729 -0.0045  0.1651 -0.2944
  874MPD2    H112825   2.863   4.429  16.445  0.2799 -0.5231 -0.5824
  874MPD2    H212826   2.649   4.119  16.626  2.2761 -2.4169 -0.3907
  874MPD2    H312827   2.649   4.311  16.510  0.0767  0.4049  0.4538
  874MPD2     N12828   3.110   4.353  16.537 -0.3715  0.8404 -0.4345
  874MPD2    H512829   3.185   4.315  16.594 -0.3719  2.5043  0.6749
  874MPD2    N112830   2.852   4.018  16.756 -0.1307  0.1408 -0.2341
  874MPD2    H712831   2.757   3.990  16.781  0.3917 -0.5152  0.9837
  875MPD2     C12832   4.310   3.231  14.466  0.7909 -0.0060  0.3594
  875MPD2    C112833   4.175   3.235  14.498  1.1567  0.0062  0.2721
  875MPD2    C212834   4.136   3.281  14.623  0.2069 -0.5175  0.2490
  875MPD2    C312835   4.228   3.344  14.705  0.2153  0.6708 -0.1574
  875MPD2    C412836   4.358   3.361  14.658 -0.4883 -0.2139 -0.2244
  875MPD2    C512837   4.399   3.290  14.547  0.1064 -0.9949 -0.0501
  875MPD2     H12838   4.033   3.273  14.657 -0.0152  0.0537 -0.2848
  875MPD2    H112839   4.433   3.392  14.731 -1.8804 -0.4191  1.2934
  875MPD2    H212840   4.359   3.187  14.380 -2.2154 -0.8440 -0.9468
  875MPD2    H312841   4.491   3.321  14.499 -1.4944  2.7666 -0.6628
  875MPD2     N12842   4.200   3.391  14.836 -0.5948  0.5948  0.1116
  875MPD2    H512843   4.256   3.457  14.889  0.6317  1.4326 -2.2154
  875MPD2    N112844   4.072   3.179  14.405 -0.0790  0.1963 -0.2552
  875MPD2    H712845   3.975   3.181  14.436  0.0412  1.2355  0.0578
  876MPD2     C12846   2.596   4.383  15.868 -0.5890  0.0438  0.4179
  876MPD2    C112847   2.721   4.346  15.817 -0.1745  0.7868  0.2984
  876MPD2    C212848   2.765   4.218  15.842  0.4243  0.0274 -0.0685
  876MPD2    C312849   2.683   4.121  15.903 -0.2135 -0.3868 -0.5015
  876MPD2    C412850   2.560   4.164  15.949  0.2060  0.3716 -0.3945
  876MPD2    C512851   2.522   4.291  15.928 -0.5088  0.0713  1.0890
  876MPD2     H12852   2.861   4.178  15.812  0.8995  1.1368 -0.0275
  876MPD2    H112853   2.487   4.106  16.006 -1.3567  0.4621 -2.3142
  876MPD2    H212854   2.545   4.473  15.837 -0.6363  0.2809  1.1730
  876MPD2    H312855   2.419   4.315  15.951 -1.1768  1.5003 -3.4650
  876MPD2     N12856   2.735   3.990  15.929 -1.0138 -0.0442  0.3862
  876MPD2    H512857   2.831   3.969  15.902 -0.6752 -0.7679  2.1452
  876MPD2    N112858   2.788   4.437  15.739  0.4558  0.3967 -0.4799
  876MPD2    H712859   2.755   4.532  15.728  0.8314  0.5670 -0.1271
  877MPD2     C12860   2.648   0.021  15.062 -0.8145  0.0090  0.0103
  877MPD2    C112861   2.781   4.705  15.062 -0.0267  0.0615 -1.2086
  877MPD2    C212862   2.852   4.689  14.943 -0.0155  0.3171 -0.2755
  877MPD2    C312863   2.799   0.000  14.818  0.8691  0.2547  0.2294
  877MPD2    C412864   2.664   0.044  14.816  0.0902 -0.3564 -0.2370
  877MPD2    C512865   2.587   0.050  14.939  0.0392 -0.7113  0.5380
  877MPD2     H12866   2.949   4.642  14.953 -0.0185  0.2831 -0.3960
  877MPD2    H112867   2.613   0.063  14.723 -1.4076  0.7319  0.8124
  877MPD2    H212868   2.595   0.036  15.156  0.0984  0.7534  0.4161
  877MPD2    H312869   2.483   0.080  14.932  0.9725  2.4581  0.1071
  877MPD2     N12870   2.872   4.724  14.697 -0.1199  0.6122  0.0871
  877MPD2    H512871   2.814   4.719  14.614 -0.2447  1.2975  0.1368
  877MPD2    N112872   2.854   4.676  15.176 -0.4693  0.4819 -0.1642
  877MPD2    H712873   2.953   4.656  15.159  0.3115  3.0783  1.4547
  878MPD2     C12874   3.171   4.047  12.939  0.2069 -0.4992  0.1473
  878MPD2    C112875   3.137   4.179  12.951 -0.1469 -0.3945 -0.3536
  878MPD2    C212876   3.186   4.231  13.069  0.7778 -0.0722 -0.7398
  878MPD2    C312877   3.287   4.181  13.149 -0.5627 -0.0351  0.3123
  878MPD2    C412878   3.338   4.061  13.112  0.1239  0.6588  0.3019
  878MPD2    C512879   3.266   3.992  13.017 -0.6323  0.3833 -0.2924
  878MPD2     H12880   3.138   4.321  13.107  0.0703 -1.6510  2.1409
  878MPD2    H112881   3.404   4.007  13.179 -1.4532 -1.0378  0.4965
  878MPD2    H212882   3.119   3.983  12.869 -2.2136  2.8479 -1.1208
  878MPD2    H312883   3.297   3.889  13.006 -2.4526 -0.2780  0.7664
  878MPD2     N12884   3.324   4.246  13.271  0.3812 -0.1032  0.1625
  878MPD2    H512885   3.398   4.199  13.322  1.4318  1.6624  0.2470
  878MPD2    N112886   3.019   4.231  12.892  0.3064 -0.6442 -0.0227
  878MPD2    H712887   2.968   4.167  12.832 -1.5562  0.6694  0.1253
  879MPD2     C12888   3.544   0.467  16.472 -0.1503  0.7660 -0.0099
  879MPD2    C112889   3.523   0.396  16.590 -0.1454 -0.4187  0.2543
  879MPD2    C212890   3.421   0.299  16.594 -0.5284 -0.0955  0.9570
  879MPD2    C312891   3.353   0.276  16.480  0.0070  0.0356  0.2372
  879MPD2    C412892   3.373   0.346  16.367 -0.3124 -0.1611  0.5564
  879MPD2    C512893   3.468   0.441  16.362  0.2866 -0.0947  0.6847
  879MPD2     H12894   3.405   0.242  16.684 -0.0217 -0.8627  0.5587
  879MPD2    H112895   3.321   0.324  16.275  0.0326 -1.3310  0.6350
  879MPD2    H212896   3.612   0.551  16.462  0.3096  0.5735  1.4701
  879MPD2    H312897   3.480   0.502  16.274  0.2122 -1.3938 -0.2268
  879MPD2     N12898   3.248   0.178  16.473 -0.5286 -0.1546  0.3414
  879MPD2    H512899   3.197   0.170  16.385  0.6826 -1.4616 -0.2439
  879MPD2    N112900   3.594   0.433  16.706  0.3882  0.4132 -0.1296
  879MPD2    H712901   3.665   0.505  16.695  0.5273  0.1430 -0.9618
  880MPD2     C12902   0.250   2.313   0.568 -0.2781  0.6240  0.1967
  880MPD2    C112903   0.116   2.309   0.589 -0.4080  0.1293  0.5855
  880MPD2    C212904   0.072   2.212   0.671  0.5586 -0.5086 -0.1562
  880MPD2    C312905   0.146   2.104   0.721 -0.4112 -0.4236  0.0544
  880MPD2    C412906   0.278   2.105   0.679 -0.9672  0.2725 -0.2192
  880MPD2    C512907   0.329   2.206   0.604  0.6888 -0.0743 -0.5036
  880MPD2     H12908   4.692   2.218   0.700  0.2045 -1.0171 -1.3027
  880MPD2    H112909   0.345   2.021   0.694 -2.0240 -0.8533 -1.7975
  880MPD2    H212910   0.301   2.393   0.515 -1.7934  1.2362 -0.3443
  880MPD2    H312911   0.436   2.210   0.584  0.9990  0.9662  1.3690
  880MPD2     N12912   0.098   2.015   0.817  0.6064 -0.0068  0.9277
  880MPD2    H512913   0.014   2.033   0.870 -0.2756  0.3957 -0.6065
  880MPD2    N112914   0.039   2.419   0.550 -0.3683  0.0331  0.6568
  880MPD2    H712915   0.086   2.499   0.509 -0.9550 -0.7065 -1.4842
  881MPD2     C12916   0.117   3.291   0.133  0.8224 -0.0317  0.1984
  881MPD2    C112917   0.083   3.171   0.074 -0.1718 -0.9160  0.1497
  881MPD2    C212918   0.059   3.061   0.151 -0.3443  0.7035  0.0626
  881MPD2    C312919   0.050   3.078   0.289  0.3557  0.6046  1.1017
  881MPD2    C412920   0.077   3.201   0.343 -0.2641 -0.3204 -0.3555
  881MPD2    C512921   0.113   3.309   0.266  0.0093  0.1224  0.6260
  881MPD2     H12922   0.020   2.966   0.115 -0.7423  1.4796 -1.5548
  881MPD2    H112923   0.073   3.213   0.450  1.1805  1.7867 -0.5185
  881MPD2    H212924   0.128   3.378   0.070 -1.1013 -0.9059 -1.3373
  881MPD2    H312925   0.135   3.400   0.322  0.8736  0.6288 -0.5268
  881MPD2     N12926   0.003   2.983   0.380 -0.2456  0.0466  0.1242
  881MPD2    H512927   4.708   3.016   0.474  1.7977  0.7243  0.3206
  881MPD2    N112928   0.118   3.155  17.635  0.0346  0.4845  0.2335
  881MPD2    H712929   0.126   3.241  17.581  2.7131 -0.5386 -1.0266
  882MPD2     C12930   2.798   4.689  13.892  0.5808  0.1359  0.0099
  882MPD2    C112931   2.789   4.721  14.020 -0.1048 -0.5406 -0.2365
  882MPD2    C212932   2.662   0.026  14.063 -0.1537  0.6269 -0.4789
  882MPD2    C312933   2.551   0.012  13.977 -0.2604 -0.2395  0.5851
  882MPD2    C412934   2.567   4.704  13.841  0.3494  0.0338  0.4940
  882MPD2    C512935   2.695   4.678  13.805 -0.2492  0.1235 -0.1401
  882MPD2     H12936   2.637   0.045  14.167  1.5311 -0.5795  0.1331
  882MPD2    H112937   2.484   4.694  13.772 -0.5107 -1.0565  1.6881
  882MPD2    H212938   2.894   4.664  13.848  0.3862  1.1883 -0.9947
  882MPD2    H312939   2.714   4.646  13.703  4.2366 -0.6127  0.9368
  882MPD2     N12940   2.415   0.030  14.019  0.2045  0.0400  0.7015
  882MPD2    H512941   2.344   4.720  13.955  0.5242  0.8431 -0.0794
  882MPD2    N112942   2.900   4.711  14.110  0.2622 -0.2018 -0.9433
  882MPD2    H712943   2.984   4.681  14.062 -1.3014 -3.0091 -1.9308
  883MPD2     C12944   0.239   0.200  16.608 -0.2093  0.4548  0.0915
  883MPD2    C112945   0.310   0.149  16.509 -0.4295  0.5380  0.1467
  883MPD2    C212946   0.433   0.209  16.475  0.3175 -0.1351  0.4620
  883MPD2    C312947   0.484   0.314  16.540  0.3205 -0.4108 -1.2861
  883MPD2    C412948   0.412   0.365  16.646 -0.6421  0.9683  0.2726
  883MPD2    C512949   0.287   0.312  16.677 -0.7002 -0.6751  0.3552
  883MPD2     H12950   0.492   0.159  16.398  0.4691 -1.0363  1.1575
  883MPD2    H112951   0.449   0.452  16.700  0.9474  0.6470 -0.3132
  883MPD2    H212952   0.148   0.157  16.648  0.8638 -0.7858  1.2067
  883MPD2    H312953   0.235   0.360  16.759 -0.9368 -1.9949  0.9655
  883MPD2     N12954   0.609   0.367  16.491  0.2678  0.6293 -0.0365
  883MPD2    H512955   0.638   0.331  16.401  1.1983 -0.5254  0.7215
  883MPD2    N112956   0.277   0.031  16.438 -0.0908 -0.7583 -0.1342
  883MPD2    H712957   0.326   0.004  16.354  0.2961 -1.0079  0.1716
  884MPD2     C12958   2.091   0.669  15.248  0.0427 -0.9266  0.0608
  884MPD2    C112959   2.091   0.727  15.125 -0.0723  0.2878  0.4172
  884MPD2    C212960   2.013   0.834  15.108  0.1478  0.9145  0.8446
  884MPD2    C312961   1.937   0.889  15.208 -0.6509 -0.4623 -0.6091
  884MPD2    C412962   1.938   0.828  15.333 -0.1095 -0.2030  0.2606
  884MPD2    C512963   2.013   0.710  15.354  0.0872 -1.1981  0.6035
  884MPD2     H12964   2.018   0.882  15.011  0.9596 -0.6192  0.1232
  884MPD2    H112965   1.888   0.872  15.419 -1.5417 -0.1039 -0.6314
  884MPD2    H212966   2.134   0.571  15.268  2.0321 -0.2514 -0.9148
  884MPD2    H312967   2.004   0.658  15.448  0.4031 -0.9989  0.7412
  884MPD2     N12968   1.856   1.000  15.176 -0.3090  0.5160  0.3875
  884MPD2    H512969   1.879   1.064  15.101 -2.0657 -1.3635 -1.7505
  884MPD2    N112970   2.164   0.671  15.014 -0.0922  0.5105  0.5046
  884MPD2    H712971   2.146   0.715  14.924  0.1878 -0.5801 -0.0908
  885MPD2     C12972   0.836   0.774   0.302  0.9053 -0.9978  0.7114
  885MPD2    C112973   0.923   0.873   0.260  0.3754  0.1963  1.0019
  885MPD2    C212974   0.895   0.941   0.139 -0.0600  0.2352  0.3886
  885MPD2    C312975   0.784   0.904   0.061  0.3011  0.3993 -0.4764
  885MPD2    C412976   0.697   0.812   0.107 -0.5302  0.0785  0.8621
  885MPD2    C512977   0.722   0.742   0.219 -0.4093  0.3365  0.0402
  885MPD2     H12978   0.967   1.010   0.097 -0.7043 -0.4628 -1.8421
  885MPD2    H112979   0.618   0.778   0.041  0.5595 -1.9802  0.6019
  885MPD2    H212980   0.853   0.713   0.390  1.4897 -1.0570  0.5549
  885MPD2    H312981   0.665   0.661   0.261 -0.9996  1.4314  1.3677
  885MPD2     N12982   0.769   0.968  17.631 -0.3406  0.1385  0.4717
  885MPD2    H512983   0.847   1.022  17.595 -1.2557  2.6538  2.3275
  885MPD2    N112984   1.039   0.890   0.334 -0.0334  0.2973  0.2894
  885MPD2    H712985   1.061   0.830   0.412  1.1722  0.7951  0.3417
  886MPD2     C12986   1.093   4.497  15.355  0.0486  0.4401  0.7047
  886MPD2    C112987   1.203   4.420  15.324  0.6875 -0.1506  0.0898
  886MPD2    C212988   1.295   4.464  15.234 -0.3984 -0.6654  0.6616
  886MPD2    C312989   1.276   4.579  15.157 -0.6953  0.5026  0.1279
  886MPD2    C412990   1.155   4.640  15.174 -0.0453  0.1382  0.4778
  886MPD2    C512991   1.065   4.599  15.269 -0.1092  0.0790 -0.0382
  886MPD2     H12992   1.388   4.410  15.232  0.1087  0.2340  0.0248
  886MPD2    H112993   1.133   0.003  15.114 -0.1096 -0.6357 -0.6311
  886MPD2    H212994   1.016   4.460  15.421 -0.1114  2.7607  1.8049
  886MPD2    H312995   0.967   4.642  15.283  0.9594  1.4725  3.2773
  886MPD2     N12996   1.375   4.626  15.067  0.3134  0.3120  0.6368
  886MPD2    H512997   1.366   4.721  15.033 -1.2490  0.6271  1.9183
  886MPD2    N112998   1.247   4.304  15.393  0.5442  0.7081  0.0348
  886MPD2    H712999   1.324   4.260  15.343  1.4253  2.7145 -0.3876
  887MPD2     C13000   1.885   4.071  15.495 -0.2553  0.1310  0.2045
  887MPD2    C113001   1.805   4.155  15.566  0.3276  0.2197 -0.1761
  887MPD2    C213002   1.846   4.285  15.603  0.5546  1.0832 -0.1654
  887MPD2    C313003   1.973   4.313  15.598 -0.1621 -0.4141  0.6740
  887MPD2    C413004   2.057   4.230  15.530 -0.7183  0.2475  0.2435
  887MPD2    C513005   2.012   4.114  15.481  0.3137  0.0273  0.4136
  887MPD2     H13006   1.782   4.351  15.660 -0.2195 -0.3609  0.6657
  887MPD2    H113007   2.159   4.256  15.505 -1.2225  1.5107 -0.5108
  887MPD2    H213008   1.857   3.972  15.460 -0.3041 -1.1153  3.8289
  887MPD2    H313009   2.081   4.052  15.425 -0.3190 -0.9601  0.7280
  887MPD2     N13010   2.030   4.436  15.644 -0.0062  0.0143 -0.0935
  887MPD2    H513011   1.966   4.503  15.686  2.6871  3.0311 -0.8084
  887MPD2    N113012   1.667   4.134  15.586  0.6547 -0.9513 -0.0080
  887MPD2    H713013   1.612   4.211  15.622  0.1862 -0.5119 -1.6717
  888MPD2     C13014   4.325   4.548  14.624  0.3918  0.0322 -0.4630
  888MPD2    C113015   4.315   4.604  14.749  0.1650 -0.4706  0.6226
  888MPD2    C213016   4.346   0.012  14.768 -0.0009 -0.2787  0.0062
  888MPD2    C313017   4.392   0.088  14.663  0.7564  0.3202 -0.0932
  888MPD2    C413018   4.392   0.034  14.536 -0.0465  0.4156  0.8049
  888MPD2    C513019   4.351   4.630  14.519 -0.1241 -0.0936  0.3163
  888MPD2     H13020   4.339   0.058  14.865 -0.9778 -1.1903  0.3728
  888MPD2    H113021   4.425   0.093  14.452 -2.4204 -1.0237 -1.1180
  888MPD2    H213022   4.300   4.444  14.604 -1.7984  0.2302  1.2234
  888MPD2    H313023   4.350   4.598  14.416 -0.1410  1.3415 -0.1271
  888MPD2     N13024   4.425   0.221  14.692 -0.6433 -0.0860  0.0012
  888MPD2    H513025   4.426   0.260  14.786 -0.3625 -1.8231  0.7190
  888MPD2    N113026   4.274   4.526  14.855  0.0909 -0.3539  0.3535
  888MPD2    H713027   4.294   4.565  14.947  1.9489 -0.4969  0.0048
  889MPD2     C13028   3.193   4.296  12.489 -0.3248 -1.0932 -0.6021
  889MPD2    C113029   3.256   4.251  12.610 -0.0409  0.1915 -0.6298
  889MPD2    C213030   3.328   4.346  12.681 -0.4475 -0.7309  0.0427
  889MPD2    C313031   3.294   4.481  12.665  0.7661  0.5318  0.0381
  889MPD2    C413032   3.218   4.522  12.556  0.4267  0.2838 -0.7414
  889MPD2    C513033   3.165   4.429  12.466  0.2558  0.5041  0.2519
  889MPD2     H13034   3.371   4.311  12.775  0.2335  1.6739  0.6183
  889MPD2    H113035   3.200   4.628  12.546  1.7472  0.8125  2.5863
  889MPD2    H213036   3.137   4.226  12.428  0.7952 -0.5900 -2.2051
  889MPD2    H313037   3.109   4.459  12.378 -0.8720 -1.9342  0.1225
  889MPD2     N13038   3.340   4.567  12.770 -0.5008  0.1233 -0.1445
  889MPD2    H513039   3.377   4.518  12.851 -2.2437 -1.0708 -0.0531
  889MPD2    N113040   3.294   4.115  12.621 -0.4050  0.6270  0.2144
  889MPD2    H713041   3.371   4.094  12.683  0.1416  0.1821 -0.6205
  890MPD2     C13042   3.046   0.952  15.365  0.0722  0.3401  0.4058
  890MPD2    C113043   3.086   1.024  15.475  0.5727  0.4835  0.1384
  890MPD2    C213044   3.082   0.970  15.599  0.1488  0.1699 -0.3309
  890MPD2    C313045   3.064   0.831  15.615  0.2563 -0.3542  0.4923
  890MPD2    C413046   3.040   0.753  15.501 -1.0047  0.3549 -0.0868
  890MPD2    C513047   3.033   0.818  15.376  0.0304  0.6124  0.4627
  890MPD2     H13048   3.103   1.027  15.689  1.4100  3.2594 -2.5831
  890MPD2    H113049   3.039   0.645  15.507 -2.4223  0.4950  2.0641
  890MPD2    H213050   3.048   0.999  15.267 -2.3485 -0.7124 -0.1521
  890MPD2    H313051   3.036   0.772  15.278 -1.4693  1.6233 -0.0623
  890MPD2     N13052   3.066   0.775  15.742 -0.2061  0.9379  0.3162
  890MPD2    H513053   3.097   0.828  15.822  0.0274 -0.8850  1.4317
  890MPD2    N113054   3.111   1.159  15.432  0.4632 -1.1465  0.3325
  890MPD2    H713055   3.088   1.181  15.336 -0.4629 -0.5607  0.6856
  891MPD2     C13056   0.782   3.387  16.876  0.1240 -0.6051 -0.1553
  891MPD2    C113057   0.795   3.524  16.894  0.6601  0.3217  0.1785
  891MPD2    C213058   0.884   3.569  16.984 -0.7831  0.1540  0.0873
  891MPD2    C313059   0.967   3.476  17.051 -0.0851 -0.3622 -0.5334
  891MPD2    C413060   0.949   3.337  17.033 -0.2654  0.0497 -0.4038
  891MPD2    C513061   0.846   3.298  16.951  0.6859  0.4046 -0.3891
  891MPD2     H13062   0.904   3.671  17.014 -1.1285  0.5763 -1.1204
  891MPD2    H113063   1.005   3.260  17.084  0.8572  0.9519 -0.2770
  891MPD2    H213064   0.721   3.340  16.799 -1.0273 -1.4542  1.2657
  891MPD2    H313065   0.829   3.191  16.941  0.8265  0.5522 -2.0674
  891MPD2     N13066   1.066   3.533  17.135  0.3359  0.0363  0.4974
  891MPD2    H513067   1.058   3.627  17.174 -1.2275 -0.0186  0.3040
  891MPD2    N113068   0.723   3.610  16.811  0.7231  0.2729  0.2359
  891MPD2    H713069   0.667   3.569  16.737 -0.8577  0.3618  1.4001
  892MPD2     C13070   2.005   0.371  14.873 -0.1568  0.0451  1.1313
  892MPD2    C113071   1.937   0.386  14.758 -0.3446  0.1785 -0.1415
  892MPD2    C213072   1.982   0.312  14.653 -0.0458 -0.0682 -0.3721
  892MPD2    C313073   2.090   0.226  14.664  0.1722  0.2191  0.6558
  892MPD2    C413074   2.165   0.225  14.777 -0.0912 -0.1883  0.1064
  892MPD2    C513075   2.121   0.294  14.884 -0.4564 -0.2911  0.1294
  892MPD2     H13076   1.937   0.330  14.556 -1.3783  1.7007  0.5776
  892MPD2    H113077   2.257   0.169  14.785 -1.6016 -2.3265  2.5082
  892MPD2    H213078   1.981   0.435  14.957 -1.2219  0.4759  0.5033
  892MPD2    H313079   2.169   0.294  14.981  0.2808 -0.8000 -0.2324
  892MPD2     N13080   2.122   0.137  14.560 -0.1103  0.2160 -0.0459
  892MPD2    H513081   2.219   0.108  14.551  0.4236  1.2306  2.2132
  892MPD2    N113082   1.812   0.452  14.744  0.7769 -0.0016  0.2738
  892MPD2    H713083   1.762   0.455  14.656  1.0499 -2.0880  0.0313
  893MPD2     C13084   3.625   4.250   1.366 -0.1145  0.1598 -0.4897
  893MPD2    C113085   3.675   4.224   1.492  0.8588 -0.1297  0.2277
  893MPD2    C213086   3.615   4.271   1.605 -0.2918 -0.0445 -0.0179
  893MPD2    C313087   3.498   4.338   1.592  0.5322  0.5887  0.3301
  893MPD2    C413088   3.451   4.372   1.463 -0.2210  0.1426 -0.7863
  893MPD2    C513089   3.521   4.337   1.351  0.5438 -0.1593 -0.0143
  893MPD2     H13090   3.665   4.242   1.696  2.0343  1.6341 -0.7781
  893MPD2    H113091   3.364   4.436   1.449  0.0335  0.4057 -1.1623
  893MPD2    H213092   3.659   4.201   1.275 -0.0036  0.7779 -0.7833
  893MPD2    H313093   3.468   4.361   1.259 -0.1056 -0.4481  0.2793
  893MPD2     N13094   3.429   4.401   1.701  0.3985  0.6297  0.0584
  893MPD2    H513095   3.355   4.466   1.678  0.3209  0.2201 -0.8525
  893MPD2    N113096   3.793   4.147   1.485  0.0307  0.1884  0.3248
  893MPD2    H713097   3.844   4.143   1.398  1.2133 -2.4997  1.1198
  894MPD2     C13098   1.927   1.166   1.164  0.2014 -0.3480  0.6973
  894MPD2    C113099   2.010   1.268   1.196 -0.0165  0.5392 -0.2573
  894MPD2    C213100   2.069   1.328   1.083 -0.9770 -0.7893  0.0520
  894MPD2    C313101   2.045   1.295   0.955 -0.4025 -0.4283 -0.4055
  894MPD2    C413102   1.962   1.189   0.919 -0.9990  0.0910 -0.3852
  894MPD2    C513103   1.904   1.130   1.030 -0.1577 -0.1198 -0.2351
  894MPD2     H13104   2.141   1.406   1.108  1.1651 -3.2050  1.4256
  894MPD2    H113105   1.933   1.157   0.820 -3.7284  0.4885  0.2665
  894MPD2    H213106   1.874   1.105   1.236 -0.4149  1.0344  1.4181
  894MPD2    H313107   1.849   1.039   1.008 -2.1839  1.1263 -0.3460
  894MPD2     N13108   2.100   1.377   0.855  0.0835 -0.2004 -0.1487
  894MPD2    H513109   2.159   1.453   0.886  0.2922  0.1352 -1.3603
  894MPD2    N113110   2.032   1.306   1.332 -0.2456 -0.2861  0.2377
  894MPD2    H713111   2.110   1.369   1.345  0.3445 -0.8698 -0.5089
  895MPD2     C13112   1.377   3.749  13.489 -0.2219  0.4252 -0.1580
  895MPD2    C113113   1.378   3.798  13.366 -0.2059  0.7110  0.2114
  895MPD2    C213114   1.448   3.737  13.270 -0.2147  0.2813  0.8890
  895MPD2    C313115   1.520   3.620  13.294 -0.1501  0.4528  0.1205
  895MPD2    C413116   1.530   3.573  13.420  0.0155 -0.1880  0.2386
  895MPD2    C513117   1.460   3.641  13.514  0.1243  0.1390  0.0270
  895MPD2     H13118   1.438   3.780  13.171 -0.3140  0.6197  1.0472
  895MPD2    H113119   1.592   3.489  13.447 -0.7856 -1.1190 -0.8064
  895MPD2    H213120   1.329   3.789  13.578 -2.6323 -1.3272 -0.6915
  895MPD2    H313121   1.468   3.598  13.614 -0.7171  1.7587  0.7871
  895MPD2     N13122   1.576   3.542  13.186 -0.2995  0.4391  0.1184
  895MPD2    H513123   1.607   3.449  13.211 -0.5956 -0.0086 -1.1759
  895MPD2    N113124   1.289   3.903  13.330  0.5467  0.5057  0.0011
  895MPD2    H713125   1.293   3.939  13.236 -1.7771 -1.3626 -0.7992
  896MPD2     C13126   3.913   2.181   1.603  0.7815 -0.0818 -0.9020
  896MPD2    C113127   3.922   2.135   1.477  0.4236 -0.5487  1.1722
  896MPD2    C213128   3.808   2.105   1.411 -0.2409  0.1221 -0.2191
  896MPD2    C313129   3.689   2.134   1.474  0.5259 -0.3922 -0.4369
  896MPD2    C413130   3.681   2.194   1.601 -1.0593  0.3211 -0.1734
  896MPD2    C513131   3.796   2.217   1.658  0.2026  0.2715 -1.0109
  896MPD2     H13132   3.804   2.066   1.310 -0.5830 -1.0117  0.2399
  896MPD2    H113133   3.592   2.229   1.650  0.2298  0.0454  2.3419
  896MPD2    H213134   3.996   2.205   1.668  0.1710  2.4527 -1.0422
  896MPD2    H313135   3.805   2.263   1.756  0.6725 -2.1824  0.0817
  896MPD2     N13136   3.573   2.108   1.403 -0.2272 -0.1778  0.1704
  896MPD2    H513137   3.582   2.084   1.305  2.5495  0.5022  0.2415
  896MPD2    N113138   4.049   2.106   1.427 -0.2549 -0.2947  0.2654
  896MPD2    H713139   4.120   2.124   1.497 -0.0382  0.6052 -0.1982
  897MPD2     C13140   4.022   3.434  10.137 -0.0666 -0.1370  0.6655
  897MPD2    C113141   4.089   3.503  10.233 -0.2236  0.0737 -0.3958
  897MPD2    C213142   4.018   3.578  10.326  0.1796 -0.2903 -0.2048
  897MPD2    C313143   3.878   3.588  10.312  0.2553 -0.0505  1.4126
  897MPD2    C413144   3.814   3.506  10.227  0.0280  0.4873  0.2506
  897MPD2    C513145   3.883   3.426  10.138 -0.5770 -0.5821 -0.3916
  897MPD2     H13146   4.065   3.655  10.385  1.6161 -0.1093 -1.5872
  897MPD2    H113147   3.706   3.514  10.226  0.0751  1.0746 -0.1329
  897MPD2    H213148   4.080   3.383  10.060  1.1394 -1.4078  2.4064
  897MPD2    H313149   3.831   3.370  10.062 -1.3832 -0.6838  0.2439
  897MPD2     N13150   3.815   3.699  10.372 -0.3289 -0.1872  0.2771
  897MPD2    H513151   3.868   3.746  10.445  1.9465 -1.8215 -0.3108
  897MPD2    N113152   4.229   3.517  10.216 -0.1155  0.5031 -0.3738
  897MPD2    H713153   4.262   3.493  10.123 -0.8096 -0.6483 -0.3288
  898MPD2     C13154   2.017   4.544   0.149  0.5942 -0.0758 -0.7721
  898MPD2    C113155   2.085   4.654   0.101  0.0959 -0.5412 -0.3359
  898MPD2    C213156   2.018   0.004   0.006  0.1253 -0.2303  0.1868
  898MPD2    C313157   1.900   4.692  17.649 -0.7316 -0.4333 -0.4191
  898MPD2    C413158   1.838   4.571  17.691 -0.1523 -0.0082 -0.3081
  898MPD2    C513159   1.901   4.500   0.089 -0.5222  0.0023  0.3383
  898MPD2     H13160   2.067   0.091  17.662 -0.1778 -0.3110 -0.3247
  898MPD2    H113161   1.745   4.536  17.647 -0.7359  0.0348  0.8962
  898MPD2    H213162   2.059   4.476   0.222 -2.0346 -0.5795  0.2682
  898MPD2    H313163   1.867   4.398   0.101 -0.5034 -0.3799 -2.9280
  898MPD2     N13164   1.828   0.058  17.559  0.0116  0.0018  0.2239
  898MPD2    H513165   1.865   0.153  17.557 -0.9209  0.3362 -1.0816
  898MPD2    N113166   2.208   4.700   0.163  0.4910  0.1317 -0.7735
  898MPD2    H713167   2.255   0.054   0.119 -1.2847  2.2988  1.2456
  899MPD2     C13168   2.740   0.514  16.847 -0.5902 -0.3201  0.2327
  899MPD2    C113169   2.770   0.576  16.967 -0.2270 -0.6781  0.1027
  899MPD2    C213170   2.748   0.509  17.088  0.1435  0.1240 -0.0143
  899MPD2    C313171   2.707   0.377  17.091 -0.7644  0.6229  0.4508
  899MPD2    C413172   2.677   0.315  16.968  0.1588  0.2364 -0.1273
  899MPD2    C513173   2.692   0.386  16.854  0.6347 -0.0120 -0.2782
  899MPD2     H13174   2.767   0.558  17.183  0.9302  1.2382 -0.7433
  899MPD2    H113175   2.643   0.213  16.961  1.5736 -0.2919  0.5811
  899MPD2    H213176   2.758   0.556  16.749  0.9476 -4.3623 -1.2277
  899MPD2    H313177   2.680   0.338  16.758 -2.8694 -0.4518  0.3591
  899MPD2     N13178   2.665   0.318  17.209 -0.4144 -0.2978  0.1616
  899MPD2    H513179   2.611   0.233  17.196 -2.0605  0.8151 -0.1677
  899MPD2    N113180   2.819   0.707  16.960 -0.3880 -0.3471 -0.3410
  899MPD2    H713181   2.814   0.750  16.868 -2.4025 -0.8506 -0.4812
  900MPD2     C13182   2.415   2.461  12.423  0.6794 -0.5011  0.2035
  900MPD2    C113183   2.344   2.344  12.408  0.0264 -0.0020 -0.1380
  900MPD2    C213184   2.207   2.358  12.374 -0.5077 -0.1678  0.1863
  900MPD2    C313185   2.145   2.480  12.352 -0.1791  0.4230 -0.1317
  900MPD2    C413186   2.222   2.595  12.363 -0.6315 -0.5121  0.8162
  900MPD2    C513187   2.356   2.580  12.395 -0.5823 -0.0585 -0.6405
  900MPD2     H13188   2.141   2.274  12.358 -0.4196 -0.1626 -0.2094
  900MPD2    H113189   2.170   2.687  12.337  1.2862 -0.6191 -3.3652
  900MPD2    H213190   2.522   2.460  12.441  0.7079  1.1723  0.1286
  900MPD2    H313191   2.427   2.662  12.400  1.3403 -1.8143  0.9891
  900MPD2     N13192   2.019   2.483  12.304 -0.1554  0.4576  0.8175
  900MPD2    H513193   1.991   2.388  12.281 -1.5769  1.1104 -0.1616
  900MPD2    N113194   2.403   2.218  12.405 -0.1740 -0.5479 -0.6213
  900MPD2    H713195   2.503   2.202  12.418  0.0306  2.8210  2.1202
  901MPD2     C13196   2.469   1.248  12.861 -0.1590  0.1915 -0.1476
  901MPD2    C113197   2.506   1.229  12.728  0.6624  0.4410  0.5784
  901MPD2    C213198   2.519   1.341  12.647 -0.6225 -0.1715  0.3667
  901MPD2    C313199   2.487   1.465  12.696 -0.9014 -0.8272  0.0068
  901MPD2    C413200   2.449   1.485  12.828  1.0156 -0.2716 -0.4782
  901MPD2    C513201   2.464   1.373  12.914  0.0678  0.1457 -0.8831
  901MPD2     H13202   2.521   1.334  12.539  3.3163 -1.5398  0.5127
  901MPD2    H113203   2.438   1.587  12.863  0.3035 -0.7253  0.6059
  901MPD2    H213204   2.468   1.161  12.926 -3.3675  0.4751  0.2312
  901MPD2    H313205   2.456   1.398  13.019  1.4121  0.4736 -0.8551
  901MPD2     N13206   2.496   1.572  12.602  0.5897  0.0270 -0.2160
  901MPD2    H513207   2.554   1.548  12.522 -1.2733 -1.8333 -0.9955
  901MPD2    N113208   2.519   1.093  12.684  0.0834  0.4694  0.2860
  901MPD2    H713209   2.519   1.027  12.761 -1.5836  0.3381  0.1569
  902MPD2     C13210   0.862   4.359  12.728 -0.7233  0.1008  0.2753
  902MPD2    C113211   0.963   4.427  12.795 -0.1748  0.0088 -0.3789
  902MPD2    C213212   1.092   4.371  12.790  0.5478  0.4812  0.1065
  902MPD2    C313213   1.111   4.255  12.716 -0.2739 -0.1222  0.4641
  902MPD2    C413214   1.009   4.202  12.642 -0.5340 -0.3228 -0.2697
  902MPD2    C513215   0.885   4.263  12.638 -0.3643  0.5801  0.1801
  902MPD2     H13216   1.173   4.423  12.840  0.2715 -0.4363  1.5167
  902MPD2    H113217   1.024   4.117  12.577 -0.0014  1.7898 -2.8766
  902MPD2    H213218   0.756   4.382  12.721 -0.6351  0.8190  1.3297
  902MPD2    H313219   0.814   4.227  12.564 -0.4234 -3.6765  2.3725
  902MPD2     N13220   1.232   4.186  12.718 -0.4821  0.2032  0.5848
  902MPD2    H513221   1.243   4.096  12.671  0.9985 -0.2263  1.7378
  902MPD2    N113222   0.940   4.547  12.852 -0.6155  0.5215  0.2023
  902MPD2    H713223   0.847   4.586  12.840 -0.9539 -0.0420  0.9714
  903MPD2     C13224   1.659   3.877  12.137 -0.2077  0.4469  0.5566
  903MPD2    C113225   1.597   3.977  12.202 -0.0367  0.0655 -0.3218
  903MPD2    C213226   1.502   4.047  12.130  0.1336 -0.4863  0.6576
  903MPD2    C313227   1.478   4.042  11.993 -0.1372  0.0136 -0.4120
  903MPD2    C413228   1.542   3.936  11.934 -0.0784 -0.1157 -0.0273
  903MPD2    C513229   1.626   3.850  12.004 -0.3622  0.1128 -0.1079
  903MPD2     H13230   1.434   4.113  12.183  1.1066  0.5873  0.5639
  903MPD2    H113231   1.531   3.902  11.831 -0.7442  0.4198 -0.1342
  903MPD2    H213232   1.734   3.820  12.190  1.4319  2.1361  0.0429
  903MPD2    H313233   1.678   3.763  11.966  1.3122  1.5819 -1.2050
  903MPD2     N13234   1.388   4.117  11.920 -0.6070  0.2858 -0.1670
  903MPD2    H513235   1.375   4.093  11.822  0.7108 -2.1053  0.2245
  903MPD2    N113236   1.640   4.007  12.336 -0.2477  0.4695  0.0278
  903MPD2    H713237   1.716   3.947  12.366  0.2026  1.2841  0.4901
  904MPD2     C13238   1.267   3.362  13.840 -0.3858  0.5599 -0.4959
  904MPD2    C113239   1.213   3.484  13.851 -0.2785  0.0855 -0.6226
  904MPD2    C213240   1.218   3.550  13.967  0.5950  0.2197 -0.0560
  904MPD2    C313241   1.279   3.496  14.080  0.3098 -0.4397 -0.4032
  904MPD2    C413242   1.337   3.370  14.073  0.2787  0.1424  0.3931
  904MPD2    C513243   1.337   3.307  13.948  0.0422 -0.7355  0.7282
  904MPD2     H13244   1.179   3.651  13.976  0.4158  0.2837 -1.6275
  904MPD2    H113245   1.377   3.313  14.156 -1.7660  0.0941  1.3418
  904MPD2    H213246   1.271   3.308  13.745 -0.9196  0.2065 -0.3137
  904MPD2    H313247   1.389   3.214  13.935  0.7320  0.0277 -1.8435
  904MPD2     N13248   1.276   3.577  14.203 -0.6282  0.4654 -0.2635
  904MPD2    H513249   1.241   3.671  14.186 -0.9563  0.6897  1.7072
  904MPD2    N113250   1.160   3.557  13.741  0.0596  0.5568 -0.1922
  904MPD2    H713251   1.131   3.652  13.762 -3.1275 -0.0163 -2.0229
  905MPD2     C13252   0.823   3.537  12.883 -0.0348 -0.6357  0.2602
  905MPD2    C113253   0.944   3.542  12.944 -0.0394 -0.1174 -0.9893
  905MPD2    C213254   1.058   3.485  12.881 -0.1137  0.5000 -0.1767
  905MPD2    C313255   1.043   3.411  12.770  0.5261 -0.0670  0.2719
  905MPD2    C413256   0.918   3.401  12.712  0.4833 -0.2404 -0.0971
  905MPD2    C513257   0.805   3.460  12.767 -0.7534  0.0020  0.0186
  905MPD2     H13258   1.153   3.495  12.931 -1.3366  4.1872  1.4581
  905MPD2    H113259   0.906   3.344  12.621  1.8933  1.3873 -1.3055
  905MPD2    H213260   0.737   3.581  12.931  0.8903  1.3356  0.0760
  905MPD2    H313261   0.709   3.444  12.719 -0.5059 -1.2943 -0.0235
  905MPD2     N13262   1.142   3.372  12.682  0.0869  0.5618 -0.5479
  905MPD2    H513263   1.112   3.355  12.586  0.0308 -1.6332 -0.1495
  905MPD2    N113264   0.951   3.602  13.069  0.0038 -0.6203  0.2616
  905MPD2    H713265   0.861   3.633  13.105 -0.4127 -0.8011 -0.5961
  906MPD2     C13266   2.795   3.988  10.942  0.1255  0.0056  0.1484
  906MPD2    C113267   2.729   3.930  10.832 -0.1168  0.3485 -0.3901
  906MPD2    C213268   2.627   3.839  10.854  0.1606  0.8744  0.1821
  906MPD2    C313269   2.597   3.792  10.978  0.0860  0.0999 -0.6347
  906MPD2    C413270   2.672   3.839  11.084 -0.0068  0.3000  0.0367
  906MPD2    C513271   2.765   3.933  11.064 -0.3585  0.3000 -0.4421
  906MPD2     H13272   2.576   3.811  10.763 -1.1579  2.0920  0.5564
  906MPD2    H113273   2.658   3.808  11.187 -1.6921  1.0061  0.0301
  906MPD2    H213274   2.870   4.066  10.943 -0.2414  0.3639  0.4411
  906MPD2    H313275   2.812   3.968  11.155 -2.4017  3.4335 -0.5634
  906MPD2     N13276   2.495   3.697  11.008  0.0411 -0.4202  0.1140
  906MPD2    H513277   2.465   3.691  11.105  0.5068 -0.2225  0.2732
  906MPD2    N113278   2.739   3.974  10.697 -0.0473  0.0036  0.3954
  906MPD2    H713279   2.668   3.938  10.634  0.4978 -2.2948  1.0997
  907MPD2     C13280   2.166   3.085  15.107  0.8279  0.1812  0.5364
  907MPD2    C113281   2.182   2.952  15.144  0.4632  0.1215 -0.8767
  907MPD2    C213282   2.278   2.924  15.237 -0.4599  1.0043  0.2117
  907MPD2    C313283   2.345   3.024  15.309 -0.1983  0.1551  0.6826
  907MPD2    C413284   2.306   3.153  15.286 -0.3703  0.2025 -0.2975
  907MPD2    C513285   2.219   3.183  15.187 -0.4205  0.6224 -0.7630
  907MPD2     H13286   2.296   2.821  15.264 -1.5638  1.4345  2.5896
  907MPD2    H113287   2.341   3.239  15.342 -3.3912 -0.3042  2.3465
  907MPD2    H213288   2.105   3.120  15.024  0.4129  0.4742  0.9609
  907MPD2    H313289   2.196   3.288  15.174  0.9805  0.9898 -0.2894
  907MPD2     N13290   2.441   2.997  15.410 -0.1489 -0.3204 -0.0011
  907MPD2    H513291   2.490   2.908  15.415  1.0517  0.3981  1.0757
  907MPD2    N113292   2.134   2.840  15.072  0.2387 -0.5015  0.0425
  907MPD2    H713293   2.182   2.754  15.094  1.2869 -0.2218 -1.1435
  908MPD2     C13294   4.606   3.359   9.543 -0.7602 -0.0102  0.5551
  908MPD2    C113295   4.491   3.432   9.553  0.5692 -0.5815 -0.3199
  908MPD2    C213296   4.465   3.505   9.665  0.4896 -0.5387 -0.0788
  908MPD2    C313297   4.562   3.520   9.757 -0.0122 -0.7010  0.3512
  908MPD2    C413298   4.688   3.462   9.744  0.0078 -0.0598  0.3291
  908MPD2    C513299   4.702   3.377   9.640 -0.4927  0.1525  0.2246
  908MPD2     H13300   4.373   3.557   9.687 -0.0376 -0.5985 -2.1735
  908MPD2    H113301   0.042   3.477   9.818 -2.3236 -0.7975  2.9310
  908MPD2    H213302   4.637   3.295   9.462  0.4429  1.0619  0.1610
  908MPD2    H313303   0.075   3.331   9.627  0.0493  1.3130  0.1283
  908MPD2     N13304   4.529   3.595   9.875 -0.7107  0.7524 -0.2552
  908MPD2    H513305   4.438   3.641   9.876 -0.1427  1.8919  0.0056
  908MPD2    N113306   4.386   3.426   9.461  0.2642  0.3043  0.3662
  908MPD2    H713307   4.308   3.481   9.497 -0.1708  0.5220 -0.9116
  909MPD2     C13308   0.296   2.520  11.658  0.3177 -0.2450  0.4989
  909MPD2    C113309   0.217   2.560  11.558  1.1715  0.0669 -0.4229
  909MPD2    C213310   0.081   2.569  11.577  0.3573 -0.2542 -0.0650
  909MPD2    C313311   0.024   2.533  11.701 -0.0071 -0.2786  0.0566
  909MPD2    C413312   0.109   2.494  11.809  0.1792  0.1625 -0.8962
  909MPD2    C513313   0.247   2.488  11.782  0.2434 -0.0213 -0.0207
  909MPD2     H13314   0.021   2.607  11.496 -0.6685  2.1827  1.8330
  909MPD2    H113315   0.067   2.473  11.907  0.2015  2.6339 -0.3571
  909MPD2    H213316   0.403   2.508  11.648  0.0204  1.1287 -4.5079
  909MPD2    H313317   0.311   2.451  11.861  1.5551  1.1685 -0.5117
  909MPD2     N13318   4.608   2.539  11.706 -0.1692 -0.0328 -0.0088
  909MPD2    H513319   4.555   2.574  11.627  0.3231 -0.2170 -0.4167
  909MPD2    N113320   0.256   2.572  11.425  0.1402 -0.3816  0.1076
  909MPD2    H713321   0.186   2.623  11.372  0.6992  1.2562  0.9477
  910MPD2     C13322   0.954   3.479  15.856 -0.4865  0.0204  0.4991
  910MPD2    C113323   1.060   3.481  15.766 -0.5660 -0.0899  0.5601
  910MPD2    C213324   1.045   3.558  15.648 -0.5913 -0.2965  0.0475
  910MPD2    C313325   0.933   3.634  15.620  0.2440  0.2215 -0.1036
  910MPD2    C413326   0.839   3.647  15.722  0.2122 -0.6442 -0.1170
  910MPD2    C513327   0.849   3.573  15.839  0.2021  0.5475  0.3019
  910MPD2     H13328   1.116   3.546  15.567  0.6480 -0.8965  1.2254
  910MPD2    H113329   0.751   3.709  15.712  0.4617 -0.2643  0.0583
  910MPD2    H213330   0.949   3.418  15.946 -3.7406 -0.5518 -0.0802
  910MPD2    H313331   0.767   3.583  15.910  0.1909  0.8691  0.2424
  910MPD2     N13332   0.903   3.698  15.497 -0.1958  0.1380 -0.3439
  910MPD2    H513333   0.814   3.745  15.504 -0.3756  0.0384 -2.0636
  910MPD2    N113334   1.185   3.418  15.789  0.1554 -0.3124 -0.5261
  910MPD2    H713335   1.255   3.426  15.715  0.3919  5.7996  0.3289
  911MPD2     C13336   4.098   4.719  16.258 -0.3958 -0.1451  0.0547
  911MPD2    C113337   4.080   4.586  16.280  0.1399 -0.6100 -0.1631
  911MPD2    C213338   3.971   4.521  16.241 -0.2812  0.2099 -0.0114
  911MPD2    C313339   3.867   4.592  16.172  0.8185 -0.0969  0.0422
  911MPD2    C413340   3.886   0.006  16.159  0.2489  0.1263 -0.1447
  911MPD2    C513341   3.997   0.070  16.204 -1.0917  0.1300 -0.7229
  911MPD2     H13342   3.961   4.415  16.264  0.4479  0.3134  0.7899
  911MPD2    H113343   3.815   0.070  16.108 -2.0635 -1.1862  1.4508
  911MPD2    H213344   4.189   0.049  16.281  0.1924  0.6257 -4.0189
  911MPD2    H313345   4.014   0.175  16.188  0.3355  0.1531  0.9384
  911MPD2     N13346   3.750   4.532  16.124 -0.2111  0.2846  0.3189
  911MPD2    H513347   3.695   4.581  16.055 -0.4205  0.1300  0.3772
  911MPD2    N113348   4.190   4.516  16.341  0.4655  0.2879  0.7658
  911MPD2    H713349   4.263   4.575  16.378  1.1410 -0.0375 -0.0547
  912MPD2     C13350   3.583   3.667  15.811  0.3815 -0.7090 -0.1615
  912MPD2    C113351   3.602   3.749  15.925  0.1308 -0.1868  0.4337
  912MPD2    C213352   3.640   3.679  16.041  0.2650  0.7608  0.6863
  912MPD2    C313353   3.656   3.538  16.049 -0.3778 -0.4771  0.0907
  912MPD2    C413354   3.643   3.459  15.930 -0.1627 -0.5608 -0.8646
  912MPD2    C513355   3.598   3.528  15.817  0.0825 -1.1568  0.1569
  912MPD2     H13356   3.674   3.729  16.131  0.1416  2.5503 -0.2771
  912MPD2    H113357   3.663   3.353  15.927  2.3649 -0.1163  0.1502
  912MPD2    H213358   3.550   3.704  15.715  1.2297  0.7070  0.0898
  912MPD2    H313359   3.584   3.469  15.727 -3.2206  2.1219 -1.4919
  912MPD2     N13360   3.715   3.481  16.167  0.6890 -0.2950  0.2954
  912MPD2    H513361   3.746   3.543  16.241 -1.0547  0.4648  0.3956
  912MPD2    N113362   3.606   3.896  15.917 -0.0104  0.1304  0.1581
  912MPD2    H713363   3.590   3.927  15.822  1.7024  2.2472  0.5368
  913MPD2     C13364   4.369   0.526  10.495  0.4892 -0.1819 -0.8510
  913MPD2    C113365   4.391   0.649  10.554 -0.1918 -0.0994 -0.6791
  913MPD2    C213366   4.364   0.767  10.489 -0.3573  0.1668  0.5578
  913MPD2    C313367   4.319   0.756  10.358  0.2966 -0.3784 -0.7822
  913MPD2    C413368   4.281   0.631  10.312  0.5732  0.2073  0.1544
  913MPD2    C513369   4.303   0.519  10.377  0.1510  0.1240 -0.4991
  913MPD2     H13370   4.386   0.863  10.534  0.1697 -0.6670  2.0772
  913MPD2    H113371   4.224   0.631  10.220 -1.3104 -1.8819  1.3004
  913MPD2    H213372   4.382   0.432  10.548 -0.1136  0.0219 -0.3353
  913MPD2    H313373   4.263   0.429  10.331  1.7053  0.0870 -1.7814
  913MPD2     N13374   4.295   0.878  10.275 -0.7211 -0.0230  0.6502
  913MPD2    H513375   4.230   0.866  10.198  2.1955 -3.1741 -1.3321
  913MPD2    N113376   4.445   0.651  10.688 -0.6672 -0.0922  0.4091
  913MPD2    H713377   4.503   0.572  10.715  0.5210  0.9850  1.0221
  914MPD2     C13378   2.233   0.721  11.825  0.4320 -0.2622 -0.2854
  914MPD2    C113379   2.164   0.807  11.907  0.1556 -0.3703  0.1461
  914MPD2    C213380   2.214   0.828  12.039 -0.0936  0.4526  0.3977
  914MPD2    C313381   2.312   0.747  12.089 -0.3486  0.1118 -0.5229
  914MPD2    C413382   2.365   0.647  12.003  0.3318  0.6260 -0.2495
  914MPD2    C513383   2.335   0.650  11.866  0.3299  0.2296 -0.2432
  914MPD2     H13384   2.152   0.899  12.093  1.8382  2.8601 -0.5250
  914MPD2    H113385   2.446   0.581  12.029 -0.7994 -1.2169 -1.3526
  914MPD2    H213386   2.210   0.716  11.720  0.9338 -0.1194 -0.4000
  914MPD2    H313387   2.396   0.603  11.790 -1.4841 -0.5741 -1.1837
  914MPD2     N13388   2.368   0.767  12.218 -0.4908 -0.0030 -0.4558
  914MPD2    H513389   2.318   0.837  12.271 -0.6154 -1.6710  1.6500
  914MPD2    N113390   2.058   0.877  11.849  0.9081 -0.2135  0.0642
  914MPD2    H713391   2.049   0.875  11.747 -2.2134  0.2096  0.3230
  915MPD2     C13392   0.735   0.820  15.551  0.0931 -0.1681  0.6809
  915MPD2    C113393   0.613   0.772  15.590  0.2780  0.5754  0.1837
  915MPD2    C213394   0.561   0.823  15.704  0.4330 -0.0688 -0.0781
  915MPD2    C313395   0.615   0.931  15.771  0.1628  0.0372  0.0240
  915MPD2    C413396   0.731   0.986  15.716  0.5665  0.4226  0.2008
  915MPD2    C513397   0.799   0.924  15.613 -0.4435 -0.4401  0.2208
  915MPD2     H13398   0.474   0.774  15.745 -0.0557  1.9362  1.2708
  915MPD2    H113399   0.775   1.076  15.759  1.6172 -1.5899  3.3404
  915MPD2    H213400   0.786   0.774  15.467 -0.3020 -0.4375  0.5864
  915MPD2    H313401   0.896   0.957  15.578 -1.1140 -0.0712 -1.2935
  915MPD2     N13402   0.547   0.981  15.885  0.2704  0.2554  0.1010
  915MPD2    H513403   0.462   0.927  15.895 -0.0476  0.7410  0.0500
  915MPD2    N113404   0.567   0.659  15.519  0.4648  0.3850 -0.4965
  915MPD2    H713405   0.631   0.624  15.449  0.5360  0.9497 -0.7183
  916MPD2     C13406   3.190   3.801  15.593  0.5544  0.1858 -0.4077
  916MPD2    C113407   3.152   3.687  15.660 -0.4048  0.0248  0.0175
  916MPD2    C213408   3.227   3.576  15.633 -0.1576 -0.3860 -0.2276
  916MPD2    C313409   3.338   3.576  15.550 -0.4296  0.3080  0.1115
  916MPD2    C413410   3.367   3.689  15.477 -0.3716  0.3305 -0.0815
  916MPD2    C513411   3.291   3.802  15.500  0.0561  0.2096 -0.1888
  916MPD2     H13412   3.200   3.477  15.668  0.4152 -0.7600 -0.8467
  916MPD2    H113413   3.450   3.697  15.408  0.9439 -0.9231  1.3614
  916MPD2    H213414   3.128   3.890  15.607  2.7687  1.3593  1.8458
  916MPD2    H313415   3.308   3.885  15.433  1.2443 -0.3913 -0.6428
  916MPD2     N13416   3.416   3.464  15.544  0.6344 -0.2119  0.4546
  916MPD2    H513417   3.402   3.397  15.619 -0.5642 -2.3698 -1.6813
  916MPD2    N113418   3.040   3.694  15.744  0.3668  0.1986 -0.6316
  916MPD2    H713419   2.995   3.782  15.767 -2.2102 -0.4970 -2.9312
  917MPD2     C13420   3.377   1.461  10.804  0.5303  0.1297  0.0028
  917MPD2    C113421   3.463   1.484  10.915  0.1515 -0.0678 -0.2046
  917MPD2    C213422   3.553   1.594  10.906 -0.3792  0.4932 -0.3374
  917MPD2    C313423   3.558   1.676  10.798 -0.4982  0.0408 -0.3758
  917MPD2    C413424   3.467   1.658  10.698  0.1500 -0.5583  0.4627
  917MPD2    C513425   3.381   1.550  10.702 -0.2098 -0.4923 -0.7367
  917MPD2     H13426   3.617   1.606  10.992  0.1113  0.8032 -0.7424
  917MPD2    H113427   3.455   1.733  10.620 -0.1651  0.0872  1.1298
  917MPD2    H213428   3.303   1.381  10.802  0.7898 -0.1626  2.1070
  917MPD2    H313429   3.316   1.539  10.616 -2.0139 -0.2333  0.5815
  917MPD2     N13430   3.625   1.796  10.796  0.0851  0.2750  0.5268
  917MPD2    H513431   3.580   1.862  10.734  0.5449 -1.8146 -2.0299
  917MPD2    N113432   3.458   1.403  11.032  0.7180 -0.3710  0.0182
  917MPD2    H713433   3.402   1.319  11.016  0.6536 -0.5778  1.3404
  918MPD2     C13434   3.756   1.456  12.045 -0.7607 -0.3882  0.6469
  918MPD2    C113435   3.814   1.360  11.962  0.4798 -0.6205 -0.1083
  918MPD2    C213436   3.765   1.348  11.830  0.0312  0.5523 -0.4978
  918MPD2    C313437   3.660   1.418  11.778 -0.2743  0.1606 -1.0558
  918MPD2    C413438   3.601   1.513  11.869 -0.1535  0.0613  0.4531
  918MPD2    C513439   3.650   1.531  11.998  0.1202  0.2876  0.0933
  918MPD2     H13440   3.814   1.267  11.776 -1.4788 -1.8945  1.8143
  918MPD2    H113441   3.513   1.571  11.840 -0.0500  0.1019  0.2210
  918MPD2    H213442   3.772   1.483  12.149  2.0218 -1.1253  0.3942
  918MPD2    H313443   3.609   1.604  12.066  1.0201  0.5052  0.3884
  918MPD2     N13444   3.611   1.385  11.648 -0.2283 -0.2158  0.1002
  918MPD2    H513445   3.652   1.306  11.599  0.0409  0.4124 -0.6893
  918MPD2    N113446   3.916   1.276  12.011  0.0798 -0.4580  0.1622
  918MPD2    H713447   3.955   1.207  11.948  0.4183  1.1755 -1.4282
  919MPD2     C13448   4.312   0.599  11.646  0.5732  1.0692 -0.0657
  919MPD2    C113449   4.283   0.470  11.604  0.3692 -0.2952  0.3145
  919MPD2    C213450   4.259   0.455  11.467 -0.0620  0.1912 -0.5910
  919MPD2    C313451   4.250   0.558  11.376 -0.1879  0.0604  0.0796
  919MPD2    C413452   4.289   0.683  11.425 -0.8467 -0.0619 -0.4026
  919MPD2    C513453   4.327   0.694  11.557  0.6112  1.1589  0.6278
  919MPD2     H13454   4.247   0.357  11.424 -0.1979 -0.2706  0.4997
  919MPD2    H113455   4.278   0.771  11.362  0.8397 -0.8489 -1.7871
  919MPD2    H213456   4.336   0.623  11.749  0.3983  0.8089  0.0354
  919MPD2    H313457   4.339   0.798  11.585  2.9940  0.7351  1.1805
  919MPD2     N13458   4.224   0.551  11.237 -0.3469  0.6766  0.0677
  919MPD2    H513459   4.231   0.632  11.176 -2.1432  0.2343 -0.7368
  919MPD2    N113460   4.282   0.354  11.685  0.0600  0.1000  0.4507
  919MPD2    H713461   4.281   0.267  11.633  1.8064  0.6422 -0.5100
  920MPD2     C13462   3.977   1.084  10.465  0.8103 -0.3071 -0.0900
  920MPD2    C113463   3.878   0.990  10.458 -0.7082  0.4268 -0.3475
  920MPD2    C213464   3.900   0.880  10.530  0.0995 -0.7462 -0.8068
  920MPD2    C313465   4.005   0.875  10.623  0.4937 -0.3751  0.4141
  920MPD2    C413466   4.101   0.974  10.636  0.0058 -0.3478  0.7812
  920MPD2    C513467   4.084   1.079  10.547 -0.1779  0.1915 -0.0373
  920MPD2     H13468   3.819   0.809  10.531 -0.7769  0.2676  0.1275
  920MPD2    H113469   4.177   0.963  10.713 -0.6003 -0.9376  1.2880
  920MPD2    H213470   3.979   1.175  10.406 -1.9983 -1.4124 -1.8850
  920MPD2    H313471   4.154   1.160  10.531  1.4219 -0.9143  1.4481
  920MPD2     N13472   4.017   0.759  10.698  0.2980  0.1051 -0.9168
  920MPD2    H513473   3.963   0.678  10.668 -0.5856  0.0423  0.8807
  920MPD2    N113474   3.768   0.993  10.376  0.2251  0.1611 -0.5546
  920MPD2    H713475   3.701   0.918  10.390 -0.5063  0.8391 -0.4189
  921MPD2     C13476   0.263   4.249  16.930  0.6876  0.5778 -0.3288
  921MPD2    C113477   0.234   4.156  16.830 -0.7166 -0.5274  0.1557
  921MPD2    C213478   0.122   4.175  16.754  0.4309  0.6017  0.0975
  921MPD2    C313479   0.032   4.276  16.774  0.0541  0.4956 -0.4070
  921MPD2    C413480   0.057   4.357  16.881 -0.0255 -0.2795 -0.4087
  921MPD2    C513481   0.170   4.344  16.956  0.2075  0.1024 -0.0449
  921MPD2     H13482   0.087   4.111  16.674 -0.3360 -0.8962  1.6442
  921MPD2    H113483   4.718   4.440  16.910  0.1942 -0.3918  0.3884
  921MPD2    H213484   0.347   4.238  16.996 -1.0044 -2.5912  1.3170
  921MPD2    H313485   0.181   4.418  17.034 -0.9322 -0.4090  0.6032
  921MPD2     N13486   4.652   4.285  16.684  0.8251  0.3860 -0.1299
  921MPD2    H513487   4.658   4.220  16.607  2.9953 -2.7017  2.6474
  921MPD2    N113488   0.319   4.049  16.817 -0.2876 -0.0868  0.2758
  921MPD2    H713489   0.383   4.042  16.895 -1.1519 -2.5630  0.7813
  922MPD2     C13490   1.419   1.877  16.622 -0.7563  0.1525 -0.6083
  922MPD2    C113491   1.425   1.944  16.740  0.4906  0.0192  0.4931
  922MPD2    C213492   1.367   1.887  16.853  0.0432  0.3950  0.1620
  922MPD2    C313493   1.315   1.759  16.849 -0.4899 -0.0371 -0.2936
  922MPD2    C413494   1.319   1.696  16.729  0.6782 -0.3594 -0.4862
  922MPD2    C513495   1.377   1.750  16.617  0.0476 -0.1796 -0.1031
  922MPD2     H13496   1.371   1.943  16.946  0.6500 -0.1050  0.4364
  922MPD2    H113497   1.281   1.595  16.717  0.0301 -0.0877 -0.7058
  922MPD2    H213498   1.448   1.914  16.524  3.2313  0.5276  0.7256
  922MPD2    H313499   1.370   1.706  16.518  0.4063  0.3531 -0.3667
  922MPD2     N13500   1.262   1.706  16.971  0.6784  0.0579 -0.1358
  922MPD2    H513501   1.254   1.759  17.057  2.3037  0.9427 -0.5185
  922MPD2    N113502   1.473   2.077  16.745 -0.3151  0.4170  0.1168
  922MPD2    H713503   1.461   2.119  16.836  2.6647 -0.6771  1.0133
  923MPD2     C13504   1.698   4.160   8.576 -0.1038 -0.2928 -0.4497
  923MPD2    C113505   1.740   4.249   8.670  0.3977 -0.1911 -0.4012
  923MPD2    C213506   1.857   4.223   8.751 -0.0725 -0.7054  0.2529
  923MPD2    C313507   1.925   4.100   8.736  0.9598  0.1522 -0.3284
  923MPD2    C413508   1.885   4.014   8.636  0.3219 -0.3025  0.4333
  923MPD2    C513509   1.783   4.049   8.555  0.1953  0.2120  0.6989
  923MPD2     H13510   1.887   4.288   8.833 -0.5844 -0.1660  0.0168
  923MPD2    H113511   1.947   3.928   8.614 -0.6825 -0.9484  0.1474
  923MPD2    H213512   1.610   4.175   8.515 -1.2026 -0.4512  1.0707
  923MPD2    H313513   1.768   3.980   8.473 -0.5612 -1.1155  1.9694
  923MPD2     N13514   2.042   4.058   8.806 -0.3531 -0.0437  0.0692
  923MPD2    H513515   2.093   3.985   8.757 -2.0093 -0.0251 -1.6842
  923MPD2    N113516   1.675   4.378   8.674 -0.9852  0.5455  0.1536
  923MPD2    H713517   1.582   4.380   8.635  0.5101 -1.9864 -3.5865
  924MPD2     C13518   2.434   2.531  15.102  0.5873  0.3401  0.1716
  924MPD2    C113519   2.413   2.509  15.238  0.0693 -0.8307  0.4919
  924MPD2    C213520   2.510   2.561  15.320  0.8586  0.4931 -0.4384
  924MPD2    C313521   2.594   2.661  15.273 -1.5896  0.3403  0.4706
  924MPD2    C413522   2.606   2.691  15.139  0.6112  0.1671  0.5383
  924MPD2    C513523   2.535   2.612  15.053  0.3088 -0.3023 -0.2318
  924MPD2     H13524   2.501   2.528  15.423  0.9802 -0.6571 -0.8069
  924MPD2    H113525   2.678   2.764  15.105  0.1956 -1.0613 -2.9588
  924MPD2    H213526   2.368   2.486  15.028 -0.2129  1.3053  0.2996
  924MPD2    H313527   2.541   2.624  14.945 -1.3086 -0.5723 -0.3580
  924MPD2     N13528   2.682   2.723  15.358 -0.0515 -0.5292 -0.3665
  924MPD2    H513529   2.744   2.794  15.321 -1.1115  1.1193  1.0167
  924MPD2    N113530   2.292   2.439  15.269  0.2806  0.3092  0.0627
  924MPD2    H713531   2.238   2.407  15.188 -1.8079  0.9122  1.2217
  925MPD2     C13532   1.169   4.286  14.954 -0.2651 -0.0909 -0.2135
  925MPD2    C113533   1.066   4.378  14.959  0.3067 -0.0082  0.2491
  925MPD2    C213534   0.961   4.345  15.039 -0.0732 -0.0236  0.3701
  925MPD2    C313535   0.961   4.225  15.105  1.1357  0.5980  0.6510
  925MPD2    C413536   1.063   4.136  15.084 -0.1574 -0.0422  1.2093
  925MPD2    C513537   1.175   4.166  15.016 -0.2454 -0.0148  0.2103
  925MPD2     H13538   0.875   4.411  15.044  0.3217  0.5913 -0.9528
  925MPD2    H113539   1.057   4.036  15.127  1.3601 -0.4078  0.5589
  925MPD2    H213540   1.262   4.311  14.904  0.6908  1.2723  2.2490
  925MPD2    H313541   1.253   4.092  15.001  1.6979  1.7308  1.7288
  925MPD2     N13542   0.852   4.195  15.193 -0.0021  0.5363 -0.3811
  925MPD2    H513543   0.879   4.126  15.263 -0.1087  3.1570  2.2646
  925MPD2    N113544   1.051   4.502  14.893 -0.2947 -0.4701 -0.5290
  925MPD2    H713545   0.973   4.563  14.916  1.1905  1.3837 -0.4476
  926MPD2     C13546   4.180   2.997  13.180  0.0588 -0.0070 -0.4386
  926MPD2    C113547   4.088   3.085  13.121  0.0737  0.1422  0.5855
  926MPD2    C213548   4.138   3.181  13.038  0.5759 -0.1645  0.5762
  926MPD2    C313549   4.273   3.188  13.007 -0.7378  0.3683  0.5190
  926MPD2    C413550   4.361   3.097  13.061  0.2450  0.0472 -0.3564
  926MPD2    C513551   4.315   3.007  13.149 -0.6113 -0.1520 -0.7556
  926MPD2     H13552   4.074   3.261  13.003 -1.8335 -1.4971  1.9416
  926MPD2    H113553   4.464   3.090  13.028  0.3384  0.9876 -0.2751
  926MPD2    H213554   4.156   2.913  13.244  1.8932  2.1239  2.9932
  926MPD2    H313555   4.385   2.937  13.193 -1.1404 -0.7858 -0.9218
  926MPD2     N13556   4.329   3.287  12.927  0.0611 -0.4533  0.1829
  926MPD2    H513557   4.424   3.267  12.897 -0.7617 -0.2798 -2.5774
  926MPD2    N113558   3.948   3.085  13.150  0.0052 -0.1290  0.6761
  926MPD2    H713559   3.894   3.155  13.100  0.5735  0.4420  0.8653
  927MPD2     C13560   4.518   0.524  17.492  0.3209  0.0606 -0.6150
  927MPD2    C113561   4.548   0.527  17.627  0.5856  0.9758 -0.3534
  927MPD2    C213562   4.596   0.411  17.690 -0.1588 -0.3960 -1.0115
  927MPD2    C313563   4.600   0.286  17.627 -0.1484  0.7580  0.2420
  927MPD2    C413564   4.571   0.286  17.490 -1.2893 -0.1858  0.6299
  927MPD2    C513565   4.535   0.406  17.426 -0.0446 -0.4586  0.5659
  927MPD2     H13566   4.627   0.404   0.095 -1.6885  1.6198 -0.4210
  927MPD2    H113567   4.572   0.190  17.441  0.7628 -1.5373  3.3542
  927MPD2    H213568   4.496   0.611  17.432  0.0412  0.7703  0.5205
  927MPD2    H313569   4.513   0.414  17.321  1.5221 -0.2647  0.2438
  927MPD2     N13570   4.645   0.172   0.005 -0.2779 -0.2859  0.3983
  927MPD2    H513571   4.662   0.185   0.104 -1.3780 -1.4560  0.7393
  927MPD2    N113572   4.563   0.655  17.693  0.1760  0.3094 -0.0704
  927MPD2    H713573   4.533   0.734  17.635 -2.4734 -1.1190 -0.6431
  928MPD2     C13574   2.499   0.195   1.579  0.1345  0.6266  0.6852
  928MPD2    C113575   2.618   0.260   1.550 -0.8632 -0.1931  0.8743
  928MPD2    C213576   2.674   0.241   1.427 -0.6126  0.0576 -0.3060
  928MPD2    C313577   2.628   0.137   1.335 -0.3699 -0.3575 -0.3369
  928MPD2    C413578   2.515   0.067   1.370 -0.3443  0.4248 -0.6272
  928MPD2    C513579   2.452   0.101   1.489  0.7273 -0.5048  0.1053
  928MPD2     H13580   2.765   0.293   1.399  0.5163 -1.3314  0.8692
  928MPD2    H113581   2.474   4.711   1.309  0.7524 -1.2095  0.7625
  928MPD2    H213582   2.443   0.201   1.672 -0.6101 -1.3418  0.3701
  928MPD2    H313583   2.361   0.047   1.513  0.8667 -0.2851  1.1145
  928MPD2     N13584   2.702   0.088   1.222 -1.2158  0.5026  0.3135
  928MPD2    H513585   2.670   0.008   1.167 -1.0014 -0.3718  1.4529
  928MPD2    N113586   2.669   0.339   1.655  0.5675 -0.4352  0.2315
  928MPD2    H713587   2.624   0.321   1.745 -0.5046 -1.4890 -0.5122
  929MPD2     C13588   1.717   4.369   9.722 -0.2860  0.6279  0.1532
  929MPD2    C113589   1.698   4.234   9.753 -0.2123 -0.4465 -0.7755
  929MPD2    C213590   1.611   4.162   9.666 -0.2062  0.5462  0.3547
  929MPD2    C313591   1.549   4.238   9.568 -1.3455  0.4655  0.6288
  929MPD2    C413592   1.569   4.374   9.544  0.1835 -0.2591 -0.0663
  929MPD2    C513593   1.659   4.438   9.620  0.6133  0.4885 -1.1014
  929MPD2     H13594   1.595   4.058   9.690  2.8079 -0.0570 -0.3180
  929MPD2    H113595   1.522   4.424   9.460 -0.9308 -0.2309  0.5736
  929MPD2    H213596   1.784   4.424   9.788  1.4920 -0.4424 -0.7496
  929MPD2    H313597   1.685   4.540   9.593  3.2507  0.1672  0.2097
  929MPD2     N13598   1.460   4.171   9.486 -0.4022  0.1274  0.1168
  929MPD2    H513599   1.424   4.220   9.404 -0.7258  0.9071  0.7138
  929MPD2    N113600   1.770   4.174   9.870 -0.7113  0.0451 -0.0772
  929MPD2    H713601   1.806   4.247   9.930 -1.5237 -0.4705  1.0350
  930MPD2     C13602   3.990   0.830  14.367 -0.2471 -0.2835  0.6688
  930MPD2    C113603   4.054   0.930  14.292  0.2109 -0.2268  0.4640
  930MPD2    C213604   4.061   0.910  14.154 -0.7609 -0.5906 -0.1054
  930MPD2    C313605   3.988   0.816  14.093 -0.2403 -0.4800 -0.1262
  930MPD2    C413606   3.937   0.709  14.169 -0.2425  0.5216 -0.4707
  930MPD2    C513607   3.940   0.715  14.309  0.1676 -0.2861  0.1112
  930MPD2     H13608   4.125   0.979  14.101  0.2761 -0.6105  1.1200
  930MPD2    H113609   3.888   0.626  14.121 -0.1159 -1.8107  3.4584
  930MPD2    H213610   4.004   0.830  14.475 -1.8576  1.6486  0.8778
  930MPD2    H313611   3.889   0.639  14.367  0.2690 -0.0309  0.5332
  930MPD2     N13612   3.968   0.828  13.955 -0.0531  0.5318  0.2730
  930MPD2    H513613   4.035   0.887  13.905  0.5671  0.9510  1.5893
  930MPD2    N113614   4.102   1.054  14.346  0.3455  0.6110 -0.0258
  930MPD2    H713615   4.115   1.123  14.273  0.2216  1.8065  1.0801
  931MPD2     C13616   0.547   1.073   0.317  0.2815 -0.3530 -0.1845
  931MPD2    C113617   0.441   1.007   0.376 -0.6169 -0.5616 -0.0169
  931MPD2    C213618   0.467   0.940   0.492 -0.3209  0.2826 -0.6382
  931MPD2    C313619   0.590   0.950   0.558  0.3242 -0.8166  0.4577
  931MPD2    C413620   0.697   1.006   0.492 -0.6234  0.6596 -0.1715
  931MPD2    C513621   0.671   1.074   0.372  0.3760 -0.5694 -0.2495
  931MPD2     H13622   0.378   0.909   0.546 -0.6835 -2.2604 -2.6660
  931MPD2    H113623   0.793   1.024   0.539 -0.1921  0.9105 -1.1505
  931MPD2    H213624   0.537   1.129   0.224  2.6616 -0.3604 -0.4342
  931MPD2    H313625   0.748   1.131   0.322  0.4138  0.3659  0.8763
  931MPD2     N13626   0.605   0.891   0.689  0.2868  0.1112  0.8221
  931MPD2    H513627   0.703   0.889   0.716 -0.2323 -1.3293  2.5937
  931MPD2    N113628   0.315   1.005   0.306  0.4380  0.1028  0.1874
  931MPD2    H713629   0.309   1.055   0.218 -0.9271 -0.8042 -0.2263
  932MPD2     C13630   0.812   4.133  11.415  0.1097  0.5707 -0.2150
  932MPD2    C113631   0.942   4.161  11.424  0.3825  0.9367 -0.4647
  932MPD2    C213632   1.031   4.063  11.461  0.3260 -0.6032 -0.2460
  932MPD2    C313633   0.989   3.934  11.485 -0.1139  0.4492  0.0058
  932MPD2    C413634   0.856   3.905  11.483  0.1082  0.0075  0.4542
  932MPD2    C513635   0.767   4.005  11.448 -0.1870 -0.3239 -0.4965
  932MPD2     H13636   1.135   4.095  11.467 -0.1681  0.9159  0.3708
  932MPD2    H113637   0.818   3.810  11.518  1.1981  0.2089  2.1263
  932MPD2    H213638   0.738   4.207  11.389 -0.3570 -0.0780 -0.7501
  932MPD2    H313639   0.664   3.972  11.445  0.3912 -2.2310  0.5761
  932MPD2     N13640   1.072   3.829  11.524  0.1205  0.5729  0.3462
  932MPD2    H513641   1.025   3.759  11.580  0.0666  0.1580 -0.2084
  932MPD2    N113642   0.997   4.287  11.392  0.0333  0.0754 -0.0938
  932MPD2    H713643   1.098   4.297  11.398  0.0750 -0.1724 -0.3637
  933MPD2     C13644   2.511   0.383   2.423  0.8085  0.4926 -0.3034
  933MPD2    C113645   2.495   0.362   2.288 -0.3738  0.2836 -0.6928
  933MPD2    C213646   2.368   0.329   2.240  0.2300 -0.2549  0.5921
  933MPD2    C313647   2.259   0.334   2.321 -0.1949 -0.6092  0.7152
  933MPD2    C413648   2.276   0.368   2.454  0.1023  0.8312  0.0194
  933MPD2    C513649   2.401   0.391   2.504 -0.3370  0.4443  0.9711
  933MPD2     H13650   2.352   0.304   2.136  1.8140  1.1783  0.0243
  933MPD2    H113651   2.195   0.381   2.526  1.0091 -1.4079  1.4657
  933MPD2    H213652   2.610   0.414   2.457 -0.0387  2.5367  0.2749
  933MPD2    H313653   2.427   0.411   2.607 -1.3331  2.7780  0.7816
  933MPD2     N13654   2.134   0.310   2.270  0.0482  0.0182 -0.0659
  933MPD2    H513655   2.135   0.288   2.171  0.4777 -1.4288  0.2503
  933MPD2    N113656   2.597   0.396   2.197  0.3178 -0.5299  0.1219
  933MPD2    H713657   2.689   0.411   2.236  0.5180  1.2651 -1.0410
  934MPD2     C13658   3.280   1.862   1.611  1.1699  0.5198  0.1765
  934MPD2    C113659   3.384   1.802   1.547  0.1581  0.5105  0.4815
  934MPD2    C213660   3.354   1.714   1.451  0.5175 -0.4434  0.0502
  934MPD2    C313661   3.216   1.678   1.429 -0.7975  0.0696  0.2324
  934MPD2    C413662   3.118   1.740   1.502  0.2816  0.9240 -0.3153
  934MPD2    C513663   3.146   1.838   1.585 -0.0643  0.3539  0.1181
  934MPD2     H13664   3.436   1.676   1.390  0.5795 -0.9407  0.4417
  934MPD2    H113665   3.015   1.706   1.495  0.1374  1.1628  0.6674
  934MPD2    H213666   3.302   1.945   1.677 -1.9097 -0.1781  2.0591
  934MPD2    H313667   3.075   1.888   1.650 -0.8020 -0.3808 -0.1323
  934MPD2     N13668   3.170   1.593   1.328  0.1663 -0.0854 -0.7406
  934MPD2    H513669   3.072   1.570   1.319 -0.4596  1.3764  2.5894
  934MPD2    N113670   3.521   1.826   1.588 -0.0443 -0.1275 -0.2863
  934MPD2    H713671   3.593   1.781   1.532  1.4296  1.9077 -0.0145
  935MPD2     C13672   3.573   0.832   0.787  0.5648  0.1833  0.3286
  935MPD2    C113673   3.437   0.823   0.771 -0.2625  0.1458  0.0309
  935MPD2    C213674   3.351   0.914   0.829  0.0810  0.1304 -0.7718
  935MPD2    C313675   3.401   1.016   0.915  0.7941  1.1215  0.1245
  935MPD2    C413676   3.538   1.017   0.928  0.1295 -0.0330  0.4746
  935MPD2    C513677   3.621   0.929   0.865  0.1956 -0.4742  0.6437
  935MPD2     H13678   3.245   0.891   0.829  0.4541 -1.6082 -0.3438
  935MPD2    H113679   3.585   1.097   0.984 -0.3640 -1.0914  2.3689
  935MPD2    H213680   3.642   0.761   0.742 -2.1474 -0.8698 -2.1505
  935MPD2    H313681   3.726   0.940   0.886  0.0473  0.5291  0.8346
  935MPD2     N13682   3.322   1.108   0.984 -0.5271  0.1602 -0.3139
  935MPD2    H513683   3.370   1.184   1.031  0.7593 -1.3649  0.8492
  935MPD2    N113684   3.383   0.718   0.700  0.6585 -0.5491 -0.7225
  935MPD2    H713685   3.282   0.705   0.705  0.4533  1.4400  0.2387
  936MPD2     C13686   1.554   3.465  12.173  0.1391  0.0342 -0.2010
  936MPD2    C113687   1.516   3.443  12.302 -0.4952  0.0760 -0.5103
  936MPD2    C213688   1.589   3.491  12.409 -0.7109  0.4142 -0.7950
  936MPD2    C313689   1.706   3.558  12.384  0.7601  0.9011  0.3658
  936MPD2    C413690   1.752   3.571  12.254 -0.4908 -0.7152 -0.0149
  936MPD2    C513691   1.672   3.527  12.147 -0.4071  0.3669 -0.4242
  936MPD2     H13692   1.550   3.473  12.508 -0.3015  1.8053 -0.3777
  936MPD2    H113693   1.844   3.619  12.223 -1.0791  0.8976  0.7412
  936MPD2    H213694   1.494   3.440  12.086 -1.2852 -1.1966  1.1185
  936MPD2    H313695   1.702   3.541  12.044 -2.5172  2.5404 -0.7352
  936MPD2     N13696   1.795   3.601  12.482  0.4463  0.0724 -0.5372
  936MPD2    H513697   1.885   3.633  12.449 -0.4815  2.5611 -0.6997
  936MPD2    N113698   1.397   3.369  12.331 -0.4021  0.7975 -0.4361
  936MPD2    H713699   1.366   3.381  12.427 -1.4782 -0.1598 -0.6774
  937MPD2     C13700   4.314   4.362  11.658  0.4060 -0.3256  0.5853
  937MPD2    C113701   4.354   4.489  11.633  0.7364  0.1121 -0.2272
  937MPD2    C213702   4.393   4.509  11.498 -0.9700  0.2323  0.5692
  937MPD2    C313703   4.397   4.406  11.398 -0.0971  0.3044 -0.1506
  937MPD2    C413704   4.347   4.284  11.434 -0.0721  0.4769 -0.0699
  937MPD2    C513705   4.319   4.269  11.567  0.5330 -0.3029  0.0973
  937MPD2     H13706   4.431   4.607  11.474 -0.8642 -0.2629 -1.3185
  937MPD2    H113707   4.338   4.201  11.365 -1.1397 -0.4757  1.2319
  937MPD2    H213708   4.282   4.337  11.759  1.4729  0.2872  1.0801
  937MPD2    H313709   4.288   4.172  11.604 -2.1496 -0.2019 -1.8248
  937MPD2     N13710   4.434   4.445  11.267 -0.0033 -0.4936  0.4604
  937MPD2    H513711   4.469   4.539  11.253  0.0728 -0.6788 -0.5899
  937MPD2    N113712   4.330   4.604  11.713  0.9441  0.0902 -0.3944
  937MPD2    H713713   4.333   4.696  11.669 -1.0842  0.6266  0.5545
  938MPD2     C13714   2.398   1.210   0.702 -0.2022  0.2950  0.4551
  938MPD2    C113715   2.506   1.287   0.748  0.1984 -0.1452  0.4597
  938MPD2    C213716   2.538   1.279   0.877  0.0566  0.5320 -0.0446
  938MPD2    C313717   2.465   1.208   0.968 -0.2153 -0.3921  0.1432
  938MPD2    C413718   2.361   1.125   0.924  0.6544 -0.3786 -0.0359
  938MPD2    C513719   2.335   1.124   0.788  0.0601 -1.0828  0.4737
  938MPD2     H13720   2.634   1.327   0.897 -0.5575  1.5320  0.5427
  938MPD2    H113721   2.312   1.055   0.991  0.3936 -0.0214  0.1481
  938MPD2    H213722   2.367   1.204   0.599  1.5468 -0.4231 -0.0254
  938MPD2    H313723   2.253   1.063   0.752 -0.7966 -0.4175  1.2944
  938MPD2     N13724   2.497   1.195   1.107  0.1074 -0.1720  0.5220
  938MPD2    H513725   2.444   1.126   1.160 -0.2200  0.3391  0.8504
  938MPD2    N113726   2.586   1.365   0.659 -0.4095  0.0563  0.0845
  938MPD2    H713727   2.680   1.395   0.681  0.4354 -1.2450 -1.6953
  939MPD2     C13728   3.549   2.382   1.164  0.4159 -0.6679 -0.0433
  939MPD2    C113729   3.663   2.425   1.237 -0.4896 -0.2273 -0.1332
  939MPD2    C213730   3.791   2.387   1.198 -0.3519 -0.7674  0.1909
  939MPD2    C313731   3.806   2.324   1.073 -0.3376  0.2634  0.0304
  939MPD2    C413732   3.694   2.294   0.998  0.3748  0.5366 -0.1312
  939MPD2    C513733   3.568   2.316   1.043 -0.0111 -0.4550  0.0664
  939MPD2     H13734   3.883   2.396   1.255 -1.2979 -0.2669  1.6307
  939MPD2    H113735   3.705   2.254   0.898 -0.8489  2.7738 -1.1596
  939MPD2    H213736   3.444   2.398   1.185  0.7559  0.8161  0.4748
  939MPD2    H313737   3.482   2.284   0.986 -1.4902  1.3000  1.2963
  939MPD2     N13738   3.933   2.316   1.019 -0.6004  0.3620 -0.2662
  939MPD2    H513739   4.011   2.342   1.078 -1.3614 -3.7266  2.5684
  939MPD2    N113740   3.631   2.496   1.352 -0.1201  0.1821 -0.6835
  939MPD2    H713741   3.533   2.517   1.369 -0.6417 -3.1022  0.2577
  940MPD2     C13742   2.186   3.093  12.459  0.1120  0.3536  0.5172
  940MPD2    C113743   2.300   3.031  12.500  0.3628  0.1089 -0.0816
  940MPD2    C213744   2.373   2.964  12.410  0.4832  0.0234  0.5347
  940MPD2    C313745   2.330   2.943  12.279 -0.1071  0.0193 -0.3443
  940MPD2    C413746   2.222   3.004  12.236 -0.5452 -0.3773  0.4383
  940MPD2    C513747   2.149   3.076  12.330  0.3695 -0.3017 -0.0857
  940MPD2     H13748   2.472   2.924  12.427  1.2791  1.4189 -0.8686
  940MPD2    H113749   2.193   2.997  12.131  3.5139 -1.6690 -0.6317
  940MPD2    H213750   2.130   3.152  12.530 -1.0833  0.0196 -0.1451
  940MPD2    H313751   2.067   3.130  12.284  0.4833 -0.5408 -0.5753
  940MPD2     N13752   2.407   2.879  12.181  0.4619  0.3753  0.3988
  940MPD2    H513753   2.362   2.864  12.091  0.8585 -0.3319  0.3190
  940MPD2    N113754   2.341   3.035  12.633 -0.0273  0.0135 -0.3473
  940MPD2    H713755   2.428   2.989  12.657  0.1492 -0.3462 -1.7046
  941MPD2     C13756   1.663   2.201   9.421  0.0986 -0.2245  0.0333
  941MPD2    C113757   1.624   2.279   9.529 -0.1722 -0.4418  0.4193
  941MPD2    C213758   1.544   2.226   9.629  0.6804  0.1647  0.4184
  941MPD2    C313759   1.498   2.098   9.622  0.4047  0.1922 -0.4226
  941MPD2    C413760   1.539   2.017   9.517  0.3107 -0.3506 -0.1693
  941MPD2    C513761   1.615   2.074   9.419 -0.5602  0.5959 -0.1183
  941MPD2     H13762   1.523   2.288   9.715  1.5592  2.6965 -1.2041
  941MPD2    H113763   1.494   1.921   9.494 -1.3382  0.7160 -1.4243
  941MPD2    H213764   1.722   2.230   9.335 -1.2847 -0.4798 -0.9919
  941MPD2    H313765   1.634   2.004   9.338 -1.1201  1.3602 -0.9124
  941MPD2     N13766   1.395   2.047   9.706 -0.0815  0.0194  0.5313
  941MPD2    H513767   1.364   1.954   9.682  2.3386 -0.7070  0.2278
  941MPD2    N113768   1.673   2.406   9.550  0.2913 -0.3200 -0.1404
  941MPD2    H713769   1.647   2.454   9.635  0.9529  1.0039 -0.6810
  942MPD2     C13770   0.964   2.842   8.553 -0.3354 -0.8454 -0.6936
  942MPD2    C113771   0.931   2.948   8.640  0.9579  0.1984  0.1716
  942MPD2    C213772   0.934   3.075   8.585 -0.4511 -0.2174 -0.0142
  942MPD2    C313773   0.972   3.090   8.458  0.0833  0.3098 -0.0708
  942MPD2    C413774   0.989   2.985   8.369 -0.5926 -0.1071 -0.0620
  942MPD2    C513775   0.985   2.862   8.425 -0.1723  0.4677  0.8936
  942MPD2     H13776   0.897   3.158   8.645  1.3137  0.6942 -0.1804
  942MPD2    H113777   0.998   2.999   8.262 -1.0304  2.2303  0.2047
  942MPD2    H213778   0.964   2.741   8.593 -1.5931 -0.8186 -0.6199
  942MPD2    H313779   0.997   2.775   8.361  1.4059 -0.3895  2.3381
  942MPD2     N13780   0.993   3.218   8.405 -0.1658  0.2980 -0.3923
  942MPD2    H513781   0.990   3.224   8.304 -1.7487  0.5088 -0.3358
  942MPD2    N113782   0.881   2.925   8.773  0.7164 -0.0915 -0.1300
  942MPD2    H713783   0.859   3.006   8.830  0.7652 -0.5711  0.5763
  943MPD2     C13784   0.007   2.064   9.402 -0.3786 -0.0610  0.2205
  943MPD2    C113785   0.142   2.046   9.432  0.0133  0.3939  0.2512
  943MPD2    C213786   0.241   2.094   9.350  0.6272 -0.7049  0.1256
  943MPD2    C313787   0.204   2.158   9.232  0.7098 -0.3305  0.0543
  943MPD2    C413788   0.069   2.175   9.206  0.2683 -0.3192  0.2380
  943MPD2    C513789   4.698   2.123   9.286  0.1154 -0.4888  0.2527
  943MPD2     H13790   0.345   2.065   9.364  0.5171 -0.8178  0.7097
  943MPD2    H113791   0.044   2.218   9.109 -0.9473  1.5669  1.3919
  943MPD2    H213792   4.651   2.026   9.464 -0.4185  0.7021  0.6381
  943MPD2    H313793   4.595   2.148   9.263  1.2681  2.4850 -1.7723
  943MPD2     N13794   0.290   2.202   9.136  0.7068 -0.1085  0.0628
  943MPD2    H513795   0.259   2.234   9.044 -0.0904 -0.1565  0.3107
  943MPD2    N113796   0.167   2.000   9.562  0.5761 -0.2138 -0.0031
  943MPD2    H713797   0.087   1.983   9.622  0.3159 -1.9889 -0.8862
  944MPD2     C13798   4.604   1.232  10.662  0.2256 -0.0561  0.0389
  944MPD2    C113799   0.013   1.253  10.679 -0.2905  0.1761  0.0718
  944MPD2    C213800   0.068   1.243  10.806  0.6621  0.8627  0.0766
  944MPD2    C313801   4.713   1.206  10.911 -0.2505  0.9699  0.0947
  944MPD2    C413802   4.575   1.179  10.886  0.4298  0.1355 -0.0364
  944MPD2    C513803   4.523   1.200  10.765  0.0249 -0.7358  0.0632
  944MPD2     H13804   0.175   1.254  10.822  1.0478 -1.2210 -1.0809
  944MPD2    H113805   4.502   1.164  10.963  0.0297  0.1491 -0.4129
  944MPD2    H213806   4.558   1.225  10.564 -0.5614  1.1442  0.3270
  944MPD2    H313807   4.419   1.180  10.742  0.1334  0.3404 -1.3072
  944MPD2     N13808   0.047   1.186  11.037  0.2923 -0.2307 -0.2827
  944MPD2    H513809   0.148   1.193  11.040  0.2357  0.1792  0.6544
  944MPD2    N113810   0.086   1.280  10.564 -0.2304 -0.5107 -0.5183
  944MPD2    H713811   0.053   1.247  10.474  1.7506  0.5778 -1.6312
    1TCq1    O113812   3.449   1.472  14.523  0.7734 -0.2344  0.3827
    1TCq1    C113813   3.396   1.589  14.542  0.1256 -0.3467 -0.0483
    1TCq1    O213814   3.368   1.662  14.447 -0.2957  0.3469  0.0943
    1TCq1    C213815   3.445   1.632  14.666 -1.2134  0.0606 -0.9587
    1TCq1    C313816   3.472   1.531  14.756  0.2111 -0.4555  0.4609
    1TCq1    C413817   3.532   1.566  14.878  0.3820  0.1831  0.3748
    1TCq1    C513818   3.567   1.698  14.894  0.6587  0.2554 -0.1741
    1TCq1    C613819   3.546   1.797  14.798  0.0812 -0.0799  0.1612
    1TCq1    C713820   3.486   1.767  14.681 -0.6461 -0.3287 -0.1302
    1TCq1    C813821   3.536   1.928  14.851  1.1367  0.0402 -0.7632
    1TCq1    O413822   3.597   1.943  14.954 -0.3208 -0.2860 -0.3737
    1TCq1    C913823   3.550   1.461  14.976 -0.0789  0.1560 -0.2547
    1TCq1    O513824   3.548   1.496  15.100 -0.0833  0.0952 -0.4443
    1TCq1    O613825   3.547   1.350  14.929  0.1821 -0.3672  0.3209
    1TCq1    H113826   3.490   1.424  14.598 -2.7162 -2.8178  0.6081
    1TCq1    H213827   3.432   1.430  14.750 -0.6957  0.0778 -2.4563
    1TCq1    H313828   3.626   1.718  14.982  1.8344  2.7786 -1.5185
    1TCq1    H413829   3.469   1.832  14.596  1.1909 -2.2027 -1.9179
    2MPD2     C13830   3.358   2.408  14.887 -0.3721  0.4424  0.2710
    2MPD2    C113831   3.324   2.362  14.763 -0.3266  0.3419 -0.0664
    2MPD2    C213832   3.348   2.231  14.735  0.1798 -0.2595  0.6132
    2MPD2    C313833   3.429   2.147  14.816  0.2413 -0.0627 -0.9586
    2MPD2    C413834   3.471   2.200  14.938 -0.1527 -1.7563  0.2144
    2MPD2    C513835   3.427   2.328  14.973 -0.0031  0.2111 -0.1654
    2MPD2     H13836   3.327   2.194  14.635  0.8214  3.3877 -0.8610
    2MPD2    H113837   3.529   2.146  15.012  0.9508  0.7238  1.1883
    2MPD2    H213838   3.329   2.506  14.925 -1.3124  0.3924 -0.3172
    2MPD2    H313839   3.442   2.372  15.071  2.3466  1.2066 -0.9864
    2MPD2     N13840   3.458   2.011  14.780 -0.4875  0.1375  0.3669
    2MPD2    H513841   3.424   1.979  14.690 -1.4890 -1.9423  1.4728
    2MPD2    N113842   3.258   2.447  14.679 -0.7846  0.1045 -1.0899
    2MPD2    H713843   3.240   2.537  14.723 -1.1196 -0.5027  0.0171
    3TMC2    C113844   3.144   2.536  14.506 -0.1184  0.4184  0.9450
    3TMC2    C213845   3.108   2.639  14.592 -0.6556 -0.4838 -0.4622
    3TMC2    C313846   3.093   2.760  14.532 -0.0963 -0.5175  0.5072
    3TMC2    C413847   3.124   2.556  14.372  0.3900  0.0685  0.0130
    3TMC2    C513848   3.087   2.673  14.318  0.3685 -0.7010  0.3371
    3TMC2    C613849   3.077   2.783  14.403  0.2993 -0.0506 -0.4152
    3TMC2     C13850   3.220   2.423  14.551  0.4859 -0.5437  0.4848
    3TMC2     O13851   3.248   2.335  14.467 -0.6960  0.2087  0.2410
    3TMC2     H13852   3.110   2.634  14.701  1.6048  0.3478 -0.4544
    3TMC2    H113853   3.171   2.486  14.305 -0.2719 -1.3793  1.0642
    3TMC2    H213854   3.055   2.882  14.365 -2.5630 -0.3962  0.3243
    3TMC2    C713855   3.092   2.692  14.177  0.0344 -0.1166  0.1597
    3TMC2    C813856   3.102   2.882  14.609  0.0143 -0.1639  0.0279
    3TMC2    O113857   3.152   2.605  14.116  0.2707  0.2445  0.4675
    3TMC2    O213858   3.048   2.986  14.579 -0.5548 -0.0126  0.6575
    3TMC2    O513859   3.207   2.863  14.691 -0.0531 -0.6137 -0.2893
    3TMC2    H513860   3.261   2.784  14.669 -0.9710 -1.7695  1.6216
    4MPD2     C13861   2.445   3.691  13.105 -1.0763 -0.4281 -0.0059
    4MPD2    C113862   2.344   3.698  13.196 -0.2797 -0.1755  0.6037
    4MPD2    C213863   2.370   3.664  13.325  1.2430  0.1395  0.4233
    4MPD2    C313864   2.491   3.606  13.363 -0.1684 -0.2863 -0.7116
    4MPD2    C413865   2.593   3.595  13.271  0.2511  0.8370  0.4972
    4MPD2    C513866   2.570   3.639  13.143  0.2495  0.3901 -1.2651
    4MPD2     H13867   2.297   3.678  13.403  0.3938 -0.4555 -0.2696
    4MPD2    H113868   2.694   3.560  13.292 -0.4338 -0.9524  0.7569
    4MPD2    H213869   2.431   3.705  12.999  0.3572  2.0070  0.1147
    4MPD2    H313870   2.643   3.639  13.063 -0.7897  2.8585 -2.1989
    4MPD2     N13871   2.503   3.565  13.498 -0.7669 -0.2653 -0.3384
    4MPD2    H513872   2.426   3.595  13.557 -1.2335 -0.7909 -0.6774
    4MPD2    N113873   2.215   3.738  13.172 -0.2084  1.0957 -0.0662
    4MPD2    H713874   2.159   3.780  13.245 -1.8353 -1.3061  0.0506
    5TCq2    C113875   2.614   3.491  13.543  0.3827  0.0131  0.4661
    5TCq2    O213876   2.709   3.436  13.486  1.4165 -0.2760  0.6054
    5TCq2    C213877   2.593   3.456  13.686 -0.8828  0.7700 -0.0697
    5TCq2    C313878   2.501   3.524  13.753  0.1939  1.0108 -0.4058
    5TCq2    C413879   2.499   3.501  13.882 -0.1840 -0.2991 -0.8293
    5TCq2    C513880   2.591   3.418  13.946 -0.8500 -0.4627  0.0157
    5TCq2    C613881   2.691   3.357  13.882  0.1990 -0.9922 -0.8036
    5TCq2    C713882   2.687   3.377  13.741 -0.0681 -0.1972  0.5233
    5TCq2    C813883   2.743   3.234  13.937  0.1238 -0.2843 -0.5534
    5TCq2    O413884   2.746   3.217  14.058 -0.6102 -0.1492  0.0666
    5TCq2    C913885   2.399   3.563  13.962 -0.6791 -0.1279  0.0150
    5TCq2    O513886   2.332   3.648  13.904  0.0113 -0.4576  0.3567
    5TCq2    O613887   2.401   3.543  14.087  0.5265 -0.1323  0.2819
    5TCq2    H213888   2.421   3.582  13.709 -1.3149  1.3352  2.7647
    5TCq2    H313889   2.585   3.399  14.053 -1.2486  1.2559  0.3087
    5TCq2    H413890   2.760   3.327  13.678  0.0936  1.7549 -0.8481
    6MPD1     C13891   1.188   0.562  13.550  0.8273 -0.0134 -0.2795
    6MPD1    C113892   1.294   0.562  13.455  0.1415 -0.0863  0.4952
    6MPD1    C213893   1.355   0.440  13.436  0.0208 -0.5986 -0.4546
    6MPD1    C313894   1.323   0.321  13.499 -0.1577 -0.2616  0.5865
    6MPD1    C413895   1.218   0.326  13.583  0.1117 -0.3926 -0.5496
    6MPD1    C513896   1.156   0.442  13.610 -0.6342  0.0949  0.6879
    6MPD1     H13897   1.437   0.452  13.366 -0.0237 -1.2343 -0.6134
    6MPD1    H113898   1.184   0.234  13.630  1.0367  1.3538  3.4530
    6MPD1    H213899   1.146   0.657  13.580  0.4624  0.9584 -3.8243
    6MPD1    H313900   1.070   0.435  13.676 -0.2598 -2.6724  0.8958
    6MPD1     N13901   1.386   0.199  13.470  0.7950 -0.1583 -0.1543
    6MPD1    H513902   1.346   0.115  13.510 -2.4460  1.0616 -0.8620
    6MPD1    N113903   1.334   0.686  13.405 -0.3711  0.4116  0.0757
    6MPD1    H613904   1.261   0.754  13.424  0.2446  0.1922  3.2376
    6MPD1    H713905   1.363   0.685  13.308  0.7916  2.3557  0.4110
    7MPD2     C13906   1.601   4.133  13.559 -0.1511  0.1226 -0.6153
    7MPD2    C113907   1.619   4.179  13.431  0.1440  0.1845  0.5524
    7MPD2    C213908   1.652   4.090  13.331  0.6992  0.8851  0.4303
    7MPD2    C313909   1.684   3.958  13.360  0.7055  0.2521  0.1725
    7MPD2    C413910   1.675   3.917  13.491  0.7108 -0.2899  2.1558
    7MPD2    C513911   1.629   4.002  13.588 -0.2938 -0.6529  0.0982
    7MPD2     H13912   1.677   4.135  13.236 -0.7927  0.9530  0.0689
    7MPD2    H113913   1.700   3.814  13.514 -0.2749 -0.3238  3.0296
    7MPD2    H213914   1.564   4.191  13.642 -1.0159 -0.2445 -0.7466
    7MPD2    H313915   1.622   3.973  13.692  0.4908 -0.3319  0.2393
    7MPD2     N13916   1.731   3.862  13.260 -0.2701  0.8369  0.1551
    7MPD2    H513917   1.770   3.772  13.287 -0.6581  0.2659 -1.1923
    7MPD2    N113918   1.604   4.320  13.399 -0.0829 -0.4346 -0.0000
    7MPD2    H713919   1.602   4.340  13.299 -2.2299 -0.8709 -0.0457
    8TMC3    C113920   1.811   3.815  13.041  0.6635  0.3822 -0.2313
    8TMC3    C213921   1.936   3.786  13.091  0.5916 -0.1708  0.2526
    8TMC3    C313922   2.044   3.807  13.018 -0.4435  0.0481 -0.2068
    8TMC3    C413923   1.790   3.868  12.917  0.0346 -0.2593 -0.4755
    8TMC3    C513924   1.903   3.893  12.846 -0.4264 -0.3529 -0.1419
    8TMC3    C613925   2.029   3.856  12.892  0.3436 -0.2355  0.4193
    8TMC3     C13926   1.726   3.897  13.127 -0.1886  0.0649  0.1974
    8TMC3     O13927   1.679   3.995  13.071  0.0770 -0.5383  0.2013
    8TMC3     H13928   1.945   3.768  13.198  0.2399 -1.9205 -0.0040
    8TMC3    H113929   1.691   3.884  12.876  0.7878  0.2783 -2.0895
    8TMC3    H213930   2.121   3.886  12.842  0.3986 -1.0273  0.0414
    8TMC3    C713931   1.896   4.009  12.759 -0.6610  0.2397  0.7294
    8TMC3    C813932   2.178   3.749  13.039 -0.1222  0.1616  0.2351
    8TMC3    O113933   1.985   4.017  12.675  0.2262 -0.4851  0.0376
    8TMC3    O213934   2.230   3.703  12.936 -0.0664 -0.1507  0.0050
    9TMC3    C113935   1.545   0.056  13.364 -0.4858 -0.1289  0.5112
    9TMC3    C213936   1.596   0.055  13.232  0.1612 -0.0340 -0.3156
    9TMC3    C313937   1.636   4.657  13.194  0.8015  0.1270 -0.3864
    9TMC3    C413938   1.518   4.666  13.441  0.0153  0.0093 -0.0797
    9TMC3    C513939   1.575   4.551  13.395 -0.1111 -0.4000 -0.8087
    9TMC3    C613940   1.639   4.543  13.273 -1.1964  0.9996 -0.2204
    9TMC3     C13941   1.508   0.193  13.408 -0.6476 -0.5647  0.0039
    9TMC3     O13942   1.590   0.282  13.400  0.2177  0.2866 -0.7167
    9TMC3     H13943   1.600   0.141  13.166 -1.2659 -0.0312 -0.3940
    9TMC3    H113944   1.486   4.671  13.544  4.0495  1.4405  1.0984
    9TMC3    H213945   1.715   4.466  13.263  0.5039  2.7478 -0.6542
    9TMC3    C713946   1.587   4.429  13.480 -0.0655  0.2922 -0.0664
    9TMC3    C813947   1.671   4.641  13.054  1.0327  0.1357  0.2714
    9TMC3    O113948   1.569   4.434  13.600 -0.3529 -0.0268  0.1381
    9TMC3    O213949   1.678   0.013  12.983  0.0625  0.8238 -0.1210
   10MPD2     C13950   1.863   4.312  12.703  0.0506 -0.2931  0.2751
   10MPD2    C113951   1.812   4.239  12.814 -1.1799  1.0731  0.4580
   10MPD2    C213952   1.761   4.307  12.918 -0.0003  0.1375 -0.0611
   10MPD2    C313953   1.750   4.447  12.914 -0.2344  0.8718 -0.0210
   10MPD2    C413954   1.800   4.516  12.805  0.0273  0.2018 -0.4911
   10MPD2    C513955   1.859   4.449  12.699 -0.0169  0.1092 -0.1349
   10MPD2     H13956   1.721   4.249  13.000 -1.6441  0.0889 -0.9089
   10MPD2    H113957   1.788   4.622  12.786 -1.3278  0.5707  2.4830
   10MPD2    H213958   1.909   4.253  12.625 -1.3143  1.4373 -1.8389
   10MPD2    H313959   1.891   4.504  12.612  0.4484  2.8108  1.7307
   10MPD2     N13960   1.684   4.504  13.023  0.8215 -0.4775  0.4637
   10MPD2    H513961   1.644   4.435  13.087 -0.9452 -1.1716 -1.3935
   10MPD2    N113962   1.814   4.096  12.823  0.1860 -0.5954 -0.1914
   10MPD2    H713963   1.766   4.051  12.900 -1.7320 -0.3554 -1.2389
   11MPD2     C13964   2.989   2.770  13.901  0.3090 -0.3596 -0.2654
   11MPD2    C113965   2.967   2.850  14.013 -0.4482 -0.1113  0.3856
   11MPD2    C213966   2.890   2.966  14.003  0.2537 -0.1483  0.4316
   11MPD2    C313967   2.845   3.009  13.881 -0.2998 -0.3433 -0.7831
   11MPD2    C413968   2.866   2.926  13.772  0.1317  0.4281 -0.4734
   11MPD2    C513969   2.930   2.805  13.779 -0.2152  0.0103 -0.1228
   11MPD2     H13970   2.874   3.025  14.093  0.4212  1.2576 -0.4748
   11MPD2    H113971   2.847   2.948  13.668  0.2959  2.6650 -0.0218
   11MPD2    H213972   3.048   2.679  13.905 -1.4797 -1.4950  0.5966
   11MPD2    H313973   2.934   2.731  13.699 -1.1381 -1.1150  0.8800
   11MPD2     N13974   2.780   3.133  13.850  0.0487 -0.7805 -0.5292
   11MPD2    H513975   2.764   3.147  13.750 -0.6924 -0.7765 -0.4094
   11MPD2    N113976   3.014   2.809  14.141  0.0203  0.5592 -0.0429
   11MPD2    H713977   2.976   2.871  14.212 -0.1119  0.5622 -0.1153
    1MPD1     C13978   1.122   0.188  15.339  0.1158  0.2198 -0.1817
    1MPD1    C113979   1.002   0.200  15.406 -0.6188 -0.0039  0.2215
    1MPD1    C213980   1.003   0.183  15.541 -0.0568  0.1605  1.2654
    1MPD1    C313981   1.125   0.128  15.593 -0.3610  0.1043  0.1213
    1MPD1    C413982   1.240   0.120  15.526 -0.2620  0.4146 -0.9347
    1MPD1    C513983   1.239   0.148  15.398 -0.4446 -0.5806  0.2725
    1MPD1     H13984   0.920   0.209  15.607 -0.1877 -1.7513  1.8505
    1MPD1    H113985   1.328   0.073  15.567 -0.8401  0.9061  0.8814
    1MPD1    H213986   1.124   0.220  15.236 -2.2870  3.0132  0.6256
    1MPD1    H313987   1.325   0.141  15.332  1.0359 -0.6907  2.2128
    1MPD1     N13988   1.135   0.081  15.724  0.3447 -0.2791  0.1358
    1MPD1    H513989   1.216   0.024  15.749  0.4666 -0.6159 -1.0215
    1MPD1    N113990   0.885   0.253  15.343  0.1109 -0.0678 -0.2607
    1MPD1    H613991   0.807   0.222  15.400  0.2892  0.7289  0.4137
    1MPD1    H713992   0.867   0.221  15.248  0.7885 -0.5204 -0.2435
    2MPD1     C13993   0.866   0.164  16.788 -0.7617 -0.3355 -0.8053
    2MPD1    C113994   1.000   0.155  16.764  0.1988 -0.6086 -0.1709
    2MPD1    C213995   1.047   0.112  16.642  0.1712 -0.4256 -0.0918
    2MPD1    C313996   0.960   0.096  16.538  0.1400 -0.0846 -0.6243
    2MPD1    C413997   0.827   0.104  16.560  0.2632 -0.4403 -0.1495
    2MPD1    C513998   0.779   0.133  16.687  0.3588 -0.7234 -0.3888
    2MPD1     H13999   1.154   0.104  16.627  0.2187 -1.5375  0.8333
    2MPD1    H114000   0.758   0.082  16.480  0.2326  1.0359 -0.5354
    2MPD1    H214001   0.831   0.196  16.886  0.9808 -0.5997 -0.0878
    2MPD1    H314002   0.673   0.141  16.704  0.4079 -1.8581  0.4994
    2MPD1     N14003   1.023   0.065  16.411 -0.5501  0.0772 -0.1004
    2MPD1    H514004   1.124   0.053  16.417 -0.4377 -0.0934 -2.5189
    2MPD1    N114005   1.090   0.183  16.868  0.5635  0.2110  0.5588
    2MPD1    H614006   1.184   0.181  16.828 -0.1392 -0.8147 -1.0031
    2MPD1    H714007   1.068   0.276  16.903 -2.9410 -0.0099 -1.1496
    3TMC3    C114008   1.054   0.017  16.179 -0.2945 -0.0124  0.1961
    3TMC3    C214009   1.183   4.712  16.195  0.3407 -1.2040  0.5832
    3TMC3    C314010   1.267   4.693  16.084 -0.1553  0.5233 -0.1869
    3TMC3    C414011   0.999   0.040  16.054  0.5615  0.3177 -0.5536
    3TMC3    C514012   1.089   0.036  15.951 -0.2016 -0.6133 -0.3795
    3TMC3    C614013   1.219   4.720  15.961  0.3184  1.0140  0.0176
    3TMC3     C14014   0.962   0.052  16.292  0.5515 -0.5185 -0.5469
    3TMC3     O14015   0.841   0.067  16.268 -0.2687  0.6208  0.0313
    3TMC3     H14016   1.217   4.701  16.297 -1.2486 -1.3738  1.0884
    3TMC3    H114017   0.901   0.084  16.041  0.4280  0.2490  0.2229
    3TMC3    H214018   1.278   4.697  15.873 -2.6457  1.4194 -2.0767
    3TMC3    C714019   1.039   0.081  15.821  0.0136  0.0907  0.0456
    3TMC3    C814020   1.377   4.611  16.093 -0.5607  0.2456  0.4563
    3TMC3    O114021   0.924   0.116  15.814 -0.0752  0.1455  0.9034
    3TMC3    O214022   1.447   4.594  15.996  0.1680 -0.3916  0.0367
    4MPD1     C14023   1.686   4.307  16.374  0.4759 -0.0756  0.3566
    4MPD1    C114024   1.557   4.303  16.428  0.0337 -0.4097  0.6316
    4MPD1    C214025   1.467   4.384  16.362  0.2684 -0.5150  0.7050
    4MPD1    C314026   1.476   4.435  16.235 -0.4457  0.6281 -0.3414
    4MPD1    C414027   1.600   4.419  16.181 -0.6254 -0.2101  0.0103
    4MPD1    C514028   1.707   4.367  16.253 -0.2452  0.7316  0.1754
    4MPD1     H14029   1.379   4.413  16.418  1.7176  0.1689  2.6247
    4MPD1    H114030   1.617   4.471  16.087 -0.1899  1.7026  1.1357
    4MPD1    H214031   1.769   4.251  16.418  0.8564 -0.7341 -1.2033
    4MPD1    H314032   1.810   4.363  16.219 -0.1966  2.2978  0.1641
    4MPD1     N14033   1.377   4.524  16.198  0.1666  0.2491 -0.2723
    4MPD1    H514034   1.293   4.521  16.255 -0.2136 -2.2016 -0.9275
    4MPD1    N114035   1.532   4.274  16.563  0.3192 -0.4928  0.0793
    4MPD1    H614036   1.434   4.262  16.585 -0.3312  1.5332 -1.6648
    4MPD1    H714037   1.578   4.192  16.602  1.0552 -1.1947 -2.2179
    1TCq1    O114038   4.033   3.801  11.185 -0.1197  0.2381 -0.0111
    1TCq1    C114039   3.950   3.887  11.122 -0.7877 -0.6970 -0.1121
    1TCq1    O214040   3.869   3.846  11.041  0.5760  0.5510 -0.1499
    1TCq1    C214041   3.920   3.993  11.215 -0.1106  0.8970  0.3554
    1TCq1    C314042   3.946   3.982  11.352 -0.2040  0.4282  0.8582
    1TCq1    C414043   3.918   4.086  11.431  0.3399  0.1784 -0.0547
    1TCq1    C514044   3.851   4.196  11.379 -0.1380  0.0860 -0.4394
    1TCq1    C614045   3.819   4.206  11.244  0.3975  0.3496  0.1666
    1TCq1    C714046   3.850   4.100  11.164  0.1820 -0.0766  0.2123
    1TCq1    C814047   3.748   4.317  11.182  0.2175  0.0896  0.2172
    1TCq1    O414048   3.684   4.299  11.075  0.2232 -0.4733  0.0291
    1TCq1    C914049   3.907   4.058  11.571  0.3004 -0.1895 -0.1506
    1TCq1    O514050   3.957   3.947  11.604  0.5244  0.1040  0.4611
    1TCq1    O614051   3.857   4.143  11.645 -0.4277  0.7445 -0.6969
    1TCq1    H114052   4.090   3.850  11.248 -0.3795  0.4490  0.0619
    1TCq1    H214053   3.962   3.884  11.395  0.8131  0.7089  1.1138
    1TCq1    H314054   3.826   4.266  11.458 -1.0278 -0.2976 -0.3847
    1TCq1    H414055   3.824   4.112  11.060 -1.5377 -1.6112  0.4676
    2MPD1     C14056   3.616   0.091  11.195  0.6500  0.0799 -0.0084
    2MPD1    C114057   3.689   0.063  11.308 -0.1047  0.2446  0.0978
    2MPD1    C214058   3.746   4.661  11.336  0.0434 -0.5528 -0.3591
    2MPD1    C314059   3.720   4.556  11.246 -0.2651  0.0534 -0.0132
    2MPD1    C414060   3.647   4.589  11.129 -0.0382  1.0153 -0.6507
    2MPD1    C514061   3.603   4.717  11.107  0.7576  0.7038 -0.1692
    2MPD1     H14062   3.795   4.640  11.431 -0.3367 -0.3910 -0.1282
    2MPD1    H114063   3.609   4.514  11.060  0.2259  0.5743 -0.3160
    2MPD1    H214064   3.571   0.187  11.172 -0.1668 -0.6255 -1.2840
    2MPD1    H314065   3.543   0.009  11.018  0.6667 -2.5054 -0.6899
    2MPD1     N14066   3.769   4.425  11.267  0.2492  0.3949 -0.2819
    2MPD1    H514067   3.825   4.410  11.349 -0.6837 -1.0799  0.0959
    2MPD1    N114068   3.724   0.165  11.390  0.2315 -0.1104 -0.1298
    2MPD1    H614069   3.713   0.135  11.487  0.6964 -2.0754 -0.6866
    2MPD1    H714070   3.669   0.251  11.388  1.5457  0.6938 -1.3262
    1TCq1    O114071   1.624   0.125   1.011 -0.3084 -0.7538  0.2045
    1TCq1    C114072   1.514   0.171   1.080  0.3729 -0.2684 -0.6027
    1TCq1    O214073   1.400   0.121   1.079  0.4194  0.2578 -0.1949
    1TCq1    C214074   1.539   0.307   1.107  0.3136 -0.4929 -0.2219
    1TCq1    C314075   1.475   0.356   1.216  0.3030 -0.0066 -0.4435
    1TCq1    C414076   1.479   0.495   1.230 -0.4209  0.7153 -0.6024
    1TCq1    C514077   1.546   0.577   1.137  0.0106  0.1187 -0.7104
    1TCq1    C614078   1.611   0.520   1.029  0.2716  1.0617 -0.3099
    1TCq1    C714079   1.609   0.385   1.010 -0.0593  0.2833 -0.5235
    1TCq1    C814080   1.669   0.616   0.930 -0.3747  1.0112 -0.3071
    1TCq1    O414081   1.625   0.728   0.943  1.4178  0.0074  0.0141
    1TCq1    C914082   1.387   0.567   1.315  0.1419 -0.1532 -0.1304
    1TCq1    O514083   1.394   0.693   1.302 -0.0378 -0.1568  0.3924
    1TCq1    O614084   1.305   0.502   1.382 -0.1135  0.0054 -0.1547
    1TCq1    H114085   1.706   0.164   1.047 -1.2933 -0.1139  1.7844
    1TCq1    H214086   1.400   0.299   1.270 -0.0596 -0.3145 -1.2593
    1TCq1    H314087   1.540   0.685   1.145  0.4649  0.0580  0.3847
    1TCq1    H414088   1.652   0.337   0.923 -1.0305  0.6118 -1.1916
    2MPD1     C14089   2.039   0.797   0.626 -0.3746 -0.3618  0.3829
    2MPD1    C114090   2.063   0.665   0.642  0.1828 -0.1412 -0.3792
    2MPD1    C214091   1.960   0.595   0.702  0.4765  0.6395  0.1069
    2MPD1    C314092   1.851   0.660   0.762 -0.2494 -0.0115  0.2204
    2MPD1    C414093   1.838   0.801   0.761 -0.2026  0.1979  0.5099
    2MPD1    C514094   1.932   0.858   0.681 -0.2654 -0.3665  0.3657
    2MPD1     H14095   1.962   0.486   0.696  1.7512  0.7236 -0.8852
    2MPD1    H114096   1.765   0.864   0.810  0.1910 -1.1357  2.8366
    2MPD1    H214097   2.101   0.860   0.564 -2.0578  0.1720 -0.7698
    2MPD1    H314098   1.932   0.965   0.662  1.2587 -0.2101  1.2378
    2MPD1     N14099   1.760   0.572   0.842 -0.3755  0.2995 -0.0072
    2MPD1    H514100   1.787   0.475   0.852  0.3592  0.3095 -1.8731
    2MPD1    N114101   2.161   0.598   0.561  0.0931 -0.4443  0.4031
    2MPD1    H614102   2.188   0.515   0.612 -2.0431 -0.4274  1.5344
    2MPD1    H714103   2.246   0.654   0.572 -1.2212  1.7861 -0.6822
    1MPD1     C14104   3.391   0.002  11.963 -0.1495  0.0842 -0.5767
    1MPD1    C114105   3.530   0.000  11.992 -0.3991  0.6879 -1.3698
    1MPD1    C214106   3.606   0.097  11.926 -0.2804  0.3896 -0.0252
    1MPD1    C314107   3.555   0.210  11.858  0.1446  0.0660  0.4134
    1MPD1    C414108   3.421   0.216  11.846  0.2388 -0.3214  0.3347
    1MPD1    C514109   3.339   0.108  11.891  0.4726  0.5896  0.3435
    1MPD1     H14110   3.712   0.099  11.950 -0.2691  0.5555 -0.0889
    1MPD1    H114111   3.373   0.310  11.821 -0.5511 -0.7418  0.2735
    1MPD1    H214112   3.339   4.633  11.984  1.5024 -0.2923  1.8741
    1MPD1    H314113   3.233   0.116  11.871  0.8995  2.3411 -1.2242
    1MPD1     N14114   3.649   0.304  11.815 -0.3607  0.0770 -0.7433
    1MPD1    H514115   3.744   0.269  11.821 -1.4289 -2.8582 -0.8973
    1MPD1    N114116   3.585   4.616  12.054  0.0392 -0.3137 -0.0482
    1MPD1    H614117   3.528   4.556  12.113 -0.2095  0.2077  0.2467
    1MPD1    H714118   3.676   4.631  12.097  1.4814 -0.2834 -3.1424
    2MPD1     C14119   2.231   3.946  10.829 -0.3086  0.0523 -0.1745
    2MPD1    C114120   2.286   4.023  10.730  0.3925 -0.4787  0.0789
    2MPD1    C214121   2.389   4.115  10.765 -0.0938  0.1868  0.7506
    2MPD1    C314122   2.432   4.132  10.898 -0.0264  0.3524 -0.2083
    2MPD1    C414123   2.374   4.046  10.989  0.0558  0.5085  0.4928
    2MPD1    C514124   2.275   3.961  10.957 -0.2828 -0.8440 -0.3732
    2MPD1     H14125   2.435   4.170  10.683  0.5161  0.2000  1.0956
    2MPD1    H114126   2.412   4.056  11.090  1.0094 -1.5860  0.3294
    2MPD1    H214127   2.145   3.884  10.810  0.8760 -1.8427  0.6355
    2MPD1    H314128   2.231   3.899  11.034 -2.7356 -1.1737 -2.0449
    2MPD1     N14129   2.521   4.226  10.939 -0.3326  0.1079 -0.2109
    2MPD1    H514130   2.534   4.245  11.038  2.1185 -0.3965 -0.4536
    2MPD1    N114131   2.229   4.020  10.601 -0.2933 -0.1378  0.5979
    2MPD1    H614132   2.302   4.038  10.532 -2.7598 -0.4161 -2.0662
    2MPD1    H714133   2.183   3.935  10.570  2.1950 -1.4559  0.5604
    3MPD1     C14134   2.840   4.719  11.695 -0.0117 -0.0128 -0.2188
    3MPD1    C114135   2.939   4.630  11.658 -0.2772  0.0899 -0.0269
    3MPD1    C214136   2.928   4.574  11.533  0.1635 -1.2890 -0.2077
    3MPD1    C314137   2.827   4.613  11.447  0.0626  0.3093 -0.1902
    3MPD1    C414138   2.730   4.699  11.489 -0.2164  0.1305 -0.5613
    3MPD1    C514139   2.749   0.040  11.608 -0.2511  0.2232  0.1467
    3MPD1     H14140   3.001   4.498  11.508  0.0310 -1.7453  0.7915
    3MPD1    H114141   2.649   0.005  11.424 -1.6192 -1.1434  0.6191
    3MPD1    H214142   2.833   0.027  11.798 -2.9801 -0.9521 -0.1207
    3MPD1    H314143   2.667   0.103  11.642 -1.4792 -1.1424 -0.3154
    3MPD1     N14144   2.829   4.554  11.321  0.0509 -0.4820 -0.3742
    3MPD1    H514145   2.904   4.488  11.304  1.3837  1.3201 -1.5169
    3MPD1    N114146   3.024   4.581  11.758  0.4134  0.4427 -0.5963
    3MPD1    H614147   3.046   4.658  11.821 -1.2556  1.1968 -0.9399
    3MPD1    H714148   3.108   4.559  11.706  0.2177  0.2099 -0.8132
    4MPD2     C14149   3.687   0.562  11.044 -0.1567  0.1196  0.0426
    4MPD2    C114150   3.762   0.464  11.100  0.3328  0.0479 -0.0996
    4MPD2    C214151   3.799   0.346  11.033 -0.3877 -0.3937  0.0000
    4MPD2    C314152   3.750   0.329  10.906 -0.4542 -0.1942  0.2923
    4MPD2    C414153   3.673   0.425  10.851 -0.4201  0.6196  0.1267
    4MPD2    C514154   3.642   0.542  10.917 -0.0413  0.1352  0.0784
    4MPD2     H14155   3.857   0.268  11.081  1.2801  0.1529 -1.1092
    4MPD2    H114156   3.646   0.422  10.746  3.8680  0.2803 -0.9510
    4MPD2    H214157   3.662   0.652  11.099 -0.7493  0.1868 -0.3426
    4MPD2    H314158   3.583   0.610  10.858  0.7679  0.1327 -0.7190
    4MPD2     N14159   3.785   0.229  10.813  0.0088 -0.0251 -0.1937
    4MPD2    H514160   3.728   0.214  10.729 -0.9831 -1.2736  0.6971
    4MPD2    N114161   3.806   0.473  11.236 -0.1406 -0.1082 -0.8192
    4MPD2    H714162   3.848   0.386  11.265  2.0342  0.6060 -1.8240
    5TMC3    C114163   3.813   0.521  11.467  0.1194 -0.0116  0.5201
    5TMC3    C214164   3.722   0.541  11.568  0.6167  0.2377 -0.1617
    5TMC3    C314165   3.751   0.468  11.682 -0.9681 -0.2584  0.2459
    5TMC3    C414166   3.915   0.426  11.468 -0.6217 -0.3779 -0.0295
    5TMC3    C514167   3.933   0.345  11.579  0.3454  0.0993  0.0818
    5TMC3    C614168   3.853   0.373  11.694  0.6494  0.4092 -0.5782
    5TMC3     C14169   3.772   0.565  11.336 -0.5738  0.0846 -0.1083
    5TMC3     O14170   3.693   0.658  11.331  0.3055 -0.5191 -0.3607
    5TMC3     H14171   3.628   0.595  11.559  1.0571  1.0860  0.2258
    5TMC3    H114172   3.986   0.433  11.387 -0.9006  2.0545 -0.0760
    5TMC3    H214173   3.880   0.321  11.785 -3.6308 -0.4798  0.2095
    5TMC3    C714174   4.000   0.210  11.569 -0.3600  0.4679  0.3858
    5TMC3    C814175   3.628   0.416  11.743 -0.0928  0.7102 -0.0891
    5TMC3    O114176   3.997   0.145  11.672 -0.6378  0.1303  0.1647
    5TMC3    O214177   3.523   0.460  11.698  0.0025 -0.3701 -0.0069
    6TMC3    C114178   2.703   4.381  10.916 -0.0396  0.2329  0.4116
    6TMC3    C214179   2.677   4.436  11.041  0.0940  0.7212 -0.0586
    6TMC3    C314180   2.773   4.508  11.101  0.5966  0.4104 -0.8565
    6TMC3    C414181   2.824   4.390  10.861 -0.6334 -0.2424 -0.0640
    6TMC3    C514182   2.919   4.465  10.925  0.3899  0.7344  0.2348
    6TMC3    C614183   2.896   4.528  11.045  0.1491 -0.1940 -0.4354
    6TMC3     C14184   2.608   4.294  10.851  0.6614 -0.4232  0.2004
    6TMC3     O14185   2.622   4.269  10.730 -0.0054  0.0926  0.3420
    6TMC3     H14186   2.581   4.427  11.090  1.8378 -1.1654  2.9505
    6TMC3    H114187   2.838   4.350  10.761  1.0643  0.5108 -0.1176
    6TMC3    H214188   2.976   4.572  11.102 -0.2406 -0.3363  0.2248
    6TMC3    C714189   3.056   4.458  10.884 -0.8643  0.4495 -0.8646
    6TMC3    C814190   2.738   4.575  11.221  0.4111 -1.0546  0.8772
    6TMC3    O114191   3.130   4.547  10.918 -0.0611  0.4588  0.6645
    6TMC3    O214192   2.638   4.647  11.209 -0.0530 -0.0033  0.4103
    7MPD2     C14193   4.067   4.524  11.278 -0.1486  0.3511 -0.6004
    7MPD2    C114194   4.052   4.633  11.195  0.0519 -0.5118  0.0646
    7MPD2    C214195   4.053   0.032  11.253  0.4273 -0.3155  0.4910
    7MPD2    C314196   4.054   0.040  11.390  0.7699  0.3545 -0.2070
    7MPD2    C414197   4.060   4.648  11.474 -0.3199  0.6489 -0.3865
    7MPD2    C514198   4.074   4.529  11.413  0.2884 -0.4734 -0.2322
    7MPD2     H14199   4.028   0.118  11.193  2.3249 -0.3214 -0.3247
    7MPD2    H114200   4.085   4.648  11.580 -1.6602  3.1683 -0.0680
    7MPD2    H214201   4.063   4.425  11.235  0.8703  0.4111 -0.8312
    7MPD2    H314202   4.076   4.433  11.463  0.1103  0.1974  1.0562
    7MPD2     N14203   4.037   0.171  11.440  0.0479  0.1268 -0.5679
    7MPD2    H514204   4.020   0.233  11.362  0.9490 -0.1772 -1.0116
    7MPD2    N114205   4.019   4.623  11.059  0.1849  0.2549  0.3097
    7MPD2    H714206   4.004   4.710  11.008 -1.1896  0.5047  1.1066
    8TMC3    C114207   3.959   4.534  10.849 -0.0428 -1.0234 -1.0233
    8TMC3    C214208   3.834   4.485  10.833 -0.4622  0.2639  0.2856
    8TMC3    C314209   3.737   4.568  10.777 -0.0759 -0.1433  0.0517
    8TMC3    C414210   3.977   4.664  10.808 -0.0134 -0.0816 -0.5944
    8TMC3    C514211   3.886   0.022  10.758  0.2676 -0.0894 -0.5437
    8TMC3    C614212   3.757   4.702  10.746  0.2744 -0.1505 -0.2789
    8TMC3     C14213   4.015   4.511  10.980 -0.6561 -0.5011  0.1394
    8TMC3     O14214   4.040   4.396  11.017  0.3749  0.0808  0.2438
    8TMC3     H14215   3.812   4.381  10.854  0.3169  0.1943  0.7475
    8TMC3    H114216   4.075   4.706  10.829  0.3430 -0.2842 -1.9005
    8TMC3    H214217   3.673   0.023  10.694  0.7160  0.0256 -0.8405
    8TMC3    C714218   3.890   0.144  10.844  0.1541 -0.1708  0.6233
    8TMC3    C814219   3.598   4.520  10.782  1.0490  0.1179  0.5234
    8TMC3    O114220   3.971   0.140  10.937  0.7662  0.3891 -0.0304
    8TMC3    O214221   3.511   4.601  10.793 -0.6737 -0.3746  0.2396
    9MPD2     C14222   3.452   4.215  10.664  0.9823  0.5935  0.6358
    9MPD2    C114223   3.458   4.330  10.740  0.0596  0.3719 -0.0690
    9MPD2    C214224   3.333   4.375  10.789 -0.3541 -0.4217 -0.4143
    9MPD2    C314225   3.212   4.310  10.756  0.5161 -0.3309 -0.4603
    9MPD2    C414226   3.207   4.197  10.672 -0.9046 -0.2539 -0.8315
    9MPD2    C514227   3.330   4.156  10.624  0.9251 -0.0925  1.3303
    9MPD2     H14228   3.335   4.461  10.854 -0.5547 -0.5535 -0.2365
    9MPD2    H114229   3.119   4.160  10.621  0.1257 -1.4624 -1.7186
    9MPD2    H214230   3.544   4.169  10.629  0.9802 -0.6367  2.2718
    9MPD2    H314231   3.333   4.085  10.541  1.7781  1.1883  0.2752
    9MPD2     N14232   3.083   4.346  10.803 -0.0892 -0.1906  0.3415
    9MPD2    H514233   3.010   4.281  10.776 -0.7252  0.8710 -0.4443
    9MPD2    N114234   3.589   4.383  10.767  0.0987  0.0724  0.5946
    9MPD2    H714235   3.673   4.331  10.745 -0.4216 -1.0381  1.2262
    1MPD1     C14236   3.293   3.617  16.032 -0.4588 -0.0643 -0.3917
    1MPD1    C114237   3.274   3.497  16.100 -0.4177  0.4674  0.2069
    1MPD1    C214238   3.169   3.500  16.186 -0.3034 -0.3368 -0.3406
    1MPD1    C314239   3.109   3.614  16.230  0.0300  0.1469 -0.0690
    1MPD1    C414240   3.132   3.730  16.163 -0.0362 -0.4967 -0.8997
    1MPD1    C514241   3.220   3.725  16.059 -0.0238 -0.3387 -0.6202
    1MPD1     H14242   3.148   3.408  16.238  0.5954  0.6503  1.7548
    1MPD1    H114243   3.100   3.827  16.198  1.7143 -0.7060  1.2623
    1MPD1    H214244   3.359   3.625  15.947  0.0244  0.5253  0.0430
    1MPD1    H314245   3.244   3.808  15.993  0.1031  2.1702  2.5755
    1MPD1     N14246   3.015   3.620  16.339 -0.6182 -0.1204 -0.0359
    1MPD1    H514247   2.979   3.710  16.370 -3.3072 -1.0870 -0.3464
    1MPD1    N114248   3.324   3.372  16.061  0.0453 -0.1834 -0.2700
    1MPD1    H614249   3.418   3.366  16.022  0.4886 -0.4478  0.8313
    1MPD1    H714250   3.321   3.307  16.139  0.7250 -0.6101 -0.6044
    2MPD1     C14251   2.489   3.315  17.257  0.0706 -0.2585  0.5196
    2MPD1    C114252   2.382   3.340  17.164 -1.2554  0.2700  0.2012
    2MPD1    C214253   2.426   3.371  17.037  0.6171  0.6270  0.4113
    2MPD1    C314254   2.560   3.388  16.999  0.4609  0.6717 -0.0704
    2MPD1    C414255   2.655   3.375  17.098 -0.3584 -0.3884 -0.1140
    2MPD1    C514256   2.617   3.330  17.220 -0.2743  0.2103 -0.1886
    2MPD1     H14257   2.356   3.397  16.958  0.0084 -1.0976  0.3847
    2MPD1    H114258   2.760   3.397  17.081 -0.4223 -0.0098 -0.0196
    2MPD1    H214259   2.478   3.278  17.358 -1.3260  2.7493  1.4859
    2MPD1    H314260   2.695   3.315  17.293 -1.2161 -0.2547  0.7202
    2MPD1     N14261   2.595   3.411  16.863 -0.5880 -0.0411 -0.2509
    2MPD1    H514262   2.516   3.442  16.806  0.2212  1.6576 -0.4521
    2MPD1    N114263   2.243   3.316  17.195 -0.5838  0.1290  0.2449
    2MPD1    H614264   2.222   3.330  17.293 -1.4452  0.1252  0.0548
    2MPD1    H714265   2.182   3.368  17.133  0.0227 -0.6197 -0.9863
    3TCq2    C114266   2.720   3.425  16.820 -0.4490  0.2399 -0.2083
    3TCq2    O214267   2.819   3.368  16.858  0.3349 -0.1593  0.2413
    3TCq2    C214268   2.736   3.503  16.695 -0.4845 -0.2978 -0.7592
    3TCq2    C314269   2.654   3.607  16.672  0.6243 -0.0120  0.4382
    3TCq2    C414270   2.671   3.675  16.557 -0.5563  0.4342  0.5940
    3TCq2    C514271   2.767   3.647  16.462  0.4446  0.3210  0.4039
    3TCq2    C614272   2.857   3.546  16.497  0.2377 -0.0987 -0.2041
    3TCq2    C714273   2.843   3.477  16.615  0.4979 -0.1667  0.1113
    3TCq2    C814274   2.974   3.513  16.422 -0.4001 -0.1049 -0.0181
    3TCq2    O414275   3.015   3.398  16.433  0.2902  0.1730 -0.2997
    3TCq2    C914276   2.583   3.780  16.540  0.2081 -0.0750  0.8829
    3TCq2    O514277   2.590   3.839  16.430  0.3107  0.0063  0.3492
    3TCq2    O614278   2.507   3.812  16.634  0.2471  0.3987  0.3903
    3TCq2    H214279   2.561   3.619  16.727 -0.1245 -1.1794 -0.5539
    3TCq2    H314280   2.779   3.701  16.369  1.8464 -0.7453 -0.0488
    3TCq2    H414281   2.903   3.390  16.638 -0.5493 -1.2406 -1.1610
    1TCq1    O114282   1.654   2.706  12.854 -0.0455 -0.2596 -0.2544
    1TCq1    C114283   1.671   2.589  12.908 -0.6189 -0.2575  0.0075
    1TCq1    O214284   1.772   2.541  12.959  0.0754 -0.1745  0.2824
    1TCq1    C214285   1.578   2.502  12.847  0.1613  0.3171 -0.0808
    1TCq1    C314286   1.448   2.549  12.847 -0.4025 -0.0313  0.4068
    1TCq1    C414287   1.352   2.455  12.825  0.1822  0.1372 -0.3680
    1TCq1    C514288   1.373   2.323  12.799  0.3434  0.0045 -0.6733
    1TCq1    C614289   1.502   2.284  12.807 -0.0225  0.4340  0.2416
    1TCq1    C714290   1.609   2.371  12.828 -0.4870 -0.7439  0.2697
    1TCq1    C814291   1.533   2.146  12.810  0.0167  0.1313 -0.2690
    1TCq1    O414292   1.459   2.067  12.754 -0.2009  0.2359 -0.0496
    1TCq1    C914293   1.215   2.495  12.839 -0.4408 -0.6459  0.2471
    1TCq1    O514294   1.128   2.409  12.827 -0.5494 -0.0443  0.0878
    1TCq1    O614295   1.199   2.623  12.843  0.3584  0.5371  0.0496
    1TCq1    H114296   1.586   2.695  12.785 -0.7623 -1.7905  0.7146
    1TCq1    H214297   1.430   2.652  12.878 -0.6194  0.5837 -1.7417
    1TCq1    H314298   1.295   2.252  12.773 -0.5361  1.3362 -1.6172
    1TCq1    H414299   1.711   2.333  12.833 -0.2957 -0.3807 -0.8605
    2MPD2     C14300   1.641   1.881  12.893  0.2543  0.3051 -0.3246
    2MPD2    C114301   1.678   1.997  12.950  0.1450  0.3128  0.0567
    2MPD2    C214302   1.778   1.994  13.052  0.9875 -0.5938  0.2562
    2MPD2    C314303   1.832   1.875  13.098  0.4689 -0.7391 -0.2138
    2MPD2    C414304   1.790   1.754  13.040 -0.2248 -0.3537 -0.2455
    2MPD2    C514305   1.698   1.762  12.934  0.5731 -0.3589 -0.1260
    2MPD2     H14306   1.810   2.087  13.099 -0.7376  0.0206  0.2012
    2MPD2    H114307   1.828   1.657  13.070 -2.0346 -1.2688 -0.8728
    2MPD2    H214308   1.576   1.871  12.807  0.1271 -1.2614 -0.0453
    2MPD2    H314309   1.676   1.668  12.883  0.5756 -1.1589  1.3332
    2MPD2     N14310   1.928   1.884  13.201 -0.5362  0.2084  0.2344
    2MPD2    H514311   1.942   1.976  13.243  0.5022  1.1007 -2.0580
    2MPD2    N114312   1.636   2.120  12.894 -0.1832  0.2678 -0.0274
    2MPD2    H714313   1.666   2.204  12.943 -0.5569  0.0349  0.6001
    3TCq1    O114314   2.084   1.651  13.730  0.2009 -0.6049 -0.4116
    3TCq1    C114315   2.166   1.761  13.727 -0.2343 -0.2351 -0.0191
    3TCq1    O214316   2.277   1.768  13.785  0.0649  0.2812 -0.2319
    3TCq1    C214317   2.139   1.833  13.603  0.0875  0.4086  0.0179
    3TCq1    C314318   2.177   1.970  13.598 -0.6803 -0.4699 -0.2524
    3TCq1    C414319   2.157   2.038  13.483  0.0717 -0.6040 -0.4050
    3TCq1    C514320   2.107   1.973  13.377  0.1066  0.0908 -0.6777
    3TCq1    C614321   2.075   1.839  13.378 -0.3344  0.2230  0.1953
    3TCq1    C714322   2.089   1.768  13.494  0.0104  0.6957  0.4508
    3TCq1    C814323   1.994   1.785  13.266 -0.5100  0.2931  0.1108
    3TCq1    O414324   1.990   1.659  13.251  0.7396  0.1644 -0.2530
    3TCq1    C914325   2.195   2.181  13.477  0.1535  0.2884 -0.5063
    3TCq1    O514326   2.206   2.236  13.364  0.0880 -0.3772  0.7340
    3TCq1    O614327   2.242   2.229  13.581 -0.8534  0.1270 -0.1268
    3TCq1    H114328   1.992   1.674  13.708  0.0673  2.7104  3.4902
    3TCq1    H214329   2.224   2.019  13.682 -1.2506 -0.1066 -0.1440
    3TCq1    H314330   2.107   2.025  13.282 -0.7985  0.6140 -0.3891
    3TCq1    H414331   2.072   1.661  13.498  1.3077  0.4037 -2.0652
    1MPD2     C14332   4.688   2.974  14.490  0.2582 -0.4338  0.9351
    1MPD2    C114333   0.065   2.891  14.449 -0.6056 -0.0698 -0.4845
    1MPD2    C214334   0.138   2.835  14.546  0.0245  1.0376  0.0380
    1MPD2    C314335   0.119   2.862  14.677  0.2597  0.0827 -0.0361
    1MPD2    C414336   0.016   2.949  14.716  0.2185  0.4913  0.4497
    1MPD2    C514337   4.652   2.994  14.618  0.8160 -0.6730 -0.1848
    1MPD2     H14338   0.228   2.780  14.520 -0.0765  1.4270 -1.1353
    1MPD2    H114339   0.003   2.981  14.819  1.6217  0.6276  0.5938
    1MPD2    H214340   4.620   3.026  14.424 -0.9599  0.9605  3.2841
    1MPD2    H314341   4.558   3.043  14.641  1.2424 -0.1193  0.3875
    1MPD2     N14342   0.213   2.801  14.761 -1.0095 -0.3889 -0.7478
    1MPD2    H514343   0.278   2.732  14.724  1.5177  0.7462  1.4874
    1MPD2    N114344   0.091   2.874  14.312 -0.4426 -0.1151  0.5668
    1MPD2    H714345   0.031   2.917  14.242 -0.8883 -0.9708  0.4219
    2TMC3    C114346   0.205   2.804  14.124 -0.1051 -0.1589 -0.5716
    2TMC3    C214347   0.292   2.699  14.093 -0.2896  0.3942 -0.1724
    2TMC3    C314348   0.415   2.733  14.048  0.6276 -0.2468  0.1422
    2TMC3    C414349   0.239   2.933  14.091  0.5113  0.5444 -0.2189
    2TMC3    C514350   0.354   2.957  14.036  0.0307  0.2301 -1.0670
    2TMC3    C614351   0.453   2.865  14.024 -0.0721  0.0980  0.7823
    2TMC3     C14352   0.188   2.787  14.263  0.3235 -0.5843 -0.6053
    2TMC3     O14353   0.244   2.699  14.320  0.2788  0.1460 -0.5664
    2TMC3     H14354   0.257   2.598  14.112 -0.6147  0.1580 -2.0250
    2TMC3    H114355   0.162   3.009  14.093  2.0446  2.1014  0.2493
    2TMC3    H214356   0.554   2.889  13.992 -0.6036  0.1460 -0.8475
    2TMC3    C714357   0.364   3.091  13.980  0.0192 -0.4720  0.9428
    2TMC3    C814358   0.528   2.665  14.097  0.3330  0.7005  0.5280
    2TMC3    O114359   0.267   3.158  13.952 -0.0649  0.1284 -0.2893
    2TMC3    O214360   0.642   2.697  14.060  0.2564 -0.1569 -0.3212
    3TCq1    O114361   0.419   4.178  13.540  0.7449 -0.2123 -0.0908
    3TCq1    C114362   0.363   4.170  13.664  0.3215  0.7400 -0.3344
    3TCq1    O214363   0.325   4.259  13.734  0.1933 -0.3049 -0.3880
    3TCq1    C214364   0.323   4.029  13.693  0.4409 -0.4620  0.0380
    3TCq1    C314365   0.206   4.014  13.754  0.1376 -0.0569  0.0982
    3TCq1    C414366   0.173   3.893  13.811 -0.9172 -0.3347 -0.8564
    3TCq1    C514367   0.269   3.794  13.820  0.4327  0.0956  0.0970
    3TCq1    C614368   0.380   3.809  13.744 -0.7622 -0.0828 -0.1237
    3TCq1    C714369   0.419   3.929  13.690  0.3300 -0.3761  0.3546
    3TCq1    C814370   0.473   3.697  13.730 -0.5166 -0.2281  0.1965
    3TCq1    O414371   0.570   3.718  13.660 -0.3546 -0.0222 -0.5375
    3TCq1    C914372   0.045   3.879  13.875  0.1149  0.5115  0.0644
    3TCq1    O514373   4.694   3.982  13.875 -0.2844  0.1994 -0.0663
    3TCq1    O614374   0.009   3.766  13.904  0.3336 -0.2098  0.3236
    3TCq1    H114375   0.433   4.092  13.494  1.3541  0.2402 -0.7604
    3TCq1    H214376   0.135   4.097  13.752 -0.2318 -0.4029 -1.5782
    3TCq1    H314377   0.249   3.702  13.874  2.0992  0.2217  0.9195
    3TCq1    H414378   0.525   3.942  13.667 -0.5315  1.9794 -2.3596
    4MPD2     C14379   0.650   3.465  13.788  0.1497  0.4096  0.3071
    4MPD2    C114380   0.511   3.463  13.809  0.2146  0.0363  0.4625
    4MPD2    C214381   0.456   3.347  13.853 -0.2672 -0.4056 -0.5911
    4MPD2    C314382   0.535   3.236  13.872 -0.4449 -0.3970  0.0580
    4MPD2    C414383   0.671   3.236  13.844 -0.5850 -0.0832 -0.6145
    4MPD2    C514384   0.730   3.358  13.809 -0.6972 -0.0410  0.2156
    4MPD2     H14385   0.352   3.351  13.885 -0.3828 -3.5211 -0.5777
    4MPD2    H114386   0.733   3.147  13.850  1.9423  1.8088  1.2289
    4MPD2    H214387   0.688   3.560  13.750 -1.0004  0.9538  0.5348
    4MPD2    H314388   0.833   3.355  13.776 -0.2429 -0.9272  1.7540
    4MPD2     N14389   0.492   3.124  13.937  0.5323  0.2708  0.9404
    4MPD2    H514390   0.571   3.061  13.946  0.1983 -0.5671 -2.0242
    4MPD2    N114391   0.435   3.578  13.791  0.2982  0.3535 -0.3052
    4MPD2    H714392   0.338   3.566  13.820 -0.9234  2.8079 -3.3467
    5TMC2    C114393   0.452   2.556  14.858 -0.0668 -0.5108 -0.2942
    5TMC2    C214394   0.567   2.607  14.912 -0.3379  0.1838  0.5730
    5TMC2    C314395   0.548   2.725  14.983  0.0938  0.4036 -0.2453
    5TMC2    C414396   0.326   2.610  14.887  0.3214  0.7279 -0.1579
    5TMC2    C514397   0.313   2.725  14.959  1.0256  0.0156 -0.1934
    5TMC2    C614398   0.428   2.781  15.013  0.1224 -0.3076  0.3950
    5TMC2     C14399   0.458   2.528  14.716 -0.6877  0.1214  0.3481
    5TMC2     O14400   0.354   2.551  14.658  0.4711 -0.0144  0.3231
    5TMC2     H14401   0.661   2.555  14.898 -1.2735 -1.4476  0.3699
    5TMC2    H114402   0.237   2.567  14.842  0.6042  0.8328 -0.8212
    5TMC2    H214403   0.421   2.877  15.062 -1.6594 -0.6244  0.7629
    5TMC2    C714404   0.223   2.820  14.900  0.1772  0.6087 -0.4820
    5TMC2    C814405   0.658   2.802  15.037 -0.3231 -0.5812 -0.0068
    5TMC2    O114406   0.183   2.907  14.979  0.0661 -0.1958  0.3795
    5TMC2    O214407   0.654   2.882  15.129  0.0098  0.1669 -0.2532
    5TMC2    O514408   0.770   2.748  14.996  0.3318 -0.3975 -0.4568
    5TMC2    H514409   0.768   2.702  14.910 -2.9030  2.1942 -1.7720
    6MPD2     C14410   0.712   2.520  14.290 -0.7635  0.3966 -0.3711
    6MPD2    C114411   0.579   2.540  14.307  0.2084 -0.0527 -0.0245
    6MPD2    C214412   0.524   2.504  14.425 -0.2716  0.4027  0.4126
    6MPD2    C314413   0.612   2.468  14.527 -0.2871  0.0812  0.0468
    6MPD2    C414414   0.744   2.447  14.503 -0.4209 -0.1522  0.5044
    6MPD2    C514415   0.790   2.464  14.380  0.3529  0.1748 -0.1218
    6MPD2     H14416   0.420   2.525  14.446 -0.1626  2.1002 -0.7430
    6MPD2    H114417   0.813   2.411  14.579 -1.2343 -1.2767  0.7174
    6MPD2    H214418   0.761   2.544  14.196 -1.0083  1.7600 -0.1473
    6MPD2    H314419   0.892   2.438  14.355 -0.5213 -0.0398 -3.4886
    6MPD2     N14420   0.576   2.468  14.663 -0.3116 -0.4550 -0.0733
    6MPD2    H514421   0.645   2.428  14.725  0.1834  2.3515  1.2102
    6MPD2    N114422   0.490   2.612  14.218  0.2108  0.0019  0.0812
    6MPD2    H714423   0.393   2.628  14.243  0.9561  0.0805  2.8469
  945NH3     N114424   2.315   4.194  11.950 -0.2599  0.4983 -0.3232
  945NH3     H214425   2.286   4.287  11.978  3.7562  1.0308  2.1011
  945NH3     H314426   2.226   4.147  11.935  1.0981 -2.2059  0.0465
  945NH3     H414427   2.343   4.150  12.037 -0.5939  0.5489 -0.1887
  946SOD     NA14428   1.882   3.614  11.761  0.3809  0.0453 -0.1830
  947SOD     NA14429   3.965   4.149  16.310  0.3296  0.1781 -0.3197
  948SOD     NA14430   0.968   4.674  16.931 -0.0787 -0.1379 -0.1943
  949SOD     NA14431   0.463   1.831  10.328 -0.3812  0.3694  0.0558
  950SOD     NA14432   4.476   4.266  17.681  0.0870  0.0508  0.2253
  951SOD     NA14433   2.021   3.628  15.409  0.0563 -0.2707 -0.1190
  952SOD     NA14434   3.716   0.406  15.479 -0.4104  0.3839 -0.4372
  953SOD     NA14435   4.233   3.343  10.991  0.0049  0.4111  0.3542
  954SOD     NA14436   1.901   2.564  10.943 -0.1864  0.3833  0.0545
  955SOD     NA14437   1.790   4.133  15.031  0.4981  0.4559 -0.1424
  956SOD     NA14438   0.620   0.772  10.195 -0.2582 -0.1138  0.1688
  957SOD     NA14439   0.690   2.073  10.267  0.6841 -0.2495 -0.0333
  958SOD     NA14440   0.717   2.253   9.976 -0.4208 -0.0864  0.0272
  959SOD     NA14441   1.732   3.212  14.502 -0.1858  0.1806 -0.1827
  960SOD     NA14442   3.422   1.586  13.028  0.0919  0.5331  0.2798
  961SOD     NA14443   2.114   4.167   5.461  0.1327  0.1283  0.0418
  962SOD     NA14444   2.467   2.465  13.869 -0.4404 -0.3510 -0.1614
  963SOD     NA14445   0.116   3.670   8.350 -0.0049 -0.0748 -0.2205
  964SOD     NA14446   0.720   1.784  10.171  0.1452  0.1349  0.1921
  965SOD     NA14447   0.507   3.656   7.749  0.0190 -0.1516 -0.0157
  966SOD     NA14448   4.534   1.575  14.956  0.0768  0.6157 -0.3813
  967SOD     NA14449   2.341   1.024  16.270  0.0561  0.2328  0.2484
  968SOD     NA14450   2.566   4.384   6.091  0.0445 -0.1438 -0.0606
  969SOD     NA14451   2.563   1.916   6.069 -0.0226  0.3805 -0.0959
  970SOD     NA14452   2.377   0.317  16.815 -0.1873 -0.0636  0.0525
  971SOD     NA14453   4.627   3.879  15.522  0.1104 -0.3928  0.1867
  972SOD     NA14454   4.168   3.878   2.828  0.6212  0.5896 -0.2514
  973SOD     NA14455   1.966   1.871  12.444  0.2745 -0.0317 -0.0368
  974SOD     NA14456   2.385   2.182  13.756 -0.2425 -0.0232  0.1012
  975SOD     NA14457   3.778   2.017   0.729  0.4014  0.3879 -0.1734
  976SOD     NA14458   2.929   1.748   9.280 -0.2397  0.5513  0.4192
  977SOD     NA14459   0.861   2.165   0.227 -0.0666  0.2249  0.3060
  978SOD     NA14460   1.483   2.896  11.945  0.0446 -0.2289 -0.2907
  979SOD     NA14461   3.229   1.138  14.403 -0.2996  0.0488 -0.1126
  980SOD     NA14462   1.219   4.334  17.092  0.0712 -0.6522  0.1262
  981SOD     NA14463   0.615   1.390  11.033 -0.0579  0.4546 -0.4880
  982SOD     NA14464   0.698   1.287  11.299 -0.1728 -0.4982  0.0397
  983SOD     NA14465   2.313   3.470  14.262 -0.2263  0.3632 -0.2936
  984SOD     NA14466   4.005   2.588   2.053 -0.1147  0.1233 -0.0673
  985SOD     NA14467   0.978   2.288  10.211  0.0400  0.1852 -0.1710
  986SOD     NA14468   1.970   0.219   2.895 -0.0310 -0.3947 -0.0756
  987SOD     NA14469   1.013   2.244  12.936  0.0337  0.1071  0.1851
  988SOD     NA14470   3.620   4.274   9.028  0.1640  0.2745 -0.2000
  989SOD     NA14471   4.500   2.631   1.163 -0.3598 -0.4076 -0.3210
  990SOD     NA14472   3.505   1.936   2.296  0.4527  0.4078 -0.7977
  991SOD     NA14473   3.268   1.666  11.557 -0.2869 -0.3310 -0.1795
  992SOD     NA14474   3.192   3.762  11.402  0.3452  0.1709  0.0779
  993SOD     NA14475   1.264   2.656  10.827 -0.0122 -0.0198  0.6358
  994SOD     NA14476   4.702   0.106   2.210  0.4428  0.4713  0.3969
  995SOD     NA14477   2.578   2.437  14.163  0.0798  0.3174  0.0639
  996SOD     NA14478   1.490   4.392  12.229 -0.2081 -0.0293  0.5586
  997SOD     NA14479   0.960   4.207   8.814 -0.0223  0.3412  0.0893
  998SOD     NA14480   4.215   4.380   9.012 -0.3191 -0.0196 -0.1127
  999SOD     NA14481   2.806   4.216  14.199  0.2442 -0.1439 -0.3884
 1000SOD     NA14482   4.263   2.393  11.010  0.3002  0.3318  0.5433
 1001SOD     NA14483   4.641   1.611   2.466  0.0074 -0.1839  0.0637
 1002SOD     NA14484   3.296   3.036  12.957  0.1833  0.6814 -0.0336
 1003SOD     NA14485   0.903   0.463  10.404  0.1318 -0.0073 -0.1016
 1004SOD     NA14486   4.560   3.035   9.374 -0.0529  0.1468  0.1338
 1005SOD     NA14487   0.930   0.327   1.452 -0.3377  0.0483 -0.2141
 1006SOD     NA14488   0.989   2.749   0.982  0.0993 -0.6878  0.3054
 1007SOD     NA14489   2.647   2.782   1.769  0.0269  0.3104 -0.2374
 1008SOD     NA14490   1.403   1.561  15.583 -0.1172  0.3966 -0.3375
 1009SOD     NA14491   2.540   1.397  16.784  0.3647 -0.0322  0.3367
 1010SOD     NA14492   0.176   4.431  13.650 -0.5598  0.2297 -0.3195
 1011SOD     NA14493   0.479   4.510   2.684  0.3217 -0.5023  0.2728
 1012SOL     OW14494   2.289   3.262   9.663 -0.0457  0.3455  0.3681
 1012SOL    HW114495   2.223   3.235   9.599  0.3785 -0.6810  0.3577
 1012SOL    HW214496   2.363   3.208   9.636 -1.0589  0.2880 -2.3817
 1013SOL     OW14497   2.024   2.553   2.066 -0.5987  0.2261  0.4114
 1013SOL    HW114498   1.996   2.462   2.065  1.7467 -0.4632 -0.3551
 1013SOL    HW214499   1.958   2.576   2.000  1.0448 -1.7719 -1.8812
 1014SOL     OW14500   2.285   4.229   2.308  0.4444 -0.0022 -0.3967
 1014SOL    HW114501   2.202   4.183   2.316 -0.1018  1.0675  0.0387
 1014SOL    HW214502   2.264   4.275   2.227 -0.1826  1.0694  0.3761
 1015SOL     OW14503   3.399   4.147   0.749 -0.3138 -0.0938 -0.2060
 1015SOL    HW114504   3.317   4.177   0.789  0.0442  1.1311 -0.3766
 1015SOL    HW214505   3.448   4.229   0.749  0.6748 -0.6873  2.2993
 1016SOL     OW14506   3.093   3.397   5.564  0.0254  0.0502 -0.1204
 1016SOL    HW114507   3.124   3.313   5.595  0.4888  0.4233  0.4269
 1016SOL    HW214508   3.163   3.460   5.582  0.9077 -1.8227  2.9744
 1017SOL     OW14509   1.571   1.270   2.453 -0.1524 -0.0781 -0.1556
 1017SOL    HW114510   1.511   1.344   2.458 -0.5401 -0.4411  0.5545
 1017SOL    HW214511   1.606   1.266   2.543  1.6281 -0.0213 -0.8382
 1018SOL     OW14512   1.491   1.323   6.660 -0.4168  0.0187  0.2825
 1018SOL    HW114513   1.507   1.272   6.581 -0.6434  1.7687 -0.8917
 1018SOL    HW214514   1.547   1.299   6.734 -2.8287  0.1855  2.1492
 1019SOL     OW14515   3.805   2.335  15.573 -0.8361  0.0263 -0.4576
 1019SOL    HW114516   3.796   2.406  15.636  0.2705  0.3418 -0.6508
 1019SOL    HW214517   3.741   2.345  15.503 -2.2307  1.0418  0.9625
 1020SOL     OW14518   0.802   4.451   2.392  0.8827  0.2045  0.6176
 1020SOL    HW114519   0.728   4.395   2.369 -0.2616  3.0796 -2.7890
 1020SOL    HW214520   0.827   4.462   2.300 -0.6421 -0.3109  0.1418
 1021SOL     OW14521   0.122   4.605  12.770 -0.1217  0.4569 -0.2540
 1021SOL    HW114522   0.029   4.587  12.757 -0.4897  0.3150  2.5737
 1021SOL    HW214523   0.156   4.630  12.684 -0.1889 -0.4073 -0.5275
 1022SOL     OW14524   3.728   0.358   3.597  0.0035  0.1549 -0.3078
 1022SOL    HW114525   3.750   0.366   3.689 -1.2886  0.1160  0.0074
 1022SOL    HW214526   3.812   0.321   3.568 -0.1793 -1.4757  1.2270
 1023SOL     OW14527   4.577   0.447  16.183 -0.5846  0.1768 -0.1552
 1023SOL    HW114528   4.555   0.430  16.274  1.1669  1.3226  0.4914
 1023SOL    HW214529   4.673   0.454  16.189 -0.7090  1.1403  0.7963
 1024SOL     OW14530   1.963   1.663   8.841  0.3783 -0.3552 -0.1029
 1024SOL    HW114531   1.904   1.702   8.776 -2.1970  0.3160  2.5682
 1024SOL    HW214532   1.909   1.661   8.920  0.1589  0.6839 -0.2253
 1025SOL     OW14533   0.358   1.982   6.204 -0.1752  0.7161  0.4501
 1025SOL    HW114534   0.364   1.900   6.254 -3.1061  0.0370 -0.2827
 1025SOL    HW214535   0.380   1.947   6.117 -0.8007 -3.3142  1.9010
 1026SOL     OW14536   0.481   2.041   6.957  0.2348 -0.0021 -0.3058
 1026SOL    HW114537   0.423   2.091   7.015  0.1811  0.9383 -1.1841
 1026SOL    HW214538   0.419   1.978   6.921  0.8938 -1.3292  0.8561
 1027SOL     OW14539   2.024   2.557  16.066  0.3437  0.0403 -0.4156
 1027SOL    HW114540   1.969   2.619  16.114  0.0242 -0.4421 -0.1593
 1027SOL    HW214541   2.052   2.595  15.983  1.1079 -0.0826 -0.2166
 1028SOL     OW14542   4.575   0.676   5.083 -0.0325 -0.2978 -0.3977
 1028SOL    HW114543   4.588   0.589   5.122 -1.7894 -0.2093  0.3710
 1028SOL    HW214544   4.625   0.730   5.145 -2.2842 -0.1329  1.2933
 1029SOL     OW14545   2.508   1.129  17.444  0.0389 -0.1619 -0.8006
 1029SOL    HW114546   2.496   1.175  17.528 -0.4616 -0.7137 -0.5680
 1029SOL    HW214547   2.572   1.068  17.479  0.0235  0.1160 -0.2790
 1030SOL     OW14548   3.872   3.340   0.489 -0.2805 -0.1040  0.4351
 1030SOL    HW114549   3.779   3.346   0.511 -0.4133  0.2221 -0.2131
 1030SOL    HW214550   3.888   3.422   0.443 -1.6473 -0.0586  0.0396
 1031SOL     OW14551   2.700   1.666  10.636 -0.3099 -0.0429 -0.2259
 1031SOL    HW114552   2.714   1.758  10.614 -3.1312  0.1757 -1.1548
 1031SOL    HW214553   2.704   1.649  10.730 -5.0049 -0.5066 -0.1056
 1032SOL     OW14554   3.050   0.849   6.425  0.0421  0.4875  0.2849
 1032SOL    HW114555   3.119   0.914   6.436 -0.1983  0.4592  1.9897
 1032SOL    HW214556   2.972   0.904   6.428 -0.2006  0.1350  0.4683
 1033SOL     OW14557   2.850   4.498   8.966  0.1276 -0.2616  0.6047
 1033SOL    HW114558   2.902   4.432   9.013 -1.2176 -1.1463  0.8390
 1033SOL    HW214559   2.903   4.578   8.970  0.6444 -0.4894 -1.9136
 1034SOL     OW14560   4.352   3.497   4.097  0.7220  0.2591  0.0776
 1034SOL    HW114561   4.381   3.480   4.008 -2.1890 -2.2672 -0.4053
 1034SOL    HW214562   4.303   3.579   4.098 -0.1325 -0.2712  2.0488
 1035SOL     OW14563   0.894   1.651  10.240 -0.8666 -0.1707 -0.2787
 1035SOL    HW114564   0.886   1.573  10.184  0.2949  0.0276 -0.7173
 1035SOL    HW214565   0.950   1.620  10.310 -0.3657 -0.7962 -0.9522
 1036SOL     OW14566   1.256   3.734   7.320  0.7644 -0.3965 -0.2412
 1036SOL    HW114567   1.348   3.755   7.308  1.4926 -1.9014  2.7039
 1036SOL    HW214568   1.244   3.769   7.408 -0.8563  0.7377 -0.9095
 1037SOL     OW14569   4.619   0.428   5.197  0.3074 -0.3762  0.0817
 1037SOL    HW114570   4.638   0.336   5.218 -0.4749 -0.2077  1.5192
 1037SOL    HW214571   4.635   0.419   5.103 -0.2406  0.8963 -0.1303
 1038SOL     OW14572   4.401   4.063   8.171  0.0180 -0.4818  0.3172
 1038SOL    HW114573   4.461   4.088   8.101  0.8121  1.7623  1.7753
 1038SOL    HW214574   4.323   4.054   8.117  0.0882 -0.7596  0.2592
 1039SOL     OW14575   1.383   4.175   7.195 -0.1066  0.3557  0.0586
 1039SOL    HW114576   1.390   4.148   7.287  0.1936  3.2477  0.8868
 1039SOL    HW214577   1.442   4.109   7.160 -0.9251 -1.4157  2.0539
 1040SOL     OW14578   3.382   0.220  13.417  0.8150 -0.1265 -0.9556
 1040SOL    HW114579   3.469   0.227  13.377  1.1072 -1.4235 -0.5654
 1040SOL    HW214580   3.390   0.298  13.471 -2.4046 -0.9513  0.6924
 1041SOL     OW14581   4.646   1.661   9.655  0.2897  0.4429  0.2033
 1041SOL    HW114582   4.661   1.646   9.748  0.5867 -0.8800 -0.0615
 1041SOL    HW214583   4.718   1.611   9.616 -0.9433  0.7094 -2.4269
 1042SOL     OW14584   0.947   1.626   0.747 -0.0391  0.4615  0.2638
 1042SOL    HW114585   0.979   1.537   0.732 -2.4812 -0.5126  0.8770
 1042SOL    HW214586   1.025   1.671   0.778  1.8723 -0.9735 -2.4479
 1043SOL     OW14587   3.079   1.871   6.462  0.1433 -0.0081  0.0964
 1043SOL    HW114588   3.061   1.883   6.368  0.4909  0.5393  0.0939
 1043SOL    HW214589   3.057   1.961   6.485  0.2168 -0.3318  1.4264
 1044SOL     OW14590   3.350   3.717   5.192  0.1586  0.0943  0.4696
 1044SOL    HW114591   3.335   3.623   5.186 -0.5543  0.2363  0.1191
 1044SOL    HW214592   3.434   3.715   5.145 -0.1577 -1.1030 -0.0178
 1045SOL     OW14593   0.219   0.257   5.410 -0.4592 -0.2433  0.2232
 1045SOL    HW114594   0.158   0.247   5.483 -1.2233  0.9715 -0.2534
 1045SOL    HW214595   0.292   0.296   5.456  0.0604  0.9466 -1.6078
 1046SOL     OW14596   1.376   2.449  11.517 -0.2923 -0.3037 -0.1604
 1046SOL    HW114597   1.295   2.489  11.487  0.7168  1.5319 -0.4770
 1046SOL    HW214598   1.359   2.357  11.495  0.7909 -0.5525  0.0030
 1047SOL     OW14599   4.081   0.621   3.897 -0.1503 -0.2981  0.1260
 1047SOL    HW114600   4.045   0.598   3.982 -0.0099  0.1518  0.3040
 1047SOL    HW214601   3.998   0.651   3.859 -0.1305  0.5341  0.7565
 1048SOL     OW14602   1.239   3.219   4.986  0.5410 -0.0738  0.0843
 1048SOL    HW114603   1.192   3.192   5.065 -0.8170  0.4686 -0.5219
 1048SOL    HW214604   1.213   3.147   4.928 -1.2447 -1.4589  2.6184
 1049SOL     OW14605   1.242   3.542  11.167 -0.4734  0.2991  0.2043
 1049SOL    HW114606   1.260   3.635  11.180 -0.4176  0.2203  0.6801
 1049SOL    HW214607   1.323   3.496  11.147 -0.1341  0.9039  0.1651
 1050SOL     OW14608   3.910   2.909   3.522 -0.2333 -0.1323 -0.2844
 1050SOL    HW114609   3.900   2.999   3.490 -0.1596 -0.2061 -0.5129
 1050SOL    HW214610   3.904   2.842   3.454 -1.2881 -1.5714  1.2262
 1051SOL     OW14611   1.994   1.369  14.847 -0.3453 -0.3992 -0.1174
 1051SOL    HW114612   2.014   1.438  14.910  0.8491 -0.5251 -0.3630
 1051SOL    HW214613   2.050   1.387  14.772 -2.9905  1.7561 -1.5894
 1052SOL     OW14614   3.860   2.156   9.340  0.0639 -0.5845 -0.3010
 1052SOL    HW114615   3.781   2.209   9.325  0.5043  0.5299  1.3756
 1052SOL    HW214616   3.825   2.116   9.420  0.4606 -0.0316  0.1447
 1053SOL     OW14617   1.146   3.281   7.670  0.1088 -0.4534  0.0796
 1053SOL    HW114618   1.082   3.251   7.605 -0.6037 -1.0659  1.0759
 1053SOL    HW214619   1.167   3.201   7.719 -0.2191 -0.3174  0.4398
 1054SOL     OW14620   1.801   2.867   8.309  0.0185  0.6317 -0.6544
 1054SOL    HW114621   1.776   2.886   8.218  1.0875 -3.6450 -1.8306
 1054SOL    HW214622   1.721   2.826   8.342  0.4495 -0.1814 -0.6345
 1055SOL     OW14623   3.893   2.503   3.161 -0.1063 -0.1534  0.3118
 1055SOL    HW114624   3.803   2.486   3.189 -1.1724  0.8910 -2.5034
 1055SOL    HW214625   3.933   2.422   3.194  0.9554  0.4608  0.5468
 1056SOL     OW14626   4.431   2.891   9.227  0.4650  0.3887 -0.3904
 1056SOL    HW114627   4.430   2.833   9.151  0.1994  0.0854 -0.1590
 1056SOL    HW214628   4.379   2.834   9.284  2.8155 -2.0730 -0.7013
 1057SOL     OW14629   3.921   2.378  11.229 -0.2722 -0.6445  0.3671
 1057SOL    HW114630   3.930   2.288  11.261  0.7763  0.3313  2.7637
 1057SOL    HW214631   3.895   2.370  11.137 -0.2121  0.0593  0.2920
 1058SOL     OW14632   1.395   3.041   1.777 -0.3938  0.4163  0.0778
 1058SOL    HW114633   1.303   3.012   1.782 -0.5710  0.9297 -0.2144
 1058SOL    HW214634   1.388   3.074   1.687 -2.4291  0.2995  0.1813
 1059SOL     OW14635   2.618   3.813   3.316  0.4052 -0.3984 -0.6545
 1059SOL    HW114636   2.567   3.765   3.381  1.5663 -1.8484 -0.8495
 1059SOL    HW214637   2.676   3.867   3.371  0.1125 -0.3406 -0.3983
 1060SOL     OW14638   2.268   4.197  11.373  0.6774 -0.3201  0.1999
 1060SOL    HW114639   2.332   4.214  11.304 -0.8332  2.7043 -0.4220
 1060SOL    HW214640   2.281   4.247  11.454  0.2153 -0.1702  0.1799
 1061SOL     OW14641   4.381   1.685  11.319  0.4583 -0.6233  0.3011
 1061SOL    HW114642   4.404   1.730  11.400 -0.3297  2.5116 -1.2023
 1061SOL    HW214643   4.312   1.622  11.341 -0.8538  0.0911 -1.7623
 1062SOL     OW14644   0.053   3.274   5.090 -0.1200 -0.3194 -0.4358
 1062SOL    HW114645   0.070   3.350   5.035 -2.8182 -0.6362 -1.6763
 1062SOL    HW214646   4.693   3.243   5.057 -1.6342  3.3338 -0.0401
 1063SOL     OW14647   2.831   1.298  13.074  0.5001 -0.5222  0.5877
 1063SOL    HW114648   2.889   1.226  13.047 -1.0727 -1.1224 -1.2353
 1063SOL    HW214649   2.830   1.351  12.994 -2.0532  0.3941  1.2338
 1064SOL     OW14650   1.981   2.747   1.499 -0.4096  0.2879  0.0643
 1064SOL    HW114651   1.997   2.676   1.436  0.1021  0.3288  0.1473
 1064SOL    HW214652   2.052   2.809   1.483  1.2207 -1.0432  1.9871
 1065SOL     OW14653   0.734   3.998  10.854 -0.5398  0.3412 -0.3881
 1065SOL    HW114654   0.755   4.028  10.766 -1.8159 -0.0315 -0.8106
 1065SOL    HW214655   0.665   3.933  10.842 -1.6565  1.4095  0.1872
 1066SOL     OW14656   1.349   2.658  14.820 -0.0580  0.0715  0.1897
 1066SOL    HW114657   1.257   2.668  14.844 -0.0273  0.1712  0.2637
 1066SOL    HW214658   1.351   2.687  14.728 -0.0483  0.5023  0.3263
 1067SOL     OW14659   1.024   0.606  10.264  0.8392 -1.1333  1.0017
 1067SOL    HW114660   1.026   0.686  10.211  1.6147 -1.5910  0.3516
 1067SOL    HW214661   1.113   0.600  10.298  0.5504  1.1126  2.1693
 1068SOL     OW14662   3.120   4.474   6.357  0.0568 -0.1177 -0.1231
 1068SOL    HW114663   3.120   4.478   6.452  1.5484  4.1039 -0.3402
 1068SOL    HW214664   3.150   4.562   6.336 -0.9384  0.4269  0.7439
 1069SOL     OW14665   0.701   2.934  13.133  0.0611  0.3369 -0.4337
 1069SOL    HW114666   0.694   2.901  13.044 -1.4108  3.5489 -1.5324
 1069SOL    HW214667   0.795   2.952  13.138  0.5002 -1.5136 -1.9710
 1070SOL     OW14668   0.781   3.084   2.589  0.4671 -0.1262  0.3670
 1070SOL    HW114669   0.735   3.167   2.597  0.8197  0.0746  0.3390
 1070SOL    HW214670   0.863   3.113   2.549 -0.0433 -0.3899 -0.8602
 1071SOL     OW14671   3.063   0.642   5.885  0.1669 -0.3760 -0.3229
 1071SOL    HW114672   2.992   0.702   5.909 -0.9294 -2.0216  0.5174
 1071SOL    HW214673   3.140   0.698   5.895 -0.8580  0.9430  0.2890
 1072SOL     OW14674   0.336   0.096  15.097  0.7026 -0.2151 -0.3544
 1072SOL    HW114675   0.365   0.095  15.006 -1.0213 -0.0067 -0.9034
 1072SOL    HW214676   0.245   0.115  15.073  0.7418 -0.0080 -0.3405
 1073SOL     OW14677   2.962   3.532   1.241 -0.5731  0.2879  0.3986
 1073SOL    HW114678   2.959   3.627   1.235 -0.7917  0.3180  1.0113
 1073SOL    HW214679   2.868   3.516   1.253 -0.7345  1.1313  0.2865
 1074SOL     OW14680   0.241   1.635   8.344  0.7755 -0.1901 -0.2416
 1074SOL    HW114681   0.163   1.594   8.306 -0.2218  0.3371  1.2552
 1074SOL    HW214682   0.217   1.720   8.381 -0.9037 -0.9969  0.4791
 1075SOL     OW14683   1.864   1.709  16.065 -0.0478  0.2290  0.2680
 1075SOL    HW114684   1.928   1.760  16.115  0.2212 -0.3382  0.5003
 1075SOL    HW214685   1.810   1.680  16.139  0.1062  1.8839  1.0236
 1076SOL     OW14686   2.148   1.089  16.163  0.0427  0.2868 -0.0511
 1076SOL    HW114687   2.115   1.061  16.078  0.1671  1.2591 -0.4213
 1076SOL    HW214688   2.125   1.182  16.170 -2.1332 -0.3017  0.7661
 1077SOL     OW14689   2.933   2.434   7.104  0.0567 -0.4138 -0.6483
 1077SOL    HW114690   2.951   2.504   7.167 -1.0522 -0.7525  0.0350
 1077SOL    HW214691   3.016   2.411   7.062  1.6556  0.0010  2.3109
 1078SOL     OW14692   1.472   3.635   0.494  0.1286 -0.3530 -0.2935
 1078SOL    HW114693   1.541   3.701   0.492 -0.9206  0.7604 -0.0904
 1078SOL    HW214694   1.413   3.691   0.544  0.1200  0.1031 -0.8133
 1079SOL     OW14695   1.530   1.420  12.589  0.3772 -0.7511 -0.1210
 1079SOL    HW114696   1.442   1.403  12.555 -1.6719  1.5869  4.0520
 1079SOL    HW214697   1.555   1.500  12.543  1.6339 -1.5380 -0.8093
 1080SOL     OW14698   4.353   0.356   8.266  0.0917 -0.6098  0.6734
 1080SOL    HW114699   4.432   0.325   8.309  1.0022  0.0010 -0.5433
 1080SOL    HW214700   4.300   0.366   8.346  1.1232  0.7239  1.1842
 1081SOL     OW14701   1.983   4.095   9.471 -0.6234 -0.0277 -0.5411
 1081SOL    HW114702   1.934   4.028   9.423  0.0517  0.5501 -2.0495
 1081SOL    HW214703   2.029   4.149   9.406  2.2581  0.2593  1.7440
 1082SOL     OW14704   4.065   1.607   9.674 -0.0383 -0.3216 -0.2556
 1082SOL    HW114705   4.150   1.563   9.681  0.5416  0.7820 -0.4715
 1082SOL    HW214706   4.076   1.702   9.672 -0.6210 -0.2507 -0.0527
 1083SOL     OW14707   0.416   4.168   9.916 -0.1239  0.4035 -0.1847
 1083SOL    HW114708   0.393   4.246   9.967 -0.0178 -0.6709  1.4905
 1083SOL    HW214709   0.372   4.175   9.832 -3.4817  2.3030  1.7231
 1084SOL     OW14710   3.389   2.825  15.038  0.0705 -0.1130  0.0140
 1084SOL    HW114711   3.426   2.914  15.039 -4.3527  1.7068  0.7204
 1084SOL    HW214712   3.434   2.797  14.958 -1.7621  1.1348 -1.4503
 1085SOL     OW14713   3.233   0.109  14.064  0.2069  0.1104 -0.1944
 1085SOL    HW114714   3.295   0.174  14.030  0.7628 -0.5924 -0.5316
 1085SOL    HW214715   3.181   0.174  14.111  0.2450  0.8822 -1.2177
 1086SOL     OW14716   4.704   3.140  13.273 -0.9086  0.2822 -0.2442
 1086SOL    HW114717   4.681   3.187  13.354 -0.9448  2.8308 -1.7496
 1086SOL    HW214718   4.662   3.202  13.213 -0.9762  0.5192  0.0435
 1087SOL     OW14719   3.783   2.955   4.760  0.1662  0.1710 -0.8622
 1087SOL    HW114720   3.710   2.898   4.783 -0.0760 -0.0379 -2.1457
 1087SOL    HW214721   3.762   3.029   4.818 -2.2042  0.7038 -2.3702
 1088SOL     OW14722   0.478   0.688   3.964  0.0796  0.4681 -0.2858
 1088SOL    HW114723   0.449   0.597   3.958  2.2901 -0.3281  1.3229
 1088SOL    HW214724   0.559   0.678   4.014 -0.8130 -0.0930  1.0506
 1089SOL     OW14725   3.223   2.664   5.724  0.3072 -0.4110  0.1561
 1089SOL    HW114726   3.157   2.599   5.699 -0.4478 -0.5431  2.4461
 1089SOL    HW214727   3.251   2.605   5.793 -1.6755  1.5062  2.6089
 1090SOL     OW14728   1.957   3.026  11.787  0.1789  0.4330 -0.7487
 1090SOL    HW114729   2.023   3.064  11.728  0.6475 -0.2857 -0.6874
 1090SOL    HW214730   2.005   2.975  11.852 -0.7942  0.5337  0.0419
 1091SOL     OW14731   4.182   2.041   7.016  0.4943 -0.0826  0.9499
 1091SOL    HW114732   4.172   2.105   7.086 -2.1553  0.6606 -0.1273
 1091SOL    HW214733   4.254   1.985   7.047  1.5486  0.5599 -0.3450
 1092SOL     OW14734   4.699   2.414  13.245  0.1795 -0.6702  0.3662
 1092SOL    HW114735   4.710   2.463  13.327 -2.2489  0.6268 -0.0482
 1092SOL    HW214736   4.685   2.490  13.188 -0.3047 -0.1650  1.1436
 1093SOL     OW14737   2.002   0.270   5.469 -0.2098 -0.2456  0.4226
 1093SOL    HW114738   1.963   0.258   5.556  2.2673 -0.3735  1.5039
 1093SOL    HW214739   2.051   0.352   5.473  1.1956 -1.0470 -0.4999
 1094SOL     OW14740   2.363   1.785   7.499  0.3939  0.3877 -0.0233
 1094SOL    HW114741   2.366   1.763   7.592  0.9196  1.3750  0.1920
 1094SOL    HW214742   2.270   1.773   7.483  0.3754 -0.7681  0.9224
 1095SOL     OW14743   1.468   0.393  10.520  0.2506 -0.0921 -0.3136
 1095SOL    HW114744   1.554   0.433  10.532  0.3982 -0.3884 -0.3709
 1095SOL    HW214745   1.459   0.346  10.603 -1.5668  0.5728 -0.1315
 1096SOL     OW14746   2.007   1.101   5.782 -0.3272  0.5278  0.3001
 1096SOL    HW114747   2.028   1.017   5.822  0.3268  0.9934  0.9347
 1096SOL    HW214748   1.933   1.075   5.727 -1.0771 -1.1279  2.0973
 1097SOL     OW14749   2.965   2.533  14.945  0.0857  0.0774 -0.5733
 1097SOL    HW114750   2.945   2.501  14.857  1.1066 -2.1782  0.0002
 1097SOL    HW214751   2.900   2.479  14.990 -1.7417  2.2182 -0.6365
 1098SOL     OW14752   2.900   0.792   3.533 -0.6397 -0.2734  0.1477
 1098SOL    HW114753   2.887   0.754   3.446 -2.6524 -0.2185  0.4267
 1098SOL    HW214754   2.996   0.791   3.540 -0.5907 -0.1413 -0.4654
 1099SOL     OW14755   4.704   0.388   6.697 -0.0117  0.2701  0.1672
 1099SOL    HW114756   4.657   0.305   6.708 -0.1550  0.5006  1.2614
 1099SOL    HW214757   0.034   0.381   6.775  0.5715 -1.9643 -0.4455
 1100SOL     OW14758   4.132   1.349   8.249  0.8612  0.6773 -0.1870
 1100SOL    HW114759   4.160   1.419   8.308 -0.7896  1.0430  0.1647
 1100SOL    HW214760   4.192   1.362   8.175  1.2825 -1.1536 -0.1648
 1101SOL     OW14761   1.132   1.413   2.214 -0.6061  0.0342  0.2071
 1101SOL    HW114762   1.101   1.379   2.298 -0.5639 -0.4253  0.0361
 1101SOL    HW214763   1.147   1.507   2.225 -0.6443  0.2054 -1.3062
 1102SOL     OW14764   0.876   1.975  16.593  0.1059  0.2035 -0.2487
 1102SOL    HW114765   0.795   1.998  16.639  1.3693  2.5647  0.7973
 1102SOL    HW214766   0.936   2.048  16.606 -0.0339  0.3645 -0.5166
 1103SOL     OW14767   0.281   0.855   4.072  0.0730 -0.5058  0.0981
 1103SOL    HW114768   0.232   0.820   3.997 -1.3174  3.8142 -0.9653
 1103SOL    HW214769   0.371   0.854   4.038  0.2992 -0.6505  0.7049
 1104SOL     OW14770   0.999   1.207   4.204 -0.0801 -0.4904  0.4816
 1104SOL    HW114771   0.959   1.158   4.133  0.3216 -0.0616 -0.0364
 1104SOL    HW214772   1.067   1.147   4.237  0.7893  1.1290  1.6516
 1105SOL     OW14773   0.324   4.401   2.539 -0.8700 -0.5259  0.2235
 1105SOL    HW114774   0.385   4.343   2.494  0.7349  1.7153 -0.5421
 1105SOL    HW214775   0.250   4.342   2.552 -0.7176 -1.0709 -1.2896
 1106SOL     OW14776   3.584   1.233   4.988  0.4117  0.2851 -0.2814
 1106SOL    HW114777   3.625   1.247   5.073 -0.2544 -0.4924  0.1649
 1106SOL    HW214778   3.662   1.212   4.937 -1.7918 -1.2517 -2.9695
 1107SOL     OW14779   0.561   3.807   8.408  0.1248 -0.2172 -0.2806
 1107SOL    HW114780   0.636   3.751   8.427 -1.9546 -3.9182 -3.0056
 1107SOL    HW214781   0.604   3.859   8.340 -0.1684 -1.2042 -1.2125
 1108SOL     OW14782   2.604   2.124   2.696  0.6197 -0.7618  0.2621
 1108SOL    HW114783   2.639   2.160   2.777 -0.9938  0.3758  0.4615
 1108SOL    HW214784   2.588   2.036   2.729  0.1105 -1.1283 -0.9496
 1109SOL     OW14785   1.431   2.717  11.812  0.0534 -0.5199  0.4060
 1109SOL    HW114786   1.353   2.748  11.764  1.1686  2.4296  0.4595
 1109SOL    HW214787   1.401   2.634  11.849 -0.1567 -0.2877  0.7623
 1110SOL     OW14788   1.627   4.115   7.367 -0.4694 -0.1687 -0.2513
 1110SOL    HW114789   1.712   4.112   7.323 -0.8246  1.0683 -1.0208
 1110SOL    HW214790   1.622   4.026   7.403 -1.6145  0.7134  1.7582
 1111SOL     OW14791   3.051   3.863   6.116 -0.2414 -0.0495 -0.1037
 1111SOL    HW114792   3.064   3.806   6.040  1.1730 -1.5774  1.2671
 1111SOL    HW214793   2.966   3.903   6.099 -1.0349 -0.9812  1.6311
 1112SOL     OW14794   3.899   2.957   7.629  0.6004  0.0641  0.1790
 1112SOL    HW114795   3.955   3.035   7.631  0.4054  0.2883 -3.0181
 1112SOL    HW214796   3.919   2.909   7.709 -0.9524 -1.0868 -0.1123
 1113SOL     OW14797   3.472   1.949  13.265 -0.5551 -0.1074  0.4235
 1113SOL    HW114798   3.474   1.905  13.350  0.2132  0.5030  0.7109
 1113SOL    HW214799   3.438   2.037  13.281  1.2718  0.4107  1.3913
 1114SOL     OW14800   3.181   1.810  13.384 -0.0990  0.1718  0.4520
 1114SOL    HW114801   3.148   1.752  13.453  0.2823  1.2829  1.5660
 1114SOL    HW214802   3.257   1.839  13.434  0.4690 -0.2667 -0.1639
 1115SOL     OW14803   1.183   0.774  16.257  0.1581 -0.5279 -0.1816
 1115SOL    HW114804   1.158   0.746  16.169 -0.5282  0.0810 -0.1851
 1115SOL    HW214805   1.242   0.846  16.234 -1.6408  0.9443 -0.2013
 1116SOL     OW14806   4.029   1.349   7.584 -0.1002  0.2520 -0.2250
 1116SOL    HW114807   4.013   1.293   7.507  0.2456 -0.0101 -0.1055
 1116SOL    HW214808   4.122   1.336   7.600 -0.1216 -0.6525 -0.7978
 1117SOL     OW14809   4.469   1.645  13.740 -0.5194  0.3344 -0.6872
 1117SOL    HW114810   4.558   1.678  13.753  0.3597 -2.4207  0.2325
 1117SOL    HW214811   4.463   1.571  13.800 -3.5176 -0.7763 -2.3528
 1118SOL     OW14812   1.648   1.147  16.153 -0.1359 -0.7439 -0.1653
 1118SOL    HW114813   1.564   1.176  16.119  0.4512  2.0567  0.7913
 1118SOL    HW214814   1.701   1.227  16.151 -2.0429  0.4605 -2.0321
 1119SOL     OW14815   4.251   1.770   6.007  0.0122  0.3070  0.0458
 1119SOL    HW114816   4.223   1.721   5.930  0.3825  0.5831 -0.2695
 1119SOL    HW214817   4.306   1.706   6.052  1.1022  0.9736 -0.3391
 1120SOL     OW14818   0.576   1.179   8.679 -0.7111 -0.3281  0.3788
 1120SOL    HW114819   0.608   1.263   8.646  0.9796 -1.3116 -0.5032
 1120SOL    HW214820   0.494   1.207   8.718  0.4461  3.5107  0.0933
 1121SOL     OW14821   1.113   4.505   4.003  0.3039  0.2317 -0.4328
 1121SOL    HW114822   1.132   4.597   4.021 -2.8607  1.2801 -2.2706
 1121SOL    HW214823   1.198   4.465   3.989  0.9833  0.6832  2.4784
 1122SOL     OW14824   2.631   2.777   5.285  0.3856 -0.1580  0.1883
 1122SOL    HW114825   2.548   2.792   5.330  0.5623  1.8643 -0.1545
 1122SOL    HW214826   2.693   2.801   5.355 -0.2119 -1.3407  1.1190
 1123SOL     OW14827   3.401   3.769   3.591  0.2374 -0.3974 -0.2221
 1123SOL    HW114828   3.360   3.842   3.545  1.7349 -0.6333 -1.9287
 1123SOL    HW214829   3.414   3.804   3.680 -0.6316  0.1716 -0.3244
 1124SOL     OW14830   0.724   2.848  10.448  0.9474  0.6085 -0.1284
 1124SOL    HW114831   0.685   2.763  10.426  0.8662  0.9758 -1.4395
 1124SOL    HW214832   0.779   2.828  10.524  1.0704  1.3520 -0.0207
 1125SOL     OW14833   0.971   2.963  14.744  0.1907 -0.3043  0.1722
 1125SOL    HW114834   0.908   2.992  14.811 -0.1716  1.7075 -1.0333
 1125SOL    HW214835   0.918   2.910  14.685 -1.3187  0.2569  1.0083
 1126SOL     OW14836   1.629   2.601   5.691  0.3430  0.0399  0.7527
 1126SOL    HW114837   1.551   2.632   5.737  0.4421  0.3966  0.6805
 1126SOL    HW214838   1.583   2.532   5.642  1.2691 -0.0922  0.0658
 1127SOL     OW14839   0.826   1.805   2.832  0.5221  0.5770  0.2256
 1127SOL    HW114840   0.759   1.874   2.828  0.4865  0.3569 -2.4687
 1127SOL    HW214841   0.780   1.726   2.860 -1.1206  1.5929  0.3853
 1128SOL     OW14842   0.469   2.252  11.814  0.9462  0.4682  0.3695
 1128SOL    HW114843   0.414   2.194  11.868  1.1838  1.5822  1.8022
 1128SOL    HW214844   0.537   2.283  11.874 -0.8568 -0.4719  2.8864
 1129SOL     OW14845   2.409   1.951   1.178  0.1689  0.1172 -0.0306
 1129SOL    HW114846   2.408   1.856   1.161 -0.7094 -0.0242  0.8203
 1129SOL    HW214847   2.318   1.972   1.199  1.2469  3.1651  1.6271
 1130SOL     OW14848   0.750   3.668   4.994 -0.1984  0.3747 -0.4466
 1130SOL    HW114849   0.700   3.709   5.064  0.1286  0.4208 -0.2395
 1130SOL    HW214850   0.694   3.686   4.918  1.3788 -0.4588 -1.8293
 1131SOL     OW14851   3.534   1.152   8.961 -0.4281 -0.2575 -0.3382
 1131SOL    HW114852   3.620   1.122   8.932  0.2359 -1.7760  3.2002
 1131SOL    HW214853   3.544   1.234   8.914  1.2200  0.6129  1.5214
 1132SOL     OW14854   4.616   1.937  10.685  0.0011  0.0030 -0.6333
 1132SOL    HW114855   4.677   1.977  10.746 -1.1233  2.5819 -1.1992
 1132SOL    HW214856   4.534   1.983  10.700  1.6313  2.5622  0.4363
 1133SOL     OW14857   2.090   4.528   4.646  0.1243  0.4065 -0.0505
 1133SOL    HW114858   2.120   4.500   4.732  2.1887  2.3694 -0.1310
 1133SOL    HW214859   2.005   4.563   4.671 -0.0538 -0.2669  0.3036
 1134SOL     OW14860   4.019   4.009   2.707 -0.2124 -0.5590  0.2848
 1134SOL    HW114861   4.035   4.068   2.634 -1.1459 -0.6294  0.0236
 1134SOL    HW214862   3.935   3.971   2.680 -0.0356 -0.2317 -0.7062
 1135SOL     OW14863   1.217   3.818  11.190  0.2109 -0.9494 -0.4533
 1135SOL    HW114864   1.176   3.871  11.122  1.1791  1.2190  0.6785
 1135SOL    HW214865   1.187   3.859  11.271  1.5818 -1.8780  0.5280
 1136SOL     OW14866   0.868   2.227   1.181 -0.1620 -0.5354  0.4592
 1136SOL    HW114867   0.934   2.180   1.231 -1.3719 -1.4838  1.1467
 1136SOL    HW214868   0.792   2.178   1.212  0.0083 -2.4803 -2.2296
 1137SOL     OW14869   0.112   0.327  13.326 -0.3461 -0.4238 -0.1687
 1137SOL    HW114870   0.100   0.326  13.231  0.6101  1.6300 -0.3178
 1137SOL    HW214871   0.049   0.260  13.352  1.3683 -2.4471 -1.1918
 1138SOL     OW14872   0.329   3.336   3.948  0.5296  0.3558  0.2088
 1138SOL    HW114873   0.357   3.404   3.887 -0.8111 -0.0201 -0.8260
 1138SOL    HW214874   0.234   3.342   3.945  0.4343 -0.0043  2.5474
 1139SOL     OW14875   4.349   1.925  11.734  0.5140  0.3719 -0.1901
 1139SOL    HW114876   4.422   1.939  11.794  1.0524 -1.2471 -0.4699
 1139SOL    HW214877   4.285   1.980  11.779 -0.6814 -0.6688 -0.6363
 1140SOL     OW14878   2.676   1.105   7.612  0.3249 -0.9608  0.3164
 1140SOL    HW114879   2.636   1.067   7.690  0.0203 -0.9029  0.1870
 1140SOL    HW214880   2.608   1.145   7.558 -0.0120  0.6620  1.9509
 1141SOL     OW14881   4.435   0.263  15.053 -0.2949 -0.6937  0.6704
 1141SOL    HW114882   4.376   0.284  15.125 -0.0112  1.5622  0.2578
 1141SOL    HW214883   4.510   0.312  15.087 -1.0946  0.4051  0.8414
 1142SOL     OW14884   3.094   0.387  10.683 -0.4953 -0.0748 -0.1249
 1142SOL    HW114885   3.173   0.356  10.727  1.4799  0.2845 -3.3754
 1142SOL    HW214886   3.133   0.463  10.640  1.3171 -0.4007  0.9402
 1143SOL     OW14887   4.525   0.440   7.298  0.5700  0.2447  0.2133
 1143SOL    HW114888   4.449   0.467   7.247  0.8848 -1.9963 -1.4150
 1143SOL    HW214889   4.527   0.500   7.373  0.9055 -1.3040  1.4393
 1144SOL     OW14890   3.648   4.515   0.072  0.4831 -0.1117 -0.0076
 1144SOL    HW114891   3.731   4.489   0.032  0.2436  0.8999 -1.1565
 1144SOL    HW214892   3.652   4.611   0.067  0.8649 -0.0580  1.5179
 1145SOL     OW14893   1.142   2.329   1.195  0.9713  0.4294  0.3902
 1145SOL    HW114894   1.137   2.289   1.282  0.7099 -0.1640  0.1059
 1145SOL    HW214895   1.056   2.369   1.180  0.3864 -1.3854 -1.0787
 1146SOL     OW14896   3.196   0.828  10.020  0.3113 -0.0934  0.2517
 1146SOL    HW114897   3.127   0.803   9.959  3.3147 -1.9457 -2.3911
 1146SOL    HW214898   3.226   0.743  10.054 -1.5038 -0.9938 -0.4429
 1147SOL     OW14899   1.368   3.695   9.593  0.4347  0.0848  0.0502
 1147SOL    HW114900   1.428   3.767   9.574 -0.2455  0.0137 -2.3834
 1147SOL    HW214901   1.333   3.723   9.677 -1.2295 -1.2840 -0.2007
 1148SOL     OW14902   1.263   1.486   7.383  0.2735  0.8106  0.7323
 1148SOL    HW114903   1.274   1.560   7.323 -1.3502  1.4497  1.2194
 1148SOL    HW214904   1.207   1.524   7.450 -0.7050  2.0881 -0.8079
 1149SOL     OW14905   1.790   2.553  11.141  0.3391 -0.1839 -0.3260
 1149SOL    HW114906   1.782   2.643  11.170  0.4850 -0.8648  1.8170
 1149SOL    HW214907   1.696   2.536  11.148  0.5414 -1.3996 -0.5419
 1150SOL     OW14908   3.130   2.685  12.572 -0.4221  0.0904  0.1287
 1150SOL    HW114909   3.074   2.660  12.646 -0.2080  0.3355  0.3739
 1150SOL    HW214910   3.212   2.636  12.573 -0.3504  0.2276  0.9945
 1151SOL     OW14911   0.089   3.660   1.264  0.0772 -0.2161 -0.3024
 1151SOL    HW114912   0.109   3.630   1.353  1.2966  0.2066 -0.4344
 1151SOL    HW214913   0.114   3.749   1.291  0.6472  0.1302 -1.9990
 1152SOL     OW14914   4.358   3.112   6.719 -0.4938 -0.1513 -0.3340
 1152SOL    HW114915   4.304   3.163   6.658  0.8779  1.3924 -0.2651
 1152SOL    HW214916   4.441   3.155   6.698  0.7389 -2.4644 -0.1202
 1153SOL     OW14917   3.052   1.426   2.728  0.1057 -0.6060  0.0562
 1153SOL    HW114918   3.082   1.344   2.767  1.2266  0.2249  0.9516
 1153SOL    HW214919   2.958   1.409   2.714  0.5149 -1.4762 -1.6852
 1154SOL     OW14920   4.523   0.305  13.589  0.3206  0.4005 -0.2938
 1154SOL    HW114921   4.605   0.297  13.637 -0.0995  0.1847  0.3821
 1154SOL    HW214922   4.456   0.281  13.654 -0.6584  0.0086 -1.4352
 1155SOL     OW14923   2.984   0.508   6.676  0.2866  0.0615  0.7097
 1155SOL    HW114924   3.020   0.460   6.751  2.2990  0.4178 -0.0304
 1155SOL    HW214925   3.069   0.500   6.632 -0.1160 -2.2172  0.3404
 1156SOL     OW14926   4.156   2.908   8.983  0.0569 -0.0975 -0.5037
 1156SOL    HW114927   4.108   2.926   8.903 -1.0770  0.5097  0.3086
 1156SOL    HW214928   4.189   2.994   9.010 -0.6780 -0.0705  0.3031
 1157SOL     OW14929   3.755   1.142   5.916 -0.4402  0.4578 -0.6099
 1157SOL    HW114930   3.693   1.084   5.960 -0.4650  0.2154 -0.9596
 1157SOL    HW214931   3.718   1.163   5.830 -1.5945  0.0264 -0.2128
 1158SOL     OW14932   0.635   3.406  11.543 -0.0376  0.0401 -0.4038
 1158SOL    HW114933   0.700   3.464  11.502 -1.5412 -1.0164 -4.2739
 1158SOL    HW214934   0.633   3.440  11.632 -1.5815 -2.5121  0.5250
 1159SOL     OW14935   2.266   0.040   6.865  0.3374  0.0119  0.0240
 1159SOL    HW114936   2.268   0.087   6.948 -1.0710  0.7541 -0.3453
 1159SOL    HW214937   2.341   4.709   6.884  0.6458  0.7236  0.8708
 1160SOL     OW14938   3.201   0.416   5.028  0.3499  0.1138 -0.3659
 1160SOL    HW114939   3.115   0.433   4.988  0.4522  0.6334 -0.3616
 1160SOL    HW214940   3.241   0.352   4.970  1.7886  0.5355  0.1704
 1161SOL     OW14941   3.926   0.773   6.092  0.0765 -0.1341  0.6798
 1161SOL    HW114942   3.969   0.754   6.175  0.8218  2.3750  0.8867
 1161SOL    HW214943   3.995   0.753   6.028  0.6996  2.8268  0.4084
 1162SOL     OW14944   1.497   4.544   4.222 -0.3249  0.5458 -0.4802
 1162SOL    HW114945   1.462   4.632   4.215  0.2750  0.7741 -0.6567
 1162SOL    HW214946   1.541   4.546   4.137 -0.8115 -1.8448 -0.8042
 1163SOL     OW14947   1.567   4.237  14.983  0.1686 -0.1951  0.1009
 1163SOL    HW114948   1.560   4.331  15.000 -0.1871 -0.3044  0.5716
 1163SOL    HW214949   1.543   4.237  14.891 -0.5645 -0.2512  0.2922
 1164SOL     OW14950   1.371   4.352  17.286  0.0819 -0.6285 -0.1000
 1164SOL    HW114951   1.412   4.346  17.372 -0.2915  0.7942  0.1615
 1164SOL    HW214952   1.453   4.359  17.237  0.6435  1.4722  1.1479
 1165SOL     OW14953   1.436   3.752   2.326 -0.3035 -0.2011 -0.0688
 1165SOL    HW114954   1.362   3.777   2.382  0.1824  0.7641  0.1402
 1165SOL    HW214955   1.394   3.676   2.286  1.3056 -0.3924 -1.3859
 1166SOL     OW14956   4.712   0.760   3.573  0.9350  0.2526 -0.1831
 1166SOL    HW114957   4.668   0.845   3.585  2.0160  0.6763  0.7016
 1166SOL    HW214958   4.713   0.766   3.477 -2.8733  0.8776 -0.2046
 1167SOL     OW14959   4.457   4.410   9.078 -0.7143 -0.1511  0.2953
 1167SOL    HW114960   4.452   4.503   9.099  1.1158 -0.1338  0.6829
 1167SOL    HW214961   4.552   4.396   9.077 -0.4977  1.3050  1.0196
 1168SOL     OW14962   4.195   0.582   7.593 -0.7128 -0.1768 -0.2980
 1168SOL    HW114963   4.202   0.488   7.610 -1.2583 -0.6114 -2.4954
 1168SOL    HW214964   4.189   0.621   7.681 -2.1024  0.1379 -0.5310
 1169SOL     OW14965   2.269   4.222   4.718 -0.5031 -0.5770 -0.0924
 1169SOL    HW114966   2.215   4.260   4.788  1.4619 -0.0879  1.1530
 1169SOL    HW214967   2.329   4.291   4.690 -2.5749  0.0056 -3.0020
 1170SOL     OW14968   4.464   2.329   7.178  0.1553 -0.4143  0.2321
 1170SOL    HW114969   4.490   2.291   7.262 -0.2206 -1.3731 -0.0860
 1170SOL    HW214970   4.380   2.371   7.199  0.2205 -0.5109  0.6722
 1171SOL     OW14971   2.689   0.139   2.842 -0.0660  0.1381 -0.7260
 1171SOL    HW114972   2.659   0.066   2.896 -0.6664  2.0738  1.5784
 1171SOL    HW214973   2.736   0.088   2.776 -0.7484 -0.1972 -0.9458
 1172SOL     OW14974   4.354   1.348  11.264  0.1207 -0.2305  0.2369
 1172SOL    HW114975   4.366   1.365  11.357  0.9784 -0.9859  0.2696
 1172SOL    HW214976   4.441   1.315  11.240 -0.5111 -0.4702 -1.6774
 1173SOL     OW14977   4.506   0.353  16.448 -0.5242 -0.0837  0.6630
 1173SOL    HW114978   4.528   0.298  16.524  2.4771  1.6071  0.9804
 1173SOL    HW214979   4.417   0.381  16.470  0.4847  1.9847  2.0570
 1174SOL     OW14980   1.998   2.817   3.607  0.0037 -0.2772  0.1394
 1174SOL    HW114981   2.083   2.780   3.584  1.0612  2.0966  0.2430
 1174SOL    HW214982   1.932   2.793   3.542  1.3373  1.3089 -1.8107
 1175SOL     OW14983   0.590   1.307   8.346  0.0929  0.0653  0.2356
 1175SOL    HW114984   0.602   1.235   8.407  0.1004  1.0019  1.3297
 1175SOL    HW214985   0.587   1.382   8.406  1.0254  0.6417 -0.4373
 1176SOL     OW14986   3.190   3.293   2.407  0.0515 -0.0025 -0.6025
 1176SOL    HW114987   3.205   3.359   2.339 -0.6502  0.6464 -0.1095
 1176SOL    HW214988   3.192   3.351   2.483 -0.9864  0.2587 -0.7733
 1177SOL     OW14989   2.186   2.722  12.844 -0.5239 -0.4279  0.2164
 1177SOL    HW114990   2.095   2.744  12.862  0.0776  0.8380  1.6980
 1177SOL    HW214991   2.228   2.752  12.925 -4.2014 -1.1710  2.3709
 1178SOL     OW14992   1.730   2.402   4.920 -0.3461 -0.2566  0.1224
 1178SOL    HW114993   1.805   2.356   4.884  1.1167  2.4419 -0.3108
 1178SOL    HW214994   1.715   2.468   4.852  1.8673 -0.4503 -0.5425
 1179SOL     OW14995   3.702   1.531   5.419 -0.1306  0.0631  0.8348
 1179SOL    HW114996   3.772   1.573   5.368 -0.9496  0.2374 -0.1459
 1179SOL    HW214997   3.754   1.513   5.497 -0.4849 -2.1885  0.5529
 1180SOL     OW14998   3.496   1.331   1.074  0.3971 -0.4122  0.8171
 1180SOL    HW114999   3.475   1.404   1.132 -2.4047  0.2308 -1.0263
 1180SOL    HW215000   3.580   1.361   1.040  0.2136 -1.5555 -0.6596
 1181SOL     OW15001   3.811   1.512   6.353 -0.3203 -0.1229 -0.5652
 1181SOL    HW115002   3.727   1.465   6.349 -0.3309 -0.1959  0.6551
 1181SOL    HW215003   3.836   1.498   6.444 -1.7150 -1.0454 -0.3158
 1182SOL     OW15004   2.021   2.023   4.209 -0.3639  0.2444  0.1513
 1182SOL    HW115005   1.966   1.981   4.275  0.2981  1.0172  1.1852
 1182SOL    HW215006   1.951   2.070   4.162  2.1262  2.9934 -0.7859
 1183SOL     OW15007   0.310   4.124   3.260  0.0951 -0.3026  0.1131
 1183SOL    HW115008   0.285   4.048   3.208 -1.0040  0.7613 -0.9186
 1183SOL    HW215009   0.280   4.110   3.350  1.3850  0.8526  0.7239
 1184SOL     OW15010   3.800   0.687   8.266  0.1200  0.6084  0.1857
 1184SOL    HW115011   3.895   0.677   8.257  0.1619  2.6325 -1.7306
 1184SOL    HW215012   3.802   0.749   8.338 -4.5768 -0.8962  1.5571
 1185SOL     OW15013   0.188   4.282   8.203 -0.7754 -0.3440  0.0187
 1185SOL    HW115014   0.238   4.350   8.248  1.0737  0.2164 -2.8109
 1185SOL    HW215015   0.175   4.329   8.120 -0.7221 -1.0016 -0.3635
 1186SOL     OW15016   2.747   2.587   1.697 -0.4248 -0.2979  0.3478
 1186SOL    HW115017   2.834   2.608   1.663  0.1742 -1.7326  1.0356
 1186SOL    HW215018   2.772   2.538   1.775  0.2115  1.4572  1.2371
 1187SOL     OW15019   3.940   2.095  11.269 -0.0078  0.2761  0.1802
 1187SOL    HW115020   3.945   2.009  11.311  0.2634 -0.2540 -0.9562
 1187SOL    HW215021   3.997   2.087  11.192 -0.3828  1.5965 -0.2379
 1188SOL     OW15022   1.171   1.161  11.817  0.0051 -0.5472 -0.2534
 1188SOL    HW115023   1.183   1.114  11.899 -2.3514 -1.4499 -0.4117
 1188SOL    HW215024   1.139   1.241  11.861 -0.2432 -0.6669 -0.2147
 1189SOL     OW15025   1.247   0.643   2.192 -0.4063 -0.4898  0.3048
 1189SOL    HW115026   1.177   0.708   2.202 -1.6349 -1.5706 -1.3268
 1189SOL    HW215027   1.225   0.603   2.108 -1.1165  2.1376 -0.7801
 1190SOL     OW15028   4.235   3.716   1.982 -0.1124  0.8739  0.0162
 1190SOL    HW115029   4.189   3.641   2.021  1.7143 -1.6547 -2.7126
 1190SOL    HW215030   4.212   3.716   1.889  1.7861 -2.6741 -0.4095
 1191SOL     OW15031   4.674   3.095   0.642  0.4899  0.2557  0.1324
 1191SOL    HW115032   4.632   3.079   0.726 -0.0659  0.6376 -0.0788
 1191SOL    HW215033   0.042   3.087   0.667  0.1751 -2.8759  0.2912
 1192SOL     OW15034   2.424   1.889   8.302  0.0616 -0.0282  0.0993
 1192SOL    HW115035   2.504   1.835   8.302 -0.2636 -0.4878 -2.2277
 1192SOL    HW215036   2.464   1.976   8.310 -1.3351  0.5899  0.3543
 1193SOL     OW15037   3.197   2.636  15.825 -0.6701 -0.1362  0.1664
 1193SOL    HW115038   3.256   2.667  15.893 -0.5759  0.6737 -0.2790
 1193SOL    HW215039   3.156   2.721  15.809  0.9290 -0.1821 -4.1157
 1194SOL     OW15040   1.273   0.593  10.415 -0.4304 -0.1745 -0.1769
 1194SOL    HW115041   1.295   0.506  10.449 -1.1623 -0.8196 -1.3521
 1194SOL    HW215042   1.355   0.639  10.433 -1.2964  1.0479  0.6304
 1195SOL     OW15043   0.282   1.497   2.221 -0.7998  0.1933  0.1422
 1195SOL    HW115044   0.346   1.550   2.268 -1.8753  0.3094  1.4892
 1195SOL    HW215045   0.330   1.414   2.222 -0.5513  0.3485  1.4632
 1196SOL     OW15046   0.751   3.074  14.891 -0.2217  0.4076  0.1766
 1196SOL    HW115047   0.706   3.004  14.845 -0.7880  0.0790  1.2211
 1196SOL    HW215048   0.678   3.119  14.934 -0.3504 -1.2450  1.6870
 1197SOL     OW15049   0.724   2.118   8.581  0.0754  0.1711 -0.5553
 1197SOL    HW115050   0.681   2.099   8.664 -2.4881  1.2274 -1.6324
 1197SOL    HW215051   0.814   2.127   8.612  0.0407 -0.9152 -0.1235
 1198SOL     OW15052   2.841   2.124   8.960  0.6546 -0.0658 -0.5126
 1198SOL    HW115053   2.750   2.126   8.991 -0.0910 -2.1063 -2.5288
 1198SOL    HW215054   2.829   2.114   8.865 -2.3163  0.0514 -0.1392
 1199SOL     OW15055   4.527   4.659  12.543  0.1141  0.0340  0.0460
 1199SOL    HW115056   4.538   4.678  12.450  2.3838  0.1490  0.3411
 1199SOL    HW215057   4.526   0.018  12.590 -0.3755 -0.6127  1.1841
 1200SOL     OW15058   0.112   4.578  10.205 -0.4957  0.3134  0.6060
 1200SOL    HW115059   0.181   4.645  10.207  0.5406 -0.6985 -1.8036
 1200SOL    HW215060   0.046   4.619  10.150  0.2604  0.0405 -0.5062
 1201SOL     OW15061   4.226   2.418   3.233  0.4988  0.1707 -0.0448
 1201SOL    HW115062   4.241   2.370   3.151  2.3690  0.2751  0.2461
 1201SOL    HW215063   4.209   2.340   3.286  0.7987  1.8682  2.5046
 1202SOL     OW15064   0.574   0.560  14.637 -0.2105  0.2892 -0.1207
 1202SOL    HW115065   0.570   0.632  14.699 -2.3476 -0.1348  0.2400
 1202SOL    HW215066   0.536   0.493  14.693 -0.6213  1.6596  1.2164
 1203SOL     OW15067   0.490   0.188   7.544 -0.8202  0.1050 -0.1308
 1203SOL    HW115068   0.440   0.106   7.540  1.7109 -1.5535  2.2462
 1203SOL    HW215069   0.425   0.232   7.598  0.2348 -0.3825  1.5308
 1204SOL     OW15070   4.018   2.841   5.031  0.7309 -0.1964 -0.7106
 1204SOL    HW115071   4.002   2.925   5.076 -0.1024 -0.4564 -0.5077
 1204SOL    HW215072   4.109   2.827   5.057  0.4136  0.4843  0.7887
 1205SOL     OW15073   2.005   0.960   5.230  0.0140  0.2572 -1.0753
 1205SOL    HW115074   2.051   0.889   5.275 -1.2361  1.0027  1.3866
 1205SOL    HW215075   1.949   0.904   5.176  0.6459 -1.0972 -0.3253
 1206SOL     OW15076   3.681   1.303  14.595 -0.2229  0.1574 -0.2534
 1206SOL    HW115077   3.705   1.376  14.538  0.2220  1.2724  1.3670
 1206SOL    HW215078   3.707   1.228  14.541  0.4471 -0.6743  1.2395
 1207SOL     OW15079   1.460   4.616  15.438 -0.0430 -0.3317 -0.2549
 1207SOL    HW115080   1.500   4.700  15.459 -0.5251  0.1179 -1.1461
 1207SOL    HW215081   1.401   4.648  15.369  0.2239  1.3011  0.2919
 1208SOL     OW15082   3.703   4.281   7.053  0.2865  0.0828 -0.2823
 1208SOL    HW115083   3.725   4.266   7.144  0.0336 -0.8870 -0.3839
 1208SOL    HW215084   3.715   4.375   7.067  0.2151  0.0060  0.2633
 1209SOL     OW15085   3.792   0.656   9.530 -0.1790 -0.1131 -0.1512
 1209SOL    HW115086   3.698   0.638   9.518  0.0561 -0.9692 -0.7606
 1209SOL    HW215087   3.826   0.611   9.452 -0.3442 -2.4950  1.1466
 1210SOL     OW15088   1.687   2.293   7.728 -0.0253  0.1558 -0.4282
 1210SOL    HW115089   1.782   2.283   7.743  0.2119  2.4558 -0.3858
 1210SOL    HW215090   1.678   2.382   7.761 -1.4116 -0.6173  1.2865
 1211SOL     OW15091   3.503   3.092  15.004 -0.0371  0.3767  0.3652
 1211SOL    HW115092   3.524   3.125  14.917 -1.2563 -0.1944 -0.1410
 1211SOL    HW215093   3.589   3.104  15.045  0.3841  1.1538 -0.7578
 1212SOL     OW15094   2.885   1.879   1.247 -0.1018 -0.0520  0.0714
 1212SOL    HW115095   2.865   1.962   1.203  0.0137 -0.7027 -1.2030
 1212SOL    HW215096   2.919   1.901   1.334 -2.8028 -0.2794  1.1946
 1213SOL     OW15097   4.670   3.720   9.554  0.0947 -0.2665 -0.0492
 1213SOL    HW115098   0.025   3.739   9.603  0.5834  1.8171 -1.6376
 1213SOL    HW215099   4.649   3.630   9.579  0.8390  0.0231  1.6280
 1214SOL     OW15100   0.968   0.656   8.763  0.0886 -0.3957  0.0846
 1214SOL    HW115101   0.925   0.580   8.724  0.6267 -0.6496 -0.0088
 1214SOL    HW215102   1.007   0.699   8.687  1.3279  0.3197  1.1192
 1215SOL     OW15103   1.962   0.487   6.417  0.3934  0.6598  0.0803
 1215SOL    HW115104   1.911   0.406   6.424  1.9185 -0.4219 -1.4801
 1215SOL    HW215105   2.045   0.455   6.382  0.2618  0.2370  0.1570
 1216SOL     OW15106   2.321   0.214   6.633  0.1843 -0.3604  0.0097
 1216SOL    HW115107   2.292   0.154   6.702 -0.0406 -0.7216 -0.3996
 1216SOL    HW215108   2.395   0.173   6.589  0.2521 -0.3067  0.0730
 1217SOL     OW15109   4.210   0.390   3.017 -0.2985  0.1488 -0.3652
 1217SOL    HW115110   4.115   0.397   3.019 -0.3400 -0.2704 -0.7273
 1217SOL    HW215111   4.229   0.484   3.018  0.8926 -0.0828 -1.0345
 1218SOL     OW15112   3.365   0.172   4.561  0.5501 -0.0179  0.0247
 1218SOL    HW115113   3.400   0.096   4.516  1.3799  0.6902 -0.5183
 1218SOL    HW215114   3.273   0.163   4.536  1.2018 -0.8821 -2.0797
 1219SOL     OW15115   1.157   3.941   3.561  0.4032  0.1888  0.0595
 1219SOL    HW115116   1.064   3.922   3.571 -0.0264  0.2674 -3.7615
 1219SOL    HW215117   1.189   3.900   3.641 -0.8360  0.1539  0.5377
 1220SOL     OW15118   1.774   4.376   0.546 -0.0332 -0.1424 -0.0218
 1220SOL    HW115119   1.825   4.335   0.616  1.7540 -0.9279 -1.7706
 1220SOL    HW215120   1.830   4.450   0.524 -0.5958  0.4799  0.6558
 1221SOL     OW15121   1.951   4.062   5.312 -0.2344  0.2720  0.3080
 1221SOL    HW115122   1.881   4.119   5.281  0.1068  1.0525  0.9587
 1221SOL    HW215123   2.011   4.083   5.241  1.2272 -0.6274  1.2625
 1222SOL     OW15124   2.733   2.925   1.607 -0.0169 -0.4928  0.0743
 1222SOL    HW115125   2.711   2.962   1.521  1.9539 -0.3232 -0.3419
 1222SOL    HW215126   2.827   2.937   1.614  0.3958 -3.9884  0.3105
 1223SOL     OW15127   0.729   2.271  13.295 -0.0553 -0.2184  0.6160
 1223SOL    HW115128   0.691   2.225  13.220 -1.3097  1.6446  0.1181
 1223SOL    HW215129   0.664   2.263  13.365 -1.7955  1.7614 -0.7795
 1224SOL     OW15130   1.343   3.190  16.554  0.1322  0.2007 -0.0863
 1224SOL    HW115131   1.383   3.104  16.545  1.5747  0.9310 -0.7016
 1224SOL    HW215132   1.339   3.214  16.461  1.8914  0.9103  0.0218
 1225SOL     OW15133   1.701   2.443   8.622 -0.6278 -0.4545 -0.0603
 1225SOL    HW115134   1.623   2.437   8.678 -0.3000  1.3739  0.6125
 1225SOL    HW215135   1.751   2.513   8.664 -0.0110  0.0581 -1.6588
 1226SOL     OW15136   3.316   0.784   3.908  0.0106  0.1926  0.4334
 1226SOL    HW115137   3.255   0.858   3.903 -1.6505 -1.1115  1.5109
 1226SOL    HW215138   3.261   0.709   3.886 -0.2257  0.5345 -0.1520
 1227SOL     OW15139   1.019   2.326   3.523 -0.5661 -0.2095  0.3786
 1227SOL    HW115140   0.952   2.394   3.526  0.4079  0.7829 -0.3529
 1227SOL    HW215141   1.096   2.381   3.534 -1.1537  1.1145 -2.1353
 1228SOL     OW15142   1.902   2.810  12.852  0.5773  0.8155 -0.1155
 1228SOL    HW115143   1.810   2.783  12.845  0.7087  0.7093 -1.3446
 1228SOL    HW215144   1.897   2.863  12.773  0.3844 -0.2997 -0.8593
 1229SOL     OW15145   3.349   0.127   2.786 -0.1411 -0.3102 -0.3562
 1229SOL    HW115146   3.374   0.067   2.715  1.0767 -0.6521  0.3508
 1229SOL    HW215147   3.292   0.062   2.826  1.4099 -0.8601  0.9611
 1230SOL     OW15148   2.931   3.595  12.918 -0.4909  0.2013 -0.5366
 1230SOL    HW115149   2.956   3.601  12.826 -0.0710  1.1333 -0.3643
 1230SOL    HW215150   2.874   3.671  12.930 -1.0275 -0.2633 -0.1490
 1231SOL     OW15151   1.496   4.309  13.131  0.3473 -0.2385 -0.3081
 1231SOL    HW115152   1.428   4.365  13.093  0.5061  0.1814  0.0429
 1231SOL    HW215153   1.457   4.221  13.135 -0.0197 -0.0906 -0.6162
 1232SOL     OW15154   4.447   1.137   0.723 -0.2291 -0.4984  0.0630
 1232SOL    HW115155   4.511   1.112   0.657 -0.3724  2.3846 -1.1414
 1232SOL    HW215156   4.394   1.201   0.675 -1.3940  0.4098  2.5674
 1233SOL     OW15157   1.228   0.471   9.405  0.2045  0.1931  0.2808
 1233SOL    HW115158   1.238   0.437   9.494 -2.1214 -1.6349 -0.1620
 1233SOL    HW215159   1.278   0.406   9.355 -0.7048  0.7088 -1.3066
 1234SOL     OW15160   3.599   3.450   4.631  0.2856  0.6304  0.3373
 1234SOL    HW115161   3.540   3.377   4.612 -2.8326  3.1635  0.1141
 1234SOL    HW215162   3.542   3.523   4.606  1.3205  1.2915 -0.0639
 1235SOL     OW15163   2.542   3.466   4.915 -0.0958 -0.0092  0.1451
 1235SOL    HW115164   2.593   3.447   4.836  0.4058 -1.6122  0.8546
 1235SOL    HW215165   2.614   3.502   4.966 -0.8487  2.6421 -0.7055
 1236SOL     OW15166   2.033   4.621   7.948 -0.2878  0.0344 -0.6357
 1236SOL    HW115167   2.045   4.614   8.043 -1.0062 -1.4583 -0.6472
 1236SOL    HW215168   1.984   4.540   7.934 -0.7063  1.0065 -4.6230
 1237SOL     OW15169   2.223   4.694   8.486 -0.6641  0.4412 -0.3786
 1237SOL    HW115170   2.278   4.620   8.511  1.2989  2.4240  1.0855
 1237SOL    HW215171   2.280   0.024   8.432 -1.4131  0.3978 -1.2104
 1238SOL     OW15172   0.355   1.788   7.447  0.2647 -0.4165  0.1487
 1238SOL    HW115173   0.422   1.831   7.498 -1.2808  0.8127  1.1440
 1238SOL    HW215174   0.307   1.733   7.509 -1.6599 -1.2426 -2.0393
 1239SOL     OW15175   1.995   4.069   2.373  0.6520 -0.0172  1.7354
 1239SOL    HW115176   1.983   4.107   2.459 -2.6715  1.8525  0.4565
 1239SOL    HW215177   1.918   4.105   2.328  0.4956 -2.2410  0.1705
 1240SOL     OW15178   0.528   1.950   7.996  0.1301 -0.4532  0.1547
 1240SOL    HW115179   0.574   1.871   7.969  0.8110  0.5388 -1.6093
 1240SOL    HW215180   0.438   1.935   7.966 -0.1564  0.7194  0.4046
 1241SOL     OW15181   2.002   3.210   1.926 -0.1305 -0.4962  0.4349
 1241SOL    HW115182   1.928   3.150   1.928  0.0853 -0.7330  1.3954
 1241SOL    HW215183   1.961   3.295   1.914 -2.5711 -1.4547  2.1232
 1242SOL     OW15184   3.494   0.641   2.509 -0.2482  0.6268 -0.8324
 1242SOL    HW115185   3.544   0.639   2.428  1.0806 -0.8886  0.0324
 1242SOL    HW215186   3.425   0.695   2.470  0.7077  1.1285 -1.8303
 1243SOL     OW15187   3.027   2.114   0.898 -0.0555 -0.1412 -1.0820
 1243SOL    HW115188   3.075   2.088   0.820  2.7908 -1.3866  1.0998
 1243SOL    HW215189   3.077   2.186   0.937 -0.1095  0.6521 -2.5002
 1244SOL     OW15190   3.475   1.548   2.458  0.3610 -0.4891 -0.0833
 1244SOL    HW115191   3.487   1.547   2.363 -3.7695 -0.0298 -0.6092
 1244SOL    HW215192   3.467   1.455   2.480 -0.1939 -0.3155  0.4461
 1245SOL     OW15193   1.331   3.968   4.760 -0.1988 -0.5131  0.1368
 1245SOL    HW115194   1.316   3.977   4.854 -3.3113  1.1107 -0.5053
 1245SOL    HW215195   1.423   3.993   4.761 -0.1171 -0.9092  1.4855
 1246SOL     OW15196   2.417   2.203  17.453  0.2147 -0.4206 -0.3461
 1246SOL    HW115197   2.459   2.128  17.496  0.8353 -0.4103 -0.9202
 1246SOL    HW215198   2.453   2.181  17.367 -1.0244 -1.4986 -0.5826
 1247SOL     OW15199   2.308   2.852   1.508  0.2933 -0.2259  0.4728
 1247SOL    HW115200   2.248   2.919   1.540  0.2487 -0.4200  0.8005
 1247SOL    HW215201   2.319   2.877   1.416 -1.8878 -0.2968  0.1939
 1248SOL     OW15202   3.456   1.738   6.662 -0.5528  0.1911 -0.2875
 1248SOL    HW115203   3.551   1.737   6.648 -0.3772  0.7750  0.9029
 1248SOL    HW215204   3.451   1.796   6.737 -0.6624  0.0344 -0.1725
 1249SOL     OW15205   2.995   4.066   3.635 -0.3572  0.1416  0.6949
 1249SOL    HW115206   3.025   3.984   3.675  1.1648  0.4189  0.1092
 1249SOL    HW215207   3.074   4.120   3.633  0.2576 -0.6115  3.4860
 1250SOL     OW15208   4.365   4.172   5.966  0.4069  0.3849  0.3140
 1250SOL    HW115209   4.297   4.122   6.012  0.4724  0.4402  0.4678
 1250SOL    HW215210   4.313   4.247   5.939 -0.3880  0.4997  2.1937
 1251SOL     OW15211   4.563   4.087  11.008  0.7500 -0.0494 -0.0392
 1251SOL    HW115212   4.502   4.149  11.047  2.5645  1.4165  0.4862
 1251SOL    HW215213   4.576   4.130  10.924  0.0877  1.7077  0.7463
 1252SOL     OW15214   4.718   3.939   0.055 -0.2362 -0.3448  0.3411
 1252SOL    HW115215   0.089   3.933   0.055 -0.3084 -1.6463 -1.1332
 1252SOL    HW215216   4.687   3.897   0.135 -2.3051  1.6429  0.5721
 1253SOL     OW15217   3.832   0.659   5.783 -0.5279  0.5482 -0.5868
 1253SOL    HW115218   3.848   0.565   5.783 -0.7971  0.5016 -0.6864
 1253SOL    HW215219   3.856   0.679   5.873 -1.9687 -0.4403  0.0243
 1254SOL     OW15220   4.251   4.633   3.487 -0.5782 -0.1579  0.0200
 1254SOL    HW115221   4.319   4.565   3.478 -1.8480 -1.5123  0.6762
 1254SOL    HW215222   4.228   4.644   3.395  1.9128  1.2631 -0.4531
 1255SOL     OW15223   0.224   0.339   1.776  0.4221  0.0460 -0.2692
 1255SOL    HW115224   0.296   0.366   1.719  0.0704  2.0620  0.2382
 1255SOL    HW215225   0.146   0.337   1.722  0.8399 -0.7999 -0.8467
 1256SOL     OW15226   3.826   4.722  17.006 -0.1396 -0.1338  0.0302
 1256SOL    HW115227   3.760   4.711  17.074 -0.1934  2.8853  0.5024
 1256SOL    HW215228   3.778   0.049  16.940  0.4135 -0.4920 -0.6466
 1257SOL     OW15229   3.334   3.578  15.167 -0.0888  0.0808  0.0386
 1257SOL    HW115230   3.416   3.544  15.203 -1.3896 -1.0780  1.9344
 1257SOL    HW215231   3.365   3.599  15.079  0.8037 -0.8380  0.1382
 1258SOL     OW15232   3.768   1.943  11.692 -0.0326 -0.4053 -0.2545
 1258SOL    HW115233   3.719   1.961  11.772 -2.5465  0.6365 -2.0151
 1258SOL    HW215234   3.747   1.853  11.665  0.5001 -0.0901 -1.7225
 1259SOL     OW15235   2.594   1.314   5.651  1.1169  0.0599  0.0296
 1259SOL    HW115236   2.547   1.390   5.685  1.0717 -0.3688  0.9262
 1259SOL    HW215237   2.623   1.273   5.732 -2.1926 -1.6643  0.3121
 1260SOL     OW15238   2.918   1.846  17.115 -0.1964  0.1146  0.3848
 1260SOL    HW115239   3.007   1.838  17.148  0.0349 -2.3374 -0.8076
 1260SOL    HW215240   2.888   1.922  17.163 -1.1856  1.9591 -3.1513
 1261SOL     OW15241   0.501   2.017   1.943 -0.4068 -0.1330 -0.1621
 1261SOL    HW115242   0.562   2.035   2.014 -0.2527  1.9883 -0.8300
 1261SOL    HW215243   0.435   1.957   1.979 -1.1866  0.5804 -0.3802
 1262SOL     OW15244   2.103   2.937   3.327 -0.3130 -0.5337 -0.1020
 1262SOL    HW115245   2.151   2.904   3.402 -0.1442 -1.1637 -0.4880
 1262SOL    HW215246   2.160   3.008   3.298 -0.2979 -1.9643 -3.5791
 1263SOL     OW15247   2.861   4.351   4.520 -0.4623 -0.5685  0.0803
 1263SOL    HW115248   2.889   4.426   4.573 -1.8877  0.8516 -1.1761
 1263SOL    HW215249   2.842   4.385   4.433 -1.4540  1.4881  1.0812
 1264SOL     OW15250   4.342   2.339  12.251  0.5425 -0.8736 -0.0827
 1264SOL    HW115251   4.298   2.285  12.316 -1.8699 -0.1404 -1.0868
 1264SOL    HW215252   4.268   2.359  12.193 -0.0904 -1.5647  0.4886
 1265SOL     OW15253   2.001   2.918   4.411  0.0540 -0.0724  0.0638
 1265SOL    HW115254   1.908   2.914   4.389 -0.2278  1.9086  0.9596
 1265SOL    HW215255   2.018   3.011   4.397 -0.2998 -0.2481 -1.4962
 1266SOL     OW15256   0.653   2.712   7.678 -0.4208 -0.4778 -0.4002
 1266SOL    HW115257   0.584   2.695   7.614 -1.0260  1.3260 -0.2051
 1266SOL    HW215258   0.645   2.805   7.699  1.7599 -0.0463 -1.4971
 1267SOL     OW15259   3.240   0.332   8.333  0.1476  0.3566 -0.1900
 1267SOL    HW115260   3.219   0.256   8.387  0.5128  0.8371  0.6319
 1267SOL    HW215261   3.334   0.318   8.322 -0.1004 -2.6460  1.6315
 1268SOL     OW15262   0.703   0.771   6.295  0.6774 -0.6919  0.1755
 1268SOL    HW115263   0.761   0.739   6.364 -0.1822  0.7827  1.5943
 1268SOL    HW215264   0.690   0.858   6.333 -1.7188 -1.5626  1.3598
 1269SOL     OW15265   3.383   1.832  11.736  1.0586 -0.1287  0.4641
 1269SOL    HW115266   3.434   1.875  11.667 -1.9876  0.1073 -1.6331
 1269SOL    HW215267   3.354   1.906  11.789 -2.5913 -1.4406  0.3019
 1270SOL     OW15268   1.888   3.277  11.869 -0.4774  0.3138  0.4275
 1270SOL    HW115269   1.946   3.208  11.837 -0.6917  1.0488 -1.4994
 1270SOL    HW215270   1.893   3.331  11.790  0.7586  0.5482  0.6598
 1271SOL     OW15271   3.316   1.434  12.639 -0.4296  0.1827  0.1048
 1271SOL    HW115272   3.320   1.353  12.588 -1.0918 -0.4010  0.9770
 1271SOL    HW215273   3.255   1.407  12.708  0.0123  0.7331  0.7135
 1272SOL     OW15274   4.382   0.892  14.701 -0.1366 -0.1387 -0.0092
 1272SOL    HW115275   4.308   0.940  14.664 -0.8892 -0.5997  0.9062
 1272SOL    HW215276   4.333   0.840  14.764 -0.3529  0.0827  0.0048
 1273SOL     OW15277   2.822   2.722  16.018 -0.2408  0.1048  0.5822
 1273SOL    HW115278   2.867   2.803  15.996  2.5763 -1.2314  1.4221
 1273SOL    HW215279   2.880   2.683  16.083 -1.5371 -1.9751  0.5294
 1274SOL     OW15280   2.674   0.815   2.514  0.5773  1.0570 -0.7155
 1274SOL    HW115281   2.626   0.817   2.597 -1.8170  1.6586 -2.1030
 1274SOL    HW215282   2.614   0.765   2.458  0.3257  1.4918 -0.8329
 1275SOL     OW15283   0.220   1.447  15.119  0.8627  0.4886  0.0737
 1275SOL    HW115284   0.183   1.410  15.038  2.4795 -1.5789  0.2818
 1275SOL    HW215285   0.313   1.464  15.108  1.5664 -2.9952  0.5981
 1276SOL     OW15286   3.732   0.701   3.211 -0.3481  0.0004 -0.2137
 1276SOL    HW115287   3.786   0.633   3.253  0.0236 -0.1962 -1.0111
 1276SOL    HW215288   3.656   0.692   3.268  0.0863  2.3348  0.7265
 1277SOL     OW15289   1.291   1.493   3.644  0.8179 -0.0000 -0.1739
 1277SOL    HW115290   1.327   1.568   3.692  1.6710  0.2103 -1.1566
 1277SOL    HW215291   1.327   1.418   3.692 -0.9974  0.0868  1.3499
 1278SOL     OW15292   2.848   1.138   6.719 -0.0865  0.1663  0.4751
 1278SOL    HW115293   2.792   1.176   6.787 -1.1056  0.2244 -0.4010
 1278SOL    HW215294   2.795   1.070   6.678  1.7289 -1.3134  0.5538
 1279SOL     OW15295   2.706   0.342   7.792 -0.1196  0.6078 -0.1169
 1279SOL    HW115296   2.738   0.352   7.882 -0.9191  0.3887  0.1853
 1279SOL    HW215297   2.724   0.254   7.760 -0.2354  0.6451 -0.2806
 1280SOL     OW15298   1.037   3.883   0.201 -0.1722  0.6580 -0.0457
 1280SOL    HW115299   1.039   3.857   0.293 -2.2048  2.3142  0.4594
 1280SOL    HW215300   1.130   3.903   0.191  0.1256  0.2367  1.7851
 1281SOL     OW15301   1.944   2.179   4.903 -0.0927 -0.1688  0.0233
 1281SOL    HW115302   1.929   2.085   4.896  1.7204 -0.3999 -0.7705
 1281SOL    HW215303   2.039   2.186   4.897  0.0444 -1.5541  0.6172
 1282SOL     OW15304   2.908   3.940   7.537  0.0159 -0.2803  0.9554
 1282SOL    HW115305   2.987   3.928   7.591 -0.1563 -0.9744  1.0574
 1282SOL    HW215306   2.897   3.850   7.505  1.0582 -0.3729  0.8459
 1283SOL     OW15307   1.017   2.167  12.725  0.7661 -0.0611 -0.6974
 1283SOL    HW115308   1.030   2.246  12.673 -3.6259  0.7009 -0.6941
 1283SOL    HW215309   1.022   2.108  12.649  3.2906 -0.2075 -0.4174
 1284SOL     OW15310   2.620   3.774   2.355 -0.7404 -0.1242 -0.8623
 1284SOL    HW115311   2.634   3.751   2.263 -2.1689 -2.5497 -0.4825
 1284SOL    HW215312   2.584   3.863   2.353  2.0317  1.0303  1.2694
 1285SOL     OW15313   1.103   3.919   4.239  0.1631  0.3986 -0.5551
 1285SOL    HW115314   1.057   4.003   4.238 -0.5702 -0.0035 -0.5392
 1285SOL    HW215315   1.062   3.862   4.303 -0.8366  0.9087 -0.7446
 1286SOL     OW15316   4.420   1.632   6.910 -0.8573 -0.1154  0.3876
 1286SOL    HW115317   4.418   1.676   6.995 -1.4273  0.5411  0.0355
 1286SOL    HW215318   4.494   1.572   6.918 -1.5428 -0.7202  2.3559
 1287SOL     OW15319   1.208   0.314   4.690 -0.2912 -0.0212  0.2166
 1287SOL    HW115320   1.276   0.252   4.716  1.4794  1.1042 -1.7449
 1287SOL    HW215321   1.166   0.319   4.776 -0.3949  3.2228 -0.0021
 1288SOL     OW15322   2.389   1.992  13.884 -0.3485 -0.3319 -0.0459
 1288SOL    HW115323   2.429   1.952  13.962  0.0718  1.5190  0.7031
 1288SOL    HW215324   2.362   1.912  13.840  0.0138 -0.0619 -0.7584
 1289SOL     OW15325   2.040   4.265   9.274 -0.6387  0.1374  0.7479
 1289SOL    HW115326   2.058   4.353   9.241  0.8728 -0.3569  0.2626
 1289SOL    HW215327   2.037   4.218   9.191  0.3502  0.4569  0.5353
 1290SOL     OW15328   2.494   1.913  12.873 -0.3711 -0.4604  0.2941
 1290SOL    HW115329   2.502   1.944  12.783  1.0542 -0.2983  0.4729
 1290SOL    HW215330   2.576   1.864  12.878  0.4388  0.7898 -0.7995
 1291SOL     OW15331   3.922   3.398  13.299 -0.1949  0.6443 -0.1200
 1291SOL    HW115332   3.847   3.405  13.358 -0.5317  0.2151 -0.4894
 1291SOL    HW215333   3.874   3.392  13.216  0.4109  1.2475 -0.5131
 1292SOL     OW15334   2.263   3.951  15.177  0.0624 -0.5204 -0.1682
 1292SOL    HW115335   2.296   4.017  15.237 -0.7839 -1.2062  1.0446
 1292SOL    HW215336   2.342   3.922  15.130 -0.9788 -0.7727 -1.7655
 1293SOL     OW15337   1.566   4.156   2.431  0.9629 -0.1124  0.0432
 1293SOL    HW115338   1.594   4.197   2.512 -1.4098  1.8030 -0.1128
 1293SOL    HW215339   1.472   4.174   2.437  0.5801 -1.5677 -1.4463
 1294SOL     OW15340   4.561   4.171   3.388 -0.0340  0.2432  0.0744
 1294SOL    HW115341   4.608   4.095   3.422  0.1173  0.3520  0.1087
 1294SOL    HW215342   4.630   4.209   3.333  1.8633 -1.1672  1.4671
 1295SOL     OW15343   1.116   1.375   8.927 -0.5508  0.0302  0.1651
 1295SOL    HW115344   1.157   1.423   8.855  0.0222 -0.3805  0.2170
 1295SOL    HW215345   1.157   1.289   8.917  0.6692  0.5812  0.4820
 1296SOL     OW15346   2.999   1.424   2.215 -0.3145  0.0013  0.0520
 1296SOL    HW115347   3.055   1.410   2.139 -1.2867  0.2462 -0.7138
 1296SOL    HW215348   3.057   1.392   2.284  0.7788  0.1185 -0.8072
 1297SOL     OW15349   1.500   2.616  10.860 -0.5746  0.0706 -0.2170
 1297SOL    HW115350   1.503   2.581  10.949 -1.5030 -1.6684 -0.8766
 1297SOL    HW215351   1.592   2.622  10.836 -0.3952 -0.4062  0.3582
 1298SOL     OW15352   1.559   2.722   8.359 -0.5021 -0.2066  0.2112
 1298SOL    HW115353   1.476   2.751   8.320  0.6549 -1.0114 -2.8537
 1298SOL    HW215354   1.531   2.679   8.439 -1.0047 -0.2778 -0.0009
 1299SOL     OW15355   3.291   3.030   2.005  0.1159  0.3174 -0.2734
 1299SOL    HW115356   3.205   3.056   2.037  0.5608  1.8978 -0.3659
 1299SOL    HW215357   3.330   3.118   2.008  1.5358 -0.3138 -0.3339
 1300SOL     OW15358   0.263   1.312   5.093 -0.2635 -0.3327  0.3004
 1300SOL    HW115359   0.233   1.354   5.174 -1.6763 -0.0471 -0.3798
 1300SOL    HW215360   0.307   1.386   5.052 -0.8600 -0.9092 -1.3765
 1301SOL     OW15361   1.487   2.415   8.783 -0.5561 -0.1352  0.0229
 1301SOL    HW115362   1.437   2.438   8.861  1.2021  1.3563  0.7316
 1301SOL    HW215363   1.447   2.340   8.740 -0.4464 -0.3391  0.2736
 1302SOL     OW15364   0.636   1.518  13.579 -1.1758 -0.3708 -0.4862
 1302SOL    HW115365   0.570   1.450  13.566 -0.6991 -0.9724  0.2578
 1302SOL    HW215366   0.652   1.532  13.486 -0.0923  2.1313  0.0758
 1303SOL     OW15367   4.217   3.537   6.896 -0.3203  0.3455 -0.0602
 1303SOL    HW115368   4.303   3.495   6.911 -0.0799  0.9951  0.3824
 1303SOL    HW215369   4.227   3.611   6.955  4.0109 -0.6454  0.5000
 1304SOL     OW15370   4.684   1.996  11.604 -0.2288 -0.6294 -0.1054
 1304SOL    HW115371   0.051   1.965  11.607 -0.5803 -1.5098  1.7304
 1304SOL    HW215372   4.686   2.025  11.695  1.9476 -0.6465 -0.1547
 1305SOL     OW15373   1.924   3.050   5.835  0.2866  0.4169 -0.5236
 1305SOL    HW115374   1.873   2.975   5.805  1.0993 -0.1271 -0.5223
 1305SOL    HW215375   1.939   3.028   5.927 -1.5334 -0.6589 -0.4867
 1306SOL     OW15376   4.611   4.673   6.147 -0.3433  0.7223  0.1689
 1306SOL    HW115377   4.586   0.033   6.185 -0.0777  0.6693  0.4611
 1306SOL    HW215378   4.546   4.619   6.193 -0.9613  0.8990 -0.5020
 1307SOL     OW15379   1.056   0.044   7.619 -0.0026  0.2050  0.3699
 1307SOL    HW115380   1.022   4.695   7.567  1.2285  0.1602 -0.3670
 1307SOL    HW215381   1.072   0.111   7.553  1.8295 -0.9613 -0.3693
 1308SOL     OW15382   1.089   2.117  16.130  0.1176  0.6018  0.2618
 1308SOL    HW115383   1.111   2.035  16.087 -1.1878  0.0803  0.5997
 1308SOL    HW215384   1.012   2.083  16.175 -1.8960  1.6404 -2.4191
 1309SOL     OW15385   2.863   1.319   4.011  0.1407  0.0530 -0.7352
 1309SOL    HW115386   2.894   1.377   4.081 -0.3162  1.7958 -1.9608
 1309SOL    HW215387   2.865   1.377   3.935  2.2027  1.5187  0.4312
 1310SOL     OW15388   4.419   1.946   7.111  0.3437  0.2100  0.0254
 1310SOL    HW115389   4.505   1.924   7.146 -0.4916  0.1963  2.0824
 1310SOL    HW215390   4.443   2.023   7.060  0.6973 -0.2955 -0.5800
 1311SOL     OW15391   1.193   1.429   0.510 -0.0034 -0.0189  0.1991
 1311SOL    HW115392   1.131   1.419   0.437  0.4638 -0.9418 -0.0678
 1311SOL    HW215393   1.181   1.343   0.550  0.0282  0.5177  1.3533
 1312SOL     OW15394   0.296   4.037   6.153 -0.2520 -0.1452  0.2757
 1312SOL    HW115395   0.206   4.006   6.147 -0.3291  0.1175  0.0936
 1312SOL    HW215396   0.282   4.132   6.157  1.5701  0.1323  0.2996
 1313SOL     OW15397   2.424   2.021   9.846 -0.1007 -0.1874  0.3995
 1313SOL    HW115398   2.517   2.042   9.846 -0.4376  1.2792  0.4597
 1313SOL    HW215399   2.399   2.049   9.934  0.8264 -0.9870  0.9131
 1314SOL     OW15400   4.241   1.563   8.445 -0.0511  0.6758 -0.6954
 1314SOL    HW115401   4.298   1.612   8.504 -0.3600  2.4902 -1.8941
 1314SOL    HW215402   4.225   1.490   8.505  0.8066  0.8546 -0.2476
 1315SOL     OW15403   2.503   0.012   8.381  0.0125  0.0654  0.0633
 1315SOL    HW115404   2.580   0.049   8.338 -2.1809  3.4568 -0.9664
 1315SOL    HW215405   2.476   4.674   8.313 -0.4199  0.7186 -0.3617
 1316SOL     OW15406   3.735   2.026  14.458  0.2572  0.3865 -0.4083
 1316SOL    HW115407   3.722   2.110  14.412  2.4046  1.7310  1.4508
 1316SOL    HW215408   3.733   2.050  14.551  1.1373 -2.1515  0.2652
 1317SOL     OW15409   2.936   0.197   8.252  0.1007  0.2222  0.1328
 1317SOL    HW115410   2.951   0.109   8.216 -2.3127 -1.5701  3.5441
 1317SOL    HW215411   2.977   0.262   8.194  0.8474  0.0838  0.5079
 1318SOL     OW15412   4.117   2.855   0.513 -0.7165  0.6179 -0.1983
 1318SOL    HW115413   4.093   2.773   0.556  1.9602 -0.4797 -0.8142
 1318SOL    HW215414   4.071   2.834   0.432  0.0932  2.1661 -1.0614
 1319SOL     OW15415   3.928   4.135   8.160  0.4366  0.7673 -0.0439
 1319SOL    HW115416   3.919   4.230   8.166  3.3601  1.0301  0.2025
 1319SOL    HW215417   3.840   4.117   8.194 -0.4370  3.2860 -0.9894
 1320SOL     OW15418   0.907   2.444   7.223 -0.2839 -0.2799 -0.1983
 1320SOL    HW115419   0.865   2.396   7.294  1.2955  0.7261  1.4120
 1320SOL    HW215420   0.846   2.516   7.208 -1.3837 -1.0741  0.4895
 1321SOL     OW15421   3.815   1.427   0.532  0.3430 -0.0889  0.2878
 1321SOL    HW115422   3.888   1.444   0.472  0.1848  2.4640  0.8008
 1321SOL    HW215423   3.756   1.503   0.523 -1.4370 -1.2914  1.8241
 1322SOL     OW15424   2.339   3.881   8.368  0.2600 -0.5230 -1.0065
 1322SOL    HW115425   2.334   3.947   8.298 -0.0898 -2.0632 -2.4415
 1322SOL    HW215426   2.426   3.851   8.343  1.3182  1.8992 -0.2158
 1323SOL     OW15427   4.625   0.148   2.000  0.5303 -0.4932 -0.6285
 1323SOL    HW115428   4.631   0.240   1.974 -2.0650  0.1827  1.0975
 1323SOL    HW215429   4.603   0.096   1.923  0.3419 -3.0831  1.1796
 1324SOL     OW15430   2.291   3.401   4.285  0.0693  0.7046  0.6039
 1324SOL    HW115431   2.350   3.475   4.274  0.3181  0.2339 -1.2312
 1324SOL    HW215432   2.334   3.332   4.234 -3.4373 -0.7677 -0.4258
 1325SOL     OW15433   2.824   1.405  12.830 -0.3217 -0.3905  0.2986
 1325SOL    HW115434   2.762   1.370  12.766 -1.3194  0.4856  0.7931
 1325SOL    HW215435   2.835   1.493  12.794  0.5819 -1.1518 -1.3122
 1326SOL     OW15436   0.564   2.675  13.218  0.3348  0.2796 -0.0176
 1326SOL    HW115437   0.561   2.766  13.189  0.7373  0.1719 -0.4111
 1326SOL    HW215438   0.478   2.662  13.257  0.5635  0.1924  0.4530
 1327SOL     OW15439   0.417   1.089  15.495  0.1231 -0.3640  0.2112
 1327SOL    HW115440   0.369   1.014  15.529  0.2395 -0.6740 -0.3155
 1327SOL    HW215441   0.355   1.159  15.515 -0.0588 -0.4102 -0.1975
 1328SOL     OW15442   0.930   1.406   6.993 -0.6173  0.0757  0.0394
 1328SOL    HW115443   0.873   1.472   6.954 -2.3712 -1.9638 -0.8600
 1328SOL    HW215444   0.995   1.466   7.030 -0.3746 -0.1640 -0.0007
 1329SOL     OW15445   3.974   2.526   1.687  0.5270 -0.5572 -0.3137
 1329SOL    HW115446   3.926   2.523   1.605  1.2732  1.1079 -0.8132
 1329SOL    HW215447   3.907   2.531   1.756  1.3357  0.2251  0.4241
 1330SOL     OW15448   1.044   0.263   9.719 -0.3081  0.3858  0.1217
 1330SOL    HW115449   1.053   0.309   9.802  0.2255 -0.0891  0.3295
 1330SOL    HW215450   1.130   0.268   9.677  0.0485 -1.3097  0.6423
 1331SOL     OW15451   2.203   3.119   0.015  0.3008  0.2657 -0.5205
 1331SOL    HW115452   2.295   3.102   0.035 -0.8861 -1.6155  3.4451
 1331SOL    HW215453   2.161   3.035   0.037  1.2027 -0.5295 -1.8395
 1332SOL     OW15454   2.901   1.797   7.522 -0.0887 -0.0591 -0.0997
 1332SOL    HW115455   2.930   1.806   7.432 -1.2928  0.7264 -0.4122
 1332SOL    HW215456   2.812   1.833   7.516 -0.1194 -0.3561 -1.4072
 1333SOL     OW15457   0.714   4.530  15.458 -0.1165  0.0033  0.5737
 1333SOL    HW115458   0.705   4.601  15.521  0.7234  0.9517 -0.3797
 1333SOL    HW215459   0.718   4.454  15.516  1.2484  1.2458  2.1032
 1334SOL     OW15460   0.139   2.633   4.937 -0.1524 -0.4261 -0.6263
 1334SOL    HW115461   0.122   2.719   4.898 -1.1564 -0.2525  0.2009
 1334SOL    HW215462   0.223   2.647   4.982 -0.7774  2.0186 -0.2329
 1335SOL     OW15463   1.776   2.483   2.318  0.1993  0.1109 -0.0224
 1335SOL    HW115464   1.850   2.493   2.379  0.2789  0.3309 -0.1573
 1335SOL    HW215465   1.796   2.407   2.264 -1.0048  0.2387 -0.6514
 1336SOL     OW15466   0.726   2.914   0.641  0.2461 -0.3641 -0.0057
 1336SOL    HW115467   0.710   3.007   0.659 -1.5327 -0.5524 -0.6828
 1336SOL    HW215468   0.729   2.913   0.545 -0.1222  1.3334 -0.0348
 1337SOL     OW15469   2.976   4.037   5.418 -0.4225  0.5274  0.2716
 1337SOL    HW115470   2.991   4.079   5.503 -2.7503 -0.5926  1.2224
 1337SOL    HW215471   2.997   3.945   5.432  2.5329  1.3200  1.1486
 1338SOL     OW15472   4.662   2.583   4.598 -0.4353 -0.1861  0.3031
 1338SOL    HW115473   0.022   2.619   4.571 -0.5271  0.4442  0.8509
 1338SOL    HW215474   4.615   2.554   4.520  0.0697 -4.0063  1.4213
 1339SOL     OW15475   2.568   4.178   0.652 -0.1195  0.4414 -0.5043
 1339SOL    HW115476   2.515   4.110   0.609  0.6623  0.7479 -1.9449
 1339SOL    HW215477   2.655   4.168   0.613  0.2216 -0.1925  0.4126
 1340SOL     OW15478   0.733   0.563  10.767  0.2809  0.3757  0.4519
 1340SOL    HW115479   0.738   0.614  10.848  0.4682  1.5821 -0.3134
 1340SOL    HW215480   0.746   0.473  10.798 -0.0490 -0.5350 -2.0425
 1341SOL     OW15481   3.481   0.103   7.367  0.2700 -0.4804  0.3316
 1341SOL    HW115482   3.423   0.027   7.377 -0.4678 -0.1835 -1.6643
 1341SOL    HW215483   3.528   0.077   7.288  0.8565 -0.2774  0.6171
 1342SOL     OW15484   3.096   4.377   9.101  0.2618 -0.1365  0.4506
 1342SOL    HW115485   3.091   4.288   9.136  1.6135 -0.5163 -0.3093
 1342SOL    HW215486   3.121   4.426   9.179 -0.0378  1.6633 -0.5936
 1343SOL     OW15487   3.306   4.547  11.604  0.1293  0.1150  0.3461
 1343SOL    HW115488   3.335   4.527  11.515  0.8910  1.8867  0.2133
 1343SOL    HW215489   3.365   4.618  11.628  0.4033 -0.3890  1.1664
 1344SOL     OW15490   2.546   1.657  13.758 -0.0378 -0.1967 -0.4883
 1344SOL    HW115491   2.581   1.738  13.796 -1.0174 -0.1811  0.3895
 1344SOL    HW215492   2.451   1.667  13.768  0.1189  0.9516 -0.1308
 1345SOL     OW15493   3.044   2.859   2.119  0.6394  0.0746 -0.2702
 1345SOL    HW115494   3.077   2.797   2.054  1.3507 -0.0746  0.2334
 1345SOL    HW215495   3.024   2.933   2.062  0.6619  0.0755 -0.2767
 1346SOL     OW15496   1.126   2.260   7.069 -0.0947  0.1226 -0.3488
 1346SOL    HW115497   1.136   2.283   6.977  0.7703  0.2730 -0.2255
 1346SOL    HW215498   1.055   2.317   7.100  0.1436 -0.7663  1.8740
 1347SOL     OW15499   1.128   1.861   6.830 -0.0551  0.0441  0.1656
 1347SOL    HW115500   1.126   1.889   6.921 -1.0389  1.9966 -0.4665
 1347SOL    HW215501   1.219   1.833   6.821 -0.3487 -0.5645 -0.9061
 1348SOL     OW15502   0.970   1.305   2.002 -0.3821 -0.1898 -0.6524
 1348SOL    HW115503   0.980   1.336   2.092  1.8437  0.6804 -1.2235
 1348SOL    HW215504   1.056   1.266   1.990 -0.3400 -0.6122  0.9301
 1349SOL     OW15505   0.211   2.630   2.528  0.0324  0.1322  0.0913
 1349SOL    HW115506   0.120   2.607   2.547 -0.1080  0.7140  0.1163
 1349SOL    HW215507   0.218   2.645   2.434  1.2734 -0.2734  0.1205
 1350SOL     OW15508   4.132   2.058  11.838  0.3608  0.0006 -0.3932
 1350SOL    HW115509   4.130   2.147  11.803 -1.5259  0.0937 -0.0587
 1350SOL    HW215510   4.125   2.082  11.931 -1.8712  1.4444 -0.9103
 1351SOL     OW15511   3.970   1.149   9.362 -0.1308 -0.6589  0.1455
 1351SOL    HW115512   3.905   1.143   9.432 -0.0830  2.5442  0.4793
 1351SOL    HW215513   4.024   1.224   9.390 -0.8364 -0.5598  1.2387
 1352SOL     OW15514   2.549   2.288   3.267  0.0228 -0.1818 -0.1737
 1352SOL    HW115515   2.536   2.237   3.187 -0.1103 -1.2226  0.5185
 1352SOL    HW215516   2.476   2.256   3.319  0.5632  1.3243  1.5053
 1353SOL     OW15517   0.722   0.365   9.809  0.3794 -0.1549  0.0832
 1353SOL    HW115518   0.778   0.367   9.887  2.1618 -1.0217 -1.1611
 1353SOL    HW215519   0.778   0.376   9.731  0.5193 -0.7979  0.0993
 1354SOL     OW15520   2.023   2.253   3.269  0.4638  0.6145  0.1992
 1354SOL    HW115521   2.042   2.163   3.296  0.9821  0.3797 -0.9614
 1354SOL    HW215522   2.023   2.231   3.176 -0.8434 -1.5156  0.7042
 1355SOL     OW15523   1.640   0.272  16.269 -0.1756 -0.2246  0.6110
 1355SOL    HW115524   1.629   0.190  16.317 -0.3798 -0.7285 -0.2947
 1355SOL    HW215525   1.584   0.333  16.318  0.0283 -0.1946  0.8095
 1356SOL     OW15526   1.897   4.363   4.904 -0.1544  0.2224  0.1268
 1356SOL    HW115527   1.953   4.440   4.911  0.4658 -0.1116 -1.1276
 1356SOL    HW215528   1.818   4.407   4.934 -0.4308 -1.3767  1.7390
 1357SOL     OW15529   0.625   1.004   4.596 -0.0187  0.5674  0.4530
 1357SOL    HW115530   0.696   0.981   4.537 -0.1699  1.7816 -0.2200
 1357SOL    HW215531   0.611   1.095   4.569  0.0392 -0.6111 -3.5198
 1358SOL     OW15532   4.429   0.495   6.495  0.0406  0.5367 -0.3599
 1358SOL    HW115533   4.374   0.418   6.505  1.2381 -0.3920 -0.9200
 1358SOL    HW215534   4.478   0.479   6.414 -0.7025  0.0412 -0.7034
 1359SOL     OW15535   1.868   1.154   2.894 -0.2588  0.5862  0.4550
 1359SOL    HW115536   1.926   1.135   2.820  0.9774  0.6604  1.3972
 1359SOL    HW215537   1.927   1.211   2.943  1.0724 -0.8593  0.5307
 1360SOL     OW15538   2.021   2.811   8.183  0.4099 -0.2007  0.2484
 1360SOL    HW115539   1.939   2.826   8.229  1.0380 -0.4398  1.4370
 1360SOL    HW215540   2.083   2.868   8.228  1.6966 -1.8790  0.6175
 1361SOL     OW15541   0.876   2.448   3.890 -0.2930 -0.4025 -0.5329
 1361SOL    HW115542   0.822   2.514   3.931 -3.0838 -1.9110 -1.7967
 1361SOL    HW215543   0.945   2.436   3.955 -1.8246 -1.8530  0.8241
 1362SOL     OW15544   2.568   3.807   3.045 -0.1938 -0.2186 -0.4077
 1362SOL    HW115545   2.482   3.832   3.011 -0.4117 -0.1499  0.1975
 1362SOL    HW215546   2.561   3.795   3.140 -0.6789 -0.7479 -0.5099
 1363SOL     OW15547   2.876   1.708   6.968  0.0670 -0.3820 -0.3301
 1363SOL    HW115548   2.793   1.662   6.951 -0.3121  0.6981 -1.4493
 1363SOL    HW215549   2.843   1.795   6.945  2.0227  0.5554  0.5103
 1364SOL     OW15550   2.929   1.633   7.741 -0.2821  0.2021 -0.1405
 1364SOL    HW115551   2.837   1.615   7.761 -0.2395 -1.2396 -1.2003
 1364SOL    HW215552   2.917   1.691   7.666 -2.8797  0.3235  0.3560
 1365SOL     OW15553   4.009   2.663   9.630 -0.0451  0.7258  0.0430
 1365SOL    HW115554   3.944   2.614   9.681 -0.7512  1.5524 -0.0510
 1365SOL    HW215555   4.036   2.598   9.566  3.4633  1.9141  0.2935
 1366SOL     OW15556   1.741   0.077   4.489  0.3787 -0.1706 -0.3677
 1366SOL    HW115557   1.765   0.112   4.403 -1.4322 -0.0794 -0.8383
 1366SOL    HW215558   1.820   0.111   4.531 -1.2496  2.2280  0.7224
 1367SOL     OW15559   3.928   2.935   7.924  0.3538 -0.2725 -0.2522
 1367SOL    HW115560   3.955   3.027   7.921 -0.3671 -0.0282  0.6056
 1367SOL    HW215561   3.957   2.921   8.014 -0.2474 -3.0530 -0.5110
 1368SOL     OW15562   1.764   3.412   0.384 -0.2223  0.1830 -0.0370
 1368SOL    HW115563   1.675   3.425   0.352 -0.0865 -0.5771 -0.7259
 1368SOL    HW215564   1.750   3.401   0.478  0.8294  1.3331  0.2619
 1369SOL     OW15565   0.702   4.371   7.023 -0.1913  0.3812 -0.2041
 1369SOL    HW115566   0.719   4.278   7.012 -0.6739  0.1980  0.5376
 1369SOL    HW215567   0.767   4.387   7.091 -0.4237 -1.6047  0.4778
 1370SOL     OW15568   3.974   1.598   7.696  0.1940 -0.5965  0.0615
 1370SOL    HW115569   3.935   1.672   7.650 -2.9443 -1.1430  1.8847
 1370SOL    HW215570   3.966   1.529   7.629  1.5432  0.2885 -1.0136
 1371SOL     OW15571   3.536   1.607   4.660 -0.2996 -0.2666 -0.5259
 1371SOL    HW115572   3.562   1.570   4.575 -0.9711  0.6723 -1.1436
 1371SOL    HW215573   3.504   1.528   4.703 -0.0239  0.4654  0.9940
 1372SOL     OW15574   2.386   0.699   6.449  0.0243  0.5238 -0.2606
 1372SOL    HW115575   2.414   0.608   6.457 -1.6053  0.0372 -0.0699
 1372SOL    HW215576   2.309   0.698   6.506 -0.1066  4.8552 -0.3495
 1373SOL     OW15577   3.511   0.077  17.043 -0.2218 -0.8676 -0.2710
 1373SOL    HW115578   3.493   0.016  16.972 -0.0202 -0.1937 -0.8973
 1373SOL    HW215579   3.490   0.157  16.995  1.2729 -1.6392 -2.2010
 1374SOL     OW15580   1.403   1.017  13.539 -0.3683  0.4945  0.3749
 1374SOL    HW115581   1.325   1.013  13.595 -1.2259 -0.3365 -0.8787
 1374SOL    HW215582   1.408   0.925  13.513  0.1609  0.6512 -0.0736
 1375SOL     OW15583   3.327   3.491  10.298 -0.7372 -0.1553  0.4082
 1375SOL    HW115584   3.321   3.422  10.364  0.9963  0.0365  0.7584
 1375SOL    HW215585   3.308   3.567  10.353  0.5548  0.4724 -0.0141
 1376SOL     OW15586   0.787   4.396  14.620  0.3029 -0.4855 -0.4630
 1376SOL    HW115587   0.739   4.424  14.698  0.3564 -1.0410 -0.2345
 1376SOL    HW215588   0.826   4.317  14.658  1.6429  0.9756  1.1989
 1377SOL     OW15589   4.091   1.096   2.585 -0.2762 -0.1395 -0.2638
 1377SOL    HW115590   4.165   1.050   2.626 -0.1082  0.6784  0.3479
 1377SOL    HW215591   4.024   1.028   2.580 -1.2003  0.5946  2.1114
 1378SOL     OW15592   1.439   0.563   1.732 -0.2603  0.1422  0.1590
 1378SOL    HW115593   1.468   0.619   1.659  0.0836 -0.5999 -0.2723
 1378SOL    HW215594   1.372   0.508   1.692  0.0388  0.5492 -0.9073
 1379SOL     OW15595   1.287   2.915  12.108  0.3586  0.4931 -0.2645
 1379SOL    HW115596   1.233   2.873  12.175  0.6230 -0.1371 -0.4467
 1379SOL    HW215597   1.356   2.848  12.106 -1.8806 -1.7854 -1.7227
 1380SOL     OW15598   0.522   0.968   3.358  0.0503 -0.1252 -0.1450
 1380SOL    HW115599   0.476   1.031   3.302  0.8412  2.5555  2.1831
 1380SOL    HW215600   0.456   0.930   3.416 -0.5998  4.4441  2.1178
 1381SOL     OW15601   4.000   3.948   1.990 -0.1888 -0.2769 -0.1879
 1381SOL    HW115602   3.929   4.009   2.005 -0.1729  0.4127 -3.0211
 1381SOL    HW215603   4.003   3.891   2.067 -0.1727  1.5478  1.1387
 1382SOL     OW15604   0.793   4.083   2.413 -0.5200  0.1278  0.0270
 1382SOL    HW115605   0.747   4.149   2.362 -0.2813 -0.4339 -0.9146
 1382SOL    HW215606   0.840   4.043   2.340 -0.5667 -1.1800  0.7053
 1383SOL     OW15607   2.578   4.425   3.413 -0.6899  0.3650  0.5648
 1383SOL    HW115608   2.571   4.403   3.506 -0.6534 -2.6156 -0.1356
 1383SOL    HW215609   2.503   4.380   3.375 -0.9261  1.2574 -0.0213
 1384SOL     OW15610   4.539   4.393   4.346  0.3640 -0.2006  0.4488
 1384SOL    HW115611   4.569   4.321   4.292 -1.1919 -1.5075  1.3348
 1384SOL    HW215612   4.461   4.420   4.297  1.3757 -0.1029 -1.1209
 1385SOL     OW15613   3.298   2.415   4.537  0.1882 -0.0925 -0.0914
 1385SOL    HW115614   3.216   2.371   4.514  0.2846  0.6702 -1.9145
 1385SOL    HW215615   3.269   2.506   4.536 -1.8811 -0.7379  1.1645
 1386SOL     OW15616   1.751   3.005  17.662  0.4264  0.1686 -0.3147
 1386SOL    HW115617   1.681   3.070  17.654  1.4923  1.5076  1.1808
 1386SOL    HW215618   1.705   2.928  17.696  0.7938 -0.5630 -1.4941
 1387SOL     OW15619   3.898   2.166   4.811 -0.7559  0.1323 -0.1674
 1387SOL    HW115620   3.848   2.202   4.738  0.1824 -0.3036 -1.0058
 1387SOL    HW215621   3.922   2.077   4.785 -0.4344  0.2765 -0.3576
 1388SOL     OW15622   2.929   2.442   8.429  0.3363  0.2392 -0.3584
 1388SOL    HW115623   2.963   2.465   8.342 -0.5160 -2.3413 -1.4009
 1388SOL    HW215624   3.000   2.473   8.485  0.1798  0.5696 -0.3433
 1389SOL     OW15625   4.527   1.256   4.567  0.3079  0.8306  0.3162
 1389SOL    HW115626   4.593   1.280   4.632  0.7848 -0.4182  0.2906
 1389SOL    HW215627   4.534   1.161   4.556  0.2396  0.9169 -0.5305
 1390SOL     OW15628   2.945   2.527  15.289  0.0488 -0.4722  0.0864
 1390SOL    HW115629   2.921   2.482  15.370  2.4931 -1.6487  0.1343
 1390SOL    HW215630   2.872   2.500  15.233  0.1503 -1.8787  0.6202
 1391SOL     OW15631   2.569   0.614   3.793  0.1631  0.2274 -0.0449
 1391SOL    HW115632   2.518   0.648   3.866 -1.8887 -3.4402  0.2117
 1391SOL    HW215633   2.588   0.694   3.744 -0.1375  0.3212 -0.0061
 1392SOL     OW15634   2.437   4.690   9.841  0.0192  0.5575  0.3454
 1392SOL    HW115635   2.383   4.613   9.824  1.5262 -1.1104  3.3005
 1392SOL    HW215636   2.469   4.663   9.927  0.6347 -0.3822 -0.1871
 1393SOL     OW15637   0.441   0.003  16.197 -0.1300 -0.3284 -0.1713
 1393SOL    HW115638   0.495   0.077  16.168  1.4554 -1.1760  0.5797
 1393SOL    HW215639   0.504   4.669  16.241 -0.8734 -0.2594  0.9645
 1394SOL     OW15640   4.633   0.089  15.298  0.0133  0.6578  0.5980
 1394SOL    HW115641   4.659   0.170  15.340  1.9791  0.7643 -0.8402
 1394SOL    HW215642   4.540   0.107  15.310 -0.0800 -0.4052  1.4994
 1395SOL     OW15643   2.621   4.667   5.467  0.4833 -0.3142  0.1362
 1395SOL    HW115644   2.653   0.009   5.528  0.6651 -0.4653  0.2022
 1395SOL    HW215645   2.615   4.720   5.387 -0.0468  1.6317  1.4604
 1396SOL     OW15646   0.863   2.949   1.041  0.1337 -0.0601 -0.2037
 1396SOL    HW115647   0.820   2.970   1.123 -1.2276 -0.0719 -0.9117
 1396SOL    HW215648   0.831   3.022   0.988  3.1063  2.0820  0.9625
 1397SOL     OW15649   1.126   1.518   3.407  0.5663  0.5627  0.7841
 1397SOL    HW115650   1.148   1.517   3.500 -1.4266 -1.5133  1.2071
 1397SOL    HW215651   1.182   1.446   3.379 -0.4846  0.2771 -0.5887
 1398SOL     OW15652   1.276   3.957   9.823  0.6762  0.4439 -0.2766
 1398SOL    HW115653   1.332   3.949   9.746 -0.0753 -1.0281 -0.6746
 1398SOL    HW215654   1.335   3.898   9.870  1.1657 -0.0375 -1.4902
 1399SOL     OW15655   1.070   3.772   7.134 -0.1044 -0.3111  0.2197
 1399SOL    HW115656   1.132   3.739   7.199  0.5963 -1.7403 -1.1890
 1399SOL    HW215657   1.133   3.827   7.087 -0.9700 -1.1129 -1.8559
 1400SOL     OW15658   0.760   0.982   9.886  0.1065 -0.2963 -0.1503
 1400SOL    HW115659   0.854   1.000   9.892 -0.0283  0.2036  0.4933
 1400SOL    HW215660   0.759   0.912   9.951  1.6788 -0.2948 -0.1197
 1401SOL     OW15661   3.723   2.095  12.680  0.0965 -0.2289  0.4478
 1401SOL    HW115662   3.749   2.032  12.747  2.3604 -3.2050 -3.2567
 1401SOL    HW215663   3.688   2.165  12.735  2.9207 -0.3661  2.4352
 1402SOL     OW15664   1.626   0.794   4.127 -0.0997 -0.6594 -0.1092
 1402SOL    HW115665   1.716   0.817   4.106 -0.0667 -0.1087  0.6777
 1402SOL    HW215666   1.649   0.729   4.194  0.8503  0.6290  0.7965
 1403SOL     OW15667   2.643   4.712   4.663  0.7921 -0.3010 -0.3276
 1403SOL    HW115668   2.551   4.689   4.649  0.5938  0.8732 -0.9768
 1403SOL    HW215669   2.646   0.079   4.633 -2.4885  0.5101  1.8090
 1404SOL     OW15670   1.811   3.101   0.728 -0.9066  0.3857  0.3717
 1404SOL    HW115671   1.905   3.117   0.738 -0.7775 -0.1843  0.0679
 1404SOL    HW215672   1.817   3.068   0.639  0.4269 -2.1778  1.4076
 1405SOL     OW15673   1.365   2.333   0.593  0.8986  0.6269  0.3609
 1405SOL    HW115674   1.440   2.305   0.540  0.2465  0.3265 -0.4020
 1405SOL    HW215675   1.291   2.297   0.545 -0.3292 -0.0854  2.8069
 1406SOL     OW15676   2.881   2.441   7.685  0.1480  0.2654  0.7410
 1406SOL    HW115677   2.851   2.460   7.597 -1.5525  0.5532  1.3873
 1406SOL    HW215678   2.970   2.474   7.679 -0.3953  1.2905 -1.3592
 1407SOL     OW15679   0.959   3.339   1.947  0.3017  0.4379  0.0746
 1407SOL    HW115680   0.993   3.297   1.868  2.1806  3.3226 -0.6448
 1407SOL    HW215681   0.918   3.420   1.914  3.0820  2.1800  0.9511
 1408SOL     OW15682   2.325   0.534  14.506 -0.0520 -0.0014  0.8576
 1408SOL    HW115683   2.409   0.579  14.498 -0.3068  0.2462 -0.4568
 1408SOL    HW215684   2.351   0.444  14.483  1.3207  0.8518 -0.9484
 1409SOL     OW15685   0.533   3.160   6.720 -0.8821  0.5968 -0.1629
 1409SOL    HW115686   0.503   3.249   6.699 -1.1445  0.0748 -2.0258
 1409SOL    HW215687   0.617   3.176   6.763  0.3377 -0.3918 -2.1802
 1410SOL     OW15688   3.157   1.530   7.428 -0.3874 -0.4762 -0.4798
 1410SOL    HW115689   3.107   1.469   7.482 -1.6419  1.2334  0.3288
 1410SOL    HW215690   3.232   1.549   7.484  0.5878  2.2313 -2.7065
 1411SOL     OW15691   3.154   0.955   9.011 -1.1450 -0.1923  0.0334
 1411SOL    HW115692   3.196   0.965   8.925  0.5589  0.8179  0.9803
 1411SOL    HW215693   3.220   0.896   9.046  0.9969  2.5654  0.7046
 1412SOL     OW15694   1.678   4.498   3.492 -0.0443  0.0343  0.4058
 1412SOL    HW115695   1.587   4.504   3.461  0.3444  1.2345 -0.4664
 1412SOL    HW215696   1.713   4.579   3.456 -0.1913  0.1636  0.5536
 1413SOL     OW15697   1.959   0.954  12.995 -0.4651 -0.0130  0.3035
 1413SOL    HW115698   2.038   1.005  13.016 -0.3807 -0.9104  2.1905
 1413SOL    HW215699   1.902   1.031  12.995 -0.9596 -0.3794 -0.0855
 1414SOL     OW15700   0.492   2.083  10.411 -0.5631 -1.1027 -0.3381
 1414SOL    HW115701   0.405   2.116  10.390 -0.7484 -1.4089 -0.0574
 1414SOL    HW215702   0.510   2.116  10.499  1.6682 -2.7162 -0.2050
 1415SOL     OW15703   2.802   1.300   7.836 -0.0519  0.2137 -0.0559
 1415SOL    HW115704   2.804   1.228   7.772  1.3274 -0.7434  1.0465
 1415SOL    HW215705   2.716   1.300   7.878  0.6177 -0.6285  1.3480
 1416SOL     OW15706   2.344   3.475  14.936  0.3604 -0.1397 -0.2325
 1416SOL    HW115707   2.429   3.493  14.896  0.9985  1.7126  1.9912
 1416SOL    HW215708   2.344   3.537  15.009 -2.7104 -0.8765  0.3696
 1417SOL     OW15709   2.809   1.365   6.081  0.2738  0.1402 -0.6747
 1417SOL    HW115710   2.891   1.331   6.117 -0.2791  1.4142  1.8227
 1417SOL    HW215711   2.808   1.323   5.995  1.5760  1.4090 -1.3295
 1418SOL     OW15712   4.298   3.750   9.867  0.5304  0.6956  0.2593
 1418SOL    HW115713   4.203   3.754   9.872  0.4382 -0.2265 -0.8455
 1418SOL    HW215714   4.313   3.844   9.855  1.5337  0.8258  2.4646
 1419SOL     OW15715   3.166   2.716  11.446  0.4264  0.3695  0.1073
 1419SOL    HW115716   3.192   2.677  11.362  1.4830  1.3554 -0.0276
 1419SOL    HW215717   3.148   2.807  11.420 -1.8611 -0.1569 -0.1707
 1420SOL     OW15718   0.840   3.816   3.881 -0.1243 -0.2091  0.0391
 1420SOL    HW115719   0.828   3.907   3.853  0.0056 -0.3124 -0.3618
 1420SOL    HW215720   0.897   3.792   3.808  0.1477 -0.2942  0.2788
 1421SOL     OW15721   4.576   2.645   8.091  0.0802 -0.0040  0.2754
 1421SOL    HW115722   4.586   2.696   8.171  0.2634  1.0105 -0.4026
 1421SOL    HW215723   4.652   2.665   8.036 -0.8084  0.6317 -0.7184
 1422SOL     OW15724   2.350   2.498   5.793  0.3111 -0.5866 -0.6898
 1422SOL    HW115725   2.323   2.457   5.711  0.4039 -2.1766  0.0681
 1422SOL    HW215726   2.297   2.578   5.801 -0.4847 -1.0716 -1.1106
 1423SOL     OW15727   0.465   3.227   4.173 -0.1843 -0.2707 -0.5562
 1423SOL    HW115728   0.419   3.262   4.097 -1.8948  1.6632  1.3775
 1423SOL    HW215729   0.522   3.157   4.141  0.0825 -0.1495 -0.3469
 1424SOL     OW15730   3.469   1.051   4.739  0.2109  0.7819  0.0136
 1424SOL    HW115731   3.421   0.987   4.686  0.6984  2.7379 -2.7788
 1424SOL    HW215732   3.453   1.013   4.825 -0.0753  0.3555 -0.2293
 1425SOL     OW15733   3.475   2.011   4.699 -0.1778 -0.6004 -0.2565
 1425SOL    HW115734   3.565   1.984   4.679 -0.0050 -0.8075  0.7612
 1425SOL    HW215735   3.455   1.970   4.783 -0.0974  0.0326  0.0768
 1426SOL     OW15736   4.406   3.363   3.866 -0.2464 -0.2499  0.9166
 1426SOL    HW115737   4.472   3.312   3.914  0.5929 -2.1168 -2.2577
 1426SOL    HW215738   4.371   3.309   3.796  0.6622 -0.7523  0.8548
 1427SOL     OW15739   0.637   0.575   2.684  0.4019 -0.2683  0.0341
 1427SOL    HW115740   0.588   0.543   2.609  0.6496  0.9264 -0.6238
 1427SOL    HW215741   0.727   0.566   2.651 -0.1875 -0.2847 -1.5304
 1428SOL     OW15742   3.306   4.088   0.423 -0.0456 -0.0180  0.4987
 1428SOL    HW115743   3.365   4.028   0.377  1.3356  0.4896  1.6190
 1428SOL    HW215744   3.328   4.079   0.515  2.2085 -2.8176 -0.2818
 1429SOL     OW15745   2.138   2.739  10.671  0.1771 -0.3779 -0.6212
 1429SOL    HW115746   2.160   2.796  10.744 -0.8826  1.8665 -2.0453
 1429SOL    HW215747   2.095   2.665  10.714  1.4327 -1.5214 -1.3030
 1430SOL     OW15748   3.624   1.214  15.522 -0.0595 -0.0598  0.5176
 1430SOL    HW115749   3.618   1.224  15.617 -1.3580  3.2507  0.0897
 1430SOL    HW215750   3.662   1.295  15.490 -0.4239 -0.1299 -0.0868
 1431SOL     OW15751   1.637   3.568   1.409  0.2021 -0.3954  0.4441
 1431SOL    HW115752   1.640   3.644   1.467  1.0162  0.5491 -0.8212
 1431SOL    HW215753   1.543   3.548   1.413  0.6805 -2.9496 -1.4239
 1432SOL     OW15754   3.665   2.094   9.547  0.0137 -0.3867  0.2546
 1432SOL    HW115755   3.599   2.108   9.615  0.2526 -0.9036  0.5957
 1432SOL    HW215756   3.607   2.066   9.476 -0.6836 -0.7784  0.9716
 1433SOL     OW15757   0.072   4.082   9.851 -0.0070 -0.1485  0.1105
 1433SOL    HW115758   0.058   4.146   9.921 -0.3867  0.3167 -0.3812
 1433SOL    HW215759   0.134   4.017   9.884  0.0184  0.6715  1.6564
 1434SOL     OW15760   2.382   4.442  17.672  0.4438  0.4569  0.2340
 1434SOL    HW115761   2.364   4.390   0.052  0.8883 -0.7584 -0.4699
 1434SOL    HW215762   2.478   4.449  17.668  0.6420 -1.6739  1.2571
 1435SOL     OW15763   2.221   0.296   5.227  0.5899 -0.2082  0.3100
 1435SOL    HW115764   2.154   0.314   5.161  1.0281  1.1297  0.2430
 1435SOL    HW215765   2.291   0.348   5.190 -0.2403 -1.7669 -3.4878
 1436SOL     OW15766   1.563   1.700   9.944  0.4078  0.2639 -0.0699
 1436SOL    HW115767   1.467   1.697   9.945  0.4634 -0.6766  2.6984
 1436SOL    HW215768   1.580   1.606   9.934  0.1305  0.4948 -2.6725
 1437SOL     OW15769   1.427   0.856   0.868 -0.1523 -0.1108 -0.2588
 1437SOL    HW115770   1.371   0.798   0.918 -1.8322  2.2936  0.6793
 1437SOL    HW215771   1.515   0.829   0.893  0.7937  1.1391 -2.1249
 1438SOL     OW15772   2.905   3.638   0.480 -0.1603 -0.4941  0.5766
 1438SOL    HW115773   2.850   3.652   0.557  0.1993 -1.5398  1.0305
 1438SOL    HW215774   2.869   3.554   0.453 -0.7268 -0.1193  0.1733
 1439SOL     OW15775   2.711   0.971   8.180 -0.1674  0.6470  0.1277
 1439SOL    HW115776   2.627   0.971   8.225 -1.0195  2.4677 -1.4574
 1439SOL    HW215777   2.758   0.897   8.217 -0.6368  0.9250  1.2812
 1440SOL     OW15778   3.065   0.506  14.689  0.0104 -0.5203  0.0250
 1440SOL    HW115779   3.087   0.414  14.704  0.2211 -0.6223 -0.9001
 1440SOL    HW215780   3.134   0.540  14.746  0.9186 -0.6074 -1.0242
 1441SOL     OW15781   3.349   1.352   4.984 -0.0235  0.1442  0.4590
 1441SOL    HW115782   3.375   1.442   5.006  2.2848 -0.8484  1.8532
 1441SOL    HW215783   3.438   1.316   4.981 -0.4764 -0.8693 -0.8712
 1442SOL     OW15784   0.512   4.478   4.505 -0.0213  0.3489  0.0720
 1442SOL    HW115785   0.546   4.428   4.431 -0.0752  0.3932  0.0175
 1442SOL    HW215786   0.420   4.486   4.481 -0.0913  2.2369  0.9871
 1443SOL     OW15787   0.594   0.004   6.993  0.5870 -0.0064  0.1462
 1443SOL    HW115788   0.560   4.688   6.914 -1.6052 -0.8054  1.4840
 1443SOL    HW215789   0.688   0.008   6.977 -0.1442  2.0665 -3.5979
 1444SOL     OW15790   1.014   1.472   4.103 -0.9663 -0.4616  0.3899
 1444SOL    HW115791   1.027   1.391   4.152 -1.7965 -1.2987 -0.7643
 1444SOL    HW215792   0.937   1.457   4.048 -3.0795  1.3476  2.8475
 1445SOL     OW15793   3.055   1.790   9.774 -0.4074  0.7258  0.2239
 1445SOL    HW115794   3.039   1.776   9.867  3.3487 -0.6262  0.6910
 1445SOL    HW215795   2.974   1.827   9.740  0.0750 -0.2679 -2.0370
 1446SOL     OW15796   3.510   1.221   2.470  0.7477  0.1051 -0.3011
 1446SOL    HW115797   3.580   1.286   2.462 -0.5589  1.3433 -1.6147
 1446SOL    HW215798   3.533   1.155   2.405 -0.1464 -0.9696  0.4867
 1447SOL     OW15799   2.081   4.151  14.366  0.3676  0.1834  0.4660
 1447SOL    HW115800   2.175   4.169  14.367  0.4625 -0.3340  0.9739
 1447SOL    HW215801   2.068   4.109  14.281  1.3341 -0.6156  0.7085
 1448SOL     OW15802   0.826   1.003   4.428 -0.4295 -0.2165  0.2373
 1448SOL    HW115803   0.911   0.963   4.448 -0.1120  0.4177  0.1709
 1448SOL    HW215804   0.835   1.097   4.446 -0.1633 -0.6319  2.2207
 1449SOL     OW15805   2.368   4.066   4.278  0.0715  0.7883  0.5198
 1449SOL    HW115806   2.370   4.145   4.333 -0.1559  0.3852  1.1128
 1449SOL    HW215807   2.273   4.050   4.274  0.0795  0.7987  0.3089
 1450SOL     OW15808   2.035   1.524  14.002  0.4539 -0.2061 -0.1370
 1450SOL    HW115809   1.944   1.507  14.027 -0.1188 -0.5809 -2.4824
 1450SOL    HW215810   2.026   1.565  13.916  0.4154  1.4382  0.6481
 1451SOL     OW15811   3.981   0.177   0.121  0.7732  0.1042  0.3430
 1451SOL    HW115812   3.907   0.230   0.152  0.4941  0.6025 -1.1930
 1451SOL    HW215813   4.047   0.236   0.086  0.6813  0.5917  1.0018
 1452SOL     OW15814   2.174   2.951   8.339  0.4876  0.0002 -0.6638
 1452SOL    HW115815   2.268   2.934   8.350 -0.1950 -1.6405  2.8745
 1452SOL    HW215816   2.160   2.998   8.421 -0.0467 -1.2813 -0.0053
 1453SOL     OW15817   0.630   0.120   4.608  0.3796 -0.4054 -0.3338
 1453SOL    HW115818   0.723   0.104   4.622  0.0649 -0.8065  1.3654
 1453SOL    HW215819   0.622   0.088   4.518  2.7699 -0.0743 -0.6614
 1454SOL     OW15820   4.107   0.939   4.871  0.2283  0.0481 -0.4510
 1454SOL    HW115821   4.095   0.908   4.961  1.9643 -1.5325 -0.7560
 1454SOL    HW215822   4.014   0.936   4.851 -0.0300 -1.6511  0.9805
 1455SOL     OW15823   2.082   2.530   1.640 -0.3275 -0.0693 -0.1638
 1455SOL    HW115824   2.064   2.617   1.604  0.6330 -0.8251 -2.4807
 1455SOL    HW215825   2.123   2.549   1.724 -1.7642 -1.0388  0.7510
 1456SOL     OW15826   2.662   3.663   7.741 -0.5686  0.1559  0.4045
 1456SOL    HW115827   2.638   3.605   7.813 -1.3733 -3.0564 -2.3901
 1456SOL    HW215828   2.755   3.663   7.763 -0.4917 -1.1955  0.1073
 1457SOL     OW15829   1.995   0.619   9.525  0.0987 -0.3554 -0.4429
 1457SOL    HW115830   2.000   0.691   9.588 -0.4146 -0.1755 -0.6120
 1457SOL    HW215831   2.038   0.657   9.448 -0.9070  0.3292 -0.6590
 1458SOL     OW15832   1.874   3.097   2.706 -0.3004  0.1298 -0.1725
 1458SOL    HW115833   1.869   3.056   2.792  1.1824  0.0528 -0.1188
 1458SOL    HW215834   1.890   3.018   2.654 -1.7351  0.0966 -0.5674
 1459SOL     OW15835   4.479   4.680   5.791 -0.5647 -0.5362 -1.0789
 1459SOL    HW115836   4.479   0.050   5.806 -1.7062 -0.9721  1.5854
 1459SOL    HW215837   4.517   4.687   5.704  0.7600 -0.2634 -0.4820
 1460SOL     OW15838   2.068   2.344  16.250  0.0574 -0.3104  0.5548
 1460SOL    HW115839   2.085   2.407  16.180 -1.2635 -0.9270 -0.3138
 1460SOL    HW215840   2.001   2.392  16.299  0.9704 -1.6898  3.1489
 1461SOL     OW15841   2.571   3.173   2.527 -0.6213  0.4438 -0.1879
 1461SOL    HW115842   2.598   3.264   2.543  3.5320 -1.0352  1.1610
 1461SOL    HW215843   2.653   3.132   2.504  0.3760  2.2400  0.1546
 1462SOL     OW15844   2.556   1.560  12.259  0.0922 -0.4634  0.0068
 1462SOL    HW115845   2.538   1.650  12.230 -0.9600 -0.8317 -0.4843
 1462SOL    HW215846   2.469   1.525  12.243 -0.4065  0.8326 -0.1122
 1463SOL     OW15847   1.802   4.355   6.810  0.0403 -0.5711 -0.4564
 1463SOL    HW115848   1.755   4.280   6.847 -0.0347 -0.3090 -0.0119
 1463SOL    HW215849   1.859   4.371   6.885 -2.9758  0.2011  1.7065
 1464SOL     OW15850   1.808   4.463   6.424  0.1263 -0.4283  0.0073
 1464SOL    HW115851   1.902   4.445   6.426 -0.0453 -1.5982 -2.2538
 1464SOL    HW215852   1.775   4.446   6.512  1.5038 -0.3292  0.5390
 1465SOL     OW15853   2.829   2.786  12.394 -0.0072 -0.0832  0.0946
 1465SOL    HW115854   2.817   2.864  12.449  0.2632 -1.8422  2.6322
 1465SOL    HW215855   2.742   2.763  12.362  1.6992 -3.1038 -2.3585
 1466SOL     OW15856   1.592   3.429   0.029  0.1310 -0.3763  0.3045
 1466SOL    HW115857   1.542   3.427   0.111 -1.4455  3.2827 -0.5579
 1466SOL    HW215858   1.682   3.431   0.062 -0.4248  0.9081  1.7664
 1467SOL     OW15859   1.112   1.374   7.907  0.4053  0.0778  0.2309
 1467SOL    HW115860   1.051   1.390   7.979 -0.7174 -1.2895 -0.4388
 1467SOL    HW215861   1.080   1.292   7.871 -0.4053  0.5287 -0.0633
 1468SOL     OW15862   4.112   0.327   7.735  0.4762 -0.8142 -0.1193
 1468SOL    HW115863   4.068   0.248   7.767  1.0188 -0.8902  0.4349
 1468SOL    HW215864   4.202   0.324   7.768  0.9770  1.8430 -1.1918
 1469SOL     OW15865   3.627   1.063   8.397  0.6504 -0.1771 -0.0268
 1469SOL    HW115866   3.702   1.065   8.456  1.2258  1.3854 -0.8173
 1469SOL    HW215867   3.661   1.066   8.307 -1.3714 -2.1325 -0.8414
 1470SOL     OW15868   0.379   2.913  11.378  0.0812 -0.3761  0.5362
 1470SOL    HW115869   0.462   2.882  11.415 -1.6644 -2.0136  3.1371
 1470SOL    HW215870   0.411   2.966  11.305 -1.3434  0.0045  0.1883
 1471SOL     OW15871   1.022   2.212  17.287 -0.6669 -0.1036 -0.9007
 1471SOL    HW115872   0.993   2.121  17.295 -0.2707  0.1782  3.8198
 1471SOL    HW215873   1.019   2.210  17.191  0.8688  0.2611 -0.9512
 1472SOL     OW15874   3.467   4.217   7.657  0.1581  0.5220 -0.0183
 1472SOL    HW115875   3.514   4.135   7.645 -1.3770 -0.4896  0.9126
 1472SOL    HW215876   3.490   4.245   7.745  1.9258  0.7102 -0.5497
 1473SOL     OW15877   1.213   1.506  12.280  0.1543  0.2026  0.2008
 1473SOL    HW115878   1.188   1.583  12.229  0.9417  1.7057  2.0764
 1473SOL    HW215879   1.306   1.497  12.261 -0.1285 -0.1003 -1.0522
 1474SOL     OW15880   3.294   0.647   2.714  0.1410 -0.1426  0.7878
 1474SOL    HW115881   3.316   0.559   2.745 -1.2836 -0.8327 -0.1382
 1474SOL    HW215882   3.356   0.657   2.643 -0.4377  1.6544  0.5569
 1475SOL     OW15883   1.590   0.053   7.743  0.1003 -0.2693  0.5324
 1475SOL    HW115884   1.610   4.699   7.795 -1.7428 -0.0937  1.5144
 1475SOL    HW215885   1.533   0.016   7.676  2.9701 -2.6968 -0.5534
 1476SOL     OW15886   2.533   3.706  11.812 -0.1704  0.3834  0.3588
 1476SOL    HW115887   2.536   3.800  11.799 -2.6272  0.5737  1.1968
 1476SOL    HW215888   2.591   3.698  11.888 -2.2832 -1.3210  1.8039
 1477SOL     OW15889   1.502   2.865   6.950 -0.0041  0.4307 -0.2469
 1477SOL    HW115890   1.433   2.798   6.942  3.3150 -2.8590 -1.3135
 1477SOL    HW215891   1.564   2.833   6.885 -0.9007 -0.9872 -0.4080
 1478SOL     OW15892   2.577   0.396   7.018 -0.3448 -0.2221  0.4993
 1478SOL    HW115893   2.559   0.464   6.953 -1.9158  0.1761  1.3481
 1478SOL    HW215894   2.672   0.392   7.016 -0.2921  1.4095  0.0098
 1479SOL     OW15895   1.571   2.818   2.513  0.1380 -0.0591  0.5063
 1479SOL    HW115896   1.502   2.880   2.490 -0.5342 -0.2068  2.1562
 1479SOL    HW215897   1.583   2.766   2.434  1.7623  1.9090 -0.5526
 1480SOL     OW15898   2.667   1.283   4.719 -0.3613  0.1611  0.4160
 1480SOL    HW115899   2.702   1.332   4.645  0.4111  0.1498  0.7776
 1480SOL    HW215900   2.703   1.194   4.712  1.2066  0.9450 -1.3175
 1481SOL     OW15901   0.427   1.612   8.139 -0.2779  0.2298  0.0497
 1481SOL    HW115902   0.352   1.635   8.195 -0.6965  0.1713 -0.4800
 1481SOL    HW215903   0.497   1.664   8.177 -0.1454 -1.0161  1.5130
 1482SOL     OW15904   2.770   2.526   6.232 -0.4296  0.3167 -0.2304
 1482SOL    HW115905   2.805   2.608   6.200 -1.2446  0.6599 -0.2370
 1482SOL    HW215906   2.855   2.485   6.247  0.5145  1.8526 -1.4407
 1483SOL     OW15907   2.673   4.300   4.797 -0.4643  0.6093 -0.1886
 1483SOL    HW115908   2.734   4.282   4.726  0.4570  1.9543  0.2830
 1483SOL    HW215909   2.636   4.214   4.818 -1.2180  0.7255 -1.0079
 1484SOL     OW15910   2.241   2.072   7.270 -0.4460  0.2318 -0.0593
 1484SOL    HW115911   2.278   1.994   7.228 -0.4911  0.5588 -0.7143
 1484SOL    HW215912   2.304   2.087   7.340 -0.6862 -1.9698  0.6332
 1485SOL     OW15913   0.281   3.496   3.464  0.9546  0.0044 -0.1836
 1485SOL    HW115914   0.204   3.543   3.432  1.2152  0.0010 -0.8208
 1485SOL    HW215915   0.245   3.408   3.470 -1.9823  1.2497  0.3396
 1486SOL     OW15916   4.519   1.943   5.230  0.4881 -0.5915 -0.0342
 1486SOL    HW115917   4.501   1.902   5.145  0.2486 -1.8420  0.6275
 1486SOL    HW215918   4.588   2.005   5.208  1.8880 -2.4087 -0.7887
 1487SOL     OW15919   3.124   1.918   7.647 -0.3598  0.7797 -0.0901
 1487SOL    HW115920   3.200   1.895   7.594 -1.0436 -1.2756 -0.2042
 1487SOL    HW215921   3.051   1.878   7.599  0.5453 -1.0006  0.0305
 1488SOL     OW15922   2.687   2.339  17.341  0.1642 -0.2357 -0.3742
 1488SOL    HW115923   2.728   2.372  17.421  1.2232  0.6669 -1.2933
 1488SOL    HW215924   2.729   2.372  17.262 -0.3182 -0.3218 -0.6668
 1489SOL     OW15925   3.399   1.829  13.538  0.3527 -0.6923 -0.0415
 1489SOL    HW115926   3.385   1.880  13.618 -0.2905  0.3605 -0.8272
 1489SOL    HW215927   3.477   1.780  13.565  0.2751 -0.5808  0.3844
 1490SOL     OW15928   3.446   2.822   6.340 -0.0119  0.3115  0.0465
 1490SOL    HW115929   3.533   2.837   6.378  1.0725  2.5859 -3.4343
 1490SOL    HW215930   3.456   2.861   6.254  2.2326 -4.4864 -1.7930
 1491SOL     OW15931   0.529   0.478   3.332  0.8466 -0.2515 -0.2351
 1491SOL    HW115932   0.506   0.386   3.322  2.7410 -0.9173  1.4533
 1491SOL    HW215933   0.614   0.467   3.290  0.3273  2.4919 -2.0432
 1492SOL     OW15934   1.845   2.930   2.933  0.0406  0.0471  0.5918
 1492SOL    HW115935   1.855   2.961   3.023  1.5241  0.6432  0.2235
 1492SOL    HW215936   1.873   2.839   2.938  1.8890  0.4726 -2.0738
 1493SOL     OW15937   1.734   1.055   7.618 -0.1951  0.5618  0.0792
 1493SOL    HW115938   1.736   1.148   7.638  0.5310  0.9775 -1.8705
 1493SOL    HW215939   1.801   1.021   7.678  1.0746 -0.7300 -2.0647
 1494SOL     OW15940   0.965   4.014   7.164  0.3138 -0.0581 -0.3735
 1494SOL    HW115941   0.996   3.923   7.161 -1.0393 -0.4980 -0.8904
 1494SOL    HW215942   0.873   3.993   7.178 -0.4106  2.1647 -1.8192
 1495SOL     OW15943   4.485   2.953   8.311 -0.2160 -0.2906 -0.9038
 1495SOL    HW115944   4.578   2.945   8.292  0.3888 -0.1445  1.9468
 1495SOL    HW215945   4.467   2.860   8.319  1.2053 -0.6222 -1.7967
 1496SOL     OW15946   0.558   0.577   7.373  0.2016 -0.1198  0.1047
 1496SOL    HW115947   0.559   0.665   7.335  0.7073 -1.1120 -2.2170
 1496SOL    HW215948   0.598   0.521   7.306 -0.4744  0.3693 -0.7205
 1497SOL     OW15949   2.533   3.390   4.043  0.0034  0.5875  0.0699
 1497SOL    HW115950   2.456   3.445   4.025  1.0432  2.1452  0.4529
 1497SOL    HW215951   2.537   3.360   3.952  0.5821  0.8187  0.0211
 1498SOL     OW15952   1.974   2.146  17.086  0.8803 -0.2626  0.2613
 1498SOL    HW115953   2.039   2.195  17.136  0.4711 -1.7636  2.2588
 1498SOL    HW215954   1.920   2.222  17.063 -0.0968 -1.7323 -2.2924
 1499SOL     OW15955   3.006   4.024  11.945  0.1882  0.2574  0.4445
 1499SOL    HW115956   2.970   3.936  11.956  1.3060 -0.2009  0.4772
 1499SOL    HW215957   3.090   4.005  11.902  0.5420  0.6345  0.9635
 1500SOL     OW15958   1.042   3.260  14.043  0.0691 -0.3780 -0.6281
 1500SOL    HW115959   1.056   3.166  14.038  0.4856 -0.3320 -0.2390
 1500SOL    HW215960   1.123   3.286  13.999  2.2087 -2.2387  2.2488
 1501SOL     OW15961   1.602   2.495   9.838  0.1013  0.7811  0.5712
 1501SOL    HW115962   1.540   2.544   9.890 -0.0419  1.4061 -0.1928
 1501SOL    HW215963   1.681   2.544   9.859  0.0507  1.8024 -1.6242
 1502SOL     OW15964   2.676   4.474   8.447 -0.2689  0.7118 -0.2962
 1502SOL    HW115965   2.656   4.568   8.446  0.8274  0.9439 -2.1461
 1502SOL    HW215966   2.631   4.446   8.367  0.8258 -0.0431 -0.6396
 1503SOL     OW15967   2.355   4.709   5.108 -0.0885  0.3967 -0.3675
 1503SOL    HW115968   2.433   0.037   5.130 -0.5682  0.5464  0.9728
 1503SOL    HW215969   2.329   0.024   5.025 -1.8895  1.6032  0.7676
 1504SOL     OW15970   4.197   2.527   8.464  0.2942 -0.2721 -0.1360
 1504SOL    HW115971   4.187   2.435   8.438 -0.6048 -0.0561 -0.5905
 1504SOL    HW215972   4.106   2.553   8.449  0.6009  1.5784  1.1846
 1505SOL     OW15973   1.263   0.044  12.359  0.0103 -0.0252  0.0639
 1505SOL    HW115974   1.230   4.712  12.429 -1.0012  1.4500  0.7672
 1505SOL    HW215975   1.230   0.128  12.390 -0.7659  0.3337 -1.7176
 1506SOL     OW15976   2.136   3.094  14.751 -0.2702  0.4885 -0.0237
 1506SOL    HW115977   2.188   3.154  14.805 -0.6639  1.2550 -0.4949
 1506SOL    HW215978   2.189   3.020  14.780  0.0048  1.4543  1.9378
 1507SOL     OW15979   2.682   0.883   6.160 -0.1772  0.5746  0.2892
 1507SOL    HW115980   2.721   0.908   6.076 -0.0489  0.0452  0.1934
 1507SOL    HW215981   2.590   0.882   6.136 -0.7229 -1.7011  2.4232
 1508SOL     OW15982   2.230   2.655   5.005  0.2448 -0.1948  0.2014
 1508SOL    HW115983   2.147   2.641   5.051  0.5811  0.2957  0.9500
 1508SOL    HW215984   2.203   2.712   4.933 -3.7740  0.6259  2.3416
 1509SOL     OW15985   3.753   1.993   4.019 -0.0759  0.2473 -0.2252
 1509SOL    HW115986   3.832   2.022   3.973  1.0285 -0.6242  1.1083
 1509SOL    HW215987   3.689   2.059   3.993  1.1039  1.0455 -1.0856
 1510SOL     OW15988   1.825   1.908   1.016  0.4005 -0.3360 -0.1940
 1510SOL    HW115989   1.863   1.828   0.979  0.2051 -0.7743  0.5498
 1510SOL    HW215990   1.788   1.867   1.094  1.7698 -2.8372 -0.8643
 1511SOL     OW15991   3.612   0.838   2.676 -0.2376  0.0436 -0.2518
 1511SOL    HW115992   3.600   0.781   2.600 -0.1628 -0.9684  0.4844
 1511SOL    HW215993   3.590   0.776   2.746 -2.0683  1.6969  0.6229
 1512SOL     OW15994   2.300   4.185   6.563 -0.0655  0.1840 -0.3724
 1512SOL    HW115995   2.284   4.101   6.519 -0.7827 -1.5305  3.1464
 1512SOL    HW215996   2.220   4.194   6.615 -0.1763 -4.0636  0.2690
 1513SOL     OW15997   0.057   4.610   9.242  0.3462 -0.0392  0.2101
 1513SOL    HW115998   0.094   4.695   9.264 -1.0191  0.6401 -0.1132
 1513SOL    HW215999   0.112   4.581   9.169  2.5176 -0.0294  1.8524
 1514SOL     OW16000   2.932   3.784   4.232 -0.3118 -0.8145 -0.1418
 1514SOL    HW116001   2.950   3.854   4.296 -0.9447 -2.4295  1.7815
 1514SOL    HW216002   3.019   3.771   4.194  0.2773 -0.1276  0.9696
 1515SOL     OW16003   0.673   3.382   3.294 -0.0841 -0.0280  0.1822
 1515SOL    HW116004   0.695   3.465   3.251 -0.3511 -0.4375 -0.7518
 1515SOL    HW216005   0.762   3.348   3.308  0.9688  3.0993  1.1616
 1516SOL     OW16006   0.227   3.501   5.780  0.3181  0.3405 -0.2594
 1516SOL    HW116007   0.276   3.582   5.777  0.8894  0.0220  0.4666
 1516SOL    HW216008   0.135   3.528   5.787  0.2055 -0.1492  0.2105
 1517SOL     OW16009   1.812   1.130   0.519 -0.1348  0.1483 -0.1741
 1517SOL    HW116010   1.878   1.164   0.580 -1.5601 -0.6707  1.8202
 1517SOL    HW216011   1.732   1.181   0.534 -0.1052  1.1391 -3.3178
 1518SOL     OW16012   2.512   0.380  15.646 -0.1177 -0.1263 -0.3585
 1518SOL    HW116013   2.441   0.395  15.583 -0.8576 -0.8073  0.3141
 1518SOL    HW216014   2.573   0.441  15.605 -1.8692  0.9290 -1.3890
 1519SOL     OW16015   3.841   1.809   8.356 -0.5440 -0.1473  0.7367
 1519SOL    HW116016   3.811   1.719   8.359 -2.5337  0.5355  1.3275
 1519SOL    HW216017   3.933   1.794   8.332 -0.5870  1.9496 -0.7511
 1520SOL     OW16018   3.169   1.988   2.819  0.3388 -0.1521  0.5381
 1520SOL    HW116019   3.107   1.915   2.813  0.0463  0.1962 -0.6873
 1520SOL    HW216020   3.123   2.062   2.860  0.3446 -0.5412  1.2375
 1521SOL     OW16021   3.439   0.071   1.885 -0.6916 -0.1326 -0.0585
 1521SOL    HW116022   3.388   0.120   1.820 -0.6425  0.2440  0.1886
 1521SOL    HW216023   3.497   0.022   1.826  0.0825 -1.1144  1.5074
 1522SOL     OW16024   3.233   1.416   7.179 -0.1033 -0.0352  0.4025
 1522SOL    HW116025   3.165   1.441   7.116  0.2488  0.2620  0.1418
 1522SOL    HW216026   3.212   1.480   7.247 -0.2401  0.6977 -0.3274
 1523SOL     OW16027   0.607   2.846  11.527 -0.1534  0.1671  0.3632
 1523SOL    HW116028   0.695   2.843  11.488  0.1536  0.4522  1.0369
 1523SOL    HW216029   0.620   2.915  11.592 -1.0443 -0.8138  1.5730
 1524SOL     OW16030   1.998   3.830   6.612 -0.2200  0.2314 -0.0568
 1524SOL    HW116031   2.055   3.889   6.562 -0.9361  0.5480 -0.5043
 1524SOL    HW216032   1.918   3.882   6.621 -1.6274 -1.7224 -1.2644
 1525SOL     OW16033   2.543   1.862  15.360  0.1235 -0.0665  0.1711
 1525SOL    HW116034   2.619   1.920  15.348 -0.5053  0.1445 -2.9224
 1525SOL    HW216035   2.486   1.910  15.300 -0.7276 -1.4125 -0.0855
 1526SOL     OW16036   2.325   1.878   3.902 -0.1891 -0.3736 -0.0541
 1526SOL    HW116037   2.236   1.850   3.925  0.4889  0.7354  3.9460
 1526SOL    HW216038   2.356   1.908   3.987  0.5038 -0.3050 -0.3307
 1527SOL     OW16039   2.067   2.300   3.700 -0.5557  0.5135  0.3727
 1527SOL    HW116040   2.021   2.264   3.776 -0.1626 -2.5244 -0.8237
 1527SOL    HW216041   2.032   2.237   3.636  0.3352 -1.4987  1.8952
 1528SOL     OW16042   1.049   2.970   6.799 -0.0859 -0.9952  0.1956
 1528SOL    HW116043   0.983   2.905   6.822 -0.7683 -0.8098 -1.2142
 1528SOL    HW216044   1.071   3.008   6.884  1.4785 -3.5161  0.9151
 1529SOL     OW16045   4.499   0.841   9.972 -0.1309 -0.2369 -0.1560
 1529SOL    HW116046   4.491   0.748   9.994 -1.8909 -0.0657 -0.1241
 1529SOL    HW216047   4.588   0.844   9.937  0.4252 -2.2393  1.1089
 1530SOL     OW16048   4.274   0.759   4.773  0.0927  0.6103  0.3395
 1530SOL    HW116049   4.336   0.819   4.731 -2.1005  0.8005 -2.6603
 1530SOL    HW216050   4.213   0.821   4.812 -0.3789 -1.8371  3.4477
 1531SOL     OW16051   2.413   2.807   5.436  0.0270 -0.3758 -0.5401
 1531SOL    HW116052   2.442   2.736   5.493 -0.0123  1.2419  1.4529
 1531SOL    HW216053   2.389   2.880   5.492 -0.3004 -0.8838 -0.0205
 1532SOL     OW16054   4.023   0.885   2.314 -0.3125 -0.2669  0.5731
 1532SOL    HW116055   4.118   0.892   2.326 -0.2286 -1.1897  0.4834
 1532SOL    HW216056   3.998   0.845   2.398 -1.9217  1.0075  0.6982
 1533SOL     OW16057   1.557   1.920   4.960  0.0999  0.0800  0.7201
 1533SOL    HW116058   1.480   1.958   5.002  1.0965  0.5370  2.1328
 1533SOL    HW216059   1.588   1.998   4.914 -0.2796  0.6724  1.4693
 1534SOL     OW16060   1.598   0.049  16.620 -0.5688 -0.2772  0.2793
 1534SOL    HW116061   1.678   0.093  16.591 -1.3852  2.3582  2.0521
 1534SOL    HW216062   1.552   0.112  16.674  2.4904  2.5910 -0.4957
 1535SOL     OW16063   4.447   0.183   7.033  1.0402 -0.0692  0.6449
 1535SOL    HW116064   4.417   0.108   7.083 -0.9491 -1.5721 -2.8235
 1535SOL    HW216065   4.424   0.251   7.096  0.9218  3.0380 -2.7558
 1536SOL     OW16066   2.213   2.318  14.540  0.5386  0.2442  0.4914
 1536SOL    HW116067   2.121   2.325  14.513  0.9506  0.2539 -0.9293
 1536SOL    HW216068   2.247   2.398  14.500 -1.5334  0.9232  0.0801
 1537SOL     OW16069   4.433   3.132   0.195 -0.9276 -0.0038  0.5897
 1537SOL    HW116070   4.519   3.148   0.235 -1.1762 -0.5941  1.3628
 1537SOL    HW216071   4.385   3.093   0.267 -0.9801 -4.7805 -2.0911
 1538SOL     OW16072   1.239   3.819   2.506 -0.7667 -0.2420  0.6191
 1538SOL    HW116073   1.261   3.852   2.593  1.6575  1.6830 -0.7116
 1538SOL    HW216074   1.155   3.777   2.526 -0.8589 -0.2291  0.2676
 1539SOL     OW16075   1.912   1.754   7.164 -0.5315  0.1562  0.3935
 1539SOL    HW116076   1.853   1.679   7.177 -2.8889  1.8668 -0.4467
 1539SOL    HW216077   1.961   1.728   7.086  0.6732 -1.7359  1.7981
 1540SOL     OW16078   0.521   4.100  10.175  0.1621  0.0129  0.4262
 1540SOL    HW116079   0.528   4.094  10.080 -2.9126  0.6091  0.1630
 1540SOL    HW216080   0.511   4.194  10.185 -1.1163 -0.2027  1.1720
 1541SOL     OW16081   0.838   3.832  14.345  0.3100 -0.1277  0.0751
 1541SOL    HW116082   0.819   3.799  14.433 -0.5575  1.5513  0.5084
 1541SOL    HW216083   0.877   3.915  14.372 -1.3634  0.5341  0.4733
 1542SOL     OW16084   2.606   4.108   0.179 -0.4598  0.1405  0.1402
 1542SOL    HW116085   2.622   4.142   0.091  0.2962  0.1966  0.2947
 1542SOL    HW216086   2.604   4.189   0.230  2.1958  0.5782 -0.4203
 1543SOL     OW16087   0.534   2.716   2.470 -0.3021 -0.6706 -1.0395
 1543SOL    HW116088   0.530   2.811   2.478  1.0546 -0.9089  2.5548
 1543SOL    HW216089   0.439   2.703   2.477 -0.2908 -0.3129 -0.2292
 1544SOL     OW16090   1.721   3.304   5.023  0.2290  0.4964  0.6145
 1544SOL    HW116091   1.748   3.283   4.933 -3.2952  2.2509 -0.8674
 1544SOL    HW216092   1.647   3.360   4.999  0.8508 -0.3780 -3.4767
 1545SOL     OW16093   0.636   3.039   4.086 -0.4232  0.1038 -0.2079
 1545SOL    HW116094   0.641   3.033   3.991  0.4764  0.4590 -0.1828
 1545SOL    HW216095   0.722   3.073   4.113 -0.3934  1.3544 -1.8412
 1546SOL     OW16096   4.176   2.273  11.638 -0.2046  0.0609  0.1387
 1546SOL    HW116097   4.081   2.275  11.633 -0.1937 -3.2116 -1.1771
 1546SOL    HW216098   4.199   2.345  11.578  0.8797  1.4294  2.1728
 1547SOL     OW16099   2.322   2.222   7.529  0.2359  0.0956  0.2233
 1547SOL    HW116100   2.410   2.250   7.552 -0.2206  1.5767  0.1767
 1547SOL    HW216101   2.299   2.161   7.599  2.0601  1.9477  2.4199
 1548SOL     OW16102   2.081   2.688  10.969 -0.3626  0.3883 -0.4779
 1548SOL    HW116103   2.098   2.777  10.940  1.6598 -0.0166 -0.5263
 1548SOL    HW216104   2.159   2.669  11.021 -0.0836  0.3143 -0.9201
 1549SOL     OW16105   2.309   3.820  13.700  0.3195 -0.0286  0.4141
 1549SOL    HW116106   2.308   3.784  13.789 -0.8249  0.4075  0.5732
 1549SOL    HW216107   2.301   3.915  13.705 -2.4314 -0.1928 -0.6586
 1550SOL     OW16108   0.339   4.641   3.331  0.2704 -0.6557 -0.0207
 1550SOL    HW116109   0.401   4.596   3.274 -0.7724 -0.6265 -1.1745
 1550SOL    HW216110   0.265   4.584   3.348  0.5020 -1.0271 -0.2464
 1551SOL     OW16111   4.611   4.625   3.828 -0.3135 -0.2619  0.0075
 1551SOL    HW116112   4.641   4.543   3.789  1.4344 -0.4132  1.6770
 1551SOL    HW216113   4.690   4.677   3.813 -0.1564 -0.5477 -0.1575
 1552SOL     OW16114   1.358   0.373  11.387 -0.1306  0.3610  0.4687
 1552SOL    HW116115   1.310   0.441  11.341  0.5975 -1.4450 -2.9675
 1552SOL    HW216116   1.353   0.300  11.326 -1.4345  0.6120  0.2875
 1553SOL     OW16117   3.751   4.203   0.532 -0.0812 -0.1004 -0.0702
 1553SOL    HW116118   3.833   4.182   0.488  0.1871  0.7168  0.0454
 1553SOL    HW216119   3.700   4.122   0.522 -0.9319  0.4779 -0.3792
 1554SOL     OW16120   2.943   0.743   1.907  0.5308  0.2026 -0.2487
 1554SOL    HW116121   2.949   0.819   1.849  0.9312 -1.4503 -2.3841
 1554SOL    HW216122   3.016   0.693   1.870  0.9880  0.6272  0.0616
 1555SOL     OW16123   0.555   0.522   3.604 -0.8395 -0.0635 -0.5764
 1555SOL    HW116124   0.592   0.516   3.516 -2.2244 -1.4224 -1.0687
 1555SOL    HW216125   0.565   0.614   3.626 -2.3751  0.0180 -0.2194
 1556SOL     OW16126   4.429   0.210   5.859 -0.1303  0.3197 -0.2038
 1556SOL    HW116127   4.447   0.269   5.786 -2.0969  1.6036  0.3676
 1556SOL    HW216128   4.423   0.269   5.934 -0.3614 -1.2374  1.0100
 1557SOL     OW16129   1.989   2.102  11.853  0.0320  0.1020  0.0445
 1557SOL    HW116130   1.975   2.196  11.840 -2.6206 -0.7911 -3.6932
 1557SOL    HW216131   2.021   2.098  11.943  2.4441  0.0812 -0.8058
 1558SOL     OW16132   3.916   0.358   7.026  0.1056  0.0600  0.6926
 1558SOL    HW116133   3.917   0.453   7.015 -0.7666 -0.1124 -0.8162
 1558SOL    HW216134   3.869   0.325   6.949 -0.1788  1.3335  0.3222
 1559SOL     OW16135   2.647   2.395   6.816  0.1648 -0.4000  1.2090
 1559SOL    HW116136   2.578   2.413   6.752 -0.8407  0.3239  2.5171
 1559SOL    HW216137   2.719   2.372   6.756  0.8085  0.6724  1.5720
 1560SOL     OW16138   1.266   0.431   7.700 -0.8637 -0.3152 -0.5195
 1560SOL    HW116139   1.214   0.372   7.754 -0.3991  2.0546  2.5689
 1560SOL    HW216140   1.346   0.443   7.751 -2.3354  1.7137  1.3100
 1561SOL     OW16141   3.490   2.999   8.892  0.2206 -0.0781 -0.1847
 1561SOL    HW116142   3.420   3.045   8.847 -0.1181  0.0095  0.4389
 1561SOL    HW216143   3.570   3.043   8.864  0.7897 -3.0578 -3.2944
 1562SOL     OW16144   3.374   3.848  15.124 -0.3357 -0.4977 -0.0880
 1562SOL    HW116145   3.334   3.769  15.159  1.4324 -1.7387 -0.8999
 1562SOL    HW216146   3.461   3.837  15.161  1.1129  2.0772 -2.6844
 1563SOL     OW16147   0.041   3.246   8.453 -0.1067 -0.3015 -0.0507
 1563SOL    HW116148   0.059   3.152   8.462  1.0320  0.0949  1.7152
 1563SOL    HW216149   0.122   3.266   8.406 -1.0477 -0.3608 -1.7116
 1564SOL     OW16150   2.153   4.214   6.270 -0.5948  0.6879  0.3570
 1564SOL    HW116151   2.080   4.254   6.223 -0.4660  0.3860 -0.1005
 1564SOL    HW216152   2.170   4.282   6.336  0.0484  0.6882  0.1853
 1565SOL     OW16153   3.547   0.341   4.424  1.2184  0.1923 -0.0824
 1565SOL    HW116154   3.485   0.323   4.495  0.5971  1.8335 -0.2220
 1565SOL    HW216155   3.491   0.310   4.353 -0.3085  0.9059  0.8064
 1566SOL     OW16156   2.048   4.556   1.935  0.4065  0.0956 -0.3241
 1566SOL    HW116157   2.088   4.616   1.872 -0.5033  1.7155  0.6599
 1566SOL    HW216158   2.071   4.615   2.007 -0.8635  2.0722 -1.5544
 1567SOL     OW16159   2.994   0.093   5.420 -0.0714  0.0207 -0.0463
 1567SOL    HW116160   3.026   0.128   5.336  1.7678 -0.5433  0.4148
 1567SOL    HW216161   2.966   0.177   5.454 -0.2432  0.5932 -1.5934
 1568SOL     OW16162   0.849   3.666   6.413 -0.4902  0.1440  0.1723
 1568SOL    HW116163   0.931   3.618   6.401 -0.4246  0.2483  0.2050
 1568SOL    HW216164   0.784   3.603   6.380 -0.1340  0.1193 -0.4839
 1569SOL     OW16165   3.724   4.469   9.084 -0.8908  0.8304  0.0580
 1569SOL    HW116166   3.689   4.532   9.021 -0.9767  2.3646  1.6470
 1569SOL    HW216167   3.724   4.511   9.170 -0.6092 -0.2866  0.6017
 1570SOL     OW16168   3.153   3.700   0.831 -0.5164  0.0233  0.0224
 1570SOL    HW116169   3.077   3.747   0.866 -1.0019 -0.7461  0.0171
 1570SOL    HW216170   3.215   3.760   0.871 -2.3112  1.2484  0.9463
 1571SOL     OW16171   0.654   1.843  12.626  0.3698 -0.0082 -0.0384
 1571SOL    HW116172   0.654   1.884  12.539  2.9001  1.0156  0.4661
 1571SOL    HW216173   0.606   1.763  12.604 -0.5672  0.0126  1.8720
 1572SOL     OW16174   1.304   1.303   4.945  0.4926 -0.2361  0.1840
 1572SOL    HW116175   1.381   1.314   5.000  1.2827  0.5463 -1.0863
 1572SOL    HW216176   1.330   1.216   4.914  0.7215  0.5656 -1.8748
 1573SOL     OW16177   1.178   0.161   5.601  0.1184 -0.1125  0.2713
 1573SOL    HW116178   1.201   0.248   5.633  1.8014 -0.6921  0.6694
 1573SOL    HW216179   1.090   0.154   5.638  0.0034  0.0099  0.0165
 1574SOL     OW16180   3.881   0.401   8.028  0.1821 -0.5391  0.1937
 1574SOL    HW116181   3.813   0.437   8.084  0.5066 -0.9285  0.8387
 1574SOL    HW216182   3.922   0.480   7.994 -0.7444  0.1042  0.5992
 1575SOL     OW16183   2.660   4.065   6.834  0.2135 -0.8566 -0.2447
 1575SOL    HW116184   2.673   4.056   6.929 -1.9644 -2.0687 -0.0660
 1575SOL    HW216185   2.586   4.009   6.811  0.7122 -2.4061  1.8159
 1576SOL     OW16186   4.154   2.420   1.229 -0.0656  0.5075 -0.4568
 1576SOL    HW116187   4.232   2.441   1.178  0.6747  0.2163  0.5431
 1576SOL    HW216188   4.175   2.460   1.313 -0.8036  0.0869 -0.0743
 1577SOL     OW16189   3.048   4.157   7.811  0.2209  0.2751  0.3723
 1577SOL    HW116190   3.116   4.156   7.743 -0.3525 -0.2719 -0.1959
 1577SOL    HW216191   3.061   4.235   7.865  0.6937  0.3162  0.2023
 1578SOL     OW16192   1.422   1.206   5.667  0.0152  0.5980 -0.2403
 1578SOL    HW116193   1.504   1.172   5.631  0.0309 -0.6879  1.0316
 1578SOL    HW216194   1.389   1.119   5.691  0.9562  0.4578  0.5276
 1579SOL     OW16195   3.593   2.746   4.721 -0.0493 -0.3396  0.1663
 1579SOL    HW116196   3.553   2.730   4.636  1.7898 -1.1469 -0.5307
 1579SOL    HW216197   3.671   2.691   4.716  1.3292  1.6655 -0.4007
 1580SOL     OW16198   4.471   0.869  16.079  0.6671 -0.2322 -0.0386
 1580SOL    HW116199   4.507   0.884  15.991  0.5286  0.4413  0.0170
 1580SOL    HW216200   4.420   0.789  16.066 -1.3330  0.8643  0.9244
 1581SOL     OW16201   4.239   2.801   4.740 -0.2016  0.3623 -0.0461
 1581SOL    HW116202   4.169   2.864   4.761 -0.2607  0.1121  0.4858
 1581SOL    HW216203   4.176   2.730   4.726  0.5486 -0.5081  1.0992
 1582SOL     OW16204   2.483   4.464   2.051  0.0304 -0.0308 -0.1563
 1582SOL    HW116205   2.560   4.410   2.031 -0.4305 -0.0687 -1.8279
 1582SOL    HW216206   2.503   4.547   2.008  0.9604 -0.2628 -0.1636
 1583SOL     OW16207   2.854   1.088   8.552  0.7709 -0.1431 -0.1446
 1583SOL    HW116208   2.902   1.084   8.469  0.8050  0.1993 -0.1424
 1583SOL    HW216209   2.913   1.151   8.594  1.3628  1.1294 -2.8064
 1584SOL     OW16210   1.710   4.346  12.168  0.0829  0.0172  0.2720
 1584SOL    HW116211   1.772   4.281  12.201 -1.5259 -0.4576  2.3365
 1584SOL    HW216212   1.757   4.425  12.142  0.6269 -0.7346 -1.0394
 1585SOL     OW16213   2.861   2.440  14.706 -0.5071 -0.3792 -0.1501
 1585SOL    HW116214   2.864   2.391  14.624  1.9821 -0.0853 -0.2464
 1585SOL    HW216215   2.818   2.523  14.686 -1.2909 -0.7253  0.1135
 1586SOL     OW16216   2.138   4.156   1.578  0.1998  0.3022 -0.4324
 1586SOL    HW116217   2.059   4.112   1.610  0.2387  0.8832  0.4617
 1586SOL    HW216218   2.151   4.218   1.650 -2.1498 -0.8647  1.0219
 1587SOL     OW16219   4.232   2.082   1.661 -0.1618  0.0762  0.1094
 1587SOL    HW116220   4.266   2.007   1.612  1.3463 -0.0132  1.2726
 1587SOL    HW216221   4.233   2.052   1.752 -3.8505 -0.5873 -0.0711
 1588SOL     OW16222   3.075   0.328   2.829 -0.4150  0.0394 -0.0713
 1588SOL    HW116223   2.996   0.338   2.882  0.1259 -0.6991  0.8521
 1588SOL    HW216224   3.102   0.420   2.823 -2.0172  0.5969  1.3657
 1589SOL     OW16225   3.632   1.954   0.516 -0.1521 -0.2403  0.3787
 1589SOL    HW116226   3.620   1.983   0.425  1.1501  0.1361  0.3269
 1589SOL    HW216227   3.594   2.030   0.559  0.6220  0.1907  0.2989
 1590SOL     OW16228   4.400   3.185  10.958  0.3082 -0.0203  0.0150
 1590SOL    HW116229   4.379   3.118  10.894  0.2487  0.2460 -0.2456
 1590SOL    HW216230   4.430   3.129  11.029  0.4519 -0.7160 -0.5986
 1591SOL     OW16231   3.081   3.107  13.001  0.0856 -0.1185  0.0282
 1591SOL    HW116232   3.012   3.089  13.065 -1.6692 -0.3400 -1.9220
 1591SOL    HW216233   3.052   3.197  12.984 -0.6386 -0.3802 -0.1104
 1592SOL     OW16234   1.633   3.424   4.363 -0.2361  0.8345  0.0143
 1592SOL    HW116235   1.627   3.431   4.268 -1.6468  0.1847  0.0557
 1592SOL    HW216236   1.557   3.474   4.390 -0.4906  0.9719 -0.9508
 1593SOL     OW16237   4.441   1.975   6.677  0.2537 -0.1653  0.2228
 1593SOL    HW116238   4.427   2.034   6.751 -0.8738 -1.3732  0.9669
 1593SOL    HW216239   4.527   1.989   6.638  1.4184 -0.5037  2.7250
 1594SOL     OW16240   1.667   3.838   7.894  0.3442  0.3060  0.2784
 1594SOL    HW116241   1.629   3.920   7.925  0.2709  1.1844 -2.1104
 1594SOL    HW216242   1.692   3.794   7.975  2.9663  1.5585  0.1454
 1595SOL     OW16243   1.011   0.314   9.331  0.3162 -0.1177 -0.7229
 1595SOL    HW116244   1.074   0.369   9.377  0.7081 -0.7925 -0.4521
 1595SOL    HW216245   1.052   0.283   9.251  0.0951 -4.9531  1.0234
 1596SOL     OW16246   2.311   2.393   3.009 -0.6441 -0.1256  0.5404
 1596SOL    HW116247   2.332   2.340   2.932 -1.4618 -1.0387  0.9401
 1596SOL    HW216248   2.216   2.399   3.015 -0.6881 -0.2553 -0.0296
 1597SOL     OW16249   4.371   1.356   2.688 -0.5643 -0.8149  0.0337
 1597SOL    HW116250   4.292   1.383   2.641 -1.1269 -1.3365  0.6616
 1597SOL    HW216251   4.347   1.266   2.710  3.5586 -1.8953  0.1649
 1598SOL     OW16252   3.346   1.773  11.135  0.3342  0.5421  0.4994
 1598SOL    HW116253   3.297   1.851  11.108 -1.1790 -0.2929  0.8054
 1598SOL    HW216254   3.386   1.748  11.051  1.0327  0.2576  0.9207
 1599SOL     OW16255   0.129   3.707   0.998 -0.1657  0.9439 -0.4870
 1599SOL    HW116256   0.159   3.709   1.088 -0.0998 -0.8849 -0.4757
 1599SOL    HW216257   0.041   3.743   1.012 -0.4080  0.0455  0.2804
 1600SOL     OW16258   2.678   3.847   8.275  0.4209  0.8131 -0.0473
 1600SOL    HW116259   2.716   3.812   8.356 -0.3737 -1.2325 -0.5419
 1600SOL    HW216260   2.612   3.781   8.254  0.1421  0.2498  2.5303
 1601SOL     OW16261   2.281   1.060   5.569 -0.2236 -0.3945  0.5743
 1601SOL    HW116262   2.247   1.149   5.583  1.2775  0.0998  1.0747
 1601SOL    HW216263   2.352   1.079   5.508 -0.3428  0.2179  0.6205
 1602SOL     OW16264   3.241   0.628  14.850 -0.3714 -0.0202  0.0227
 1602SOL    HW116265   3.238   0.610  14.944  1.4820 -1.5152 -0.2144
 1602SOL    HW216266   3.265   0.720  14.841  1.0627 -0.5919 -1.9594
 1603SOL     OW16267   1.236   2.791   2.654  0.2556 -0.0599 -0.1932
 1603SOL    HW116268   1.267   2.853   2.587  0.7173 -1.1770 -1.0017
 1603SOL    HW216269   1.286   2.717   2.621 -0.0922  1.2061 -3.5627
 1604SOL     OW16270   4.465   0.901   2.552 -0.5178 -0.0974  0.0926
 1604SOL    HW116271   4.451   0.980   2.500  0.9315  0.8959  1.1800
 1604SOL    HW216272   4.449   0.838   2.482 -1.2280  1.1275 -0.8503
 1605SOL     OW16273   0.485   0.680   4.321  0.6308 -0.0911 -0.5339
 1605SOL    HW116274   0.555   0.724   4.273  1.2071  1.1154  1.4145
 1605SOL    HW216275   0.513   0.690   4.412  1.1745 -2.5125 -0.4465
 1606SOL     OW16276   1.989   0.034   8.565 -0.3978  0.1838 -0.0717
 1606SOL    HW116277   2.075   4.722   8.543 -0.8391  0.3224 -2.0913
 1606SOL    HW216278   1.970   0.069   8.478 -0.2424 -0.8118 -0.5074
 1607SOL     OW16279   4.674   4.352   5.323 -0.6352 -0.0882  0.1990
 1607SOL    HW116280   4.594   4.315   5.362 -0.5901  0.3609  0.7236
 1607SOL    HW216281   4.679   4.302   5.242  2.8034  0.9784 -0.2414
 1608SOL     OW16282   4.428   1.417   2.328  0.5419 -0.4174 -0.0306
 1608SOL    HW116283   4.364   1.483   2.302  1.7002  0.5906 -0.3034
 1608SOL    HW216284   4.448   1.376   2.243  1.3768  1.2205 -0.6192
 1609SOL     OW16285   4.344   1.412  11.564  0.0361  0.1452 -0.8926
 1609SOL    HW116286   4.400   1.386  11.636 -1.8809  0.2432  0.6382
 1609SOL    HW216287   4.330   1.504  11.582  1.1675 -0.1524  1.4495
 1610SOL     OW16288   1.999   0.101   6.828  0.1533  0.3246 -0.3346
 1610SOL    HW116289   1.965   0.065   6.746  0.2411 -0.4803 -0.0164
 1610SOL    HW216290   2.075   0.048   6.853 -0.0247  0.3353  0.2277
 1611SOL     OW16291   2.286   2.914   2.034 -1.0784 -0.4627 -1.2415
 1611SOL    HW116292   2.280   2.876   2.121  0.2919  0.3056 -0.8057
 1611SOL    HW216293   2.267   3.002   2.068  1.4506 -1.1305  1.9062
 1612SOL     OW16294   0.184   0.255   1.280  0.0778  0.4978  0.4233
 1612SOL    HW116295   0.158   0.173   1.240  1.1779 -0.4952  1.7507
 1612SOL    HW216296   0.210   0.312   1.207 -1.8221  1.7900  0.7566
 1613SOL     OW16297   4.022   0.066   2.478 -0.4766  0.0736  0.0015
 1613SOL    HW116298   3.947   0.043   2.532 -0.8345  1.8626  0.2401
 1613SOL    HW216299   4.042   0.158   2.494 -1.3518 -0.1822  2.4157
 1614SOL     OW16300   3.809   0.832   2.175  0.0799 -0.0559  0.2097
 1614SOL    HW116301   3.894   0.850   2.215  0.6083 -0.1295 -0.8824
 1614SOL    HW216302   3.797   0.923   2.148 -0.2263 -0.6645 -1.6636
 1615SOL     OW16303   1.463   4.304   1.080  0.1414  0.3083 -0.5957
 1615SOL    HW116304   1.546   4.267   1.052 -0.4355 -1.7356  0.3889
 1615SOL    HW216305   1.434   4.230   1.134 -0.1992  0.7611 -0.1558
 1616SOL     OW16306   2.593   4.184  14.091 -0.6546 -0.1999 -0.2609
 1616SOL    HW116307   2.609   4.273  14.059 -1.8828  0.3363  0.6006
 1616SOL    HW216308   2.601   4.135  14.010  1.1664 -1.7968  0.8873
 1617SOL     OW16309   1.906   3.893   6.178  0.2040 -0.4110  0.2765
 1617SOL    HW116310   1.829   3.942   6.208 -0.8362 -1.8728 -0.0353
 1617SOL    HW216311   1.950   3.953   6.117  0.2124 -0.9483 -0.2389
 1618SOL     OW16312   1.826   1.934   5.745 -0.6904 -0.3909 -0.2319
 1618SOL    HW116313   1.879   1.876   5.799  0.7770  0.7745 -0.4299
 1618SOL    HW216314   1.794   1.882   5.671  0.9948 -1.5788 -0.1043
 1619SOL     OW16315   1.276   1.795  10.564 -0.6172 -0.0055 -0.6365
 1619SOL    HW116316   1.254   1.791  10.471  1.6262 -0.8296 -1.1286
 1619SOL    HW216317   1.258   1.704  10.589 -1.1066  0.2811  0.0357
 1620SOL     OW16318   3.736   1.137  14.154 -0.1243  0.7846  0.1314
 1620SOL    HW116319   3.818   1.178  14.181  1.0121 -1.6941  0.4582
 1620SOL    HW216320   3.691   1.220  14.137 -2.4336 -0.4763  0.1035
 1621SOL     OW16321   2.204   4.615   6.583 -0.2458  0.0841  0.7916
 1621SOL    HW116322   2.198   4.698   6.630  0.1694  0.6480 -0.1507
 1621SOL    HW216323   2.218   4.649   6.495  1.3124  2.7091  2.0282
 1622SOL     OW16324   2.862   2.058   8.262 -0.1123  0.3148 -0.2650
 1622SOL    HW116325   2.816   2.134   8.297  0.4188  0.0977  0.8921
 1622SOL    HW216326   2.924   2.052   8.334 -0.8563 -1.5681  0.2340
 1623SOL     OW16327   2.033   3.488  13.201 -0.4182  0.1855  0.1871
 1623SOL    HW116328   2.117   3.487  13.155 -1.2378  1.4924 -1.3414
 1623SOL    HW216329   1.997   3.405  13.168  2.3578 -0.3710 -1.4375
 1624SOL     OW16330   3.950   3.047   6.906 -0.2119 -0.2089  0.5119
 1624SOL    HW116331   3.948   2.952   6.894 -0.3992  0.0314 -1.3953
 1624SOL    HW216332   3.877   3.052   6.967 -1.0026  1.0658 -0.5466
 1625SOL     OW16333   0.207   0.362   9.026  0.1023  0.0727 -0.2106
 1625SOL    HW116334   0.150   0.337   8.953 -0.7069  2.1803 -0.2831
 1625SOL    HW216335   0.157   0.433   9.065  0.1226 -0.0824  0.0998
 1626SOL     OW16336   0.961   1.836   3.408 -0.4301 -0.0322 -0.3998
 1626SOL    HW116337   1.038   1.788   3.439 -0.2988 -1.1686 -2.4870
 1626SOL    HW216338   0.999   1.923   3.401  0.8196 -0.6357 -1.0834
 1627SOL     OW16339   2.252   2.537   4.594 -0.0715  0.2343  0.2000
 1627SOL    HW116340   2.232   2.624   4.558 -0.5390  0.8295  1.9017
 1627SOL    HW216341   2.321   2.513   4.532 -0.6153  1.7333 -0.9965
 1628SOL     OW16342   2.882   1.205  11.553  0.2052 -0.0587  0.6392
 1628SOL    HW116343   2.970   1.181  11.522 -0.6332 -0.5945 -1.3378
 1628SOL    HW216344   2.890   1.244  11.640 -2.2833  0.6110  0.5641
 1629SOL     OW16345   1.340   0.035   3.531 -0.4138 -0.1180 -0.1818
 1629SOL    HW116346   1.419   0.057   3.580  0.5161 -1.0987 -1.2570
 1629SOL    HW216347   1.275   0.059   3.598 -1.3381  1.5078 -1.6650
 1630SOL     OW16348   3.136   2.494   6.490  0.4701  0.6210  0.4281
 1630SOL    HW116349   3.200   2.432   6.527 -0.2969 -1.2099 -1.3051
 1630SOL    HW216350   3.115   2.543   6.569  1.2269 -0.2326  1.1629
 1631SOL     OW16351   3.517   2.096   9.774 -0.6212  0.2864  0.0981
 1631SOL    HW116352   3.424   2.099   9.795 -0.3489  0.5498  1.2571
 1631SOL    HW216353   3.547   2.017   9.818 -0.5954  0.4258  0.3359
 1632SOL     OW16354   3.362   1.896   2.966 -0.4376  0.2151  0.0991
 1632SOL    HW116355   3.296   1.942   2.914 -0.0416  0.3194 -0.3120
 1632SOL    HW216356   3.436   1.874   2.909  0.1806  0.1487  0.9195
 1633SOL     OW16357   0.441   2.835   1.165 -0.6121 -0.2627 -0.3524
 1633SOL    HW116358   0.397   2.862   1.084 -2.2067 -0.2949  0.5156
 1633SOL    HW216359   0.407   2.747   1.179  0.3530 -0.5355  0.2657
 1634SOL     OW16360   0.876   0.470   5.903  0.1511  0.2080  0.2813
 1634SOL    HW116361   0.825   0.481   5.983  1.9559  0.6192  1.3929
 1634SOL    HW216362   0.820   0.522   5.845  0.1783 -0.4781 -0.3499
 1635SOL     OW16363   1.183   4.237   6.673 -0.0044 -0.3162  0.0656
 1635SOL    HW116364   1.141   4.275   6.749 -0.8447 -0.9821 -0.0621
 1635SOL    HW216365   1.151   4.147   6.668  1.5950 -0.8415 -0.7162
 1636SOL     OW16366   3.422   1.762  11.410  0.2800 -0.1437  0.1948
 1636SOL    HW116367   3.420   1.731  11.319 -1.7822 -1.1784  0.6046
 1636SOL    HW216368   3.418   1.856  11.390 -1.2897 -0.0430  0.9831
 1637SOL     OW16369   1.109   3.583   9.312 -0.0403  0.1488 -0.1376
 1637SOL    HW116370   1.116   3.491   9.338  0.8364  0.9548  2.4348
 1637SOL    HW216371   1.111   3.574   9.216  0.8878 -3.4945  0.2318
 1638SOL     OW16372   0.025   0.692  13.050  0.4603 -1.0594  0.2000
 1638SOL    HW116373   0.114   0.672  13.078  1.2353  0.1642 -1.4123
 1638SOL    HW216374   0.023   0.785  13.029  1.8723 -0.9932  0.3862
 1639SOL     OW16375   0.286   4.670  14.740 -0.0544  0.2898  0.5631
 1639SOL    HW116376   0.200   4.693  14.776 -0.0615 -1.0789  1.4345
 1639SOL    HW216377   0.277   4.578  14.713  1.0763  1.1394 -2.6817
 1640SOL     OW16378   4.323   1.671   3.959 -0.2661 -0.6752  0.8005
 1640SOL    HW116379   4.374   1.752   3.968 -0.5062 -0.7297  2.6883
 1640SOL    HW216380   4.300   1.665   4.051 -3.1986  0.7453  0.1637
 1641SOL     OW16381   0.293   4.351  10.061 -0.0206 -0.5601 -0.0324
 1641SOL    HW116382   0.198   4.335  10.062  0.0625 -0.9877  0.7151
 1641SOL    HW216383   0.307   4.442  10.036  1.2592 -0.8829 -0.4540
 1642SOL     OW16384   1.671   1.972   7.540 -0.3304  0.3582  0.1994
 1642SOL    HW116385   1.696   2.063   7.558  1.0706  0.1334 -0.5565
 1642SOL    HW216386   1.722   1.914   7.597 -1.8138 -0.4161  0.7390
 1643SOL     OW16387   0.732   2.241  10.616  0.5181  0.2102 -0.5018
 1643SOL    HW116388   0.725   2.156  10.574 -0.4102 -0.9210  1.9605
 1643SOL    HW216389   0.767   2.235  10.705 -1.2333  0.4067  0.2044
 1644SOL     OW16390   4.491   0.043   1.506 -0.3360 -0.0527 -0.3579
 1644SOL    HW116391   4.519   0.099   1.433 -0.4259  2.9540  1.8963
 1644SOL    HW216392   4.409   0.006   1.474  0.2823 -1.2802 -0.5498
 1645SOL     OW16393   2.305   3.218   9.937  0.7602 -0.6085 -0.1114
 1645SOL    HW116394   2.284   3.124   9.942 -2.3756  0.2457  3.0880
 1645SOL    HW216395   2.291   3.230   9.844  1.4774 -3.0164 -0.5338
 1646SOL     OW16396   0.199   3.436  17.506  0.0022  0.1363  0.5010
 1646SOL    HW116397   0.279   3.441  17.557  0.0111 -2.1316  0.7037
 1646SOL    HW216398   0.169   3.527  17.509 -2.8350 -0.8323  1.0914
 1647SOL     OW16399   4.197   2.635   3.384 -0.6937 -0.3829 -0.2685
 1647SOL    HW116400   4.187   2.582   3.463 -0.5975 -1.5615 -1.0524
 1647SOL    HW216401   4.198   2.568   3.316  1.9941  0.6267 -1.2206
 1648SOL     OW16402   2.666   2.915  12.608  0.2834  0.1900 -0.0325
 1648SOL    HW116403   2.738   2.918  12.672  0.5316 -3.2579 -0.1711
 1648SOL    HW216404   2.633   2.826  12.614 -0.7674  0.7069  1.8025
 1649SOL     OW16405   1.827   0.428   3.816 -0.2873  0.3434  0.0637
 1649SOL    HW116406   1.893   0.398   3.753  0.0554 -0.1817  0.6742
 1649SOL    HW216407   1.875   0.501   3.853 -0.2324  0.4248 -0.1648
 1650SOL     OW16408   3.008   3.142   2.303  0.0601  0.1375 -0.1124
 1650SOL    HW116409   2.992   3.212   2.240 -0.8660  2.1525  2.3614
 1650SOL    HW216410   3.080   3.183   2.351 -0.5792  1.4520 -0.2869
 1651SOL     OW16411   1.782   3.077  12.126 -0.1378  0.3705 -0.3496
 1651SOL    HW116412   1.691   3.076  12.097  0.5941 -2.0683 -2.5934
 1651SOL    HW216413   1.813   2.993  12.092 -0.8229  0.2918 -0.7740
 1652SOL     OW16414   3.974   3.413   3.039  0.0174  0.0492 -0.9155
 1652SOL    HW116415   4.044   3.367   2.992  0.0769 -0.7162 -0.0687
 1652SOL    HW216416   3.915   3.433   2.967 -0.1595  0.8793 -0.5346
 1653SOL     OW16417   3.996   1.296  17.038  0.6200 -0.7987  0.7443
 1653SOL    HW116418   3.916   1.245  17.045 -1.9384  2.8918 -1.1453
 1653SOL    HW216419   3.998   1.306  16.943 -0.6550 -1.8181  0.6145
 1654SOL     OW16420   0.061   3.283   6.346 -0.7937  0.1671  0.4374
 1654SOL    HW116421   0.093   3.341   6.276 -0.0294 -1.3938 -0.5013
 1654SOL    HW216422   0.001   3.350   6.380 -1.7272  0.1543 -1.1854
 1655SOL     OW16423   1.972   1.566   5.371  0.0307  0.1554 -0.2991
 1655SOL    HW116424   2.033   1.592   5.439  0.7123 -1.5896 -0.2692
 1655SOL    HW216425   1.941   1.481   5.400 -2.8558  0.4448 -2.4497
 1656SOL     OW16426   2.189   0.252  13.469  0.2474 -0.4774  0.0420
 1656SOL    HW116427   2.131   0.192  13.421  0.1278  0.3339 -0.8337
 1656SOL    HW216428   2.173   0.335  13.425 -0.2787 -0.1278  0.8882
 1657SOL     OW16429   0.990   1.452   4.489 -0.0754  0.3399  0.0841
 1657SOL    HW116430   1.017   1.540   4.517 -0.1509  0.7268 -1.0649
 1657SOL    HW216431   0.911   1.478   4.442 -1.5813  0.1607  2.4900
 1658SOL     OW16432   2.545   2.978  14.538 -0.3868 -0.5237  0.4720
 1658SOL    HW116433   2.604   3.025  14.596  1.3461  1.4240 -2.8657
 1658SOL    HW216434   2.475   3.043  14.531  0.1235  0.0009  0.2621
 1659SOL     OW16435   2.592   4.089  17.268  0.1072  0.5405  0.0724
 1659SOL    HW116436   2.581   4.037  17.347 -2.6342 -0.3274 -0.8953
 1659SOL    HW216437   2.687   4.100  17.267 -0.0920  2.3021  0.4447
 1660SOL     OW16438   3.251   3.445   4.264  0.2406 -0.0297  0.0938
 1660SOL    HW116439   3.162   3.416   4.284  0.2221 -1.8446 -2.6920
 1660SOL    HW216440   3.302   3.415   4.340  1.3509  2.6270  0.3891
 1661SOL     OW16441   3.551   4.430   9.928  0.1953  0.1262 -0.4764
 1661SOL    HW116442   3.559   4.520   9.958 -0.3813  0.4255 -1.2232
 1661SOL    HW216443   3.525   4.447   9.838 -2.1954  2.0233  0.5913
 1662SOL     OW16444   0.053   0.345   7.512  0.0914 -0.2407 -0.5231
 1662SOL    HW116445   0.073   0.267   7.460  0.0976 -0.7596  0.2605
 1662SOL    HW216446   0.091   0.414   7.458  0.2208  1.2967  1.5500
 1663SOL     OW16447   2.360   4.173   7.062  0.3678  0.4249  0.3523
 1663SOL    HW116448   2.310   4.221   7.128 -0.8607 -1.4157  0.7544
 1663SOL    HW216449   2.287   4.130   7.017 -0.3266  0.7946  1.1339
 1664SOL     OW16450   3.171   3.954   2.934 -0.3081 -0.2690 -0.0912
 1664SOL    HW116451   3.134   3.870   2.904 -1.0729 -0.6416  1.8621
 1664SOL    HW216452   3.212   3.980   2.851 -2.6070 -1.5939 -1.6454
 1665SOL     OW16453   3.616   3.714   8.596 -0.4643 -0.1475 -0.2941
 1665SOL    HW116454   3.640   3.626   8.622  2.1528  1.2773  2.0557
 1665SOL    HW216455   3.548   3.738   8.659 -0.1573  0.5731 -0.2333
 1666SOL     OW16456   2.035   1.222   5.026  0.2782  0.0359 -0.0673
 1666SOL    HW116457   2.087   1.194   5.102  1.3357 -1.6160 -1.4041
 1666SOL    HW216458   2.077   1.167   4.960 -0.9050  1.8954 -2.3656
 1667SOL     OW16459   0.030   1.743   7.829 -0.3557 -0.8051 -0.1832
 1667SOL    HW116460   0.019   1.653   7.860 -0.0065 -0.3790  1.1843
 1667SOL    HW216461   4.666   1.754   7.792  0.5644  2.4171 -1.3803
 1668SOL     OW16462   2.277   3.663  11.888  0.2342  0.1550  0.2641
 1668SOL    HW116463   2.370   3.666  11.868 -0.1575 -0.7686 -1.6799
 1668SOL    HW216464   2.240   3.630  11.806  1.2181 -0.1587 -0.0558
 1669SOL     OW16465   0.868   4.242   2.144 -0.9662 -0.2278  0.0293
 1669SOL    HW116466   0.878   4.337   2.131  0.3728 -0.2774  0.7001
 1669SOL    HW216467   0.787   4.247   2.194 -1.2687 -0.7708 -0.4158
 1670SOL     OW16468   0.711   0.617  15.855 -0.3604 -0.1256 -0.1064
 1670SOL    HW116469   0.776   0.552  15.880 -0.7609 -0.7866 -0.7874
 1670SOL    HW216470   0.771   0.673  15.806  0.0918  1.3939  2.1812
 1671SOL     OW16471   2.309   0.144   1.885  0.0675 -0.6326 -0.0397
 1671SOL    HW116472   2.290   0.054   1.861  2.3130 -0.7878 -1.2619
 1671SOL    HW216473   2.217   0.172   1.884  0.7046  1.4043 -3.1683
 1672SOL     OW16474   0.728   2.617   5.420 -0.2992 -0.2698  0.6843
 1672SOL    HW116475   0.702   2.533   5.383  1.1524 -0.3858 -0.0542
 1672SOL    HW216476   0.805   2.643   5.369 -1.0713 -0.8623 -0.7667
 1673SOL     OW16477   0.576   1.203  13.032 -0.0084 -0.3891  0.2730
 1673SOL    HW116478   0.581   1.293  12.999  0.6832 -0.7343 -0.5462
 1673SOL    HW216479   0.525   1.217  13.112 -3.9087 -1.0270 -2.1010
 1674SOL     OW16480   3.206   0.934   3.572 -0.4378 -0.0960 -0.3664
 1674SOL    HW116481   3.194   0.840   3.558 -0.8010  0.0254 -0.8713
 1674SOL    HW216482   3.163   0.974   3.496 -1.7893 -0.3054  0.2906
 1675SOL     OW16483   2.973   2.073   6.744 -0.2505 -0.5941 -0.2924
 1675SOL    HW116484   2.914   2.118   6.684 -1.1745 -1.6961 -0.2122
 1675SOL    HW216485   3.021   2.144   6.786 -0.6292 -0.4788 -0.0532
 1676SOL     OW16486   1.799   4.375  10.085  0.5966  0.2173  1.3740
 1676SOL    HW116487   1.864   4.443  10.067  0.2425 -0.0586 -0.8800
 1676SOL    HW216488   1.764   4.401  10.171 -0.2136 -3.5756  2.1889
 1677SOL     OW16489   1.294   3.261   3.600 -0.1184  0.2727 -1.0453
 1677SOL    HW116490   1.313   3.223   3.686 -2.8524 -0.1740 -0.6288
 1677SOL    HW216491   1.200   3.279   3.603 -0.3485 -1.3350  1.8648
 1678SOL     OW16492   1.318   2.853   2.178  0.6492  0.0790 -0.0130
 1678SOL    HW116493   1.312   2.759   2.164  1.2650 -0.3480  2.6000
 1678SOL    HW216494   1.306   2.851   2.273 -2.7581 -0.7802 -0.4879
 1679SOL     OW16495   2.518   1.052  16.617 -0.2220 -0.8333  0.0282
 1679SOL    HW116496   2.571   1.083  16.690 -1.9505 -0.6777  1.2134
 1679SOL    HW216497   2.439   1.097  16.645 -0.9381 -0.6612 -2.2036
 1680SOL     OW16498   2.799   3.042   3.866 -0.1715  0.4744 -0.2387
 1680SOL    HW116499   2.777   3.077   3.780 -0.4186  1.6043  0.2846
 1680SOL    HW216500   2.765   2.953   3.869  1.7816 -0.2919 -0.4900
 1681SOL     OW16501   2.259   2.348   5.578 -0.0054  0.1696 -0.3006
 1681SOL    HW116502   2.351   2.321   5.578 -0.8060 -2.5234  1.1818
 1681SOL    HW216503   2.233   2.340   5.486  2.6653 -1.7742 -0.9084
 1682SOL     OW16504   1.352   1.548   7.670  0.1050  0.1151 -0.5130
 1682SOL    HW116505   1.400   1.502   7.739  0.7977  0.3023 -0.8750
 1682SOL    HW216506   1.290   1.601   7.720  1.5195  2.2005 -1.0062
 1683SOL     OW16507   3.501   2.552  16.319  0.4997  0.1621  0.0175
 1683SOL    HW116508   3.514   2.643  16.295 -1.6351  0.9670  1.9230
 1683SOL    HW216509   3.411   2.538  16.292  0.5016  1.0371 -0.3978
 1684SOL     OW16510   1.766   0.025   8.123  0.1450 -0.3958  0.0870
 1684SOL    HW116511   1.719   0.090   8.071  1.1915  0.3963  0.1348
 1684SOL    HW216512   1.842   0.077   8.148  1.5463 -2.0628 -0.7108
 1685SOL     OW16513   3.195   3.600   0.501  0.9295  0.3139 -0.0636
 1685SOL    HW116514   3.196   3.576   0.594  0.5820  0.4583 -0.0248
 1685SOL    HW216515   3.101   3.613   0.494  1.2768  1.3309 -2.8643
 1686SOL     OW16516   0.058   0.463   2.944  0.9499  0.0713 -0.2109
 1686SOL    HW116517   0.102   0.542   2.974 -0.2926  0.1560  1.3652
 1686SOL    HW216518   0.105   0.389   2.983  0.5231  1.4674  2.9712
 1687SOL     OW16519   2.978   1.815  13.944  0.1426  0.9135 -0.5173
 1687SOL    HW116520   3.057   1.858  13.977  1.1370  0.1433 -1.8949
 1687SOL    HW216521   3.000   1.722  13.939  2.5446  1.5501 -1.9619
 1688SOL     OW16522   4.170   3.128  11.752 -0.3562  0.3347 -0.1966
 1688SOL    HW116523   4.137   3.144  11.840  0.4968 -3.9858  0.9267
 1688SOL    HW216524   4.162   3.034  11.736 -0.0872  0.3021 -0.1435
 1689SOL     OW16525   2.843   4.244   1.203  0.7702  0.1972 -0.4928
 1689SOL    HW116526   2.757   4.203   1.208  0.8807  0.2072  1.5425
 1689SOL    HW216527   2.829   4.305   1.131  0.3783 -1.0607 -1.4626
 1690SOL     OW16528   2.285   4.153   7.551  0.3111  0.2559 -0.8416
 1690SOL    HW116529   2.198   4.132   7.583  1.7869 -4.4876 -0.0351
 1690SOL    HW216530   2.316   4.220   7.612 -1.1800  0.0794  0.0846
 1691SOL     OW16531   3.829   0.746   5.102 -0.0809  0.7578 -0.1092
 1691SOL    HW116532   3.805   0.665   5.058 -1.5044  0.6677  0.8115
 1691SOL    HW216533   3.763   0.754   5.172 -2.1844  0.8375 -2.0981
 1692SOL     OW16534   4.442   2.299   8.627  0.2476  0.1030 -0.4070
 1692SOL    HW116535   4.480   2.313   8.714 -2.5754 -0.2860  0.9088
 1692SOL    HW216536   4.414   2.386   8.599  0.9524  0.6940  0.7223
 1693SOL     OW16537   1.420   1.566   1.263  0.0152 -0.0005  0.3307
 1693SOL    HW116538   1.336   1.612   1.265  0.3050  0.4892  1.1935
 1693SOL    HW216539   1.447   1.574   1.354 -0.9639  1.6689  0.4861
 1694SOL     OW16540   4.384   0.565   8.704  0.4920  0.7149  0.4249
 1694SOL    HW116541   4.445   0.501   8.740  1.2709  1.2390  0.0389
 1694SOL    HW216542   4.439   0.598   8.633  0.5218  4.3508  2.1328
 1695SOL     OW16543   1.045   3.461   4.912 -0.6124 -0.1303  0.1951
 1695SOL    HW116544   0.957   3.460   4.949 -0.1709  2.1538  1.2876
 1695SOL    HW216545   1.075   3.393   4.972  2.0733  2.4075  1.7114
 1696SOL     OW16546   3.482   0.247   6.231 -0.0269 -0.3933 -0.1610
 1696SOL    HW116547   3.492   0.305   6.156  0.4385  1.0232  0.9904
 1696SOL    HW216548   3.431   0.301   6.291 -1.0246 -1.3615 -0.1439
 1697SOL     OW16549   1.223   1.501  11.627 -0.3516  0.1837 -0.0692
 1697SOL    HW116550   1.294   1.522  11.687 -2.0901  0.3729  1.8880
 1697SOL    HW216551   1.271   1.461  11.554  2.2438  3.1652  0.0076
 1698SOL     OW16552   0.192   4.208   8.516  0.1802 -0.2558  0.4590
 1698SOL    HW116553   0.242   4.151   8.574  0.9885 -0.6732 -0.6298
 1698SOL    HW216554   0.156   4.137   8.463  0.5517 -1.6357  2.0485
 1699SOL     OW16555   2.024   2.054   5.526  0.3840 -0.7746  0.5317
 1699SOL    HW116556   2.064   2.106   5.456 -0.3732  0.2727  0.8871
 1699SOL    HW216557   1.944   2.104   5.543 -0.3343 -1.4734 -0.8151
 1700SOL     OW16558   3.152   0.740   6.974  0.2061 -0.1832 -0.2425
 1700SOL    HW116559   3.185   0.791   6.900 -1.5972  1.5728  0.1653
 1700SOL    HW216560   3.067   0.710   6.942  0.7536 -1.0145 -0.9238
 1701SOL     OW16561   4.528   4.627  13.556  0.9065 -0.0836  0.4549
 1701SOL    HW116562   4.475   4.690  13.606  0.8035 -1.0725  1.5895
 1701SOL    HW216563   4.519   4.555  13.619 -2.9475  2.0484  2.3478
 1702SOL     OW16564   2.519   1.272   6.093  0.2132  0.2576  0.2534
 1702SOL    HW116565   2.533   1.271   6.188  0.2124  1.6750  0.2668
 1702SOL    HW216566   2.609   1.295   6.071  0.2157 -1.5026 -1.6084
 1703SOL     OW16567   1.064   1.533  16.536  0.7124  0.2535 -0.3553
 1703SOL    HW116568   1.104   1.446  16.537 -3.5218 -1.6763 -0.6743
 1703SOL    HW216569   0.976   1.512  16.566  0.5359 -0.8414 -1.6448
 1704SOL     OW16570   3.346   2.453   9.300 -0.3255 -0.4178 -0.1568
 1704SOL    HW116571   3.281   2.517   9.329  0.6795 -0.5605  2.4206
 1704SOL    HW216572   3.355   2.480   9.208 -2.0528  0.2106 -0.1449
 1705SOL     OW16573   4.335   2.455   5.693 -0.1173  0.2285  0.5628
 1705SOL    HW116574   4.404   2.463   5.758 -0.4187 -0.1577  0.9289
 1705SOL    HW216575   4.286   2.376   5.717  0.9034 -0.3534  0.7230
 1706SOL     OW16576   0.756   3.478  12.367  0.0041  0.0284  0.5184
 1706SOL    HW116577   0.672   3.459  12.327  0.9533 -0.0357 -1.4497
 1706SOL    HW216578   0.803   3.396  12.353  1.3453  1.0820 -1.2306
 1707SOL     OW16579   1.590   4.493   1.250 -0.1025  0.1440 -0.2825
 1707SOL    HW116580   1.541   4.428   1.199  0.3567 -1.2501  1.0435
 1707SOL    HW216581   1.646   4.522   1.177  1.4842  0.0956  0.9279
 1708SOL     OW16582   1.998   2.926   5.110 -0.0207 -0.6682  0.2516
 1708SOL    HW116583   1.990   2.959   5.020  0.9895  0.3278  0.5244
 1708SOL    HW216584   2.057   2.994   5.143  1.1477 -1.6725  0.2016
 1709SOL     OW16585   1.113   1.702   4.120  0.7717  0.0802 -0.5904
 1709SOL    HW116586   1.048   1.751   4.171  0.3573 -1.1710  0.0858
 1709SOL    HW216587   1.091   1.610   4.134  0.8429  0.2659  0.8269
 1710SOL     OW16588   0.459   2.618   3.966 -0.0124  0.0190 -0.3716
 1710SOL    HW116589   0.387   2.667   3.926  0.7252  0.8427 -0.7006
 1710SOL    HW216590   0.441   2.527   3.945 -0.8630 -0.4377  2.2641
 1711SOL     OW16591   2.036   2.492   3.352 -0.2723 -0.2698 -0.3399
 1711SOL    HW116592   1.945   2.500   3.323 -0.8297 -0.2238  1.4365
 1711SOL    HW216593   2.055   2.403   3.320  2.5178  1.8858 -4.6007
 1712SOL     OW16594   1.295   4.123   1.234  0.1176  0.0386 -0.0176
 1712SOL    HW116595   1.218   4.163   1.195 -0.0764 -0.3893 -0.0766
 1712SOL    HW216596   1.252   4.074   1.305 -0.1871  0.9321  0.4137
 1713SOL     OW16597   3.453   2.176   1.903 -0.2229  0.0452  0.4275
 1713SOL    HW116598   3.401   2.232   1.846  2.6911  0.6845 -1.6380
 1713SOL    HW216599   3.444   2.091   1.858  2.1511 -0.9922  1.9168
 1714SOL     OW16600   1.166   2.441   4.531  0.3374 -0.7470  0.2485
 1714SOL    HW116601   1.222   2.383   4.583 -0.7456 -0.5033  1.6702
 1714SOL    HW216602   1.084   2.393   4.532  0.5213 -1.0765 -0.9964
 1715SOL     OW16603   2.409   1.661  15.266 -0.6460 -0.0179  0.0718
 1715SOL    HW116604   2.374   1.716  15.196  1.6043  1.8377  0.4184
 1715SOL    HW216605   2.472   1.712  15.316 -1.6075  1.5238 -0.3141
 1716SOL     OW16606   0.255   2.149   2.658  0.2294  0.0771  1.0280
 1716SOL    HW116607   0.234   2.214   2.725 -0.8710  2.0958 -1.2462
 1716SOL    HW216608   0.316   2.205   2.609 -1.9440  0.8451 -0.7937
 1717SOL     OW16609   3.060   4.222  12.127  0.3453 -0.5036 -0.1749
 1717SOL    HW116610   3.062   4.141  12.075  0.2258 -0.5411 -0.1209
 1717SOL    HW216611   3.002   4.198  12.199 -0.1814  1.4885  0.0745
 1718SOL     OW16612   3.365   0.916  14.927 -0.6438 -0.0510  0.3597
 1718SOL    HW116613   3.382   0.987  14.989  0.2941 -0.1340  0.1999
 1718SOL    HW216614   3.360   0.841  14.986  0.2076  0.5458  1.1823
 1719SOL     OW16615   2.480   2.463   4.120 -0.1320  0.0565  0.0419
 1719SOL    HW116616   2.440   2.407   4.053 -1.4390 -0.2249  1.0628
 1719SOL    HW216617   2.562   2.481   4.074 -0.5555 -0.5828 -0.9555
 1720SOL     OW16618   1.458   3.676  10.092 -0.2885 -0.9012  0.7958
 1720SOL    HW116619   1.441   3.687  10.186 -1.7832  0.6883  0.3465
 1720SOL    HW216620   1.370   3.660  10.060  0.2728 -0.1751 -1.0959
 1721SOL     OW16621   1.245   1.963   0.936  0.1189  0.3452  0.4450
 1721SOL    HW116622   1.267   2.040   0.989 -0.6853  2.3292 -2.0867
 1721SOL    HW216623   1.324   1.913   0.958 -0.1858  0.7419  2.4730
 1722SOL     OW16624   4.687   0.957   8.480 -0.8568 -0.2315  0.1515
 1722SOL    HW116625   0.020   1.034   8.485 -0.1671 -0.6889 -0.7527
 1722SOL    HW216626   4.674   0.939   8.387  3.9000 -2.2956 -0.1205
 1723SOL     OW16627   3.510   3.483   7.719 -0.1030 -0.4942  0.3755
 1723SOL    HW116628   3.510   3.391   7.746  1.8948 -0.2251  1.2712
 1723SOL    HW216629   3.577   3.524   7.773 -1.2788  0.0480  1.4315
 1724SOL     OW16630   2.116   1.153   7.666 -0.5574  0.0443  0.8238
 1724SOL    HW116631   2.186   1.133   7.729 -0.4617 -1.0530  0.3487
 1724SOL    HW216632   2.033   1.138   7.711 -0.1635  1.7556  2.1145
 1725SOL     OW16633   2.829   0.761  15.100 -0.5833  0.0564  0.1422
 1725SOL    HW116634   2.748   0.772  15.150  0.1694 -0.4878  1.5045
 1725SOL    HW216635   2.817   0.828  15.032  0.7480 -0.0715 -0.2157
 1726SOL     OW16636   0.493   4.265   9.353 -0.3111 -0.0935 -0.1574
 1726SOL    HW116637   0.583   4.269   9.320 -0.2014 -0.2327  0.1217
 1726SOL    HW216638   0.472   4.358   9.352 -0.9711 -0.2403  0.7622
 1727SOL     OW16639   0.270   0.166   4.877 -0.0363 -0.3475  0.2352
 1727SOL    HW116640   0.198   0.108   4.901 -1.6516  3.0383  3.5185
 1727SOL    HW216641   0.300   0.175   4.967 -0.5069 -1.0434  0.4636
 1728SOL     OW16642   2.845   1.656   7.216  0.1814 -0.0530  0.1489
 1728SOL    HW116643   2.857   1.657   7.121  1.7611 -0.1713  0.3528
 1728SOL    HW216644   2.918   1.709   7.249 -1.8446  2.2541  0.9535
 1729SOL     OW16645   0.363   2.425   4.988 -0.1995  0.4976  0.0305
 1729SOL    HW116646   0.277   2.451   5.022 -1.1322 -0.2306 -1.7745
 1729SOL    HW216647   0.344   2.350   4.932 -0.4249  0.5479  0.0362
 1730SOL     OW16648   3.303   1.551   9.433  0.3635  0.4917  0.6766
 1730SOL    HW116649   3.345   1.467   9.451 -0.1768  0.1003  0.1312
 1730SOL    HW216650   3.302   1.593   9.519 -2.3834  1.1860  0.3060
 1731SOL     OW16651   3.054   2.904   0.147 -0.3629 -0.1378  0.5871
 1731SOL    HW116652   3.051   2.861   0.062  3.0922 -0.1808  0.4641
 1731SOL    HW216653   3.093   2.832   0.197  0.7124 -0.2482 -0.4108
 1732SOL     OW16654   2.047   4.039   5.992  0.6225 -0.2988  0.3339
 1732SOL    HW116655   2.079   4.120   5.952  1.0006 -0.3926  0.4470
 1732SOL    HW216656   2.100   3.970   5.953  0.1622 -0.8210  0.6418
 1733SOL     OW16657   3.223   3.517   8.778 -0.5002 -0.0815 -0.3289
 1733SOL    HW116658   3.232   3.442   8.838 -1.3412  0.0938  0.0174
 1733SOL    HW216659   3.225   3.590   8.839  0.8375 -0.7280  0.3854
 1734SOL     OW16660   1.804   4.244  16.972 -0.1290 -0.6004 -0.3333
 1734SOL    HW116661   1.875   4.300  16.942 -0.5993  1.0206  1.5361
 1734SOL    HW216662   1.855   4.197  17.038  1.8786  2.1182  0.0695
 1735SOL     OW16663   2.425   0.234   2.823  0.2822  0.2613 -0.3527
 1735SOL    HW116664   2.412   0.178   2.746 -1.8599 -0.3397  0.4448
 1735SOL    HW216665   2.520   0.218   2.820  0.3250  0.7339 -1.4927
 1736SOL     OW16666   3.358   1.185   0.160 -0.2108  0.6650  0.2297
 1736SOL    HW116667   3.329   1.107   0.113  1.1133  1.5010 -1.9957
 1736SOL    HW216668   3.298   1.257   0.139 -0.8734 -0.2889 -1.1357
 1737SOL     OW16669   2.305   4.065   8.160  0.3847  0.1083  0.4984
 1737SOL    HW116670   2.328   4.037   8.071  0.9120  1.1142  0.3171
 1737SOL    HW216671   2.214   4.097   8.157  0.1748 -0.5604 -0.1073
 1738SOL     OW16672   4.005   0.097  15.793 -0.6039  0.1170  0.5050
 1738SOL    HW116673   3.967   0.059  15.714  0.2305 -1.3587  0.8182
 1738SOL    HW216674   4.024   0.011  15.828  1.3174 -0.1609 -1.2385
 1739SOL     OW16675   2.781   4.276   1.880  0.3921  0.1685 -0.1785
 1739SOL    HW116676   2.717   4.335   1.839 -0.5886 -0.5682  0.3201
 1739SOL    HW216677   2.851   4.310   1.824  1.5986 -1.5125  0.3431
 1740SOL     OW16678   3.122   3.517   8.335 -0.0904  0.2500  0.5599
 1740SOL    HW116679   3.086   3.605   8.321  0.2906  0.2083 -0.6854
 1740SOL    HW216680   3.187   3.517   8.265  0.2187  0.4599  0.8451
 1741SOL     OW16681   3.782   4.018   2.211 -0.2755 -0.8529  0.1633
 1741SOL    HW116682   3.788   4.107   2.246  0.1467 -1.1478  0.8335
 1741SOL    HW216683   3.743   4.032   2.125 -0.2313  0.4412  0.3446
 1742SOL     OW16684   3.649   2.526   4.438  0.3387  0.2871  0.1502
 1742SOL    HW116685   3.565   2.541   4.396  1.6119  0.4456 -2.3775
 1742SOL    HW216686   3.638   2.445   4.488  0.5230 -0.5631 -1.1791
 1743SOL     OW16687   0.611   0.261   4.157 -0.0309 -0.3525 -0.2370
 1743SOL    HW116688   0.624   0.264   4.062 -2.5829 -0.0462 -0.5716
 1743SOL    HW216689   0.524   0.299   4.165  0.8757  1.8665 -0.9663
 1744SOL     OW16690   3.455   0.495   1.818  0.4483  0.4248  0.4231
 1744SOL    HW116691   3.482   0.416   1.771 -0.7847  0.2294  0.0698
 1744SOL    HW216692   3.488   0.558   1.753  1.1053  0.5524  0.8763
 1745SOL     OW16693   1.904   0.094  15.167 -0.4227 -0.1922 -0.1869
 1745SOL    HW116694   1.938   0.027  15.107  1.1111 -1.3340  1.9930
 1745SOL    HW216695   1.900   0.051  15.252 -1.3401  0.0926 -0.0896
 1746SOL     OW16696   2.405   2.313   9.317  0.3747  0.2073 -0.3496
 1746SOL    HW116697   2.331   2.357   9.359 -1.6797 -3.5578 -0.0493
 1746SOL    HW216698   2.448   2.382   9.266 -1.3159  2.3049  1.0833
 1747SOL     OW16699   0.125   2.936   2.620 -0.0093 -0.2511  0.0520
 1747SOL    HW116700   0.043   2.944   2.572 -1.0438  0.9139  1.9794
 1747SOL    HW216701   0.186   2.911   2.550  0.0382 -0.6049  0.2221
 1748SOL     OW16702   4.407   2.712   4.190  0.2838  0.2844  0.0377
 1748SOL    HW116703   4.322   2.668   4.190  0.7436 -0.6263 -1.3331
 1748SOL    HW216704   4.458   2.651   4.136  3.6531  2.4218  0.7621
 1749SOL     OW16705   0.047   1.186   7.036  0.4071 -0.0430 -0.4754
 1749SOL    HW116706   4.705   1.227   7.092  3.4941  0.5129  2.8193
 1749SOL    HW216707   0.130   1.217   7.071  0.0018 -0.0661  0.5027
 1750SOL     OW16708   4.620   4.389   7.945  0.1487  0.5220 -0.0616
 1750SOL    HW116709   4.598   4.482   7.946  0.9446  0.6998  0.8470
 1750SOL    HW216710   4.714   4.404   7.957  0.5001 -1.6130 -0.2865
 1751SOL     OW16711   3.238   4.525  16.763 -0.2218  0.5499  0.0707
 1751SOL    HW116712   3.212   4.526  16.855 -1.0886 -0.1878 -0.1695
 1751SOL    HW216713   3.245   4.431  16.748  0.3278  1.1606 -3.5022
 1752SOL     OW16714   1.275   1.673  10.312 -0.1814 -0.6971 -0.0944
 1752SOL    HW116715   1.260   1.581  10.333 -1.7407 -0.5386 -0.5092
 1752SOL    HW216716   1.368   1.673  10.287 -0.3068  0.8164 -0.5741
 1753SOL     OW16717   1.381   0.054  12.995 -0.1803 -0.6865 -0.1148
 1753SOL    HW116718   1.313   4.718  12.963 -1.2677  0.6636 -0.3606
 1753SOL    HW216719   1.461   0.002  12.991  0.2600  0.1104 -1.7049
 1754SOL     OW16720   0.650   1.596  11.403 -0.6532  0.3966 -0.0511
 1754SOL    HW116721   0.735   1.632  11.429  0.3897 -2.2083  0.2083
 1754SOL    HW216722   0.678   1.506  11.419  1.1877  0.6396 -1.8371
 1755SOL     OW16723   1.823   3.862   5.459 -1.1985  0.2145 -0.5993
 1755SOL    HW116724   1.740   3.889   5.421 -1.3449 -0.1624 -0.5457
 1755SOL    HW216725   1.885   3.911   5.405 -0.0873  0.8752  1.2589
 1756SOL     OW16726   3.226   1.851   7.127 -0.0045  0.1334  0.1895
 1756SOL    HW116727   3.176   1.872   7.048 -0.1766 -0.1173  0.2319
 1756SOL    HW216728   3.306   1.815   7.090 -1.0400 -1.3728 -0.6032
 1757SOL     OW16729   0.038   4.247  11.595 -0.1831 -0.4628  0.3347
 1757SOL    HW116730   0.123   4.279  11.627  0.1207  0.2327 -1.1484
 1757SOL    HW216731   0.051   4.262  11.502  0.3113  0.4929  0.5512
 1758SOL     OW16732   4.336   3.796   6.603  0.5888  0.2728  0.2766
 1758SOL    HW116733   4.288   3.727   6.558  1.1163  0.1415 -0.0861
 1758SOL    HW216734   4.293   3.880   6.587  0.2174 -0.3543 -1.9499
 1759SOL     OW16735   2.494   1.755   5.045 -0.2553 -0.5309  0.2090
 1759SOL    HW116736   2.501   1.665   5.013 -1.9102 -0.5338 -0.1205
 1759SOL    HW216737   2.402   1.748   5.071 -0.8210 -0.1261 -1.6803
 1760SOL     OW16738   0.267   3.187  14.849 -0.0050  0.0837  0.1980
 1760SOL    HW116739   0.228   3.127  14.912  2.0891 -0.6976  0.7505
 1760SOL    HW216740   0.194   3.210  14.792  0.0436 -1.7854 -0.6387
 1761SOL     OW16741   3.535   0.956   7.077  0.2096  0.4429 -0.8030
 1761SOL    HW116742   3.450   0.997   7.091 -0.5484 -1.8252  1.1544
 1761SOL    HW216743   3.577   1.019   7.018  1.6572  0.6036  0.3879
 1762SOL     OW16744   3.247   0.778   3.033 -0.1007  0.4732  0.6932
 1762SOL    HW116745   3.320   0.784   2.971 -0.5427  1.4398  0.2626
 1762SOL    HW216746   3.177   0.818   2.982  1.6892  0.5379 -1.7726
 1763SOL     OW16747   3.881   0.861   8.067  0.2359 -0.4685  0.3116
 1763SOL    HW116748   3.827   0.788   8.096 -2.2052  1.5100  0.7981
 1763SOL    HW216749   3.934   0.881   8.144 -0.4691  1.0327  0.4085
 1764SOL     OW16750   2.638   2.528  11.649 -0.1776 -0.0134  0.3899
 1764SOL    HW116751   2.636   2.529  11.553 -1.1509 -3.4487  0.3736
 1764SOL    HW216752   2.630   2.622  11.665 -0.4881 -0.4123  2.5296
 1765SOL     OW16753   0.016   1.297   2.780  0.6677  0.0335  0.8344
 1765SOL    HW116754   4.652   1.328   2.800  0.4643  0.8708 -1.3085
 1765SOL    HW216755   0.005   1.205   2.803  2.4474 -0.8196 -1.7507
 1766SOL     OW16756   1.353   2.905   6.083 -0.2686 -0.1834  0.4830
 1766SOL    HW116757   1.270   2.880   6.043  0.7065 -1.8773 -0.4920
 1766SOL    HW216758   1.345   2.871   6.172  3.5593 -1.7733  0.2176
 1767SOL     OW16759   1.317   2.801   6.338  0.1954  0.4041  0.0613
 1767SOL    HW116760   1.298   2.714   6.303  0.1419  0.5875 -0.3723
 1767SOL    HW216761   1.248   2.805   6.405  0.8217  0.3747  0.7074
 1768SOL     OW16762   3.007   2.188   0.448 -0.3801 -0.0444 -0.5500
 1768SOL    HW116763   3.006   2.203   0.354 -0.2165  0.1910 -0.5146
 1768SOL    HW216764   3.076   2.245   0.483 -2.5690  1.7466  0.8132
 1769SOL     OW16765   2.041   2.672  16.363 -0.8368  0.0242  0.0120
 1769SOL    HW116766   2.014   2.733  16.294  1.1573  1.8152  0.8319
 1769SOL    HW216767   2.125   2.644  16.326 -0.6422  1.2424 -0.4836
 1770SOL     OW16768   0.946   0.791   6.098 -0.2871 -0.3616 -0.0091
 1770SOL    HW116769   0.887   0.863   6.121  1.8733  1.9491 -1.7653
 1770SOL    HW216770   0.942   0.734   6.175  1.2029  1.2299  1.2448
 1771SOL     OW16771   3.366   3.325  16.437 -0.2184  0.0863 -0.2037
 1771SOL    HW116772   3.364   3.250  16.377  0.6723 -1.3206  1.5064
 1771SOL    HW216773   3.282   3.364  16.413  0.1916  1.3562  0.4139
 1772SOL     OW16774   0.346   4.086   8.706  0.0678 -0.0854 -0.1578
 1772SOL    HW116775   0.257   4.053   8.717 -0.2151  0.6723 -0.1736
 1772SOL    HW216776   0.385   4.056   8.789  2.3613  3.3242  0.0277
 1773SOL     OW16777   1.317   0.831   3.722  0.2634 -0.1600  0.0080
 1773SOL    HW116778   1.245   0.854   3.664  1.5436 -0.2240 -1.5960
 1773SOL    HW216779   1.336   0.919   3.755 -0.9823  0.3753 -0.6936
 1774SOL     OW16780   1.711   4.095   2.727  0.8912  0.4671 -0.4135
 1774SOL    HW116781   1.714   4.175   2.778 -2.5161  0.3047  0.0029
 1774SOL    HW216782   1.632   4.063   2.770  1.0071 -1.0226 -1.2737
 1775SOL     OW16783   1.463   2.797   8.862  0.2201  0.2110 -0.1410
 1775SOL    HW116784   1.384   2.743   8.858  0.1180  0.2209  1.8370
 1775SOL    HW216785   1.484   2.808   8.955  0.5355 -0.3257 -0.1481
 1776SOL     OW16786   2.034   1.586   6.960 -0.0048  0.2222 -0.3994
 1776SOL    HW116787   2.046   1.663   6.905 -0.0353  0.6085  0.1400
 1776SOL    HW216788   1.951   1.551   6.928 -0.7236  0.1029  1.5618
 1777SOL     OW16789   0.767   3.629   0.318  0.2965  0.0535  0.3849
 1777SOL    HW116790   0.730   3.607   0.404 -1.2295 -0.1450 -0.3304
 1777SOL    HW216791   0.777   3.546   0.271 -0.0861  1.5793 -2.3376
 1778SOL     OW16792   1.548   3.341   4.658 -0.0759  0.0538  0.4471
 1778SOL    HW116793   1.561   3.435   4.671  0.3192 -0.1806  1.7295
 1778SOL    HW216794   1.517   3.312   4.743 -2.8583  1.4702 -0.0668
 1779SOL     OW16795   2.422   0.949   1.294  0.3339 -0.1158  1.0424
 1779SOL    HW116796   2.500   0.901   1.325  0.5863 -0.8564 -0.7581
 1779SOL    HW216797   2.400   0.905   1.212 -3.0508  0.1719  1.8161
 1780SOL     OW16798   0.027   0.182  17.157 -0.1213  0.3357  0.2833
 1780SOL    HW116799   4.660   0.169  17.181  0.1621 -0.7122  0.7682
 1780SOL    HW216800   0.052   0.265  17.198 -0.0876  0.7542 -0.5776
 1781SOL     OW16801   3.838   1.198  12.866  0.2096 -0.2108  0.0491
 1781SOL    HW116802   3.899   1.125  12.872  1.2625  0.7775  1.4044
 1781SOL    HW216803   3.766   1.168  12.811  1.5825 -1.7879 -0.8752
 1782SOL     OW16804   2.153   2.546   3.592  0.4021 -0.2177  0.5797
 1782SOL    HW116805   2.110   2.475   3.641  1.3460 -1.1234  0.1054
 1782SOL    HW216806   2.104   2.540   3.510  0.7322  0.6588  0.3178
 1783SOL     OW16807   2.673   2.521   9.394  0.0750 -0.1431 -0.5422
 1783SOL    HW116808   2.673   2.447   9.333 -1.5880 -1.5968  1.2214
 1783SOL    HW216809   2.690   2.472   9.475  1.0249  0.4288 -0.3905
 1784SOL     OW16810   1.950   1.723   7.876  0.7553  0.6323 -0.3877
 1784SOL    HW116811   1.930   1.815   7.861 -0.9974  0.2134 -0.5965
 1784SOL    HW216812   1.873   1.689   7.922 -0.1440  3.7536  0.4502
 1785SOL     OW16813   4.301   4.718  16.532 -0.5768  0.3017  0.1599
 1785SOL    HW116814   4.285   0.085  16.508 -2.5448 -0.1770 -0.2987
 1785SOL    HW216815   4.251   4.695  16.610 -0.7133 -1.9436 -0.5773
 1786SOL     OW16816   4.515   4.424   3.076 -0.4138 -0.0024 -0.0843
 1786SOL    HW116817   4.519   4.411   2.981 -2.2973 -1.4166  0.0185
 1786SOL    HW216818   4.580   4.494   3.086  0.9773 -1.3714  0.3365
 1787SOL     OW16819   0.576   4.108   5.739 -0.0283  0.7457  0.0768
 1787SOL    HW116820   0.645   4.045   5.719  0.2719  0.6925  1.3116
 1787SOL    HW216821   0.584   4.121   5.833  0.2012  1.1260  0.0079
 1788SOL     OW16822   3.508   2.503   2.341 -0.0417 -0.7299 -0.0727
 1788SOL    HW116823   3.539   2.498   2.251 -0.6258 -1.8055 -0.2245
 1788SOL    HW216824   3.577   2.562   2.369 -0.8855 -0.4043  1.3174
 1789SOL     OW16825   4.631   0.347   9.216  0.3302 -0.5137  0.3088
 1789SOL    HW116826   4.579   0.306   9.147  0.4006 -0.7641  0.4011
 1789SOL    HW216827   4.663   0.425   9.172 -0.0921  0.4325  1.6680
 1790SOL     OW16828   4.099   2.235   3.644  0.1049 -0.1656 -0.3973
 1790SOL    HW116829   4.138   2.160   3.688  1.3053 -1.1600 -3.1470
 1790SOL    HW216830   4.070   2.288   3.718  0.2373  0.6620 -0.9401
 1791SOL     OW16831   1.569   3.635   4.686  0.0683  0.4818  0.0281
 1791SOL    HW116832   1.615   3.640   4.769 -0.2047  2.3277  0.0601
 1791SOL    HW216833   1.603   3.712   4.639 -1.3740  0.9713 -0.2360
 1792SOL     OW16834   3.540   4.346  13.993 -0.1436  0.6849 -0.0266
 1792SOL    HW116835   3.449   4.346  14.022 -0.0808  1.2752  0.1542
 1792SOL    HW216836   3.563   4.438  13.998 -0.4769  0.7725 -0.1238
 1793SOL     OW16837   0.032   2.420   6.288  0.5261  0.3506  0.4730
 1793SOL    HW116838   0.010   2.328   6.302 -3.0984  1.2474  0.5272
 1793SOL    HW216839   0.128   2.421   6.285  0.5323 -1.6866  0.3182
 1794SOL     OW16840   4.441   3.968   4.225 -0.7260 -1.1629 -0.1100
 1794SOL    HW116841   4.515   3.919   4.191  1.9531  2.5972  0.3486
 1794SOL    HW216842   4.372   3.906   4.249 -1.7461 -0.2909 -0.7997
 1795SOL     OW16843   1.109   2.747  12.629 -0.2130  0.1342  0.0154
 1795SOL    HW116844   1.181   2.811  12.632 -0.9231  0.8191  2.4243
 1795SOL    HW216845   1.128   2.696  12.708  0.6253 -1.9541 -1.5326
 1796SOL     OW16846   1.842   0.350   4.930  0.2045  0.4327 -0.1653
 1796SOL    HW116847   1.786   0.424   4.905 -0.7629  0.2147  1.3503
 1796SOL    HW216848   1.859   0.367   5.022 -1.1007  0.7325  0.0254
 1797SOL     OW16849   0.985   1.010   8.272  0.1994  0.0869 -0.1551
 1797SOL    HW116850   1.073   1.047   8.276  0.5829 -0.9316  0.7557
 1797SOL    HW216851   0.969   0.978   8.361 -1.4096  1.8751  0.2040
 1798SOL     OW16852   3.838   3.781   3.386  0.3283  0.4845 -0.1815
 1798SOL    HW116853   3.889   3.846   3.434  0.2717 -0.3567  1.0156
 1798SOL    HW216854   3.792   3.745   3.462  1.0771 -1.5060 -0.6649
 1799SOL     OW16855   0.510   1.680  14.386  0.3279  0.5420  0.3036
 1799SOL    HW116856   0.566   1.605  14.365  1.4309  1.4837 -0.1482
 1799SOL    HW216857   0.493   1.675  14.480 -0.7021 -0.5399  0.0645
 1800SOL     OW16858   3.338   2.741  17.377  0.1715 -0.9533 -0.1750
 1800SOL    HW116859   3.409   2.724  17.316  1.4980 -0.7610  1.3010
 1800SOL    HW216860   3.382   2.760  17.460 -2.7207 -3.1535  1.8753
 1801SOL     OW16861   0.134   3.700   7.433  0.0080  0.7756 -0.1158
 1801SOL    HW116862   0.134   3.668   7.343 -2.1050 -1.3205  0.6120
 1801SOL    HW216863   0.049   3.674   7.469 -1.0131  0.9537 -2.4190
 1802SOL     OW16864   3.013   2.855   5.647 -0.3521 -0.5715  0.0603
 1802SOL    HW116865   2.956   2.794   5.694 -2.4592  0.2863 -1.3647
 1802SOL    HW216866   3.095   2.806   5.644 -0.6251 -0.9246 -1.4074
 1803SOL     OW16867   1.362   1.917  11.058  0.0501 -0.1369 -0.1120
 1803SOL    HW116868   1.381   1.844  11.117  1.9058 -1.3865 -2.2512
 1803SOL    HW216869   1.290   1.890  11.001  1.7615 -1.1933 -1.7887
 1804SOL     OW16870   4.215   0.748   7.057  0.5013  0.0038 -0.1414
 1804SOL    HW116871   4.252   0.802   6.988  1.3609  1.7501  1.7061
 1804SOL    HW216872   4.234   0.812   7.126  0.5623  0.2387 -0.3803
 1805SOL     OW16873   3.378   0.653   9.061 -0.0028 -0.1361 -0.9134
 1805SOL    HW116874   3.349   0.638   8.971 -3.1916 -3.2285  0.6176
 1805SOL    HW216875   3.394   0.747   9.060 -0.8922  0.0384  0.4832
 1806SOL     OW16876   0.504   1.379   8.965 -0.1282  0.6515 -0.0288
 1806SOL    HW116877   0.545   1.438   9.028  0.9321 -1.3519  1.1793
 1806SOL    HW216878   0.577   1.318   8.952  1.1059  2.0611  0.3001
 1807SOL     OW16879   0.251   0.223  11.163  0.7514  0.1097 -0.2220
 1807SOL    HW116880   0.211   0.167  11.229  2.4590 -0.3249  0.4356
 1807SOL    HW216881   0.247   0.169  11.083  0.3195 -1.3617  0.7997
 1808SOL     OW16882   2.021   1.854  11.073  0.1722  0.0359 -0.2345
 1808SOL    HW116883   2.071   1.858  11.154 -1.6680 -1.4728  0.9695
 1808SOL    HW216884   2.059   1.777  11.032  0.7074 -0.2564  0.8251
 1809SOL     OW16885   1.760   0.698  11.296 -0.2265  0.3918  0.1390
 1809SOL    HW116886   1.763   0.647  11.377  1.0412  0.1325 -0.0675
 1809SOL    HW216887   1.809   0.779  11.311  1.0429 -0.5691  1.1610
 1810SOL     OW16888   0.820   0.615   0.671 -0.1990  0.0942  0.2002
 1810SOL    HW116889   0.828   0.521   0.686 -0.2652  0.1447  0.5385
 1810SOL    HW216890   0.794   0.607   0.579 -0.7578  1.0662  0.2717
 1811SOL     OW16891   0.175   1.165  12.900 -0.3706 -0.2703  0.4296
 1811SOL    HW116892   0.084   1.192  12.910 -0.7715 -2.0783  1.7083
 1811SOL    HW216893   0.191   1.183  12.808  1.3294  1.0004  0.9499
 1812SOL     OW16894   4.574   0.409  13.040 -0.4251 -0.3251  0.1017
 1812SOL    HW116895   4.547   0.469  13.109 -0.0773  2.4267 -2.1506
 1812SOL    HW216896   4.493   0.391  12.992  0.9161 -1.2273 -1.8440
 1813SOL     OW16897   4.030   0.285   3.944  0.0323  0.1319 -0.6938
 1813SOL    HW116898   4.033   0.251   4.034 -1.5500 -0.1140 -0.7368
 1813SOL    HW216899   4.123   0.281   3.919 -0.4665 -5.0272 -1.7731
 1814SOL     OW16900   3.838   1.226   0.941  0.2108  0.2242  0.2371
 1814SOL    HW116901   3.856   1.207   1.033  2.2780  1.1776  0.0374
 1814SOL    HW216902   3.808   1.317   0.946 -0.6989 -0.0562 -0.1699
 1815SOL     OW16903   2.187   1.604   7.759 -0.3928  0.1631 -0.1988
 1815SOL    HW116904   2.129   1.544   7.711  1.3121 -1.8929  0.2943
 1815SOL    HW216905   2.123   1.671   7.782  0.1584  0.6406 -0.0537
 1816SOL     OW16906   0.328   4.336   0.766 -0.3327 -0.7772 -0.0459
 1816SOL    HW116907   0.398   4.349   0.830 -0.8888  0.5541  0.2886
 1816SOL    HW216908   0.327   4.241   0.753 -0.3376 -0.9207  0.9577
 1817SOL     OW16909   3.880   1.191   2.237  0.1122  0.1546  0.3482
 1817SOL    HW116910   3.808   1.164   2.179  0.3850  1.0346 -0.3870
 1817SOL    HW216911   3.826   1.234   2.304 -0.0071 -1.0905  1.0525
 1818SOL     OW16912   2.113   3.273   1.321 -0.0477 -0.1124  0.2675
 1818SOL    HW116913   2.037   3.300   1.373  1.2375 -0.7346  2.4525
 1818SOL    HW216914   2.082   3.300   1.234  0.3369  0.9391  0.4615
 1819SOL     OW16915   2.404   4.669   4.572  0.1697  0.2957  0.0565
 1819SOL    HW116916   2.320   4.704   4.543 -0.3405 -0.6180  0.4059
 1819SOL    HW216917   2.443   4.659   4.485 -1.5257  1.2611 -0.8053
 1820SOL     OW16918   1.654   1.720   7.964  0.4435 -0.4140 -0.0336
 1820SOL    HW116919   1.595   1.789   7.934 -0.5152 -0.9558  0.6335
 1820SOL    HW216920   1.677   1.757   8.049  0.4488  0.8775 -0.5910
 1821SOL     OW16921   0.748   1.796   4.931 -0.2712 -0.5267 -0.2729
 1821SOL    HW116922   0.654   1.815   4.936 -0.5710 -2.3313  0.8732
 1821SOL    HW216923   0.761   1.816   4.839 -0.7476 -0.2418 -0.2798
 1822SOL     OW16924   3.296   1.440   8.986  0.0313  0.0523 -0.0280
 1822SOL    HW116925   3.203   1.424   9.001  0.6436 -2.5577  1.1283
 1822SOL    HW216926   3.333   1.385   9.056 -1.8080 -2.6439 -1.2062
 1823SOL     OW16927   1.188   4.687  13.533 -0.0671 -0.0700 -0.1745
 1823SOL    HW116928   1.094   4.692  13.547 -0.0146 -1.6543  0.7580
 1823SOL    HW216929   1.202   4.593  13.519  1.2407  0.2138 -0.8000
 1824SOL     OW16930   2.166   4.214   5.830 -0.3630  0.1300 -0.0648
 1824SOL    HW116931   2.142   4.297   5.788  1.0211  1.7609  2.3539
 1824SOL    HW216932   2.130   4.145   5.774 -0.1435 -0.0733  0.0424
 1825SOL     OW16933   3.422   2.766   7.764 -0.5721  0.0661  0.3252
 1825SOL    HW116934   3.389   2.686   7.723  0.0901 -0.0789  0.0918
 1825SOL    HW216935   3.414   2.750   7.858 -0.6002 -1.1468  0.1179
 1826SOL     OW16936   2.170   2.722   3.159 -0.4585  0.1840  0.2371
 1826SOL    HW116937   2.133   2.795   3.208 -1.9041 -0.7409  0.5067
 1826SOL    HW216938   2.198   2.655   3.220 -2.5739 -0.4319  0.5065
 1827SOL     OW16939   3.469   0.811   8.031 -0.1880  0.3359 -0.5802
 1827SOL    HW116940   3.507   0.895   8.006 -1.5439  1.4495  1.0595
 1827SOL    HW216941   3.482   0.818   8.126 -0.8855 -1.0742 -0.3736
 1828SOL     OW16942   4.186   3.928   8.810 -0.3107 -0.0523 -0.2758
 1828SOL    HW116943   4.197   4.022   8.795 -1.7939  0.3655  1.2110
 1828SOL    HW216944   4.158   3.921   8.901  0.4068  2.4623  0.1374
 1829SOL     OW16945   0.609   1.415   8.099 -0.0272 -0.3722  0.3862
 1829SOL    HW116946   0.611   1.367   8.182 -1.8392 -1.8693 -0.4297
 1829SOL    HW216947   0.535   1.472   8.118 -0.9567 -0.3242 -3.2869
 1830SOL     OW16948   2.383   0.071   7.371  0.2519  0.1689  0.1488
 1830SOL    HW116949   2.403   4.714   7.417  1.2511  0.1459 -0.3316
 1830SOL    HW216950   2.293   0.087   7.400 -1.4037 -1.9493 -3.7657
 1831SOL     OW16951   0.014   0.026   4.883  0.0239 -0.2204 -0.0003
 1831SOL    HW116952   0.043   4.722   4.796  0.6860  3.3168 -0.9439
 1831SOL    HW216953   4.715   4.663   4.915  2.3903 -0.1101  2.0330
 1832SOL     OW16954   0.586   1.209   9.856 -0.4887 -0.0529  0.0384
 1832SOL    HW116955   0.581   1.246   9.945  0.8184 -0.1834  0.1647
 1832SOL    HW216956   0.646   1.136   9.873 -1.0757 -0.5034  0.1571
 1833SOL     OW16957   1.490   1.806  13.787 -0.0032 -0.5434  0.0946
 1833SOL    HW116958   1.484   1.901  13.800 -0.3533 -0.6118  0.4079
 1833SOL    HW216959   1.434   1.792  13.711 -0.2918 -0.8783  0.3740
 1834SOL     OW16960   2.446   2.203  15.042  0.1544  0.4209 -0.3251
 1834SOL    HW116961   2.381   2.247  14.988  1.6198  1.6717 -1.0723
 1834SOL    HW216962   2.461   2.119  14.999  1.1635  2.2240 -3.4207
 1835SOL     OW16963   2.391   4.252   3.300 -0.1432 -0.4637  0.6335
 1835SOL    HW116964   2.324   4.217   3.359  0.7851 -2.9272  0.2124
 1835SOL    HW216965   2.347   4.241   3.216 -0.5376  0.5882  0.7042
 1836SOL     OW16966   0.866   2.504   6.630 -0.1756  0.3520 -0.9912
 1836SOL    HW116967   0.941   2.513   6.689 -1.1065  1.4798  0.0262
 1836SOL    HW216968   0.877   2.417   6.593 -0.4167  1.1593 -2.9693
 1837SOL     OW16969   1.467   3.373   4.926 -0.3194  0.8633  0.2524
 1837SOL    HW116970   1.424   3.458   4.912  0.4664  0.8434 -2.2144
 1837SOL    HW216971   1.399   3.317   4.964  0.3787  0.5241  1.0158
 1838SOL     OW16972   1.579   0.584   3.877  0.3666  0.0567  0.0084
 1838SOL    HW116973   1.584   0.606   3.970  1.4632 -2.0001  0.4398
 1838SOL    HW216974   1.640   0.509   3.877  1.1250  0.6732  0.5168
 1839SOL     OW16975   4.089   2.289   5.565  0.8575 -0.2662  0.1139
 1839SOL    HW116976   4.037   2.294   5.645  2.7892  2.4429  1.1688
 1839SOL    HW216977   4.058   2.207   5.526  1.5590  0.4202 -1.8923
 1840SOL     OW16978   3.801   1.272  16.680 -0.6739 -0.3099 -0.2070
 1840SOL    HW116979   3.777   1.265  16.587 -2.1301  2.5412 -0.0423
 1840SOL    HW216980   3.895   1.255  16.672 -0.4544 -0.1742  2.0628
 1841SOL     OW16981   0.169   4.519  10.617 -0.3244 -0.4122 -0.1333
 1841SOL    HW116982   0.146   4.447  10.558  0.7017 -1.0074  0.1943
 1841SOL    HW216983   0.226   4.567  10.557 -1.2067 -0.0401 -0.6833
 1842SOL     OW16984   3.635   2.513   7.057  0.0650  0.1781 -0.0622
 1842SOL    HW116985   3.572   2.531   6.986  1.9568  1.8316 -1.3242
 1842SOL    HW216986   3.648   2.597   7.101 -1.2514 -0.4760  1.5557
 1843SOL     OW16987   0.660   2.305   6.469  0.5271  0.1394  0.4079
 1843SOL    HW116988   0.611   2.384   6.493 -2.0755 -1.6119  0.8847
 1843SOL    HW216989   0.584   2.251   6.446 -0.1212  0.5643  1.5693
 1844SOL     OW16990   3.933   4.097   4.667 -0.1679  0.0643 -0.3055
 1844SOL    HW116991   3.889   4.084   4.751  1.3126  0.8538  0.5816
 1844SOL    HW216992   4.019   4.058   4.685 -0.7692 -0.6389  1.0686
 1845SOL     OW16993   3.932   4.230  14.624  0.2374  0.2164 -0.0071
 1845SOL    HW116994   3.953   4.262  14.537 -2.6558 -2.2989 -1.6469
 1845SOL    HW216995   3.993   4.269  14.686  0.0208  2.2300 -1.0611
 1846SOL     OW16996   3.997   4.441   4.899  0.4740  0.0805  0.3167
 1846SOL    HW116997   4.017   4.516   4.842  1.2639  1.5971  2.6128
 1846SOL    HW216998   4.088   4.426   4.922  0.0432  1.2207  2.7864
 1847SOL     OW16999   3.305   2.551   9.035  0.1440  0.1853 -0.0009
 1847SOL    HW117000   3.224   2.554   8.983  0.7877  1.9139 -0.8815
 1847SOL    HW217001   3.358   2.622   8.999 -0.4455  0.0166 -1.1919
 1848SOL     OW17002   4.296   4.544   9.905  0.0425 -0.2776  0.0345
 1848SOL    HW117003   4.276   4.480   9.837  1.4669 -1.4424  0.7208
 1848SOL    HW217004   4.334   4.614   9.852  2.4361 -2.2643 -0.8319
 1849SOL     OW17005   3.853   3.548   0.312 -0.2401  0.5592  0.3377
 1849SOL    HW117006   3.764   3.561   0.280 -0.4601  0.0288  0.7390
 1849SOL    HW217007   3.901   3.602   0.249  1.0021  0.8485  1.5388
 1850SOL     OW17008   2.956   1.437   9.028 -0.6580 -0.0692 -0.1637
 1850SOL    HW117009   2.955   1.348   8.992 -0.1133 -0.2743  0.3270
 1850SOL    HW217010   2.864   1.457   9.040 -0.9966 -1.5959 -0.1477
 1851SOL     OW17011   0.407   2.330   2.535 -0.0782 -0.5884  0.2260
 1851SOL    HW117012   0.434   2.407   2.585 -0.4667  1.7545 -3.1479
 1851SOL    HW217013   0.432   2.354   2.445 -2.2937  0.0583 -0.2210
 1852SOL     OW17014   3.354   3.945   3.787  0.3586  0.9287 -0.1121
 1852SOL    HW117015   3.369   3.963   3.880  0.0673  1.2151 -0.1226
 1852SOL    HW217016   3.380   4.027   3.746 -0.3517  1.6937  0.9735
 1853SOL     OW17017   2.774   1.396   4.504  0.1218 -0.1537  0.0185
 1853SOL    HW117018   2.724   1.370   4.427  0.4376  1.5017 -0.7438
 1853SOL    HW217019   2.809   1.478   4.470 -0.9791  1.3391  2.4982
 1854SOL     OW17020   4.156   2.883  12.003 -0.2169  0.1796 -0.1950
 1854SOL    HW117021   4.240   2.838  12.005  0.2588  0.9789 -1.6499
 1854SOL    HW217022   4.181   2.972  12.030  1.0276 -0.5557  1.0180
 1855SOL     OW17023   3.510   2.208  13.517 -0.6530 -0.3044 -0.3411
 1855SOL    HW117024   3.605   2.216  13.517 -0.6972  0.2058  0.2490
 1855SOL    HW217025   3.494   2.287  13.570 -0.3427 -0.8719  0.6103
 1856SOL     OW17026   3.641   0.625   4.126 -0.0753 -0.1484  0.5652
 1856SOL    HW117027   3.601   0.538   4.136 -1.9138  0.6578  0.3191
 1856SOL    HW217028   3.719   0.618   4.180  0.2818 -1.1790 -0.0851
 1857SOL     OW17029   0.704   4.205  10.362  0.1451  0.3133 -0.0079
 1857SOL    HW117030   0.683   4.127  10.310  2.3400 -0.8452  0.8512
 1857SOL    HW217031   0.634   4.264  10.336 -0.2712  0.2311  0.9258
 1858SOL     OW17032   2.891   0.787   8.230 -0.3808  0.4426 -0.1104
 1858SOL    HW117033   2.944   0.750   8.159 -2.9779 -2.1988 -0.6552
 1858SOL    HW217034   2.951   0.848   8.273 -1.5377  1.1238  0.5542
 1859SOL     OW17035   3.915   2.682   7.690  0.4001 -0.3630 -0.0028
 1859SOL    HW117036   3.932   2.603   7.638  0.3263  0.9396 -2.0037
 1859SOL    HW217037   3.916   2.756   7.629  0.5996 -2.3107 -2.3724
 1860SOL     OW17038   1.792   2.300   6.304  0.2332 -0.4555  0.3504
 1860SOL    HW117039   1.811   2.392   6.317 -1.8308 -0.3612  2.4974
 1860SOL    HW217040   1.765   2.303   6.212 -0.1289  0.0807  0.4748
 1861SOL     OW17041   1.711   1.278   3.402  0.5307 -0.2052 -0.0100
 1861SOL    HW117042   1.803   1.298   3.385 -0.0297  2.9994  0.8734
 1861SOL    HW217043   1.682   1.239   3.320 -3.2982 -0.5586  1.4876
 1862SOL     OW17044   1.577   2.638   6.122 -0.3189 -0.1879 -0.2084
 1862SOL    HW117045   1.625   2.558   6.105 -1.8449 -1.1330 -0.1064
 1862SOL    HW217046   1.496   2.603   6.160  0.9997 -2.7753  0.1575
 1863SOL     OW17047   1.317   0.994   5.391  0.3356  0.3348 -0.1910
 1863SOL    HW117048   1.335   0.964   5.302  1.6255  0.9151 -0.1261
 1863SOL    HW217049   1.366   1.076   5.400 -0.8165  0.9931  0.0162
 1864SOL     OW17050   0.528   1.143   5.999  0.2857  0.1639 -0.2333
 1864SOL    HW117051   0.515   1.224   5.950 -0.9190  0.5969  0.8094
 1864SOL    HW217052   0.622   1.146   6.020 -0.2483 -0.0591  2.2503
 1865SOL     OW17053   3.164   3.925  14.979 -0.0888  0.4173  0.1173
 1865SOL    HW117054   3.243   3.877  15.003  0.3000  0.4905 -0.9781
 1865SOL    HW217055   3.124   3.863  14.918 -0.8724  1.5002 -0.4706
 1866SOL     OW17056   3.987   4.687   7.497 -0.1452 -0.2631  0.0409
 1866SOL    HW117057   3.924   4.618   7.478  0.3861 -0.6161 -0.4415
 1866SOL    HW217058   3.979   4.696   7.592  1.2973  0.5297  0.0846
 1867SOL     OW17059   0.820   0.724  13.860  0.4149  0.7911 -0.5187
 1867SOL    HW117060   0.858   0.799  13.905  2.5224 -1.3098  1.1787
 1867SOL    HW217061   0.825   0.756  13.770 -0.0541 -1.1337 -1.2235
 1868SOL     OW17062   2.167   3.105   8.581  0.2017  0.0856  0.7404
 1868SOL    HW117063   2.251   3.136   8.614  0.5764 -0.1781  0.0444
 1868SOL    HW217064   2.106   3.175   8.605 -0.4271  0.1965 -1.1877
 1869SOL     OW17065   0.031   3.022  15.982 -0.1433  0.0636  0.3669
 1869SOL    HW117066   4.708   2.996  16.062 -0.0150 -3.1446 -0.5916
 1869SOL    HW217067   0.098   2.953  15.985 -1.9069 -1.7025 -1.3322
 1870SOL     OW17068   2.676   0.695   3.277 -0.3669 -0.1104 -0.6096
 1870SOL    HW117069   2.757   0.680   3.226 -0.9507  0.1622 -1.6193
 1870SOL    HW217070   2.642   0.776   3.239  0.4244 -0.0749 -1.2561
 1871SOL     OW17071   2.290   4.238  11.680  0.5134  0.1190  0.6759
 1871SOL    HW117072   2.317   4.224  11.771 -1.1897  0.1506  1.2000
 1871SOL    HW217073   2.289   4.146  11.654 -1.7195  0.5486 -0.8306
 1872SOL     OW17074   2.671   0.932  17.512 -0.0528 -0.1253  0.0397
 1872SOL    HW117075   2.744   0.873  17.495  0.4074  0.7236 -0.9293
 1872SOL    HW217076   2.606   0.878  17.557  1.0057 -1.5075 -0.0846
 1873SOL     OW17077   4.667   2.948   7.753 -0.2973  0.6747 -0.4854
 1873SOL    HW117078   4.690   2.875   7.810 -0.0372  2.5370  1.8102
 1873SOL    HW217079   4.574   2.960   7.771 -0.3782 -1.2679  0.3836
 1874SOL     OW17080   0.389   1.266  17.488  0.1208 -0.5441 -0.1169
 1874SOL    HW117081   0.373   1.360  17.473  0.4071 -0.4928 -0.1020
 1874SOL    HW217082   0.299   1.237  17.501  0.9251 -3.3294 -0.9017
 1875SOL     OW17083   4.330   3.046   1.932 -0.1652  0.2960 -0.1078
 1875SOL    HW117084   4.402   3.104   1.956  1.4995 -1.2081 -1.4064
 1875SOL    HW217085   4.361   2.982   1.868  0.2592 -0.3822  0.7889
 1876SOL     OW17086   4.139   2.519   1.892 -0.0307  0.3356  0.4608
 1876SOL    HW117087   4.087   2.513   1.811  0.3671 -1.8414  0.3658
 1876SOL    HW217088   4.218   2.470   1.869  0.5301 -0.1093  3.3241
 1877SOL     OW17089   2.690   4.535   5.987 -0.3326 -0.5399 -0.4287
 1877SOL    HW117090   2.742   4.607   6.023  0.9338 -2.3539  1.3134
 1877SOL    HW217091   2.733   4.531   5.901 -0.4393  3.4106 -0.6982
 1878SOL     OW17092   1.156   3.986   1.486  0.5889  0.2599 -0.0018
 1878SOL    HW117093   1.088   3.989   1.554  1.3514  1.5499  0.7000
 1878SOL    HW217094   1.230   3.998   1.545  0.4738  1.1016 -0.0297
 1879SOL     OW17095   1.647   3.943   3.158  0.4117 -0.5344 -0.2171
 1879SOL    HW117096   1.593   4.022   3.158 -0.0852 -0.8766 -3.1487
 1879SOL    HW217097   1.594   3.885   3.104  0.1466  0.1419 -0.6749
 1880SOL     OW17098   1.364   4.661   5.513 -0.0280 -0.0249  0.2996
 1880SOL    HW117099   1.293   4.697   5.459  0.3584  1.3831  0.7198
 1880SOL    HW217100   1.404   0.018   5.543  1.1141 -0.2647 -0.5877
 1881SOL     OW17101   1.183   2.110   0.686  0.4402 -0.4505  0.2678
 1881SOL    HW117102   1.211   2.089   0.776  0.6336  0.0626  0.3261
 1881SOL    HW217103   1.242   2.062   0.629  0.8535  0.7377 -0.2959
 1882SOL     OW17104   1.763   0.892   1.491  0.4491  0.5054  0.5617
 1882SOL    HW117105   1.761   0.853   1.403 -1.7620  1.7659  0.0590
 1882SOL    HW217106   1.814   0.972   1.477  0.1987  0.6492  0.4885
 1883SOL     OW17107   2.759   3.952   6.070 -0.3511  0.3754 -0.1307
 1883SOL    HW117108   2.717   3.912   5.995  0.7604  0.0354 -0.5745
 1883SOL    HW217109   2.765   3.878   6.131 -0.7011  0.1858 -0.3260
 1884SOL     OW17110   2.410   3.146   3.020 -0.1502 -0.1434  0.4164
 1884SOL    HW117111   2.323   3.136   2.983 -0.0266 -0.4686  0.2022
 1884SOL    HW217112   2.444   3.063   2.985  0.8524  1.2287 -1.8808
 1885SOL     OW17113   0.597   4.656  16.981  0.0807 -0.5894 -0.4257
 1885SOL    HW117114   0.560   4.606  17.054  0.3452  2.9572  2.1475
 1885SOL    HW217115   0.521   4.711  16.963 -0.7248 -0.0225  4.7109
 1886SOL     OW17116   2.578   3.354  15.325  0.0048 -0.6229  0.0463
 1886SOL    HW117117   2.537   3.333  15.409  1.7212  1.2465  1.3532
 1886SOL    HW217118   2.650   3.291  15.319 -0.4065 -1.1540  0.6839
 1887SOL     OW17119   0.607   4.562  16.338 -0.6994 -0.1121 -0.4096
 1887SOL    HW117120   0.646   4.566  16.425  0.0320  1.1822 -0.7969
 1887SOL    HW217121   0.687   4.561  16.286  0.4187 -0.1625  1.3253
 1888SOL     OW17122   0.207   2.705   8.140  0.4944  0.3359 -0.9556
 1888SOL    HW117123   0.229   2.635   8.078 -0.9612 -2.8737  2.1709
 1888SOL    HW217124   0.297   2.730   8.162  1.9239 -4.3466 -1.3814
 1889SOL     OW17125   2.490   4.627  16.439  0.5837 -0.0071  0.1340
 1889SOL    HW117126   2.551   4.633  16.513  0.9477 -3.1083  0.0654
 1889SOL    HW217127   2.464   4.719  16.428  3.4749  0.7949 -0.1531
 1890SOL     OW17128   2.228   0.707  15.596  0.5221  0.2299  0.2004
 1890SOL    HW117129   2.270   0.629  15.560  0.3156 -0.1265  0.7368
 1890SOL    HW217130   2.163   0.665  15.652  0.6932  0.9714  0.9714
 1891SOL     OW17131   3.814   3.292   7.654 -0.2295  0.8643  0.3033
 1891SOL    HW117132   3.736   3.252   7.694 -0.2543  0.3790 -0.2429
 1891SOL    HW217133   3.771   3.355   7.596 -2.0676  0.1877  0.9240
 1892SOL     OW17134   3.626   0.597  15.432 -0.1880  0.7612 -0.5908
 1892SOL    HW117135   3.531   0.593  15.425 -0.5251  1.1817  3.4455
 1892SOL    HW217136   3.644   0.682  15.473  0.1786 -0.4699  1.8362
 1893SOL     OW17137   2.535   2.124   0.098 -0.4511  0.1970 -0.4283
 1893SOL    HW117138   2.466   2.061   0.078 -0.7266  0.1842  0.5223
 1893SOL    HW217139   2.592   2.063   0.145 -0.4844  0.4199 -0.0908
 1894SOL     OW17140   2.260   4.500   3.479  0.3974 -0.5229 -0.5144
 1894SOL    HW117141   2.205   4.433   3.438  0.3767 -0.9340  0.1873
 1894SOL    HW217142   2.239   4.495   3.572  0.2863  0.4841 -0.4932
 1895SOL     OW17143   2.989   2.424  10.027 -0.1668  0.3831  0.2130
 1895SOL    HW117144   3.044   2.498  10.053  0.2693 -1.4332  4.4662
 1895SOL    HW217145   3.051   2.352  10.028  1.8754  2.1469  1.0811
 1896SOL     OW17146   2.084   2.121  15.850 -0.3553  0.9866 -0.0457
 1896SOL    HW117147   2.147   2.050  15.852 -1.7326 -0.2337 -0.0144
 1896SOL    HW217148   2.048   2.116  15.939 -0.3459  0.5210 -0.0714
 1897SOL     OW17149   1.181   2.617   0.995  0.1763  0.1460 -0.1974
 1897SOL    HW117150   1.172   2.549   0.928 -0.4757  0.4891 -0.4568
 1897SOL    HW217151   1.276   2.607   0.988  0.1675  0.1607 -0.3382
 1898SOL     OW17152   3.064   2.524   8.822 -0.7567 -0.0879 -0.5902
 1898SOL    HW117153   3.066   2.436   8.858 -0.6571  0.7590  1.4964
 1898SOL    HW217154   2.972   2.549   8.824 -1.0088 -1.1748  1.3893
 1899SOL     OW17155   0.725   2.994   8.187  0.0118  0.5656  0.2275
 1899SOL    HW117156   0.778   2.918   8.210 -0.2877 -0.1413 -1.4711
 1899SOL    HW217157   0.644   2.954   8.156 -0.2828  0.5146  1.0580
 1900SOL     OW17158   4.429   1.328   9.255 -0.1891 -0.2437  0.2170
 1900SOL    HW117159   4.427   1.393   9.325 -1.9874 -0.8706  0.7426
 1900SOL    HW217160   4.374   1.255   9.281 -0.5400 -0.0577  0.0004
 1901SOL     OW17161   4.067   4.413   2.070  0.1553 -0.0333  0.7431
 1901SOL    HW117162   4.152   4.371   2.077 -0.1962 -0.8678  0.0831
 1901SOL    HW217163   4.077   4.498   2.113 -2.3688  0.5707  0.1686
 1902SOL     OW17164   0.898   2.049  12.945  0.1711  0.2215 -0.1986
 1902SOL    HW117165   0.808   2.052  12.913 -0.2796 -0.3706  1.0211
 1902SOL    HW217166   0.926   1.969  12.901 -0.3368  0.7211 -1.4489
 1903SOL     OW17167   2.991   3.972   6.650  0.0187  0.0621  0.0285
 1903SOL    HW117168   2.929   3.912   6.610 -0.3316  0.7595 -0.4680
 1903SOL    HW217169   2.976   3.964   6.744  1.2268  1.7140  0.3533
 1904SOL     OW17170   2.527   2.138   8.342 -0.1897 -0.1126  0.3733
 1904SOL    HW117171   2.452   2.197   8.345 -0.9514 -1.0891  0.4227
 1904SOL    HW217172   2.600   2.196   8.320 -0.1227  0.8067  3.1307
 1905SOL     OW17173   4.230   4.676   6.007 -0.1344 -0.1769 -0.3271
 1905SOL    HW117174   4.149   4.633   5.978 -0.2569 -0.4949  0.4972
 1905SOL    HW217175   4.271   4.693   5.922 -3.0006 -1.6587 -1.9791
 1906SOL     OW17176   1.546   0.670   2.215  0.1269  0.1074 -0.6029
 1906SOL    HW117177   1.451   0.664   2.204 -0.1122  1.6705  0.5800
 1906SOL    HW217178   1.564   0.689   2.123 -2.7033  1.7043 -0.8422
 1907SOL     OW17179   3.188   2.574   2.912  0.1521 -0.0732  0.2553
 1907SOL    HW117180   3.282   2.588   2.897  0.1844 -1.4653 -0.8084
 1907SOL    HW217181   3.160   2.514   2.844  2.0016 -0.6142 -0.0420
 1908SOL     OW17182   2.048   3.332   8.670  0.3654 -0.2502 -0.5880
 1908SOL    HW117183   2.137   3.360   8.690  0.2711 -0.3329 -0.0438
 1908SOL    HW217184   2.002   3.369   8.745 -1.5769 -1.3983 -1.2247
 1909SOL     OW17185   1.380   1.743   6.811  1.0621  0.4776  0.4127
 1909SOL    HW117186   1.457   1.704   6.770  1.5280  1.1748  0.6326
 1909SOL    HW217187   1.423   1.797   6.877 -0.9426  1.5646  0.8529
 1910SOL     OW17188   0.697   1.371   9.288  0.1248  0.2304 -0.7055
 1910SOL    HW117189   0.609   1.347   9.316  0.5280 -0.1250  0.2488
 1910SOL    HW217190   0.690   1.451   9.235  3.1783  1.1876  0.3407
 1911SOL     OW17191   0.792   3.956   5.719  0.7748 -0.0205  0.3637
 1911SOL    HW117192   0.753   3.870   5.733 -2.6931  0.8988 -3.6084
 1911SOL    HW217193   0.877   3.917   5.736  0.9000 -1.1872 -2.9305
 1912SOL     OW17194   0.809   3.368  14.579  0.9144  0.4749  0.2926
 1912SOL    HW117195   0.762   3.397  14.657 -0.7524 -1.5605  0.0299
 1912SOL    HW217196   0.761   3.292  14.548  2.4000 -0.6021  0.6038
 1913SOL     OW17197   2.481   2.388   0.081 -0.8971 -0.4029  0.3360
 1913SOL    HW117198   2.547   2.432   0.134  0.5036 -2.1454  0.0244
 1913SOL    HW217199   2.505   2.295   0.089  0.7032 -0.0111 -0.0223
 1914SOL     OW17200   1.486   2.201   4.856 -0.0989  0.0454 -0.0711
 1914SOL    HW117201   1.530   2.285   4.864  0.2290  0.1086 -2.5261
 1914SOL    HW217202   1.545   2.152   4.799 -0.0537  0.2592 -0.2073
 1915SOL     OW17203   0.652   4.127  14.474 -0.4769  0.0414 -0.3506
 1915SOL    HW117204   0.617   4.172  14.551  1.7776  1.7261 -0.3042
 1915SOL    HW217205   0.734   4.096  14.512 -0.1573  1.9982  0.5617
 1916SOL     OW17206   0.432   1.848   5.451 -0.1917 -0.0550 -0.2233
 1916SOL    HW117207   0.519   1.837   5.489 -0.9783 -0.5995  1.4456
 1916SOL    HW217208   0.426   1.770   5.396  3.2806 -1.7039  1.7331
 1917SOL     OW17209   3.911   4.150   1.231 -0.3909  0.7342  0.3809
 1917SOL    HW117210   3.887   4.083   1.167  0.7664  0.4269  0.2812
 1917SOL    HW217211   3.993   4.188   1.200 -0.6991  1.6693  0.7219
 1918SOL     OW17212   1.410   4.300   6.515  0.3539 -0.1188 -0.4557
 1918SOL    HW117213   1.420   4.393   6.498  1.0329 -0.0558  0.3159
 1918SOL    HW217214   1.325   4.292   6.560  2.2032  2.1533  3.4768
 1919SOL     OW17215   0.735   2.542  17.484  0.1039 -0.4248 -0.0491
 1919SOL    HW117216   0.810   2.484  17.495  1.8708  2.2602  1.9008
 1919SOL    HW217217   0.746   2.574  17.395  1.1034 -1.1555 -0.1820
 1920SOL     OW17218   4.373   1.114  17.460  0.0421 -0.2887 -0.1217
 1920SOL    HW117219   4.437   1.150  17.522  1.9550 -1.8294 -1.2096
 1920SOL    HW217220   4.401   1.165  17.384  0.7716  0.7675  0.8485
 1921SOL     OW17221   4.122   0.833   0.007  0.0367 -0.0154  0.7463
 1921SOL    HW117222   4.093   0.867   0.091 -0.5621 -0.0019  0.5383
 1921SOL    HW217223   4.113   0.909  17.647 -0.5463  0.3585  1.3233
 1922SOL     OW17224   3.982   2.620   8.214  0.4090 -0.7265 -0.1756
 1922SOL    HW117225   3.959   2.555   8.281  0.6554  0.6845  1.2712
 1922SOL    HW217226   4.036   2.565   8.156 -3.0826 -1.3885 -2.8111
 1923SOL     OW17227   2.349   0.528  15.433  0.0239 -0.0378  0.3592
 1923SOL    HW117228   2.414   0.594  15.460 -0.5667  0.6246  0.1402
 1923SOL    HW217229   2.304   0.564  15.357 -1.1165 -1.5323  0.3277
 1924SOL     OW17230   0.963   0.090  11.961  0.3416 -0.0239 -0.0438
 1924SOL    HW117231   0.970   0.185  11.965 -0.7990  0.0668 -0.0174
 1924SOL    HW217232   1.031   0.063  12.022 -0.4827  1.9613  1.7731
 1925SOL     OW17233   3.547   1.621   8.710  0.7491 -0.3679 -0.5878
 1925SOL    HW117234   3.606   1.648   8.780 -1.1299 -2.3575  1.7352
 1925SOL    HW217235   3.590   1.675   8.643  0.1852 -0.5568 -1.1013
 1926SOL     OW17236   0.585   0.505  11.773 -0.5137 -0.8042  0.3880
 1926SOL    HW117237   0.523   0.501  11.701  0.8847  1.7518 -0.9613
 1926SOL    HW217238   0.662   0.455  11.746  0.3866 -0.3880  2.1376
 1927SOL     OW17239   1.229   2.690   1.705 -0.3323 -0.2765 -0.0118
 1927SOL    HW117240   1.180   2.727   1.779  0.8104 -0.8826  1.0553
 1927SOL    HW217241   1.150   2.685   1.650 -1.1576  1.0816  1.0323
 1928SOL     OW17242   1.533   3.251  14.390  0.2757  0.1418 -0.1983
 1928SOL    HW117243   1.477   3.328  14.374 -0.7504 -0.4979  0.3459
 1928SOL    HW217244   1.461   3.195  14.419 -1.2210  1.6753 -0.8908
 1929SOL     OW17245   2.852   2.486  12.051  0.7530 -0.0670 -0.1687
 1929SOL    HW117246   2.900   2.514  12.129 -1.7285  0.4695  1.1902
 1929SOL    HW217247   2.886   2.538  11.978  0.6943  1.8515  1.1543
 1930SOL     OW17248   3.890   1.227   6.665  0.1856 -0.0084 -0.3922
 1930SOL    HW117249   3.970   1.205   6.714 -0.3739  1.0909  0.9872
 1930SOL    HW217250   3.861   1.311   6.700 -0.5593 -0.5289  0.2393
 1931SOL     OW17251   1.324   2.983   1.430 -0.0476  0.8877 -0.1047
 1931SOL    HW117252   1.250   2.923   1.438  1.0194 -0.4826 -0.4894
 1931SOL    HW217253   1.397   2.920   1.429 -0.5201  0.3463 -0.6330
 1932SOL     OW17254   2.765   1.604   6.203 -0.1569  0.2181  0.0975
 1932SOL    HW117255   2.797   1.560   6.281 -0.3207  1.2527  0.7511
 1932SOL    HW217256   2.783   1.531   6.143 -1.0668  0.4031 -0.4076
 1933SOL     OW17257   2.908   3.476   9.319 -0.4881  0.6851 -0.6646
 1933SOL    HW117258   2.947   3.552   9.362 -0.8104  1.3679 -1.5893
 1933SOL    HW217259   2.838   3.461   9.382  0.5461 -1.5171 -0.0367
 1934SOL     OW17260   0.676   1.410   7.305 -0.4490  0.3786  0.1357
 1934SOL    HW117261   0.649   1.454   7.224 -1.0024  1.9611  1.1825
 1934SOL    HW217262   0.595   1.369   7.334  1.5104 -1.3927  3.0779
 1935SOL     OW17263   3.100   3.841   5.563 -0.2822  0.3993 -0.4107
 1935SOL    HW117264   3.178   3.860   5.512 -0.8238  2.0559 -0.6337
 1935SOL    HW217265   3.137   3.848   5.651  1.7857  0.1872 -1.2593
 1936SOL     OW17266   4.269   4.703   0.375 -0.3888 -0.4660  0.1611
 1936SOL    HW117267   4.258   4.708   0.470  0.2053  1.7692  0.1168
 1936SOL    HW217268   4.333   0.048   0.357 -1.5865  0.7170  0.5160
 1937SOL     OW17269   0.298   1.557   9.364 -0.1327  0.0900  0.6953
 1937SOL    HW117270   0.309   1.652   9.351  1.4015 -0.4003 -1.6600
 1937SOL    HW217271   0.307   1.525   9.275  0.6287 -0.4425  0.9549
 1938SOL     OW17272   3.943   3.947   6.235  0.2835 -0.0019 -0.6813
 1938SOL    HW117273   4.028   3.939   6.192  0.5523 -0.0244 -0.1406
 1938SOL    HW217274   3.917   3.857   6.251  1.2141 -0.2841 -0.7279
 1939SOL     OW17275   3.485   4.057   4.044 -0.0070 -0.3972  0.3442
 1939SOL    HW117276   3.538   3.984   4.078 -0.5737 -0.8522  0.2586
 1939SOL    HW217277   3.417   4.066   4.111 -0.0064  1.9284  0.0362
 1940SOL     OW17278   1.180   4.551   2.919  0.1510 -0.7093  0.3915
 1940SOL    HW117279   1.105   4.595   2.959 -0.5219  0.0851 -1.7590
 1940SOL    HW217280   1.192   4.593   2.834  0.7267 -0.2754  0.6850
 1941SOL     OW17281   2.293   1.454   1.318 -0.5203 -0.4663  1.1883
 1941SOL    HW117282   2.307   1.516   1.389 -1.8468 -2.1017  2.8632
 1941SOL    HW217283   2.364   1.477   1.257  0.4353  0.4033  2.6335
 1942SOL     OW17284   2.510   2.697   8.892  0.1180  0.1451 -0.2666
 1942SOL    HW117285   2.438   2.691   8.955  1.2371 -0.6622  0.9353
 1942SOL    HW217286   2.480   2.618   8.846  3.9322 -0.5117 -1.6435
 1943SOL     OW17287   3.786   4.658   6.188  0.3425 -0.6250 -0.3342
 1943SOL    HW117288   3.721   4.719   6.153  0.3809 -0.7699 -0.6512
 1943SOL    HW217289   3.832   4.704   6.258 -1.3831 -0.3629  0.6250
 1944SOL     OW17290   1.713   4.190   3.740 -0.0457  0.7685 -0.4652
 1944SOL    HW117291   1.712   4.158   3.650 -1.7827  0.3191 -0.2992
 1944SOL    HW217292   1.625   4.159   3.763  0.9026 -0.7737  1.0422
 1945SOL     OW17293   3.918   0.881   7.184 -0.3694 -0.4980  0.0885
 1945SOL    HW117294   3.898   0.790   7.160  2.2362 -0.5754 -1.8734
 1945SOL    HW217295   3.979   0.873   7.257 -0.1261  0.6530  0.0131
 1946SOL     OW17296   1.134   2.458   9.311 -0.6676  0.1607 -0.6785
 1946SOL    HW117297   1.154   2.367   9.332  1.7890  1.2403  1.7264
 1946SOL    HW217298   1.043   2.467   9.340 -0.8950  0.2562 -1.4417
 1947SOL     OW17299   2.227   4.186  12.731 -0.2050 -0.3673  0.3497
 1947SOL    HW117300   2.182   4.138  12.661  1.8127 -1.6640 -0.0521
 1947SOL    HW217301   2.237   4.126  12.805 -0.0907 -1.0569 -0.2211
 1948SOL     OW17302   0.948   2.957   7.978  0.7536  0.3727  0.0546
 1948SOL    HW117303   0.929   2.955   7.885 -1.8976 -2.1744  0.6555
 1948SOL    HW217304   0.899   2.878   8.000  1.0969  0.5375  1.4178
 1949SOL     OW17305   2.711   3.168   4.484  0.1042  0.0809  0.1443
 1949SOL    HW117306   2.690   3.214   4.402 -0.1241  2.8289  1.7404
 1949SOL    HW217307   2.624   3.130   4.497  0.8792 -1.6815  0.0389
 1950SOL     OW17308   0.341   3.040   6.980  0.3809  0.4544  0.2768
 1950SOL    HW117309   0.376   3.098   7.048 -2.7236  0.8632  1.5062
 1950SOL    HW217310   0.297   3.111   6.932 -0.1704 -0.3629 -0.4385
 1951SOL     OW17311   4.251   0.431  16.496  0.0337  0.5304  0.5613
 1951SOL    HW117312   4.223   0.436  16.404 -3.1584 -0.0028  1.4908
 1951SOL    HW217313   4.175   0.481  16.526  0.4840  1.6963 -0.2569
 1952SOL     OW17314   3.655   4.163  15.475  0.1731 -0.5183 -0.0520
 1952SOL    HW117315   3.611   4.245  15.499  0.8665 -0.4065  0.8375
 1952SOL    HW217316   3.711   4.183  15.400 -1.0373  2.8522 -0.0612
 1953SOL     OW17317   0.712   1.258   2.045 -0.4497 -0.9447 -0.0924
 1953SOL    HW117318   0.673   1.274   1.958 -1.1046  1.8017  0.6976
 1953SOL    HW217319   0.806   1.270   2.032 -0.8359 -0.1407 -2.2782
 1954SOL     OW17320   0.294   4.039  11.724 -0.6872 -0.7117  0.4462
 1954SOL    HW117321   0.318   4.023  11.633  1.5416 -1.3989  1.1444
 1954SOL    HW217322   0.380   4.038  11.766 -0.1081  0.2311 -0.7535
 1955SOL     OW17323   2.520   2.212   0.760  0.0722  0.0738 -0.4083
 1955SOL    HW117324   2.540   2.269   0.834  2.2611  0.0127 -0.9520
 1955SOL    HW217325   2.599   2.200   0.707  1.3021 -2.2542  1.9891
 1956SOL     OW17326   3.025   0.933   4.602 -0.1864  0.3612  0.0152
 1956SOL    HW117327   2.957   0.973   4.549 -2.5061 -2.4427  0.8645
 1956SOL    HW217328   3.012   0.966   4.691  0.2333  0.2859  0.1043
 1957SOL     OW17329   3.822   4.288   7.641 -0.5173  0.8988  0.3465
 1957SOL    HW117330   3.790   4.353   7.704 -3.8428 -0.6964  0.2891
 1957SOL    HW217331   3.916   4.295   7.656  0.0898  0.0474 -3.1070
 1958SOL     OW17332   4.125   3.503  13.428 -0.0160  0.6647  0.4892
 1958SOL    HW117333   4.078   3.441  13.372  0.8724  0.0466  0.4383
 1958SOL    HW217334   4.148   3.571  13.364  0.1239  0.3519  0.2101
 1959SOL     OW17335   2.658   2.469   9.021  0.0380  0.3279  0.4945
 1959SOL    HW117336   2.584   2.421   8.986 -0.5305  0.4972  1.4633
 1959SOL    HW217337   2.686   2.402   9.084 -2.5153 -0.4518  0.7748
 1960SOL     OW17338   1.360   3.265   7.493 -0.4648  0.3143  0.5304
 1960SOL    HW117339   1.424   3.225   7.553 -0.1894  0.4491  0.3271
 1960SOL    HW217340   1.292   3.278   7.558 -2.0264  1.7698 -1.3952
 1961SOL     OW17341   0.919   2.049   2.286  0.4345 -0.2226 -0.0095
 1961SOL    HW117342   0.924   1.986   2.357  0.7187 -0.1227  0.0563
 1961SOL    HW217343   0.993   2.018   2.234  0.2598 -1.7750  0.6887
 1962SOL     OW17344   1.819   4.557   5.932  0.3011 -0.5373  0.0933
 1962SOL    HW117345   1.862   4.636   5.901  1.3718 -1.6845 -1.3374
 1962SOL    HW217346   1.731   4.595   5.927  0.3876 -0.1125  2.0409
 1963SOL     OW17347   0.463   2.255   7.356  0.3350 -0.7588  0.4377
 1963SOL    HW117348   0.489   2.193   7.288 -2.6580  0.8914 -2.1768
 1963SOL    HW217349   0.476   2.342   7.318  0.7181 -0.7318  0.6277
 1964SOL     OW17350   4.039   1.941  11.608 -0.4356  0.2619  0.3613
 1964SOL    HW117351   3.953   1.937  11.649 -0.4634  1.6591  0.4299
 1964SOL    HW217352   4.091   1.986  11.674 -0.1853 -1.0731  1.0883
 1965SOL     OW17353   3.367   2.777   5.494  0.1756  0.2628 -0.1478
 1965SOL    HW117354   3.350   2.739   5.580 -0.4152 -1.7326 -1.1536
 1965SOL    HW217355   3.457   2.745   5.500 -0.5608 -1.9835 -1.0956
 1966SOL     OW17356   0.088   1.738   2.546 -0.0634 -0.3208 -0.3713
 1966SOL    HW117357   0.136   1.689   2.613  2.4469  0.9848 -1.2160
 1966SOL    HW217358   0.160   1.774   2.495  0.3231 -0.0492  0.3778
 1967SOL     OW17359   2.075   0.953   8.895 -0.0873  0.4166  0.2152
 1967SOL    HW117360   2.101   1.026   8.839 -0.3069 -0.2555 -0.7450
 1967SOL    HW217361   2.165   0.933   8.920 -0.0683  0.3139  0.0607
 1968SOL     OW17362   0.126   1.789   8.891  0.0386 -0.0120  0.0823
 1968SOL    HW117363   0.107   1.825   8.978 -2.2511  0.7565 -0.7479
 1968SOL    HW217364   0.051   1.822   8.843  0.1948  0.9767  0.5086
 1969SOL     OW17365   2.533   0.231  10.978  0.6015  0.1452 -0.7303
 1969SOL    HW117366   2.624   0.257  10.992  1.5709 -3.4410 -0.2672
 1969SOL    HW217367   2.495   0.252  11.063  1.6981 -0.1681 -0.1645
 1970SOL     OW17368   2.363   2.404   6.253  0.0089  0.1513 -0.0737
 1970SOL    HW117369   2.437   2.389   6.195  1.3599 -0.5085  1.8063
 1970SOL    HW217370   2.369   2.500   6.251 -0.4456  0.1923  0.3514
 1971SOL     OW17371   4.327   1.321   2.090 -0.1022  0.1351  0.6538
 1971SOL    HW117372   4.281   1.292   2.011 -0.2455  1.7765  0.1371
 1971SOL    HW217373   4.266   1.284   2.153  0.4996 -1.6028  0.2177
 1972SOL     OW17374   3.524   0.952   6.482 -0.3711 -0.2968  0.1475
 1972SOL    HW117375   3.494   1.043   6.486 -0.4101 -0.4077  2.3322
 1972SOL    HW217376   3.504   0.918   6.569  0.1016 -0.2216  0.2851
 1973SOL     OW17377   3.481   2.177   4.168  0.0534 -0.2919 -0.0364
 1973SOL    HW117378   3.555   2.201   4.224  0.0018  0.6702 -0.3669
 1973SOL    HW217379   3.500   2.228   4.089  0.5778 -1.7396 -0.8438
 1974SOL     OW17380   3.882   4.614   4.506  0.3175  0.1821  0.1988
 1974SOL    HW117381   3.849   4.704   4.498 -0.2272 -0.1856 -1.8246
 1974SOL    HW217382   3.950   4.618   4.439 -1.8127  0.2485 -1.9907
 1975SOL     OW17383   1.790   3.807   3.595  0.0648  0.5348 -0.3822
 1975SOL    HW117384   1.797   3.846   3.682  1.8352 -0.4980 -0.0610
 1975SOL    HW217385   1.789   3.714   3.617  0.8913  0.5366 -0.3174
 1976SOL     OW17386   3.031   2.913   3.658 -0.2903 -0.3372  0.0344
 1976SOL    HW117387   3.124   2.935   3.655 -0.1816 -0.7024  0.6521
 1976SOL    HW217388   3.019   2.892   3.751  2.6789  0.6609  0.6531
 1977SOL     OW17389   2.834   0.724  17.394 -0.0514 -0.3919 -0.2859
 1977SOL    HW117390   2.869   0.729  17.305 -2.5776 -0.0089 -1.2421
 1977SOL    HW217391   2.839   0.634  17.425 -0.7821 -1.2253 -2.5742
 1978SOL     OW17392   2.731   3.568   3.747 -0.0225  0.4609  0.4158
 1978SOL    HW117393   2.671   3.501   3.778  1.0858 -0.6841  0.0754
 1978SOL    HW217394   2.674   3.625   3.694 -0.9382  0.9024  1.8849
 1979SOL     OW17395   3.277   1.595   3.244  0.1308  0.2583  0.0273
 1979SOL    HW117396   3.348   1.535   3.220 -1.2546 -1.6927  0.8443
 1979SOL    HW217397   3.241   1.598   3.155  3.7575  1.0525 -1.4292
 1980SOL     OW17398   3.556   3.997  10.953 -0.1557  0.4072  0.2272
 1980SOL    HW117399   3.488   3.972  10.889  0.9794  1.2984 -1.3338
 1980SOL    HW217400   3.561   3.919  11.007 -1.1388 -0.3152 -0.7104
 1981SOL     OW17401   4.569   4.215   4.160  0.2733  0.3535  0.1371
 1981SOL    HW117402   4.527   4.130   4.151  1.5081 -0.1524 -0.8644
 1981SOL    HW217403   4.557   4.250   4.072  1.6322 -0.6769 -0.4540
 1982SOL     OW17404   2.305   1.920   3.331 -0.2592  0.6622  0.1410
 1982SOL    HW117405   2.308   2.008   3.366  0.2665  1.1692 -1.1790
 1982SOL    HW217406   2.394   1.894   3.354 -0.4529  1.2319  1.4691
 1983SOL     OW17407   2.689   2.148   7.744  0.6477 -0.4692  0.4794
 1983SOL    HW117408   2.683   2.052   7.742 -1.8875 -0.2792 -0.8986
 1983SOL    HW217409   2.704   2.150   7.838 -1.9507  3.7479  0.7539
 1984SOL     OW17410   0.884   3.540   0.879  0.8017  0.1576 -0.6452
 1984SOL    HW117411   0.974   3.545   0.912  0.8236 -1.4817 -0.4697
 1984SOL    HW217412   0.860   3.628   0.849 -0.8622  0.4472  1.5510
 1985SOL     OW17413   4.558   0.722   8.532 -0.2678 -0.0962 -0.1326
 1985SOL    HW117414   4.608   0.674   8.466 -0.1787 -0.2841  0.0691
 1985SOL    HW217415   4.594   0.810   8.521 -1.4351  0.4258  0.2755
 1986SOL     OW17416   2.800   0.378  13.587 -0.1530  0.0951 -0.3881
 1986SOL    HW117417   2.755   0.459  13.614  0.3624  0.4787 -0.6715
 1986SOL    HW217418   2.864   0.414  13.525 -1.5809  1.2435 -1.2132
 1987SOL     OW17419   2.427   0.302  14.438  0.4735  0.1322  0.0917
 1987SOL    HW117420   2.511   0.259  14.453  0.7154  0.3265 -0.6825
 1987SOL    HW217421   2.379   0.235  14.389  0.1896 -0.8587  1.7421
 1988SOL     OW17422   3.991   4.056  12.407 -0.0753  0.3256  0.1451
 1988SOL    HW117423   3.957   4.006  12.333 -2.3710 -1.1850  2.2540
 1988SOL    HW217424   3.992   4.000  12.485 -1.3384 -0.0975 -0.1557
 1989SOL     OW17425   1.301   3.188   4.504  0.3359  0.5362  0.1229
 1989SOL    HW117426   1.290   3.273   4.462 -0.1985 -0.2290 -1.3053
 1989SOL    HW217427   1.246   3.209   4.580  1.0597 -0.6660  0.9748
 1990SOL     OW17428   0.761   4.168   7.521  0.3919  0.3141 -0.0991
 1990SOL    HW117429   0.702   4.197   7.453  1.1551  0.1302 -0.8422
 1990SOL    HW217430   0.773   4.242   7.581  1.3448 -0.7176  0.9917
 1991SOL     OW17431   2.290   0.419   3.657  0.1397  0.2375  0.5730
 1991SOL    HW117432   2.286   0.511   3.631  0.6195  0.3990  1.0562
 1991SOL    HW217433   2.356   0.425   3.726  0.4906  2.0562  0.0693
 1992SOL     OW17434   3.242   0.661   8.047 -0.0138  0.0293  0.0345
 1992SOL    HW117435   3.255   0.615   7.964 -0.6772 -1.1380  0.5853
 1992SOL    HW217436   3.307   0.730   8.032  1.8208 -1.4328  1.3604
 1993SOL     OW17437   1.152   1.953   7.677 -0.6976 -0.7068  0.9221
 1993SOL    HW117438   1.233   1.909   7.653 -0.3717 -1.2457  2.9618
 1993SOL    HW217439   1.142   1.922   7.768 -1.0027  0.9818  1.4531
 1994SOL     OW17440   3.100   1.897   5.344  0.1014 -0.2171 -0.8629
 1994SOL    HW117441   3.121   1.964   5.279 -0.9215  0.2039 -0.7623
 1994SOL    HW217442   3.113   1.819   5.291  0.7931 -0.9435  0.3962
 1995SOL     OW17443   1.286   3.965   0.169 -0.0583  0.1271  0.7539
 1995SOL    HW117444   1.289   4.026   0.095  1.3032 -0.6172  0.2050
 1995SOL    HW217445   1.361   4.002   0.215  0.9541  2.0316 -2.3642
 1996SOL     OW17446   4.179   2.456  11.437 -0.0087 -0.2033 -0.2121
 1996SOL    HW117447   4.265   2.475  11.399  1.7303 -3.3664  2.1535
 1996SOL    HW217448   4.156   2.401  11.362 -0.2523 -0.1040 -0.2125
 1997SOL     OW17449   2.460   1.227   6.417 -0.8110  0.2102  0.2753
 1997SOL    HW117450   2.378   1.200   6.458 -0.3204 -2.3103 -0.3781
 1997SOL    HW217451   2.487   1.137   6.400  0.1653  0.5710 -0.0575
 1998SOL     OW17452   3.930   0.637  16.142  0.1529  0.7484  0.8423
 1998SOL    HW117453   3.930   0.711  16.080 -1.4377 -0.3475 -0.4772
 1998SOL    HW217454   3.858   0.659  16.201 -0.7394 -1.0501  0.4268
 1999SOL     OW17455   4.275   0.660   3.036 -0.6111  0.5192 -0.2496
 1999SOL    HW117456   4.367   0.663   3.008 -0.9376 -1.5810 -1.5130
 1999SOL    HW217457   4.288   0.672   3.130  0.6553  0.9403 -0.4716
 2000SOL     OW17458   1.189   1.754   3.218 -0.4950  0.2909  0.3608
 2000SOL    HW117459   1.284   1.744   3.224 -0.8125 -1.9391  1.5997
 2000SOL    HW217460   1.156   1.674   3.258 -1.8188 -0.2730 -1.8150
 2001SOL     OW17461   4.126   4.208  16.822  0.2186  0.4199 -0.1620
 2001SOL    HW117462   4.061   4.262  16.777  0.8658 -0.5726 -2.2742
 2001SOL    HW217463   4.065   4.138  16.846  1.7688 -0.1350  2.1908
 2002SOL     OW17464   0.327   0.249  11.616  0.4387  0.5783 -0.7068
 2002SOL    HW117465   0.289   0.162  11.625 -0.1634  0.8331 -0.8373
 2002SOL    HW217466   0.359   0.249  11.525 -0.4631 -0.0451 -1.0183
 2003SOL     OW17467   3.607   3.985  17.288  0.1298 -0.5230  0.0091
 2003SOL    HW117468   3.569   3.901  17.315  0.2947  0.4161  3.1543
 2003SOL    HW217469   3.558   4.046  17.342 -1.4512 -0.5540 -1.3747
 2004SOL     OW17470   3.356   3.725   7.284  0.8859  0.5864  0.1313
 2004SOL    HW117471   3.269   3.685   7.290  1.6456 -0.8140  1.5718
 2004SOL    HW217472   3.395   3.717   7.370 -1.2172 -0.6284  0.9836
 2005SOL     OW17473   2.795   3.770  12.686  0.0274 -0.3338 -0.2437
 2005SOL    HW117474   2.836   3.685  12.667  4.4824  1.7118  0.2427
 2005SOL    HW217475   2.790   3.771  12.782  0.8237 -0.7993 -0.1903
 2006SOL     OW17476   1.664   1.460   7.888  0.1396 -0.2087 -0.7618
 2006SOL    HW117477   1.568   1.466   7.891  0.2741  1.5880  0.3615
 2006SOL    HW217478   1.678   1.552   7.913 -0.5401  0.3014 -2.2861
 2007SOL     OW17479   4.001   0.720   6.372  0.6141  0.1137  0.3260
 2007SOL    HW117480   4.053   0.778   6.427  0.5109  1.1392 -0.6456
 2007SOL    HW217481   3.914   0.760   6.385  0.3408 -0.2058 -0.5092
 2008SOL     OW17482   0.715   0.441   3.141  0.3866  0.1365  0.1723
 2008SOL    HW117483   0.649   0.435   3.071 -1.0960  0.8086  1.5077
 2008SOL    HW217484   0.756   0.524   3.113 -0.0676  0.3997  0.2809
 2009SOL     OW17485   2.821   2.398   4.708 -0.0798  0.3495  0.3589
 2009SOL    HW117486   2.751   2.384   4.645 -0.3152 -0.7531  0.8749
 2009SOL    HW217487   2.822   2.318   4.761  0.5954  0.2371  0.1902
 2010SOL     OW17488   2.214   4.690   6.302 -0.5572  0.4873  0.2173
 2010SOL    HW117489   2.147   0.023   6.264 -0.1589  0.8932  0.1239
 2010SOL    HW217490   2.281   4.692   6.234 -0.5075  1.5999  0.2899
 2011SOL     OW17491   1.353   2.600   5.505 -0.3652  0.0888 -0.4764
 2011SOL    HW117492   1.387   2.672   5.451 -2.6033  0.4259 -1.4396
 2011SOL    HW217493   1.350   2.530   5.440 -0.7658 -1.7567  1.5581
 2012SOL     OW17494   2.048   1.555  15.061  0.0918  0.1530 -0.4593
 2012SOL    HW117495   2.086   1.511  15.137  0.6342  1.0279 -0.2236
 2012SOL    HW217496   1.955   1.547  15.082  0.5117 -1.5937  0.7619
 2013SOL     OW17497   1.991   2.110  16.148 -0.3898  0.6393  0.0048
 2013SOL    HW117498   1.900   2.109  16.176 -0.4177  0.1789 -0.1045
 2013SOL    HW217499   2.009   2.194  16.190  0.5788  0.9064 -0.9352
 2014SOL     OW17500   1.846   1.573   1.356 -0.4677  0.2835  0.3652
 2014SOL    HW117501   1.798   1.490   1.350  0.8107 -0.4397  0.3445
 2014SOL    HW217502   1.769   1.626   1.381 -0.0545  0.1478  1.8651
 2015SOL     OW17503   2.645   1.865   7.502  0.1468  0.0589 -0.0013
 2015SOL    HW117504   2.639   1.942   7.446 -0.4831 -1.9407 -2.6947
 2015SOL    HW217505   2.558   1.825   7.494 -0.2886  0.6329  2.0867
 2016SOL     OW17506   1.551   1.938  11.437  0.3600  0.0547  0.4312
 2016SOL    HW117507   1.535   1.877  11.509  0.1345 -2.4322 -1.7150
 2016SOL    HW217508   1.569   1.888  11.357 -3.8814 -0.6367 -0.0763
 2017SOL     OW17509   1.758   0.029   3.408  0.7153 -0.1911 -0.3505
 2017SOL    HW117510   1.736   0.048   3.317  1.6893  1.3523 -0.2590
 2017SOL    HW217511   1.747   0.116   3.446 -0.7278 -0.0842 -1.0323
 2018SOL     OW17512   1.040   4.602   4.474 -0.2520  0.0552  0.3093
 2018SOL    HW117513   0.945   4.596   4.482 -0.2307 -0.4750  0.2184
 2018SOL    HW217514   1.061   4.530   4.414 -0.3437  0.5540 -0.3178
 2019SOL     OW17515   0.290   3.232  10.021  0.0777  0.0426 -0.3124
 2019SOL    HW117516   0.211   3.216  10.072  0.2976  1.2874  0.4090
 2019SOL    HW217517   0.264   3.189   9.940  1.3973 -1.4803  0.0736
 2020SOL     OW17518   2.499   0.496   5.590 -0.7238 -0.3044 -0.5361
 2020SOL    HW117519   2.450   0.415   5.606 -1.6145  0.2972 -0.1912
 2020SOL    HW217520   2.545   0.479   5.508 -3.6378 -0.4814 -2.1263
 2021SOL     OW17521   0.764   4.615   4.464  0.4330 -0.9135  0.1251
 2021SOL    HW117522   0.692   4.557   4.488 -1.3162  1.1273 -0.1062
 2021SOL    HW217523   0.732   4.641   4.377  1.0233 -0.9273 -0.0987
 2022SOL     OW17524   4.061   1.968  12.738  0.1661  0.2438  0.3301
 2022SOL    HW117525   4.041   1.930  12.824  0.2172 -3.0447 -1.0910
 2022SOL    HW217526   4.153   1.991  12.748  0.8207 -1.3187 -2.0539
 2023SOL     OW17527   2.372   3.665  10.526 -0.6409 -0.5763 -0.0184
 2023SOL    HW117528   2.352   3.573  10.506 -0.5735 -0.9909  1.8446
 2023SOL    HW217529   2.422   3.659  10.607 -1.8969 -2.7482  0.5952
 2024SOL     OW17530   2.094   4.504   8.235  0.2829  1.1201 -0.5277
 2024SOL    HW117531   2.128   4.593   8.244 -0.5575  1.1652  2.0691
 2024SOL    HW217532   2.066   4.487   8.325  0.0804  0.8692 -0.6379
 2025SOL     OW17533   4.510   3.939   8.726 -0.3629  0.5855 -0.2837
 2025SOL    HW117534   4.429   3.960   8.680  1.0076  3.4625 -1.4094
 2025SOL    HW217535   4.552   4.025   8.727 -1.7119  1.2130  1.1467
 2026SOL     OW17536   1.644   1.420   5.437 -0.8627  0.3521  0.1877
 2026SOL    HW117537   1.725   1.394   5.394 -1.3468  0.2347 -0.6513
 2026SOL    HW217538   1.631   1.509   5.402  1.5320  0.3605 -0.6903
 2027SOL     OW17539   1.033   0.851   0.906  0.0716 -0.1770  0.2311
 2027SOL    HW117540   1.071   0.933   0.937 -0.4245  0.3521 -0.5747
 2027SOL    HW217541   1.080   0.783   0.954  0.1023 -0.5506 -0.3209
 2028SOL     OW17542   3.022   0.405   5.774 -0.3684 -0.8579 -0.0031
 2028SOL    HW117543   3.021   0.489   5.819  1.5252  0.2275 -1.9719
 2028SOL    HW217544   3.106   0.374   5.810 -0.3304 -1.9810 -1.0407
 2029SOL     OW17545   4.000   2.034   4.195  0.2124  0.3172 -0.6720
 2029SOL    HW117546   4.014   2.029   4.100 -1.6489  3.2715 -1.1105
 2029SOL    HW217547   4.084   2.070   4.225 -0.1357  0.6663 -0.1113
 2030SOL     OW17548   2.737   4.146   7.404  0.0709  0.2064 -0.4382
 2030SOL    HW117549   2.782   4.078   7.454 -0.6362  1.6753  2.2255
 2030SOL    HW217550   2.645   4.122   7.421  0.8463 -1.0037  2.0597
 2031SOL     OW17551   0.442   0.705   2.828  0.0830 -0.1551  0.5333
 2031SOL    HW117552   0.501   0.655   2.771  1.1284  0.3911  1.1401
 2031SOL    HW217553   0.463   0.790   2.789  0.4079 -0.4497  0.0599
 2032SOL     OW17554   1.779   4.336  11.653 -0.0724  0.3462 -0.2559
 2032SOL    HW117555   1.687   4.325  11.627 -0.1186  0.1792 -0.0215
 2032SOL    HW217556   1.816   4.399  11.591 -1.9707  2.1735  0.4525
 2033SOL     OW17557   3.399   2.724  14.388  0.2616  0.2833 -0.2410
 2033SOL    HW117558   3.390   2.698  14.480  0.0052 -0.0965 -0.3739
 2033SOL    HW217559   3.403   2.818  14.401  0.3106  0.0439  1.5473
 2034SOL     OW17560   4.398   0.817   8.967 -0.6170 -0.0684 -0.2747
 2034SOL    HW117561   4.460   0.861   9.026  0.1843  0.5891 -1.5796
 2034SOL    HW217562   4.314   0.860   8.982 -0.0340  0.7630  0.5748
 2035SOL     OW17563   4.691   1.709   6.339  0.8343 -0.7151  0.2516
 2035SOL    HW117564   4.667   1.621   6.310 -0.9522 -0.1934  0.1682
 2035SOL    HW217565   0.062   1.699   6.332  0.6277 -2.0172 -0.7434
 2036SOL     OW17566   3.823   0.951  11.532  0.1849 -0.0599 -0.5517
 2036SOL    HW117567   3.788   0.987  11.613 -0.8945 -0.2279 -0.9470
 2036SOL    HW217568   3.914   0.929  11.552  0.8388  2.6468 -0.4544
 2037SOL     OW17569   1.822   3.302   3.405  0.2344  0.5687  0.1171
 2037SOL    HW117570   1.808   3.318   3.312  1.4131 -2.2413 -0.5377
 2037SOL    HW217571   1.787   3.213   3.411  2.8290 -0.4373  0.4239
 2038SOL     OW17572   1.349   2.131   8.481  0.2352  0.4188  0.1010
 2038SOL    HW117573   1.306   2.086   8.554  1.8206 -0.3508  0.5380
 2038SOL    HW217574   1.421   2.069   8.468  0.7761  1.0450  0.1298
 2039SOL     OW17575   4.450   1.936  11.194 -0.1902  0.0202 -0.2275
 2039SOL    HW117576   4.362   1.911  11.164  0.3297  2.0680 -3.4995
 2039SOL    HW217577   4.445   1.919  11.288 -0.0256  1.6085  0.0700
 2040SOL     OW17578   0.144   4.063  14.840 -0.1995 -0.0405  0.1628
 2040SOL    HW117579   0.165   4.120  14.766 -0.3399 -0.5334 -0.2552
 2040SOL    HW217580   0.226   4.066  14.889  0.5189  0.8364 -1.0990
 2041SOL     OW17581   2.172   2.230   8.349  0.0379  0.3574  0.5839
 2041SOL    HW117582   2.131   2.218   8.434 -1.3368  1.7785  0.1220
 2041SOL    HW217583   2.245   2.284   8.379 -0.2999  1.1802 -0.0748
 2042SOL     OW17584   1.236   3.237   1.241  0.5934 -0.2308 -0.3594
 2042SOL    HW117585   1.246   3.152   1.285 -0.3132 -0.3372 -0.3649
 2042SOL    HW217586   1.190   3.206   1.163 -0.6016  0.6636 -0.0023
 2043SOL     OW17587   0.362   1.493  12.212  0.8148 -0.5702  0.3346
 2043SOL    HW117588   0.303   1.539  12.151  2.0023 -0.3263 -0.6234
 2043SOL    HW217589   0.438   1.550  12.223  1.8404 -1.9532  0.3820
 2044SOL     OW17590   2.542   3.740   1.553  0.1759  0.4173  0.2073
 2044SOL    HW117591   2.559   3.834   1.563  1.5428  0.2693 -0.7379
 2044SOL    HW217592   2.626   3.696   1.547  0.2306  0.7073 -1.0505
 2045SOL     OW17593   2.896   0.137   0.449  0.0484 -0.2655 -0.6818
 2045SOL    HW117594   2.976   0.090   0.475  0.4109  0.4119 -0.5864
 2045SOL    HW217595   2.931   0.221   0.422 -1.6598  0.7614  0.2864
 2046SOL     OW17596   0.939   2.900   2.196 -0.0538  0.4253 -0.1572
 2046SOL    HW117597   0.968   2.957   2.266 -0.3094  2.0782 -1.3922
 2046SOL    HW217598   0.902   2.822   2.237  0.5221  1.0326  1.5079
 2047SOL     OW17599   2.329   1.421   3.482  0.0833 -0.7002  0.4977
 2047SOL    HW117600   2.309   1.364   3.407 -0.4464  0.6512 -0.4137
 2047SOL    HW217601   2.417   1.399   3.511 -0.3499 -1.0980  1.5264
 2048SOL     OW17602   3.259   4.693  15.880 -0.4143 -0.3558 -0.1903
 2048SOL    HW117603   3.276   0.063  15.881 -0.3897 -0.3674  0.2828
 2048SOL    HW217604   3.164   4.680  15.875 -0.8701  2.7509  0.2390
 2049SOL     OW17605   2.826   3.190   7.354 -0.1944  0.0846 -0.0356
 2049SOL    HW117606   2.867   3.110   7.323  2.1012  0.9640  0.7392
 2049SOL    HW217607   2.897   3.235   7.399 -0.5502  1.3172 -0.7012
 2050SOL     OW17608   2.536   3.222   5.087  0.0168  0.4904  0.1708
 2050SOL    HW117609   2.612   3.200   5.141 -1.2638 -0.3847  1.6354
 2050SOL    HW217610   2.571   3.287   5.026  0.9928 -0.3824 -0.1870
 2051SOL     OW17611   4.296   4.098   3.266  0.3681  0.4303 -0.5048
 2051SOL    HW117612   4.297   4.193   3.252 -2.8808  0.5356 -0.1180
 2051SOL    HW217613   4.369   4.089   3.327  0.6066 -0.0874 -0.8661
 2052SOL     OW17614   1.145   1.236   5.670 -0.0322 -0.6079 -0.1832
 2052SOL    HW117615   1.154   1.185   5.750  2.6883 -0.3688 -0.3341
 2052SOL    HW217616   1.236   1.256   5.649  0.1882  0.0776  1.4632
 2053SOL     OW17617   4.209   2.050   2.775 -0.4644  0.7348  0.1673
 2053SOL    HW117618   4.139   2.041   2.840  0.0789 -1.7887  0.4025
 2053SOL    HW217619   4.182   1.980   2.716  0.0984 -0.3207  1.1579
 2054SOL     OW17620   0.027   0.954  13.022  0.6201  0.4390 -0.1215
 2054SOL    HW117621   4.684   1.020  13.007  1.3740  1.2768  0.2413
 2054SOL    HW217622   0.109   1.002  13.017  1.0783  0.0362  3.2157
 2055SOL     OW17623   3.600   3.993   2.433 -0.0213  0.1497  0.6038
 2055SOL    HW117624   3.658   3.997   2.356 -0.0929 -0.3654  0.5224
 2055SOL    HW217625   3.521   4.036   2.402 -0.1077 -0.3936  0.0669
 2056SOL     OW17626   2.577   0.180  13.541 -0.3694  0.3464 -0.4239
 2056SOL    HW117627   2.672   0.191  13.544 -0.3077  0.2246 -1.9356
 2056SOL    HW217628   2.562   0.273  13.522 -0.0374  0.3233 -0.8074
 2057SOL     OW17629   3.915   0.001  17.612  0.1011 -0.0730  0.2077
 2057SOL    HW117630   3.978   0.043  17.670 -0.8527  0.5992  0.7460
 2057SOL    HW217631   3.833   0.047  17.626 -0.6760 -1.9702  1.9086
 2058SOL     OW17632   3.580   2.733  12.750  0.2165  0.5488  0.6206
 2058SOL    HW117633   3.584   2.711  12.657  1.4274  0.0104  0.7983
 2058SOL    HW217634   3.673   2.741  12.774  1.1299 -1.8435 -2.1219
 2059SOL     OW17635   1.817   4.177   0.145 -0.3513 -0.7857 -0.0285
 2059SOL    HW117636   1.766   4.180   0.064 -0.5574 -1.6239  0.0691
 2059SOL    HW217637   1.795   4.087   0.168  0.7592 -0.9577  0.3692
 2060SOL     OW17638   0.795   4.219   4.486 -0.0258  0.1466  0.0731
 2060SOL    HW117639   0.762   4.260   4.566  0.1612 -0.5304  0.5006
 2060SOL    HW217640   0.731   4.253   4.423  1.0268  1.0670 -0.4941
 2061SOL     OW17641   0.379   1.954   3.128  0.1517  0.3009 -0.1123
 2061SOL    HW117642   0.348   1.868   3.155  2.2157  0.3644  2.5267
 2061SOL    HW217643   0.375   1.952   3.033 -0.3447  0.9996 -0.1036
 2062SOL     OW17644   3.074   2.158   6.385 -0.5134  0.1670  0.2181
 2062SOL    HW117645   3.166   2.184   6.396 -0.0827 -1.6540  0.9956
 2062SOL    HW217646   3.032   2.225   6.333  1.6536  0.7760 -0.7584
 2063SOL     OW17647   3.636   3.982   0.542 -0.2124  0.7664  0.2049
 2063SOL    HW117648   3.578   3.935   0.601  1.0900 -1.1749 -0.0465
 2063SOL    HW217649   3.669   3.902   0.501 -2.6489 -0.7154  1.1879
 2064SOL     OW17650   4.059   0.060  13.684 -0.0064  0.2170 -0.1797
 2064SOL    HW117651   3.991   0.123  13.662  0.0863  0.6501  0.8115
 2064SOL    HW217652   4.009   4.718  13.732  0.8161  0.4999  1.0692
 2065SOL     OW17653   4.647   2.014  12.963  0.5601 -0.2078  0.3802
 2065SOL    HW117654   4.559   1.977  12.970  0.6019 -0.3997 -0.1187
 2065SOL    HW217655   4.679   1.971  12.883 -1.7031  1.8581 -1.6472
 2066SOL     OW17656   4.340   2.241   4.624  0.1755  0.2577  0.0661
 2066SOL    HW117657   4.347   2.336   4.629  3.3991  0.1401 -2.0287
 2066SOL    HW217658   4.309   2.228   4.713 -0.8081  0.6061 -0.2301
 2067SOL     OW17659   1.087   0.437   1.706 -0.4304  0.5669  0.0612
 2067SOL    HW117660   1.002   0.444   1.749 -0.8064 -0.8142 -0.4776
 2067SOL    HW217661   1.083   0.346   1.678  1.1631  0.8916 -1.2795
 2068SOL     OW17662   3.307   3.299   3.406 -0.2162  0.1290 -0.3514
 2068SOL    HW117663   3.331   3.387   3.379 -1.3535 -0.1546 -2.3051
 2068SOL    HW217664   3.300   3.308   3.501  0.1597 -1.9969 -0.1049
 2069SOL     OW17665   2.376   0.469   1.776 -0.5793 -0.2782 -0.0113
 2069SOL    HW117666   2.402   0.478   1.868 -2.0331  1.9024  0.1879
 2069SOL    HW217667   2.317   0.394   1.787 -0.5035 -0.5373 -1.4137
 2070SOL     OW17668   4.190   1.567   6.766 -0.7811  0.0516 -0.3773
 2070SOL    HW117669   4.276   1.579   6.806 -0.7526  1.0757 -0.7417
 2070SOL    HW217670   4.141   1.607   6.838  1.1160 -0.2513  1.0803
 2071SOL     OW17671   0.992   3.961  14.094 -0.2697  0.1378  0.3536
 2071SOL    HW117672   1.079   3.977  14.133  0.3283 -0.9624 -0.5452
 2071SOL    HW217673   0.996   3.866  14.091  0.9260  0.1070  2.5988
 2072SOL     OW17674   4.216   0.195   5.470  0.0843 -0.1434 -0.1035
 2072SOL    HW117675   4.266   0.270   5.435  1.1759 -1.0038 -0.3782
 2072SOL    HW217676   4.241   0.117   5.420  2.4422  0.0064  0.8285
 2073SOL     OW17677   4.453   3.544   3.685 -0.6531 -0.5656  0.3953
 2073SOL    HW117678   4.452   3.485   3.761 -0.7548 -0.4661  0.4714
 2073SOL    HW217679   4.364   3.578   3.676  0.2150  1.4655 -0.7183
 2074SOL     OW17680   1.924   4.272   5.535 -0.2333 -0.1262  0.0054
 2074SOL    HW117681   1.866   4.302   5.464 -1.4680 -1.0065  0.6577
 2074SOL    HW217682   1.870   4.300   5.609  0.0044  2.9037 -0.9560
 2075SOL     OW17683   4.303   2.829   5.121  0.8350 -0.2519 -0.5596
 2075SOL    HW117684   4.350   2.746   5.121 -0.6411 -1.0974  1.6907
 2075SOL    HW217685   4.317   2.861   5.211 -1.2313 -1.2171  0.1147
 2076SOL     OW17686   1.580   1.307  14.709  0.3873  0.3860  0.3971
 2076SOL    HW117687   1.650   1.241  14.712 -0.3233 -0.3362  1.3487
 2076SOL    HW217688   1.504   1.248  14.713 -0.7267  1.8634  0.9471
 2077SOL     OW17689   3.778   3.031   7.376 -0.1435  0.0958 -0.1195
 2077SOL    HW117690   3.827   3.020   7.457 -1.2152 -3.2661  0.0816
 2077SOL    HW217691   3.686   3.021   7.401 -0.6709  2.9781 -0.8639
 2078SOL     OW17692   3.676   2.483   8.678  0.2319  0.0455 -0.7891
 2078SOL    HW117693   3.714   2.397   8.694  2.3579  1.3319  1.1124
 2078SOL    HW217694   3.667   2.518   8.767  1.4322 -0.1600 -0.5823
 2079SOL     OW17695   0.428   2.348  12.802  0.3123 -0.1202  0.1308
 2079SOL    HW117696   0.483   2.419  12.836 -2.2481  1.8943  0.1379
 2079SOL    HW217697   0.466   2.321  12.719  1.6799  0.6676  0.4879
 2080SOL     OW17698   0.656   2.475  13.751  0.1787 -0.1073  0.4532
 2080SOL    HW117699   0.637   2.423  13.829 -0.2540  1.7070  1.5659
 2080SOL    HW217700   0.621   2.564  13.763  0.2021  0.2438 -2.0333
 2081SOL     OW17701   3.185   2.768  11.128 -0.3299 -0.3997  0.1616
 2081SOL    HW117702   3.166   2.674  11.137  0.1458 -0.1233  3.8611
 2081SOL    HW217703   3.278   2.778  11.106  0.1077 -1.4712  1.5518
 2082SOL     OW17704   3.875   1.193   4.873  0.1087  0.1173  0.0429
 2082SOL    HW117705   3.879   1.100   4.852  0.0556 -0.1757  1.3514
 2082SOL    HW217706   3.918   1.200   4.958 -1.7805 -1.8960  1.1552
 2083SOL     OW17707   3.784   0.824   2.971 -0.0542  0.2358 -0.3203
 2083SOL    HW117708   3.878   0.844   2.971 -0.2360  1.0818 -0.7179
 2083SOL    HW217709   3.761   0.778   3.052  0.0174  1.3054  0.3071
 2084SOL     OW17710   1.834   3.817  15.761  0.4012 -0.0533  0.1150
 2084SOL    HW117711   1.860   3.743  15.707 -3.2311 -1.5928  0.4726
 2084SOL    HW217712   1.772   3.861  15.702 -0.6984 -2.9735 -0.8697
 2085SOL     OW17713   3.895   4.464  15.449  0.2667  0.1053  0.3815
 2085SOL    HW117714   3.865   4.398  15.512  0.2934 -0.0831  0.1983
 2085SOL    HW217715   3.818   4.487  15.398  0.1134 -1.0603  0.0735
 2086SOL     OW17716   4.005   4.672   3.606  0.0854 -0.3963  0.2190
 2086SOL    HW117717   4.100   4.675   3.593 -0.0122  1.1295 -0.1310
 2086SOL    HW217718   3.980   0.006   3.535  0.6064  1.2731  1.4077
 2087SOL     OW17719   2.227   3.148   6.558 -0.0526 -0.5821 -0.4568
 2087SOL    HW117720   2.226   3.232   6.513  0.9222  0.3538  1.2875
 2087SOL    HW217721   2.196   3.179   6.643  0.4870 -2.1487  0.3201
 2088SOL     OW17722   1.801   0.635  12.763 -0.1012  0.0914  0.3833
 2088SOL    HW117723   1.862   0.654  12.692 -0.3169 -0.3840  0.0694
 2088SOL    HW217724   1.722   0.659  12.713 -0.5390  0.5901  1.3044
 2089SOL     OW17725   2.331   2.158  13.129  0.2078 -0.1460 -0.4513
 2089SOL    HW117726   2.270   2.188  13.197  0.6231 -0.5673  0.1038
 2089SOL    HW217727   2.271   2.126  13.061 -1.0384  0.9707  0.1154
 2090SOL     OW17728   0.048   0.742   4.845 -0.0588  0.6518 -0.3991
 2090SOL    HW117729   0.086   0.677   4.903 -1.7703 -0.7067 -0.7977
 2090SOL    HW217730   0.104   0.729   4.768  1.8252 -0.9463  1.2617
 2091SOL     OW17731   3.444   1.136  14.503 -0.1554  0.3720 -0.1580
 2091SOL    HW117732   3.494   1.055  14.493  0.8897  1.4975 -3.8346
 2091SOL    HW217733   3.477   1.162  14.589  0.6613 -0.3104 -0.2752
 2092SOL     OW17734   2.262   1.994   1.552 -0.1452  0.4221  0.0366
 2092SOL    HW117735   2.353   2.022   1.543 -0.0190 -0.5443 -1.6754
 2092SOL    HW217736   2.238   2.008   1.460  2.9595  1.6613 -0.5641
 2093SOL     OW17737   4.308   1.517   4.916  0.5875  0.2853  0.5341
 2093SOL    HW117738   4.274   1.431   4.941  2.9226 -0.5074  0.9982
 2093SOL    HW217739   4.313   1.514   4.820 -0.4947 -1.6568  0.5427
 2094SOL     OW17740   3.292   0.610  10.953  0.2865  0.1761 -0.0215
 2094SOL    HW117741   3.218   0.566  10.993  0.3671 -0.3288 -0.4285
 2094SOL    HW217742   3.357   0.540  10.949 -0.0112 -0.1335  0.5639
 2095SOL     OW17743   2.715   4.711  15.797  0.2384 -0.5366 -0.4645
 2095SOL    HW117744   2.698   0.057  15.860  0.0318  2.0641 -3.3882
 2095SOL    HW217745   2.637   4.724  15.743  0.0629  2.8317  0.5667
 2096SOL     OW17746   2.355   0.934   6.739  0.5714  0.1682  0.2740
 2096SOL    HW117747   2.439   0.888   6.743 -0.2375 -1.0423  3.0261
 2096SOL    HW217748   2.308   0.909   6.819 -1.2985  0.4703 -0.7194
 2097SOL     OW17749   0.688   0.981   6.461 -0.1094 -0.2564 -0.3604
 2097SOL    HW117750   0.667   0.973   6.554 -2.6202 -1.6185 -1.0451
 2097SOL    HW217751   0.657   1.070   6.444  2.2506  0.2986 -1.7183
 2098SOL     OW17752   0.867   2.097   7.199 -0.5158 -0.3269  0.1978
 2098SOL    HW117753   0.836   2.173   7.150  0.9763  0.7089  0.8544
 2098SOL    HW217754   0.834   2.115   7.287  1.2830  0.7682  0.6527
 2099SOL     OW17755   1.484   0.309   4.969 -0.4243  0.4805  0.2306
 2099SOL    HW117756   1.532   0.305   5.052  0.0861 -1.6523 -0.1643
 2099SOL    HW217757   1.529   0.381   4.924  0.1807 -0.1705 -0.2087
 2100SOL     OW17758   1.106   4.663   4.727  0.0875 -0.0420  0.1078
 2100SOL    HW117759   1.113   4.645   4.633 -0.1683 -3.6177  0.7446
 2100SOL    HW217760   1.172   0.007   4.740 -0.3560  0.4330 -0.1296
 2101SOL     OW17761   0.839   0.011   4.764  0.4247 -0.1800  0.1484
 2101SOL    HW117762   0.798   4.705   4.845 -0.2786  0.4638  0.0380
 2101SOL    HW217763   0.923   4.690   4.768  1.3234  1.2878 -2.7493
 2102SOL     OW17764   4.674   2.236   6.057 -0.1749  0.4749  0.1313
 2102SOL    HW117765   4.687   2.175   6.129  3.2651  0.9567 -0.1070
 2102SOL    HW217766   0.034   2.238   6.012  0.6883 -1.0763  1.6852
 2103SOL     OW17767   2.576   2.799   6.016  0.3394 -0.0710 -0.6103
 2103SOL    HW117768   2.620   2.716   5.996  1.3152 -0.0217  1.3488
 2103SOL    HW217769   2.512   2.780   6.085  0.4672  0.8110 -0.2540
 2104SOL     OW17770   1.712   3.844   1.792  0.4072  0.1405  0.5282
 2104SOL    HW117771   1.788   3.796   1.826  0.0330  0.0664  1.2511
 2104SOL    HW217772   1.647   3.821   1.858  1.9357 -1.2313  1.5797
 2105SOL     OW17773   1.634   4.466   6.637 -0.5985  0.3185 -0.0250
 2105SOL    HW117774   1.559   4.490   6.692 -0.0172 -0.5829  1.1812
 2105SOL    HW217775   1.682   4.408   6.696 -1.1640  0.4986  0.6176
 2106SOL     OW17776   1.931   2.013   8.974 -0.0964 -0.4611  0.5133
 2106SOL    HW117777   1.990   2.073   9.019 -2.4391  2.3246 -0.1208
 2106SOL    HW217778   1.873   1.991   9.047 -0.7359 -0.6334 -0.0434
 2107SOL     OW17779   0.365   0.131   7.875 -0.1651 -0.1544  0.0216
 2107SOL    HW117780   0.372   0.192   7.949 -0.4648  2.1694 -1.8351
 2107SOL    HW217781   0.331   0.193   7.810 -1.9958  1.2692  2.3280
 2108SOL     OW17782   2.313   3.871   3.522  0.0851  0.1441 -0.0618
 2108SOL    HW117783   2.262   3.943   3.559  1.2926  0.7424  0.4559
 2108SOL    HW217784   2.298   3.893   3.430 -1.4088 -0.1196  0.1263
 2109SOL     OW17785   1.258   2.846   5.638 -0.4962 -0.3046  0.4117
 2109SOL    HW117786   1.273   2.762   5.594  2.1533  0.4277 -0.0340
 2109SOL    HW217787   1.334   2.901   5.652 -2.3953  2.4654 -0.1738
 2110SOL     OW17788   0.618   1.462   8.608  0.0736  0.0916  0.6256
 2110SOL    HW117789   0.647   1.536   8.555 -0.0106  0.2484  0.8013
 2110SOL    HW217790   0.533   1.492   8.640  0.4170  0.0760  1.5408
 2111SOL     OW17791   3.719   2.703   7.918 -0.0853 -0.0620  0.1981
 2111SOL    HW117792   3.807   2.724   7.885  0.9062 -1.5249  1.9022
 2111SOL    HW217793   3.681   2.638   7.858 -1.0297  0.5607  0.1267
 2112SOL     OW17794   2.732   2.860   8.805  0.7874  0.1512  0.1663
 2112SOL    HW117795   2.789   2.790   8.839 -1.3005 -1.2927  0.6793
 2112SOL    HW217796   2.650   2.838   8.849  0.1347 -0.0097 -1.1457
 2113SOL     OW17797   4.597   0.962  13.754  0.6795  0.1161 -0.0213
 2113SOL    HW117798   4.662   0.962  13.825  2.4907 -1.8886 -1.7012
 2113SOL    HW217799   4.526   0.945  13.817  1.6842 -2.1920  0.4598
 2114SOL     OW17800   2.169   4.592   7.616 -0.0914 -0.5843  0.1899
 2114SOL    HW117801   2.194   4.512   7.662 -0.1111 -0.9028 -0.3547
 2114SOL    HW217802   2.172   4.658   7.686 -0.8434 -0.6597  0.2920
 2115SOL     OW17803   1.486   3.884  11.192  0.8733 -0.3098 -0.5869
 2115SOL    HW117804   1.497   3.902  11.098 -0.0054 -0.0217 -0.6290
 2115SOL    HW217805   1.391   3.889  11.203  0.9704 -0.6664  0.3703
 2116SOL     OW17806   2.589   4.174  16.299  0.0865 -0.4572  0.2866
 2116SOL    HW117807   2.539   4.247  16.335 -0.5174  0.0895 -1.6712
 2116SOL    HW217808   2.525   4.104  16.291  1.1695 -1.5820  1.3703
 2117SOL     OW17809   0.410   0.072   0.570  0.0126  0.2474 -0.2965
 2117SOL    HW117810   0.368   0.118   0.498  0.9899  1.8069  0.1420
 2117SOL    HW217811   0.389   4.704   0.555  1.4593 -0.2214  0.5026
 2118SOL     OW17812   3.114   1.037   3.288 -0.6599  0.1351 -0.8824
 2118SOL    HW117813   3.054   1.096   3.333  1.7009  1.8253  0.0053
 2118SOL    HW217814   3.050   0.993   3.231 -2.1606  0.3350  0.6312
 2119SOL     OW17815   1.040   4.628   5.403  0.4367  0.6671 -0.1286
 2119SOL    HW117816   1.087   4.679   5.338 -0.5908  0.2992 -1.1613
 2119SOL    HW217817   0.998   4.563   5.347  0.4772 -0.9718  1.7285
 2120SOL     OW17818   2.865   1.448  11.768 -0.1392  0.0271  0.2883
 2120SOL    HW117819   2.929   1.518  11.782  1.2402 -1.1839  0.0547
 2120SOL    HW217820   2.859   1.403  11.853  0.8895 -2.7444 -1.1241
 2121SOL     OW17821   2.923   2.095  13.708 -0.5786 -0.6183  0.5666
 2121SOL    HW117822   2.870   2.135  13.640  1.3121 -0.6453 -0.9031
 2121SOL    HW217823   3.001   2.064  13.662 -0.8718 -0.5247  0.0140
 2122SOL     OW17824   4.638   3.254   4.458  0.1914 -0.0287 -0.6091
 2122SOL    HW117825   4.592   3.229   4.538  2.0035  0.1086  0.4842
 2122SOL    HW217826   4.608   3.175   4.414 -0.2908 -0.3933  0.3710
 2123SOL     OW17827   1.064   3.343  10.690  0.1022 -0.2706  0.2283
 2123SOL    HW117828   1.141   3.376  10.644 -2.3653  1.8922 -2.3560
 2123SOL    HW217829   1.041   3.418  10.745 -0.7520 -0.3596 -0.0013
 2124SOL     OW17830   1.766   2.095  11.345 -0.3046 -0.2418  0.1328
 2124SOL    HW117831   1.756   2.186  11.374 -0.6593 -0.3868  0.4667
 2124SOL    HW217832   1.687   2.062  11.389 -1.1088  0.7156 -0.5888
 2125SOL     OW17833   1.299   0.589   3.836  0.9303  0.0347 -0.5896
 2125SOL    HW117834   1.288   0.678   3.802  2.8275 -0.9766 -3.9125
 2125SOL    HW217835   1.394   0.580   3.845  0.8602  1.3221  1.4082
 2126SOL     OW17836   1.804   0.508  11.482 -0.3983  0.3654 -0.4626
 2126SOL    HW117837   1.745   0.441  11.449  2.6432 -2.0612 -1.0169
 2126SOL    HW217838   1.777   0.517  11.573  0.9067 -1.2073  0.0942
 2127SOL     OW17839   1.705   1.245   6.781  0.0082  0.0358 -0.0722
 2127SOL    HW117840   1.752   1.209   6.856 -1.3769 -0.3023  0.6298
 2127SOL    HW217841   1.760   1.313   6.743 -0.3549  0.6348  0.4690
 2128SOL     OW17842   0.130   3.891   9.033 -0.9307 -0.4649 -0.3365
 2128SOL    HW117843   0.050   3.925   9.073 -2.6125 -2.7695 -1.7623
 2128SOL    HW217844   0.182   3.859   9.106  0.2104 -0.9547 -1.3636
 2129SOL     OW17845   3.303   2.524   0.911  0.5194 -0.4598  0.6382
 2129SOL    HW117846   3.262   2.540   0.826 -0.3627  2.7729  1.6652
 2129SOL    HW217847   3.367   2.595   0.920  0.4057 -0.1084 -1.3064
 2130SOL     OW17848   3.774   1.669   4.826 -0.0853 -0.5424 -0.0941
 2130SOL    HW117849   3.697   1.634   4.781 -1.8815 -0.5762  2.9934
 2130SOL    HW217850   3.774   1.620   4.908 -2.3334  0.3900  0.4625
 2131SOL     OW17851   1.304   4.690   5.801  0.1064  0.4188  0.1006
 2131SOL    HW117852   1.308   4.713   5.708  0.3760  0.5066  0.1356
 2131SOL    HW217853   1.209   4.681   5.811 -0.0229 -0.8863 -2.2215
 2132SOL     OW17854   4.020   0.760   6.715  0.2907 -0.4981  0.1304
 2132SOL    HW117855   4.026   0.665   6.708 -1.8589 -0.4978 -2.1417
 2132SOL    HW217856   4.089   0.787   6.654  0.3742 -0.2903  0.3195
 2133SOL     OW17857   1.590   1.149   2.034 -0.4353  0.3304 -0.2030
 2133SOL    HW117858   1.605   1.241   2.055 -2.3797  0.4643  0.5966
 2133SOL    HW217859   1.640   1.135   1.954  0.8599  2.6318  0.2030
 2134SOL     OW17860   0.652   0.838  10.823 -0.0426 -0.0644  0.3722
 2134SOL    HW117861   0.584   0.889  10.779 -2.4865 -1.0258  3.0276
 2134SOL    HW217862   0.619   0.844  10.913 -1.2247  0.0532 -0.0690
 2135SOL     OW17863   2.756   0.296   8.830 -0.1211 -0.5057  0.2739
 2135SOL    HW117864   2.674   0.283   8.782  1.5565 -0.8752 -2.4787
 2135SOL    HW217865   2.745   0.237   8.904  0.7367  0.0962  0.8862
 2136SOL     OW17866   0.219   4.209   5.600  0.0417 -0.3149 -0.2120
 2136SOL    HW117867   0.147   4.160   5.559  0.1418 -1.6526  1.1910
 2136SOL    HW217868   0.189   4.230   5.689  3.3800  2.6413  0.1982
 2137SOL     OW17869   0.762   1.402  14.015 -0.3327  0.3590 -0.5474
 2137SOL    HW117870   0.669   1.384  14.024 -0.2563  0.1500 -0.1345
 2137SOL    HW217871   0.789   1.336  13.951 -1.7275  0.2619 -1.0296
 2138SOL     OW17872   3.714   0.872   3.904 -0.5337  0.6253 -0.4413
 2138SOL    HW117873   3.673   0.954   3.877 -1.5676  0.8870  1.8920
 2138SOL    HW217874   3.674   0.864   3.990 -1.0379 -1.4566 -0.8851
 2139SOL     OW17875   0.668   4.027   5.998  0.2982  0.3306 -0.5314
 2139SOL    HW117876   0.727   3.952   5.987 -0.3821 -0.2406 -0.2737
 2139SOL    HW217877   0.724   4.086   6.048 -0.6230  0.9211 -0.2022
 2140SOL     OW17878   1.778   1.116  14.763  0.4914 -1.1602 -0.2151
 2140SOL    HW117879   1.847   1.126  14.829 -0.4290 -0.9832  0.7096
 2140SOL    HW217880   1.828   1.122  14.681  2.2595  1.4208  1.0506
 2141SOL     OW17881   1.249   4.351  13.537  0.2731  0.2244  0.4732
 2141SOL    HW117882   1.329   4.303  13.518  1.1990  1.6631  0.6957
 2141SOL    HW217883   1.216   4.314  13.618 -1.4069 -0.5030 -0.5367
 2142SOL     OW17884   3.269   3.081   6.472  0.4008  0.4208 -0.0458
 2142SOL    HW117885   3.298   3.038   6.552  1.2980 -0.7589 -1.0026
 2142SOL    HW217886   3.231   3.006   6.425  0.0354  0.7001 -0.2052
 2143SOL     OW17887   3.195   2.859   0.880 -0.1643 -0.3815 -0.2069
 2143SOL    HW117888   3.214   2.823   0.794 -2.4993 -3.6507  0.6809
 2143SOL    HW217889   3.175   2.779   0.928  1.0466 -0.1667  0.6435
 2144SOL     OW17890   1.811   0.746   4.357 -0.4932 -0.0129 -0.2955
 2144SOL    HW117891   1.744   0.718   4.420  1.3980 -0.0249  1.7232
 2144SOL    HW217892   1.891   0.744   4.410 -0.3114  4.2037 -0.4407
 2145SOL     OW17893   1.227   4.531   8.497  0.0736 -0.4961 -0.5571
 2145SOL    HW117894   1.259   4.519   8.408 -0.9176  1.7643 -1.2309
 2145SOL    HW217895   1.190   4.619   8.485 -2.4198 -1.4801 -0.0282
 2146SOL     OW17896   2.970   1.846   3.284 -0.3062 -0.3219  0.8069
 2146SOL    HW117897   2.944   1.922   3.336 -0.8957  1.2003 -1.7384
 2146SOL    HW217898   3.066   1.848   3.290 -0.2377 -0.9909 -0.0730
 2147SOL     OW17899   1.844   0.441   7.884 -0.3351 -0.7675 -0.5084
 2147SOL    HW117900   1.879   0.497   7.953 -0.8673 -2.6102  1.2950
 2147SOL    HW217901   1.810   0.369   7.938  0.3105 -1.0686 -0.4967
 2148SOL     OW17902   1.581   4.157  11.248  0.2563  0.1466 -0.1719
 2148SOL    HW117903   1.564   4.117  11.162 -0.8981 -2.2328  1.1434
 2148SOL    HW217904   1.541   4.098  11.312  1.4398  0.7451  1.1099
 2149SOL     OW17905   3.522   2.363  13.242 -0.2742 -0.0381  0.4723
 2149SOL    HW117906   3.572   2.344  13.322 -1.1230  1.3604  1.3212
 2149SOL    HW217907   3.499   2.455  13.255 -1.6125 -0.1251 -1.4087
 2150SOL     OW17908   0.558   0.386   2.911  0.2184  0.0042 -0.5080
 2150SOL    HW117909   0.466   0.369   2.888  0.2043 -0.2980 -0.2363
 2150SOL    HW217910   0.583   0.429   2.830 -0.6750  0.9324 -0.2860
 2151SOL     OW17911   0.281   0.521   8.651 -0.2074 -0.2153 -0.2367
 2151SOL    HW117912   0.361   0.572   8.661 -0.4817 -0.2799  2.3653
 2151SOL    HW217913   0.226   0.575   8.708  0.4095 -1.6918  1.7709
 2152SOL     OW17914   1.530   4.158  10.962 -0.6933  0.0654  0.2218
 2152SOL    HW117915   1.505   4.069  10.936 -2.7538  0.1416  2.0027
 2152SOL    HW217916   1.490   4.202  10.886 -1.1600 -0.6386  0.0529
 2153SOL     OW17917   0.885   0.651  10.558  0.1736  0.0906  0.6849
 2153SOL    HW117918   0.943   0.722  10.583  1.6272 -0.4648 -1.0840
 2153SOL    HW217919   0.824   0.631  10.629  0.8796  0.6664  1.4513
 2154SOL     OW17920   2.553   0.630   2.843 -0.2613  0.8883  0.2521
 2154SOL    HW117921   2.601   0.576   2.780  0.0074  3.2721 -1.6089
 2154SOL    HW217922   2.532   0.710   2.795 -0.6595  1.3241  1.1599
 2155SOL     OW17923   1.788   3.200   3.812 -0.1755 -0.0491  0.1078
 2155SOL    HW117924   1.857   3.158   3.761 -1.7519 -2.0535 -0.4092
 2155SOL    HW217925   1.720   3.141   3.779 -1.6596  1.7794 -0.0746
 2156SOL     OW17926   3.641   0.213  13.314  0.5851  0.0115 -0.0051
 2156SOL    HW117927   3.712   0.149  13.311 -0.2059 -0.8876  0.3646
 2156SOL    HW217928   3.691   0.281  13.358 -1.2104  0.6564  1.0711
 2157SOL     OW17929   1.523   3.115   7.642  0.1092 -0.0040  0.1065
 2157SOL    HW117930   1.581   3.191   7.650  0.1333 -0.1437  1.2058
 2157SOL    HW217931   1.591   3.048   7.644 -0.3525 -0.4832 -0.3865
 2158SOL     OW17932   2.570   2.072   7.315  0.1342 -0.0829  0.5831
 2158SOL    HW117933   2.516   2.130   7.262  0.1576  0.0220  0.6751
 2158SOL    HW217934   2.617   2.031   7.242  0.3536  0.2273  0.5492
 2159SOL     OW17935   2.404   2.368  17.181  0.0145  0.5828  0.1054
 2159SOL    HW117936   2.438   2.402  17.098 -1.0312 -0.6638 -0.8408
 2159SOL    HW217937   2.487   2.345  17.222 -1.1998  0.3164  2.3767
 2160SOL     OW17938   2.587   3.377  10.784  0.7589 -0.4795 -0.1379
 2160SOL    HW117939   2.641   3.356  10.860 -0.0265 -0.0027  0.5536
 2160SOL    HW217940   2.576   3.470  10.805  0.3097 -0.0979 -2.0581
 2161SOL     OW17941   4.255   4.565   2.573  0.4146 -0.2751 -0.4497
 2161SOL    HW117942   4.162   4.554   2.594  0.4507 -0.0406 -0.1715
 2161SOL    HW217943   4.284   4.482   2.611  1.1387 -0.1612 -0.7685
 2162SOL     OW17944   0.987   1.897  16.848 -0.6276  0.1996  0.3125
 2162SOL    HW117945   1.020   1.824  16.795  0.4875  1.3520 -0.5736
 2162SOL    HW217946   0.920   1.846  16.893 -0.5828  0.9175  1.1793
 2163SOL     OW17947   2.501   1.152   5.446 -0.5475  0.2978 -0.2593
 2163SOL    HW117948   2.513   1.218   5.514  1.6618 -0.6613  0.2746
 2163SOL    HW217949   2.593   1.126   5.443 -0.0216  2.2651 -1.5461
 2164SOL     OW17950   3.969   1.955   0.007 -0.0930 -0.4917 -0.2894
 2164SOL    HW117951   4.000   2.018  17.640  0.8989 -0.2378  0.4380
 2164SOL    HW217952   3.999   1.876  17.661  1.7004  0.6430 -1.1069
 2165SOL     OW17953   2.922   1.799  10.022 -0.0591 -0.1312  0.0699
 2165SOL    HW117954   2.852   1.760   9.969 -0.4754  0.2031  0.3704
 2165SOL    HW217955   2.892   1.888  10.040  3.4819  1.1828 -0.4223
 2166SOL     OW17956   2.485   0.861  11.672  0.2822  0.0247  0.5415
 2166SOL    HW117957   2.492   0.891  11.762  1.7627 -0.4786  0.5986
 2166SOL    HW217958   2.401   0.904  11.658  0.9561  0.9946 -0.5548
 2167SOL     OW17959   0.764   1.564   6.852  0.3451 -0.2335  0.0722
 2167SOL    HW117960   0.787   1.657   6.852 -0.1396 -0.1109 -1.7213
 2167SOL    HW217961   0.699   1.551   6.783 -0.4791  3.1309  0.2097
 2168SOL     OW17962   3.724   2.725   7.216 -0.4253 -0.0592  0.2417
 2168SOL    HW117963   3.798   2.731   7.276 -0.1408 -0.2524 -0.0860
 2168SOL    HW217964   3.778   2.709   7.138  2.1736 -0.6891  2.1519
 2169SOL     OW17965   2.787   3.058   2.410 -0.0072 -0.0371 -0.0655
 2169SOL    HW117966   2.839   3.038   2.488 -0.1389  0.3066  0.1117
 2169SOL    HW217967   2.860   3.078   2.351 -0.8755 -0.1164 -1.1580
 2170SOL     OW17968   4.454   0.650  11.999  0.4199 -1.0529 -0.2692
 2170SOL    HW117969   4.385   0.706  12.036  0.6346 -1.6204  0.9779
 2170SOL    HW217970   4.396   0.594  11.948 -2.7098  0.0029  2.0784
 2171SOL     OW17971   3.773   0.999  14.720  0.4500 -0.0514 -0.1470
 2171SOL    HW117972   3.692   1.034  14.755  0.1605 -0.0603 -0.8011
 2171SOL    HW217973   3.831   1.074  14.727 -0.0983  0.3137  0.4855
 2172SOL     OW17974   3.924   2.623   4.404 -0.3453  0.0984 -0.0571
 2172SOL    HW117975   3.830   2.608   4.403 -0.4444  0.6473  0.6648
 2172SOL    HW217976   3.933   2.687   4.475  0.1579 -1.7288  1.5438
 2173SOL     OW17977   2.107   0.573  15.797 -0.5133 -0.0542 -0.4220
 2173SOL    HW117978   2.013   0.593  15.798 -0.0823  1.7428  3.0771
 2173SOL    HW217979   2.110   0.481  15.822 -0.5702 -0.5600 -2.2554
 2174SOL     OW17980   3.609   0.758   4.782  0.0267 -0.2341 -1.0310
 2174SOL    HW117981   3.547   0.685   4.783 -0.7952  0.4676 -0.8045
 2174SOL    HW217982   3.613   0.785   4.690 -1.2462 -0.1343 -1.0581
 2175SOL     OW17983   2.627   4.046   4.380  0.3803 -0.2811 -0.0995
 2175SOL    HW117984   2.669   4.056   4.294 -1.9838  0.0890 -1.2148
 2175SOL    HW217985   2.533   4.051   4.359  0.1384 -0.4820  0.9521
 2176SOL     OW17986   3.519   1.993  11.572  0.0100 -0.3185  0.3785
 2176SOL    HW117987   3.549   2.040  11.494 -0.0158  1.1994  1.2914
 2176SOL    HW217988   3.578   2.014  11.644  1.9937 -0.3317 -1.2305
 2177SOL     OW17989   2.890   3.073   0.274  0.4084  0.1859 -0.4227
 2177SOL    HW117990   2.922   3.147   0.223 -0.1134 -0.1687 -1.2718
 2177SOL    HW217991   2.957   3.011   0.247 -0.4079 -0.5211 -0.8286
 2178SOL     OW17992   2.021   2.454   9.212  0.4589 -0.1283  0.1680
 2178SOL    HW117993   1.940   2.464   9.262  0.1472  0.3264 -0.4293
 2178SOL    HW217994   1.986   2.490   9.130  0.4935  1.2636  0.7837
 2179SOL     OW17995   0.785   2.843   2.748 -0.4427  0.1685  0.3134
 2179SOL    HW117996   0.854   2.846   2.814 -2.3121  1.6154  2.2200
 2179SOL    HW217997   0.789   2.931   2.712 -2.8152  0.6660  1.2386
 2180SOL     OW17998   4.460   3.127   7.416 -0.5788  0.2346 -0.2727
 2180SOL    HW117999   4.517   3.088   7.350  0.3107  0.1742  0.5234
 2180SOL    HW218000   4.402   3.054   7.439 -1.0457  0.7060  0.0555
 2181SOL     OW18001   2.453   1.640   1.139  0.0341 -0.1595 -0.3304
 2181SOL    HW118002   2.536   1.609   1.101  0.2383 -0.9308  0.7479
 2181SOL    HW218003   2.488   1.652   1.227  0.9587 -0.4242 -0.6560
 2182SOL     OW18004   0.602   1.598   6.322 -0.7306  0.6911  0.4345
 2182SOL    HW118005   0.654   1.520   6.303  0.7506  2.0946 -1.1446
 2182SOL    HW218006   0.657   1.655   6.269 -0.5522 -2.0663 -2.3212
 2183SOL     OW18007   0.241   1.242  16.614 -1.1254 -0.0736 -0.1333
 2183SOL    HW118008   0.150   1.227  16.589 -0.7761 -1.7338 -0.4346
 2183SOL    HW218009   0.235   1.337  16.603  0.6476  0.2609  1.7207
 2184SOL     OW18010   1.969   4.365   6.079 -0.2168  0.3401  0.3628
 2184SOL    HW118011   1.899   4.303   6.059  0.4851  0.1176 -1.3409
 2184SOL    HW218012   1.932   4.442   6.036 -0.2467  0.8666  1.3286
 2185SOL     OW18013   3.318   1.652   1.938 -0.0675  0.1062  0.4044
 2185SOL    HW118014   3.257   1.715   1.977 -0.2411  0.8586 -1.0630
 2185SOL    HW218015   3.394   1.711   1.944 -0.3863  0.5370  0.2404
 2186SOL     OW18016   4.019   2.865   8.362  0.0149 -0.2172  0.1474
 2186SOL    HW118017   4.016   2.779   8.320 -0.6599 -1.6885  3.2025
 2186SOL    HW218018   3.995   2.922   8.289  0.3787 -1.5737 -1.0320
 2187SOL     OW18019   1.340   1.960   5.101  0.1671 -0.0039 -0.5240
 2187SOL    HW118020   1.379   1.875   5.116  1.2608  0.2123 -2.0864
 2187SOL    HW218021   1.270   1.958   5.165 -0.0484 -0.9393 -0.7937
 2188SOL     OW18022   4.678   2.946   2.001  0.4524  0.1238  0.0590
 2188SOL    HW118023   0.011   2.991   2.063  1.2485 -0.9036  0.0587
 2188SOL    HW218024   4.611   3.014   1.987 -1.5426 -2.4989 -3.1284
 2189SOL     OW18025   1.610   0.236  16.989  0.3427  0.3424 -0.3207
 2189SOL    HW118026   1.642   0.321  17.018 -0.6821  0.9011 -0.8029
 2189SOL    HW218027   1.690   0.207  16.945 -0.1856 -3.0146  0.9507
 2190SOL     OW18028   2.389   2.403   0.359  0.4893  0.4622 -0.1408
 2190SOL    HW118029   2.387   2.394   0.264  0.9362  2.4256 -0.3258
 2190SOL    HW218030   2.466   2.355   0.388  0.6076  0.0686 -1.1160
 2191SOL     OW18031   3.711   3.006  12.695  0.2631 -0.1206  0.3942
 2191SOL    HW118032   3.774   3.070  12.729 -0.3289  0.4121  0.5112
 2191SOL    HW218033   3.751   2.971  12.616  0.8868  0.7288  0.3361
 2192SOL     OW18034   2.229   3.908  11.982 -0.3400  0.1048 -0.3584
 2192SOL    HW118035   2.322   3.932  11.989 -0.4209 -0.0874  1.3816
 2192SOL    HW218036   2.237   3.816  11.954  1.2331 -0.4339  1.8426
 2193SOL     OW18037   4.095   3.647  16.202 -0.0780 -0.0820  0.3354
 2193SOL    HW118038   4.155   3.578  16.229  0.6880  0.5863  0.3228
 2193SOL    HW218039   4.071   3.630  16.111  1.7755  2.0880 -0.5846
 2194SOL     OW18040   2.719   1.026   2.899  0.1383 -0.3120  0.1741
 2194SOL    HW118041   2.785   1.007   2.832 -1.3056  1.0548 -1.6517
 2194SOL    HW218042   2.656   1.071   2.843 -0.2333  0.2176  1.0237
 2195SOL     OW18043   1.978   2.188   7.675  0.1405  0.3253 -0.2919
 2195SOL    HW118044   2.070   2.181   7.647  0.3780 -1.0803  0.8320
 2195SOL    HW218045   1.971   2.282   7.658 -1.8780  0.1856 -0.1786
 2196SOL     OW18046   3.042   3.991  15.902 -0.3183 -0.0817  0.2913
 2196SOL    HW118047   3.032   4.004  15.997  2.0882  0.1332  0.5081
 2196SOL    HW218048   3.125   4.039  15.896 -0.7258  0.7813  1.3805
 2197SOL     OW18049   2.869   3.359   6.443  0.1231 -0.1739  0.0433
 2197SOL    HW118050   2.925   3.436   6.439 -0.5228  0.2831 -0.2932
 2197SOL    HW218051   2.933   3.297   6.477  0.9163  1.5983  1.7285
 2198SOL     OW18052   2.432   3.040   9.593 -0.2573 -0.6833  0.1212
 2198SOL    HW118053   2.478   2.991   9.525  1.9642 -0.0610  1.1907
 2198SOL    HW218054   2.407   2.980   9.663  0.1656  0.1553  0.9909
 2199SOL     OW18055   3.029   1.697   8.500 -0.8455 -0.3240 -0.0687
 2199SOL    HW118056   3.008   1.668   8.411  2.9502 -0.8650 -0.8033
 2199SOL    HW218057   3.119   1.664   8.502 -0.4429  0.7443 -0.1823
 2200SOL     OW18058   2.252   0.344   0.680 -0.2103 -0.4055  0.1859
 2200SOL    HW118059   2.237   0.332   0.774  1.1872  1.4437  0.6296
 2200SOL    HW218060   2.303   0.264   0.666 -1.5228 -1.1872 -0.2200
 2201SOL     OW18061   2.323   4.206   5.557 -0.0575 -0.3667  0.7384
 2201SOL    HW118062   2.391   4.138   5.556 -2.2345 -2.5287 -0.4019
 2201SOL    HW218063   2.377   4.282   5.577 -0.5363  0.4273 -0.9960
 2202SOL     OW18064   3.261   0.817   5.847  0.2171  0.0827 -0.0001
 2202SOL    HW118065   3.288   0.908   5.846 -0.2079  0.2143  0.6879
 2202SOL    HW218066   3.350   0.783   5.833 -0.1270 -0.7962 -0.0938
 2203SOL     OW18067   4.061   1.735   5.414 -0.1079  0.2924  0.0793
 2203SOL    HW118068   4.137   1.723   5.357  0.4809 -0.3900  1.0168
 2203SOL    HW218069   3.997   1.691   5.358  0.5771 -0.2584 -0.2729
 2204SOL     OW18070   3.459   0.344  11.283 -0.2938 -0.7767 -0.1110
 2204SOL    HW118071   3.436   0.255  11.307 -0.9695 -0.3719  0.7414
 2204SOL    HW218072   3.396   0.397  11.332  0.8579  1.0066 -0.5199
 2205SOL     OW18073   0.541   3.779   5.140  0.1890 -0.4714 -0.3687
 2205SOL    HW118074   0.491   3.804   5.218 -0.5205 -2.3004 -0.2359
 2205SOL    HW218075   0.479   3.723   5.093 -0.7151 -0.0089  0.2814
 2206SOL     OW18076   2.386   2.787   8.628  0.2068 -0.0144  0.6394
 2206SOL    HW118077   2.417   2.870   8.664  0.9880 -0.8863  1.9878
 2206SOL    HW218078   2.456   2.732   8.665 -1.3010 -0.9653  2.0427
 2207SOL     OW18079   1.012   1.075   6.237  0.2565  0.5239 -0.1574
 2207SOL    HW118080   1.031   1.020   6.313 -0.6683  0.7781  0.2552
 2207SOL    HW218081   1.030   1.157   6.282  2.3333 -0.1629  0.2681
 2208SOL     OW18082   2.375   3.112   1.293  0.3075  0.1563 -0.1252
 2208SOL    HW118083   2.360   3.035   1.238  0.0153 -0.3130  0.6080
 2208SOL    HW218084   2.294   3.160   1.272 -0.6572 -1.0894  0.7770
 2209SOL     OW18085   2.907   0.644   4.711 -0.3931 -0.2170 -0.7522
 2209SOL    HW118086   2.933   0.622   4.621 -0.9219  0.3708 -1.0547
 2209SOL    HW218087   2.912   0.740   4.712 -1.6084 -0.1730  0.7775
 2210SOL     OW18088   2.228   0.008  16.544  0.0356 -0.2880  0.7159
 2210SOL    HW118089   2.229   0.015  16.640 -0.0113  1.4383  0.5785
 2210SOL    HW218090   2.294   4.663  16.548 -0.1064 -0.4255  0.7057
 2211SOL     OW18091   3.032   0.071  11.230 -0.5875 -0.1278 -0.3617
 2211SOL    HW118092   3.067   0.158  11.208 -0.0625 -0.1390  0.4115
 2211SOL    HW218093   3.104   0.023  11.271 -1.4132 -0.8687  0.2203
 2212SOL     OW18094   3.558   1.317   7.844 -0.4907  0.6178  0.6020
 2212SOL    HW118095   3.570   1.283   7.755 -0.5056  0.6604  0.5838
 2212SOL    HW218096   3.465   1.338   7.836 -0.6796  0.2486  1.6949
 2213SOL     OW18097   2.810   0.117   4.432  0.2227 -0.2582  0.5335
 2213SOL    HW118098   2.730   0.164   4.455 -0.4806 -0.3766 -1.7267
 2213SOL    HW218099   2.804   0.133   4.338  1.4375 -0.1259  0.4834
 2214SOL     OW18100   2.105   4.416  11.615 -0.1745 -0.2563 -0.3781
 2214SOL    HW118101   2.179   4.358  11.634 -1.1326 -1.5226 -0.5073
 2214SOL    HW218102   2.041   4.399  11.684 -1.5678  1.7357 -1.2034
 2215SOL     OW18103   3.376   1.766   4.822 -0.4939 -0.3764 -0.4081
 2215SOL    HW118104   3.437   1.725   4.760 -0.9969 -1.2722 -0.3142
 2215SOL    HW218105   3.302   1.788   4.766 -0.5605 -0.1074 -0.2141
 2216SOL     OW18106   0.225   4.455   3.694 -0.1999 -0.0250 -0.6571
 2216SOL    HW118107   0.144   4.404   3.693  1.6075 -2.9351 -2.5477
 2216SOL    HW218108   0.231   4.441   3.599 -0.5197 -0.3807 -0.6267
 2217SOL     OW18109   4.102   1.229  12.782 -0.3056 -0.0640 -0.2055
 2217SOL    HW118110   4.010   1.239  12.806  0.9046  1.5923  3.8641
 2217SOL    HW218111   4.120   1.135  12.779  0.6401  0.0938  0.4489
 2218SOL     OW18112   3.447   2.910  11.668 -0.0949 -0.2462  0.4699
 2218SOL    HW118113   3.405   2.989  11.703 -2.2351 -0.6061 -1.3071
 2218SOL    HW218114   3.436   2.853  11.744 -0.1016  0.8347  1.2868
 2219SOL     OW18115   1.028   0.324   8.291  0.4088 -0.0487 -0.4941
 2219SOL    HW118116   1.063   0.252   8.238 -0.9716 -2.4132  1.7969
 2219SOL    HW218117   1.088   0.394   8.268 -0.1730 -0.4112 -3.1871
 2220SOL     OW18118   4.236   3.625   6.065 -0.7966  0.6028  0.2741
 2220SOL    HW118119   4.141   3.624   6.060 -0.7527  1.0730 -0.6503
 2220SOL    HW218120   4.257   3.576   6.144 -0.4772  0.9726  0.4229
 2221SOL     OW18121   3.959   1.995   2.868 -0.5719  0.4418  0.8607
 2221SOL    HW118122   3.953   1.900   2.879  0.5964  0.2820  0.0928
 2221SOL    HW218123   3.908   2.018   2.790  0.7215  3.3836  0.8982
 2222SOL     OW18124   2.995   4.653  15.914  0.4013  0.5590  0.7407
 2222SOL    HW118125   2.985   4.571  15.962  2.7715 -0.5986 -0.7129
 2222SOL    HW218126   2.910   4.663  15.872  1.2923 -0.7568 -1.3675
 2223SOL     OW18127   0.768   0.335   2.357 -0.2152  0.3160 -0.2398
 2223SOL    HW118128   0.708   0.261   2.351  0.5958 -0.2696 -1.1076
 2223SOL    HW218129   0.822   0.324   2.279 -1.1478 -2.3929 -0.4927
 2224SOL     OW18130   3.409   2.995  14.353  0.1930 -0.2114  0.3555
 2224SOL    HW118131   3.444   3.067  14.301  0.8386  0.9398  2.3910
 2224SOL    HW218132   3.428   3.025  14.442  0.7123 -0.7620  0.4317
 2225SOL     OW18133   2.754   0.776   5.906 -0.2041 -0.1022  0.3468
 2225SOL    HW118134   2.708   0.800   5.826 -0.5421 -2.5485 -0.1956
 2225SOL    HW218135   2.686   0.722   5.948 -0.5903 -0.2908 -0.5194
 2226SOL     OW18136   2.931   2.226   5.621  0.1906 -0.0710  0.0269
 2226SOL    HW118137   2.933   2.253   5.529  2.6878 -0.0219  0.0968
 2226SOL    HW218138   2.956   2.135   5.609 -2.1510 -0.3243 -2.9651
 2227SOL     OW18139   0.219   2.424  12.609  0.4287  0.3179 -0.1891
 2227SOL    HW118140   0.175   2.349  12.569  0.7792 -1.6367  3.0211
 2227SOL    HW218141   0.231   2.378  12.693  1.2604 -1.3927 -1.2308
 2228SOL     OW18142   2.719   2.142   3.892  0.0225  0.2126  0.3832
 2228SOL    HW118143   2.710   2.050   3.868 -0.1915  0.3800 -0.1957
 2228SOL    HW218144   2.805   2.144   3.934 -0.1694 -1.6621  0.8810
 2229SOL     OW18145   4.406   0.848  13.910 -0.3591 -0.6554 -0.4174
 2229SOL    HW118146   4.465   0.846  13.985 -0.5250  0.6024 -0.2512
 2229SOL    HW218147   4.399   0.753  13.909  0.3761 -0.7435  2.3921
 2230SOL     OW18148   2.257   2.042   4.356  0.2262 -0.5526  0.3459
 2230SOL    HW118149   2.269   2.000   4.441  0.6576 -0.4196  0.3529
 2230SOL    HW218150   2.169   2.020   4.328  0.0848 -0.2510  0.5594
 2231SOL     OW18151   4.160   0.906  17.294  0.3063  0.4545 -0.1266
 2231SOL    HW118152   4.171   0.813  17.312  0.7517  0.3302 -1.0354
 2231SOL    HW218153   4.248   0.925  17.263  0.3154  0.3890 -0.1404
 2232SOL     OW18154   3.751   4.198  13.874  0.8921  0.1821 -0.1544
 2232SOL    HW118155   3.705   4.169  13.796 -1.0391 -1.9253  1.7487
 2232SOL    HW218156   3.681   4.245  13.919  0.9522 -0.3592  0.5143
 2233SOL     OW18157   0.575   4.720   6.400 -0.0281 -0.0189 -0.2299
 2233SOL    HW118158   0.654   4.679   6.437 -0.0719  0.0017 -0.1159
 2233SOL    HW218159   0.605   0.073   6.351  0.3074  1.1419  1.8135
 2234SOL     OW18160   3.445   0.534   4.769 -0.1363 -0.3386 -0.1547
 2234SOL    HW118161   3.430   0.444   4.798 -0.9982  0.0445  0.6173
 2234SOL    HW218162   3.355   0.565   4.759 -0.6186 -1.7577 -0.0928
 2235SOL     OW18163   0.304   0.947  13.749 -0.3150 -0.4296  0.8134
 2235SOL    HW118164   0.255   0.872  13.716 -1.9028 -0.1020  2.4474
 2235SOL    HW218165   0.393   0.915  13.755  0.2177  1.2031  1.6901
 2236SOL     OW18166   2.096   3.554   6.646 -0.7145 -0.8078  0.6759
 2236SOL    HW118167   2.128   3.567   6.557 -2.5975 -1.2499 -0.0608
 2236SOL    HW218168   2.069   3.643   6.665 -3.6492 -1.2463 -1.5047
 2237SOL     OW18169   0.883   2.329  12.405  0.3694  0.7660 -0.0254
 2237SOL    HW118170   0.893   2.241  12.441 -2.5506  0.5292  0.1898
 2237SOL    HW218171   0.947   2.372  12.463  1.0313  1.5016 -1.3034
 2238SOL     OW18172   3.510   2.935   3.303 -0.3292 -0.2703  0.0472
 2238SOL    HW118173   3.495   2.863   3.363  0.1499 -0.0991  0.3731
 2238SOL    HW218174   3.601   2.927   3.277  0.1957 -1.4577  2.3030
 2239SOL     OW18175   2.767   2.775   3.950 -0.2088 -0.2124 -0.2645
 2239SOL    HW118176   2.807   2.721   4.018  0.3978  1.6068  0.8292
 2239SOL    HW218177   2.676   2.745   3.945  0.3853 -2.2499  0.9994
 2240SOL     OW18178   2.148   2.355   7.974 -0.1455  0.1756  0.2134
 2240SOL    HW118179   2.056   2.332   7.964 -0.2323  0.4238  0.4516
 2240SOL    HW218180   2.144   2.429   8.035 -0.2358 -0.1828  0.6424
 2241SOL     OW18181   0.789   1.126   3.709  0.2335 -0.4217 -0.0519
 2241SOL    HW118182   0.855   1.158   3.648  0.7045  1.3407  1.3635
 2241SOL    HW218183   0.831   1.149   3.792  0.3393  0.5729 -0.3733
 2242SOL     OW18184   3.985   3.193   7.841 -0.1153  0.2220 -0.1173
 2242SOL    HW118185   3.926   3.218   7.769  1.1787 -1.9160 -1.8982
 2242SOL    HW218186   4.005   3.277   7.884 -0.3476 -1.8843  4.0586
 2243SOL     OW18187   0.233   0.921   7.170 -0.0028 -0.4078 -0.0844
 2243SOL    HW118188   0.312   0.929   7.115  0.7303  0.9634  1.1685
 2243SOL    HW218189   0.182   0.856   7.121 -0.5031  0.5294 -0.8182
 2244SOL     OW18190   1.120   3.007   4.210  0.2602  0.4267  0.0087
 2244SOL    HW118191   1.185   2.977   4.274 -0.3612  0.0812  0.4780
 2244SOL    HW218192   1.163   2.980   4.129  0.9826  0.9930  0.2061
 2245SOL     OW18193   0.303   3.141   8.070  0.6480  0.0379 -0.8245
 2245SOL    HW118194   0.316   3.158   7.976  1.9752 -3.0242 -1.1978
 2245SOL    HW218195   0.361   3.066   8.082 -0.3960 -0.0330  3.5284
 2246SOL     OW18196   0.152   0.736  13.615  0.2296 -0.4247  0.2921
 2246SOL    HW118197   0.174   0.740  13.522  0.0332  2.5557  0.3893
 2246SOL    HW218198   0.062   0.703  13.606 -0.1760  0.0096  2.6240
 2247SOL     OW18199   1.874   1.676   3.868  0.5064 -0.1682 -0.2919
 2247SOL    HW118200   1.850   1.696   3.959  0.8045 -0.6601 -0.1036
 2247SOL    HW218201   1.793   1.637   3.837  0.0531  0.3316  0.2660
 2248SOL     OW18202   3.718   1.425  17.044 -0.0256  0.2531 -0.2482
 2248SOL    HW118203   3.688   1.509  17.080  0.5964  1.8522 -3.3971
 2248SOL    HW218204   3.628   1.392  17.038  0.7378 -1.5879 -1.4626
 2249SOL     OW18205   2.604   4.647   8.830  0.7167 -0.0620  0.7420
 2249SOL    HW118206   2.664   4.582   8.867  1.0949 -0.1241  0.0239
 2249SOL    HW218207   2.579   4.614   8.744 -1.5532 -0.3606  1.5134
 2250SOL     OW18208   2.359   1.540  11.941 -0.5503  0.0533 -0.1332
 2250SOL    HW118209   2.434   1.575  11.893  0.9903  0.1526  2.3528
 2250SOL    HW218210   2.288   1.565  11.882 -0.0175  0.5277 -0.5692
 2251SOL     OW18211   4.378   2.010   6.102  0.0488  0.2604 -0.7432
 2251SOL    HW118212   4.326   2.031   6.025  1.0710 -0.2746 -1.5905
 2251SOL    HW218213   4.355   1.917   6.101  0.6763  0.0768  0.9587
 2252SOL     OW18214   1.204   2.259   8.184 -0.4485  0.4437 -0.5387
 2252SOL    HW118215   1.290   2.297   8.162  0.3246 -0.0406  1.6594
 2252SOL    HW218216   1.151   2.335   8.210 -2.1172 -1.2649  0.9899
 2253SOL     OW18217   2.526   1.945   6.285  0.0986 -0.2642 -0.3183
 2253SOL    HW118218   2.457   2.000   6.324  1.1752  1.0524 -0.2738
 2253SOL    HW218219   2.583   1.929   6.361 -3.1445 -1.8068  1.8094
 2254SOL     OW18220   1.659   4.280   7.950  0.3255  0.0871 -0.4507
 2254SOL    HW118221   1.670   4.305   8.042  1.4257  0.5570 -0.7121
 2254SOL    HW218222   1.576   4.233   7.949  0.3592  0.0211  0.0299
 2255SOL     OW18223   3.445   3.503   2.370  0.2417 -0.2962 -0.6066
 2255SOL    HW118224   3.488   3.586   2.390  0.3093 -1.1668  2.8442
 2255SOL    HW218225   3.445   3.449   2.449  0.0889  1.0479  0.3223
 2256SOL     OW18226   0.421   1.705  11.564  0.2313  0.5049  0.2464
 2256SOL    HW118227   0.465   1.649  11.500 -1.4010  1.2338 -1.5086
 2256SOL    HW218228   0.388   1.639  11.625  0.0672  0.4115  0.0547
 2257SOL     OW18229   3.249   4.583   5.778 -0.2370 -0.4137  0.3664
 2257SOL    HW118230   3.220   4.516   5.840 -0.9504 -1.1076 -0.7016
 2257SOL    HW218231   3.166   4.600   5.733  1.7568  3.1070 -2.0078
 2258SOL     OW18232   2.078   4.389   6.484  0.4338 -0.0521  0.1990
 2258SOL    HW118233   2.114   4.470   6.522  0.1422  1.2137 -2.2037
 2258SOL    HW218234   2.079   4.334   6.562 -0.8321 -0.4487 -0.0713
 2259SOL     OW18235   1.284   2.886  10.857 -0.0695  0.1400 -0.1411
 2259SOL    HW118236   1.369   2.927  10.873 -0.3663  1.3580 -1.7047
 2259SOL    HW218237   1.240   2.957  10.811  1.1727  1.2069  0.3294
 2260SOL     OW18238   0.680   2.689   8.532 -0.0868 -0.0917  0.1649
 2260SOL    HW118239   0.733   2.632   8.589 -0.1760  0.0746  0.4162
 2260SOL    HW218240   0.732   2.766   8.509  1.5855 -0.7004  1.8540
 2261SOL     OW18241   2.309   1.353   5.207  1.3078 -0.0066 -0.0175
 2261SOL    HW118242   2.315   1.412   5.282 -1.8250  1.7621 -1.1387
 2261SOL    HW218243   2.230   1.303   5.227  0.9476  0.4899 -0.2060
 2262SOL     OW18244   3.150   4.137   8.101 -0.1389  0.2308  0.5793
 2262SOL    HW118245   3.089   4.195   8.054  0.7693  2.6218  2.3317
 2262SOL    HW218246   3.092   4.113   8.173  0.6840  0.2122  1.2449
 2263SOL     OW18247   1.700   0.893   1.779  0.4765  0.6588 -0.3969
 2263SOL    HW118248   1.730   0.890   1.688  0.7196 -1.6725 -0.2389
 2263SOL    HW218249   1.756   0.965   1.810  0.4783 -0.3355  1.8802
 2264SOL     OW18250   1.199   0.754   6.796 -0.0674  0.3276  0.2877
 2264SOL    HW118251   1.129   0.715   6.848  1.4847 -1.2941  1.1884
 2264SOL    HW218252   1.268   0.688   6.805  1.1677  1.8766  2.2818
 2265SOL     OW18253   4.608   3.694   6.244  0.1646 -0.5707  0.0588
 2265SOL    HW118254   4.679   3.631   6.258  1.4982  0.6554 -1.1897
 2265SOL    HW218255   4.558   3.688   6.325  1.4116  0.5913  0.9289
 2266SOL     OW18256   0.221   2.265   2.274  0.0500 -0.0769  0.6401
 2266SOL    HW118257   0.275   2.334   2.314 -0.9069  0.9596  0.1228
 2266SOL    HW218258   0.267   2.186   2.303  0.9267 -0.5772 -2.1199
 2267SOL     OW18259   4.287   2.106  11.434  0.4520  0.1560 -0.2842
 2267SOL    HW118260   4.316   2.020  11.464 -1.6370 -0.5730 -0.3427
 2267SOL    HW218261   4.245   2.142  11.512  0.6937 -1.0256  0.3922
 2268SOL     OW18262   4.322   1.199   3.743 -0.6972  0.2583  0.2192
 2268SOL    HW118263   4.360   1.266   3.801 -1.8259  1.8304 -0.8633
 2268SOL    HW218264   4.339   1.248   3.662 -0.9767  0.4776  0.2925
 2269SOL     OW18265   0.999   0.807   3.613 -0.2838  0.4280 -1.0871
 2269SOL    HW118266   0.942   0.756   3.669  1.5518 -1.2716 -0.7785
 2269SOL    HW218267   0.941   0.883   3.603 -1.3856 -0.0386  1.9716
 2270SOL     OW18268   4.094   0.012  17.360  0.0611  0.7665 -0.5218
 2270SOL    HW118269   4.172   0.059  17.389  0.0263 -0.2986  1.3176
 2270SOL    HW218270   4.031   0.038  17.427 -1.5480  1.5306 -2.3360
 2271SOL     OW18271   3.683   1.972   1.127  0.1747  0.2575  0.3714
 2271SOL    HW118272   3.768   2.011   1.106 -0.7062  2.8350  1.4991
 2271SOL    HW218273   3.638   1.981   1.043  0.0864 -4.3418 -0.0717
 2272SOL     OW18274   0.944   2.975  10.359  0.5652 -0.0804  0.2025
 2272SOL    HW118275   1.007   2.913  10.396  0.9418  0.5148  0.5733
 2272SOL    HW218276   0.857   2.937  10.375 -0.3891  1.5120 -1.2360
 2273SOL     OW18277   4.111   0.665   3.434 -0.4234 -0.3815  0.1378
 2273SOL    HW118278   4.182   0.632   3.488 -0.5741  1.2856  1.3275
 2273SOL    HW218279   4.141   0.748   3.396  0.0822 -0.3243  0.6656
 2274SOL     OW18280   3.261   2.541   3.970 -0.1815  0.4523 -0.1792
 2274SOL    HW118281   3.225   2.456   3.947 -3.2025  2.2138 -1.9345
 2274SOL    HW218282   3.329   2.546   3.902 -1.1777  1.0201 -1.1321
 2275SOL     OW18283   4.002   1.428   0.342 -0.1263 -0.6073  0.4752
 2275SOL    HW118284   4.012   1.514   0.302 -2.2077  0.1955  1.6221
 2275SOL    HW218285   3.952   1.379   0.277  1.4885 -0.1636 -1.0810
 2276SOL     OW18286   1.927   2.301   2.128 -0.7030  0.3118  0.6387
 2276SOL    HW118287   1.901   2.275   2.040 -1.2896  0.8782  0.6484
 2276SOL    HW218288   1.901   2.221   2.173  1.2349 -0.5189  0.2737
 2277SOL     OW18289   3.678   3.149   4.923 -0.8910  0.3310 -0.4085
 2277SOL    HW118290   3.707   3.240   4.920  0.7384 -0.1434  0.5730
 2277SOL    HW218291   3.589   3.164   4.891 -1.4555 -0.2006  0.8938
 2278SOL     OW18292   4.472   2.736   2.690  0.8056  0.1569  0.7967
 2278SOL    HW118293   4.457   2.830   2.701  0.5283  0.2328 -0.2273
 2278SOL    HW218294   4.426   2.733   2.606  1.3390 -1.6615  0.5602
 2279SOL     OW18295   2.990   4.392   3.141 -0.1083 -0.3439 -0.1073
 2279SOL    HW118296   3.023   4.478   3.167  1.3497 -1.0189  0.2962
 2279SOL    HW218297   2.956   4.354   3.222  0.3007  1.0787  0.7264
 2280SOL     OW18298   1.827   0.954   4.839  0.0074  0.3820  0.0697
 2280SOL    HW118299   1.805   1.044   4.865  4.1846  1.4477 -0.1481
 2280SOL    HW218300   1.861   0.965   4.750  1.4912  1.0995  0.7216
 2281SOL     OW18301   0.851   0.422   8.677 -0.4268  0.3753  0.2042
 2281SOL    HW118302   0.875   0.363   8.748  2.0287  0.3207 -0.6810
 2281SOL    HW218303   0.772   0.379   8.644  0.3365 -1.3165  0.6008
 2282SOL     OW18304   3.952   2.228   5.839  0.6956  0.3995  0.2126
 2282SOL    HW118305   3.898   2.306   5.855  0.9115  0.6294 -0.1791
 2282SOL    HW218306   3.887   2.158   5.841 -0.8289  1.7443 -2.1082
 2283SOL     OW18307   1.206   2.652  10.616 -0.0627 -0.3734  0.2366
 2283SOL    HW118308   1.264   2.592  10.569 -0.9326  1.3753 -3.0656
 2283SOL    HW218309   1.213   2.715  10.545 -0.7788 -0.9229 -0.3190
 2284SOL     OW18310   3.141   1.225   4.861  0.7003  0.2349 -0.2146
 2284SOL    HW118311   3.225   1.236   4.904  0.6540 -0.8907  0.1573
 2284SOL    HW218312   3.170   1.219   4.770 -0.3264 -1.4032 -0.4329
 2285SOL     OW18313   3.319   0.310   7.381  0.0237 -0.1047 -0.1659
 2285SOL    HW118314   3.294   0.305   7.473  2.2187  0.7594  0.4647
 2285SOL    HW218315   3.384   0.240   7.375  1.1215  0.7028  2.2340
 2286SOL     OW18316   2.275   0.503   5.910 -0.5097  0.0018 -0.2241
 2286SOL    HW118317   2.276   0.579   5.851  2.8060  0.2399  0.1616
 2286SOL    HW218318   2.351   0.523   5.964  0.4172  1.7734 -2.1810
 2287SOL     OW18319   1.268   1.112   8.299 -0.0257  0.0996  0.4175
 2287SOL    HW118320   1.332   1.049   8.331 -0.6575 -0.1631  1.1771
 2287SOL    HW218321   1.289   1.102   8.207  1.4264  0.4824  0.6983
 2288SOL     OW18322   1.960   1.421   4.860 -0.7223  0.4296 -0.0949
 2288SOL    HW118323   1.978   1.368   4.938 -2.6767  0.1524  0.1507
 2288SOL    HW218324   1.913   1.495   4.896  0.7380  1.1032  0.4453
 2289SOL     OW18325   2.173   0.335   8.470 -0.2446  0.2642 -0.1211
 2289SOL    HW118326   2.204   0.422   8.494  1.0847 -0.2255 -0.0354
 2289SOL    HW218327   2.103   0.320   8.533 -2.5857 -2.3210 -3.3718
 2290SOL     OW18328   4.455   1.514   7.848 -0.3200 -0.4493  0.2113
 2290SOL    HW118329   4.522   1.446   7.838  0.9786  0.7717  0.5577
 2290SOL    HW218330   4.485   1.588   7.794 -2.3247 -1.2040 -1.9431
 2291SOL     OW18331   3.068   4.634   3.212  0.2485 -0.3989 -0.6595
 2291SOL    HW118332   3.162   4.615   3.221  0.2352 -0.8536 -1.4669
 2291SOL    HW218333   3.081   4.708   3.152 -3.2626 -1.6321 -2.9046
 2292SOL     OW18334   0.415   0.241  11.371  0.4483 -0.0083 -0.5123
 2292SOL    HW118335   0.480   0.176  11.345  1.1537 -0.0302  1.2682
 2292SOL    HW218336   0.354   0.243  11.297 -0.3546 -2.1308  0.0783
 2293SOL     OW18337   1.064   3.253   1.718  0.1229  0.1289  0.3262
 2293SOL    HW118338   1.095   3.260   1.628  0.5022  0.5963  0.4939
 2293SOL    HW218339   1.080   3.163   1.748 -1.8278 -0.0895  0.7170
 2294SOL     OW18340   2.600   1.309  12.147 -0.2976 -0.5444  0.0261
 2294SOL    HW118341   2.516   1.281  12.112  0.7871 -2.2524 -1.2179
 2294SOL    HW218342   2.573   1.383  12.201 -0.5867 -0.9947  0.4969
 2295SOL     OW18343   0.901   0.964   7.323 -0.6266 -0.3409  0.3774
 2295SOL    HW118344   0.988   0.946   7.288 -1.6642 -0.5691 -2.1172
 2295SOL    HW218345   0.891   1.058   7.310  0.1039 -0.5081 -1.3397
 2296SOL     OW18346   2.387   2.794   8.218  0.3476  0.2375 -0.5561
 2296SOL    HW118347   2.373   2.859   8.149 -2.6715 -0.4360 -0.5742
 2296SOL    HW218348   2.433   2.855   8.274 -0.0364  0.6772 -0.7205
 2297SOL     OW18349   4.330   1.182   5.196 -0.8347 -0.1260  0.0981
 2297SOL    HW118350   4.378   1.104   5.168  0.4459  0.6977 -0.0125
 2297SOL    HW218351   4.384   1.254   5.163  1.2556 -1.3775  0.7643
 2298SOL     OW18352   3.394   1.971   6.185 -0.3163  0.2930  0.3523
 2298SOL    HW118353   3.416   1.896   6.241  3.3479 -0.1958 -1.7872
 2298SOL    HW218354   3.340   1.921   6.124 -1.8829  1.7106  0.5875
 2299SOL     OW18355   3.390   0.087  11.402 -0.3533 -0.4089 -0.8422
 2299SOL    HW118356   3.405   4.720  11.377  2.1032 -0.4589  0.8044
 2299SOL    HW218357   3.430   0.080  11.488  0.9440  1.1651 -1.3190
 2300SOL     OW18358   1.530   0.890   3.480 -0.3682  0.4580 -0.1901
 2300SOL    HW118359   1.541   0.965   3.422 -1.4631  3.1848  3.1775
 2300SOL    HW218360   1.440   0.899   3.511 -0.0883  0.2786  0.6652
 2301SOL     OW18361   2.160   2.798  15.913  0.3017  0.7852 -0.4448
 2301SOL    HW118362   2.134   2.736  15.844 -0.1199  1.5452 -0.9624
 2301SOL    HW218363   2.240   2.830  15.872 -0.8615 -0.6049 -3.9125
 2302SOL     OW18364   0.741   3.585   1.127  0.7802  0.4041  0.2281
 2302SOL    HW118365   0.817   3.571   1.070  1.5162  1.5572  0.9132
 2302SOL    HW218366   0.670   3.550   1.074  1.5976  0.7013 -1.0664
 2303SOL     OW18367   3.973   1.383  10.295  0.6932  0.0936  0.3250
 2303SOL    HW118368   3.920   1.448  10.249  1.6448 -1.4916 -2.9782
 2303SOL    HW218369   3.911   1.314  10.273  0.7850  0.7817 -2.0265
 2304SOL     OW18370   4.330   4.361   2.739 -0.2888 -0.9547  0.4341
 2304SOL    HW118371   4.279   4.377   2.818  1.7009 -1.9484  1.9285
 2304SOL    HW218372   4.287   4.284   2.700  0.6094 -0.8295 -0.8217
 2305SOL     OW18373   0.962   1.080  11.660 -0.7785 -0.3293  0.7701
 2305SOL    HW118374   1.003   1.102  11.576  2.7402  0.3041  2.6270
 2305SOL    HW218375   1.028   1.127  11.712 -0.8339 -1.0822  1.5304
 2306SOL     OW18376   2.111   0.300   4.172 -0.0893  0.0818 -0.0029
 2306SOL    HW118377   2.194   0.281   4.215  0.0257  0.1095 -0.2161
 2306SOL    HW218378   2.142   0.281   4.084  1.7492 -0.4349  0.7644
 2307SOL     OW18379   2.127   2.702   1.127 -0.0370 -0.1209 -0.0272
 2307SOL    HW118380   2.058   2.664   1.180  0.4283  4.1265  3.5712
 2307SOL    HW218381   2.118   2.648   1.048  0.5254  0.3687 -0.4236
 2308SOL     OW18382   2.151   1.187  12.696 -0.4487  0.6640 -0.3386
 2308SOL    HW118383   2.218   1.119  12.711 -0.7901  0.4231  0.0832
 2308SOL    HW218384   2.157   1.227  12.783  0.5604  0.8849 -0.5080
 2309SOL     OW18385   4.021   3.367   5.423 -0.2324 -0.5799  0.7912
 2309SOL    HW118386   4.017   3.439   5.360  1.1722 -1.4274 -0.2774
 2309SOL    HW218387   3.936   3.324   5.416  0.3312 -1.8707  2.0660
 2310SOL     OW18388   1.107   2.175   5.487 -0.2624  0.2266  0.2299
 2310SOL    HW118389   1.168   2.243   5.460  0.8221 -0.4666  0.9635
 2310SOL    HW218390   1.036   2.231   5.520  0.5877 -0.0510  2.5230
 2311SOL     OW18391   0.876   0.506   2.534 -0.1578  1.2892  0.0566
 2311SOL    HW118392   0.956   0.507   2.482 -0.4880  0.9458 -0.4541
 2311SOL    HW218393   0.823   0.450   2.477 -0.3801  0.2406  1.3060
 2312SOL     OW18394   2.529   2.324   5.064 -0.3799 -0.0597  0.0530
 2312SOL    HW118395   2.488   2.375   4.994 -0.1899  1.4009  0.9988
 2312SOL    HW218396   2.610   2.374   5.075  0.2625 -1.5331  2.1186
 2313SOL     OW18397   3.210   0.360  16.898 -0.1909  0.4975 -0.3213
 2313SOL    HW118398   3.206   0.440  16.950 -0.0345  0.3810 -0.1286
 2313SOL    HW218399   3.304   0.341  16.892  0.1401  2.5525 -1.5592
 2314SOL     OW18400   2.394   3.032   6.180 -0.1219 -0.2675  0.0211
 2314SOL    HW118401   2.354   3.074   6.103  1.3574  2.2944  0.6430
 2314SOL    HW218402   2.312   2.992   6.207 -2.2297  2.8590 -1.7641
 2315SOL     OW18403   4.038   4.537   2.950  0.1710  0.6702 -0.0323
 2315SOL    HW118404   4.130   4.516   2.960 -0.2522 -0.6853  0.9443
 2315SOL    HW218405   4.046   4.632   2.959  2.5575  0.4326  0.3601
 2316SOL     OW18406   1.482   1.754   8.292 -0.4862 -0.4640  0.0481
 2316SOL    HW118407   1.465   1.808   8.369 -0.5519 -1.3235  0.6382
 2316SOL    HW218408   1.542   1.820   8.257 -0.4395  0.6724  2.3203
 2317SOL     OW18409   0.460   4.664  11.191  0.3806  0.2840  0.2669
 2317SOL    HW118410   0.454   4.608  11.114 -2.0095  0.4094  0.3428
 2317SOL    HW218411   0.399   4.613  11.245 -0.6633 -1.3819 -2.5211
 2318SOL     OW18412   4.661   4.691  16.774  0.1723 -0.2371  0.5296
 2318SOL    HW118413   4.721   4.667  16.703 -0.3160 -1.3649  0.4900
 2318SOL    HW218414   4.632   4.601  16.791 -1.7691  0.0482 -1.2538
 2319SOL     OW18415   2.532   2.512   1.557  0.9115  0.4225 -0.1508
 2319SOL    HW118416   2.468   2.581   1.575  0.9791  0.6238 -0.6542
 2319SOL    HW218417   2.611   2.555   1.588  0.3200  0.8056  0.8266
 2320SOL     OW18418   3.328   2.443   3.246 -0.0271 -0.2408  0.3469
 2320SOL    HW118419   3.291   2.400   3.169 -0.0374 -0.0592  0.2495
 2320SOL    HW218420   3.354   2.362   3.288 -1.1189 -0.4292  0.6477
 2321SOL     OW18421   3.553   4.546   8.634 -0.0455  0.1619  0.8416
 2321SOL    HW118422   3.469   4.539   8.588 -0.8627  2.7296  1.9461
 2321SOL    HW218423   3.607   4.597   8.574 -0.9156 -0.7404 -0.7137
 2322SOL     OW18424   0.561   2.733   5.207 -0.0641  0.4145  0.4969
 2322SOL    HW118425   0.588   2.686   5.287 -0.8624 -1.6545 -0.4415
 2322SOL    HW218426   0.642   2.780   5.185 -1.2042  1.3727 -1.5729
 2323SOL     OW18427   1.087   2.766  14.865 -0.2501  0.5915 -0.2768
 2323SOL    HW118428   1.044   2.787  14.949  1.6799 -0.1815  0.8973
 2323SOL    HW218429   1.062   2.838  14.808 -0.3939 -0.9763 -2.1809
 2324SOL     OW18430   1.239   2.228   4.723 -0.3811  0.4563 -0.4784
 2324SOL    HW118431   1.187   2.280   4.785 -0.8500  1.3615 -1.6461
 2324SOL    HW218432   1.314   2.206   4.778 -1.2745  1.6981  1.2783
 2325SOL     OW18433   1.111   0.029   4.135  0.4606 -0.3059 -0.2444
 2325SOL    HW118434   1.028   0.054   4.094  0.3367 -1.1998 -0.5445
 2325SOL    HW218435   1.082   4.719   4.219  2.5877 -0.0515  0.5989
 2326SOL     OW18436   1.390   2.936  14.957  0.5916 -0.1546 -0.7965
 2326SOL    HW118437   1.306   2.983  14.963  1.4690  1.3542 -0.4689
 2326SOL    HW218438   1.376   2.871  14.889  0.8009 -2.1303  1.0665
 2327SOL     OW18439   2.802   3.228   8.095  0.1311  0.9185  0.8664
 2327SOL    HW118440   2.822   3.140   8.128  4.4569  0.7134 -2.1888
 2327SOL    HW218441   2.888   3.229   8.052 -0.0058 -2.2708  0.4897
 2328SOL     OW18442   1.931   2.550   8.378 -0.1055 -0.2223 -0.0239
 2328SOL    HW118443   1.881   2.631   8.375 -0.6213 -0.5689 -0.8817
 2328SOL    HW218444   1.998   2.561   8.446 -0.0916 -1.6879  0.2088
 2329SOL     OW18445   2.641   3.475   8.967  0.3025  0.3364 -0.0147
 2329SOL    HW118446   2.558   3.430   8.951 -0.6365  1.8012  0.6744
 2329SOL    HW218447   2.674   3.429   9.043 -2.0808 -1.2830  0.0309
 2330SOL     OW18448   3.549   0.512   3.884 -0.4688  0.4188  0.3364
 2330SOL    HW118449   3.608   0.437   3.875 -0.8556  0.2749 -0.9850
 2330SOL    HW218450   3.599   0.570   3.941  0.4583  0.6370 -0.6966
 2331SOL     OW18451   2.233   0.334  16.995  0.1402 -0.6843  0.2972
 2331SOL    HW118452   2.254   0.258  17.048  2.5879  1.0287  1.7776
 2331SOL    HW218453   2.265   0.407  17.048  3.8060  0.6924 -3.8063
 2332SOL     OW18454   3.185   4.219   3.913  0.1089  0.0631 -0.6453
 2332SOL    HW118455   3.226   4.155   3.971  0.3531  0.6243 -0.1897
 2332SOL    HW218456   3.093   4.215   3.936  0.2757  1.3807  0.2240
 2333SOL     OW18457   1.608   1.133   5.178  0.6159  0.1907 -0.6049
 2333SOL    HW118458   1.552   1.159   5.250  0.1062  0.2103 -1.0054
 2333SOL    HW218459   1.550   1.089   5.115  0.7674 -0.6685 -0.1519
 2334SOL     OW18460   1.728   0.642   7.085 -0.1620  0.1996  0.0598
 2334SOL    HW118461   1.659   0.619   7.022  1.8930  1.2134 -2.5493
 2334SOL    HW218462   1.736   0.737   7.085 -2.2248  0.3745  0.2884
 2335SOL     OW18463   0.982   3.901  12.105  0.1846 -0.4964  0.1469
 2335SOL    HW118464   0.985   3.880  12.012 -0.7878 -0.6415  0.1544
 2335SOL    HW218465   0.928   3.831  12.143  0.2100 -0.5729  0.0412
 2336SOL     OW18466   4.638   4.457   5.749  0.0489 -0.0941 -0.5749
 2336SOL    HW118467   4.719   4.508   5.747 -0.1463  0.2817  0.5449
 2336SOL    HW218468   4.580   4.529   5.774 -0.5106 -0.2673 -1.3943
 2337SOL     OW18469   3.393   2.290   2.815 -0.2700 -0.1338  0.1787
 2337SOL    HW118470   3.422   2.360   2.756  0.1601  1.0442  1.7675
 2337SOL    HW218471   3.474   2.242   2.835 -0.6397 -0.1070  1.6858
 2338SOL     OW18472   1.547   0.959   8.769  0.0230  0.1907 -0.1272
 2338SOL    HW118473   1.516   1.047   8.751  0.4822  0.7482  1.8062
 2338SOL    HW218474   1.642   0.962   8.783 -0.4266 -0.1309  3.0267
 2339SOL     OW18475   4.042   1.189   6.426 -0.1887  0.4833 -0.5129
 2339SOL    HW118476   3.997   1.155   6.503 -1.3782  0.5376 -1.1810
 2339SOL    HW218477   3.974   1.188   6.358  0.8160 -0.1379 -1.4899
 2340SOL     OW18478   0.067   3.717   6.916 -0.1378  0.2053 -0.0048
 2340SOL    HW118479   0.073   3.705   6.821 -1.3065  0.7576 -0.1439
 2340SOL    HW218480   0.069   3.812   6.916 -0.7327  0.2136 -0.7476
 2341SOL     OW18481   2.206   0.880   9.425  0.5625 -0.0888  1.0454
 2341SOL    HW118482   2.295   0.879   9.458  0.7737 -1.3702  0.4303
 2341SOL    HW218483   2.192   0.801   9.373  0.2724  0.5169  0.2091
 2342SOL     OW18484   0.953   2.592   5.886 -0.7164 -0.5279  0.2477
 2342SOL    HW118485   0.901   2.662   5.846  0.7770 -0.2135 -1.1678
 2342SOL    HW218486   0.893   2.557   5.952 -0.5523  3.5243  2.5541
 2343SOL     OW18487   1.510   4.139   1.392  0.6150  0.3206  0.3733
 2343SOL    HW118488   1.496   4.206   1.459 -1.4937  0.9345 -0.6893
 2343SOL    HW218489   1.434   4.149   1.335  0.1627  0.7228  1.0496
 2344SOL     OW18490   3.310   3.400   0.308 -0.5829  0.3058 -0.2772
 2344SOL    HW118491   3.252   3.447   0.368 -0.6719 -1.2932  0.8859
 2344SOL    HW218492   3.387   3.391   0.364 -1.0246  1.2509  0.5023
 2345SOL     OW18493   1.958   2.934   6.796  0.1991 -0.4072  0.1043
 2345SOL    HW118494   1.906   3.015   6.795  0.0605 -0.5080 -1.4939
 2345SOL    HW218495   1.888   2.876   6.767  0.2389 -0.0569 -0.7004
 2346SOL     OW18496   2.909   3.626   7.899 -0.4588  0.2251  0.3234
 2346SOL    HW118497   2.857   3.588   7.970 -0.4327  2.6395  1.6162
 2346SOL    HW218498   2.998   3.597   7.919 -0.3834 -1.0173 -1.8348
 2347SOL     OW18499   0.611   2.188  12.629  0.1744  0.1557 -0.2824
 2347SOL    HW118500   0.567   2.253  12.573  0.2275  0.5652  0.1483
 2347SOL    HW218501   0.663   2.147  12.560  2.2680 -0.4331  1.6921
 2348SOL     OW18502   1.323   2.507  12.452  0.1125  0.4850  0.2310
 2348SOL    HW118503   1.391   2.440  12.461 -0.6922 -0.4684 -0.6840
 2348SOL    HW218504   1.323   2.511  12.357  0.3958 -1.7742  0.1241
 2349SOL     OW18505   1.458   2.155   5.964  0.5836  0.2133  1.1314
 2349SOL    HW118506   1.388   2.176   6.026  1.4042  0.6403  1.9295
 2349SOL    HW218507   1.491   2.069   5.990  0.3299 -0.2367 -0.0591
 2350SOL     OW18508   2.646   3.271   7.550  0.2403  0.4356 -0.3406
 2350SOL    HW118509   2.588   3.297   7.479 -0.6139  1.5826  0.7763
 2350SOL    HW218510   2.697   3.210   7.497 -0.3880  1.3410 -1.9627
 2351SOL     OW18511   1.239   0.798   2.842 -0.5859 -0.0547 -0.3098
 2351SOL    HW118512   1.245   0.818   2.748  1.8988  0.1407 -0.1022
 2351SOL    HW218513   1.196   0.713   2.843 -3.5339  1.4318 -1.2957
 2352SOL     OW18514   3.892   1.390   7.174 -0.2397  0.7280 -0.1251
 2352SOL    HW118515   3.801   1.419   7.168 -0.0819  1.0984 -0.6848
 2352SOL    HW218516   3.874   1.296   7.181  0.4037  0.5985 -0.1925
 2353SOL     OW18517   2.684   3.051  14.770  0.6605  0.0747 -0.2205
 2353SOL    HW118518   2.693   2.957  14.788  0.9172 -0.0356 -0.9547
 2353SOL    HW218519   2.609   3.075  14.824  1.0790  1.1990 -0.1437
 2354SOL     OW18520   0.512   3.426  17.130  0.5520 -0.0229  0.0167
 2354SOL    HW118521   0.597   3.392  17.103 -0.8658 -2.7814 -0.9376
 2354SOL    HW218522   0.540   3.472  17.209  0.4913  0.7533 -0.4139
 2355SOL     OW18523   1.251   1.389  12.545  0.7279 -0.0360  0.0247
 2355SOL    HW118524   1.230   1.437  12.465  1.5959 -0.4023 -0.4232
 2355SOL    HW218525   1.236   1.452  12.615  0.1943  0.8864 -0.9142
 2356SOL     OW18526   1.235   0.908   3.454 -0.3526  0.2294  0.0580
 2356SOL    HW118527   1.142   0.913   3.475  0.2496 -0.4962  2.8917
 2356SOL    HW218528   1.236   0.826   3.405 -1.4812  0.7852 -0.9109
 2357SOL     OW18529   3.517   2.551   6.468  0.4163 -0.0508  0.3540
 2357SOL    HW118530   3.460   2.517   6.399 -1.5988  3.2312  0.4266
 2357SOL    HW218531   3.595   2.568   6.416  0.0281 -0.2132 -0.2935
 2358SOL     OW18532   3.135   3.126   4.645 -0.2790 -0.2230  0.0270
 2358SOL    HW118533   3.225   3.116   4.676  0.0404  1.3762 -0.4148
 2358SOL    HW218534   3.086   3.049   4.675 -0.7774  0.3665  0.7120
 2359SOL     OW18535   4.704   3.181  15.588 -0.2138 -0.2138 -0.3345
 2359SOL    HW118536   4.623   3.210  15.547 -0.8548 -0.8199  0.4776
 2359SOL    HW218537   4.684   3.200  15.680  0.7896 -0.3568 -0.0842
 2360SOL     OW18538   0.774   0.400   5.631 -0.0571 -0.2816 -0.1023
 2360SOL    HW118539   0.700   0.442   5.673  0.4003 -0.4009  0.8198
 2360SOL    HW218540   0.839   0.470   5.627 -0.0895 -0.2316  0.3293
 2361SOL     OW18541   2.610   3.341   3.763 -0.5175 -0.3865  0.4302
 2361SOL    HW118542   2.527   3.308   3.729 -0.7969  1.5661 -0.8133
 2361SOL    HW218543   2.680   3.280   3.742  0.3943  0.4931  0.8916
 2362SOL     OW18544   4.036   1.693   4.724 -0.2660  0.3425  0.3644
 2362SOL    HW118545   3.960   1.695   4.782 -1.1280 -2.1711 -0.6776
 2362SOL    HW218546   4.003   1.626   4.665  0.0813 -1.1039  1.8174
 2363SOL     OW18547   1.378   1.314   3.383 -0.0262  0.2887  0.6659
 2363SOL    HW118548   1.442   1.261   3.335 -0.1363  2.3704 -1.8213
 2363SOL    HW218549   1.425   1.397   3.383  2.6033 -1.1761 -0.0721
 2364SOL     OW18550   2.767   2.483   0.827 -0.0775 -0.0980 -0.1535
 2364SOL    HW118551   2.684   2.522   0.854 -0.3124 -1.5150  1.1582
 2364SOL    HW218552   2.778   2.407   0.884 -0.8375  0.4882  0.7862
 2365SOL     OW18553   4.295   3.545   6.326 -0.0118 -0.6545 -0.1824
 2365SOL    HW118554   4.277   3.521   6.417 -0.5996  0.4210 -0.0221
 2365SOL    HW218555   4.331   3.461   6.297  0.2880 -0.9875  1.1700
 2366SOL     OW18556   0.987   2.310   2.342 -0.0958  0.1080 -0.5733
 2366SOL    HW118557   0.900   2.348   2.350 -0.1110  0.0931 -0.6672
 2366SOL    HW218558   0.969   2.219   2.318 -2.3141 -0.3498  2.9131
 2367SOL     OW18559   0.738   1.924   3.519 -0.2431  0.4238 -0.4241
 2367SOL    HW118560   0.731   2.019   3.510  0.5899  0.6947  1.7124
 2367SOL    HW218561   0.826   1.912   3.485  0.7712  2.0628  1.6175
 2368SOL     OW18562   3.692   0.575   8.863 -0.1246  0.3525  0.0751
 2368SOL    HW118563   3.653   0.641   8.920  1.7764  0.6534  1.0337
 2368SOL    HW218564   3.783   0.577   8.893 -0.8639 -0.1259  2.3458
 2369SOL     OW18565   2.865   3.329   5.730  0.4445  0.0230 -0.0109
 2369SOL    HW118566   2.921   3.373   5.666 -1.6086  0.6131 -1.3763
 2369SOL    HW218567   2.831   3.400   5.783 -2.3681 -0.5726 -1.0174
 2370SOL     OW18568   0.228   1.326   3.158  0.3321 -0.1867  0.1431
 2370SOL    HW118569   0.216   1.380   3.236 -0.6765 -0.7635  0.3783
 2370SOL    HW218570   0.175   1.368   3.090  0.1211  1.3962  1.3024
 2371SOL     OW18571   2.175   2.936   7.967 -0.0298  0.3905 -0.4878
 2371SOL    HW118572   2.135   2.868   8.021 -1.3356  0.3244 -1.5325
 2371SOL    HW218573   2.102   2.997   7.967  1.0395  1.6703  1.4019
 2372SOL     OW18574   4.061   0.877   9.398 -0.1187 -0.1481 -0.7670
 2372SOL    HW118575   4.050   0.965   9.361 -1.0407  0.1673  0.2462
 2372SOL    HW218576   4.019   0.895   9.483  0.1587 -1.6319 -0.3225
 2373SOL     OW18577   0.592   0.516   9.111 -0.0197  0.5306 -0.0256
 2373SOL    HW118578   0.677   0.489   9.144 -0.1917  1.0652  0.8682
 2373SOL    HW218579   0.551   0.440   9.069 -1.8807  1.1650  0.6482
 2374SOL     OW18580   2.507   3.076  15.014  0.0873 -0.8150  0.0728
 2374SOL    HW118581   2.435   3.074  15.077  0.3880  1.2556  0.4741
 2374SOL    HW218582   2.585   3.044  15.059 -0.3240 -1.1464  0.5474
 2375SOL     OW18583   2.264   3.511   0.247  0.1008 -0.0399  0.3559
 2375SOL    HW118584   2.171   3.507   0.271  0.0764  1.1568  0.4312
 2375SOL    HW218585   2.274   3.417   0.230  0.0206 -0.1356  0.8262
 2376SOL     OW18586   0.331   3.037   7.666 -0.0086  0.1335 -0.3920
 2376SOL    HW118587   0.252   3.004   7.625  0.0568 -2.5610  1.7143
 2376SOL    HW218588   0.360   3.091   7.592 -0.3791  1.5204  0.4611
 2377SOL     OW18589   2.366   2.448  17.529  0.1905  0.6651  0.3559
 2377SOL    HW118590   2.393   2.374  17.475 -1.9417 -0.6794  1.1156
 2377SOL    HW218591   2.399   2.427  17.616  1.3676  1.9046  0.1941
 2378SOL     OW18592   1.462   4.314  10.729  0.3563 -0.4973  0.3384
 2378SOL    HW118593   1.470   4.333  10.636 -0.2908 -2.3510 -0.0988
 2378SOL    HW218594   1.370   4.286  10.728  0.3620 -0.5070 -0.0321
 2379SOL     OW18595   0.960   1.412   0.320 -0.0010 -0.5447  0.5625
 2379SOL    HW118596   0.918   1.444   0.399 -0.0310  0.9859 -0.0671
 2379SOL    HW218597   0.884   1.365   0.286 -0.0757  1.7086 -2.4538
 2380SOL     OW18598   3.971   4.062  12.789 -0.1758 -0.6084 -0.2091
 2380SOL    HW118599   3.896   4.113  12.758 -0.1366 -1.0077 -0.9541
 2380SOL    HW218600   4.000   4.005  12.718 -2.1091  1.4196 -2.6156
 2381SOL     OW18601   0.353   2.117   5.155 -0.0664 -0.7997 -0.3562
 2381SOL    HW118602   0.317   2.068   5.228  0.4917  3.1557  2.5621
 2381SOL    HW218603   0.311   2.202   5.167  0.7734 -0.3198 -0.7504
 2382SOL     OW18604   0.815   3.180   0.731 -0.2055 -0.3719  0.5232
 2382SOL    HW118605   0.769   3.239   0.672  2.0612 -0.0876 -0.9433
 2382SOL    HW218606   0.899   3.157   0.692 -0.9563 -2.3943  0.0955
 2383SOL     OW18607   1.532   4.446  16.769  0.1475 -0.2478 -0.3816
 2383SOL    HW118608   1.555   4.421  16.679 -1.4668 -2.7398 -0.1009
 2383SOL    HW218609   1.613   4.488  16.798 -1.0157  2.0811 -0.5059
 2384SOL     OW18610   1.630   1.389   4.414 -0.9961 -0.6342  0.2658
 2384SOL    HW118611   1.614   1.312   4.469 -0.0728 -1.6970 -0.9565
 2384SOL    HW218612   1.580   1.451   4.467 -3.3394 -1.0547 -1.4609
 2385SOL     OW18613   1.731   3.679   4.084 -0.0967  0.5513  0.8967
 2385SOL    HW118614   1.666   3.611   4.098 -0.1285  0.0968 -1.4078
 2385SOL    HW218615   1.735   3.690   3.989 -0.1159  0.1024  0.8421
 2386SOL     OW18616   2.878   1.889  13.306 -0.7400 -0.4252  0.0305
 2386SOL    HW118617   2.957   1.919  13.352 -0.5094  2.9158 -2.4993
 2386SOL    HW218618   2.879   1.801  13.342 -1.7412 -0.4090  0.0783
 2387SOL     OW18619   2.714   2.409   3.979  0.1893  0.5124  0.3026
 2387SOL    HW118620   2.760   2.454   3.907  0.1070  2.0177  1.1963
 2387SOL    HW218621   2.700   2.320   3.948  0.6158  1.1849 -1.8402
 2388SOL     OW18622   4.083   2.536  16.223  0.3161 -0.2298 -0.2991
 2388SOL    HW118623   4.049   2.530  16.134 -0.2888 -0.4519 -0.0491
 2388SOL    HW218624   4.002   2.555  16.270  0.6626 -1.0660  0.6122
 2389SOL     OW18625   1.969   4.465  16.697 -0.1888 -0.0648 -0.6145
 2389SOL    HW118626   2.005   4.404  16.633 -1.2008 -1.2083 -0.0883
 2389SOL    HW218627   2.005   4.425  16.777 -0.1457  1.2847  0.0415
 2390SOL     OW18628   1.287   0.375   7.423  0.2665 -0.0331  0.0778
 2390SOL    HW118629   1.367   0.322   7.423 -0.6142 -1.3735 -2.9797
 2390SOL    HW218630   1.280   0.408   7.512 -0.5619  0.5467 -0.2026
 2391SOL     OW18631   2.475   3.609  15.185 -0.2004 -0.6141  0.1303
 2391SOL    HW118632   2.497   3.541  15.248 -0.0486 -0.0116  0.7353
 2391SOL    HW218633   2.563   3.616  15.147  0.0327 -0.7193  0.6473
 2392SOL     OW18634   2.391   2.596  14.712  0.0623 -0.0880 -0.4645
 2392SOL    HW118635   2.401   2.651  14.634 -2.0425  0.8397 -0.0651
 2392SOL    HW218636   2.451   2.522  14.700  0.8455  0.6037 -0.8131
 2393SOL     OW18637   2.618   0.101   5.120  0.0041  0.4517  0.5928
 2393SOL    HW118638   2.683   0.088   5.050 -3.2059 -2.1198 -1.9314
 2393SOL    HW218639   2.664   0.169   5.168 -0.5102  0.7598  0.6439
 2394SOL     OW18640   2.124   0.111   7.480 -0.2990 -0.1930 -0.3437
 2394SOL    HW118641   2.106   0.048   7.550 -0.1674  2.2746  1.9324
 2394SOL    HW218642   2.124   0.190   7.534  1.8408  0.0155 -0.6400
 2395SOL     OW18643   0.133   2.748  16.045 -0.0610 -0.7329  0.0092
 2395SOL    HW118644   0.064   2.697  16.087 -0.6873 -0.0574 -0.2208
 2395SOL    HW218645   0.166   2.791  16.124 -1.6310  0.4846 -0.0157
 2396SOL     OW18646   1.236   0.111   7.173  0.0828 -0.2009  0.0118
 2396SOL    HW118647   1.155   0.132   7.127 -0.6002 -0.6679  1.0127
 2396SOL    HW218648   1.246   0.018   7.152  1.3392 -0.3138  1.0817
 2397SOL     OW18649   0.911   2.451   4.703  0.4529 -0.1497 -0.0900
 2397SOL    HW118650   0.923   2.540   4.670 -2.9706  0.1981 -0.3580
 2397SOL    HW218651   0.980   2.435   4.768 -0.0616 -2.3788 -0.0976
 2398SOL     OW18652   0.789   4.156   3.634  0.0363  0.2679  0.4563
 2398SOL    HW118653   0.714   4.154   3.575  0.6845 -1.4205 -0.3017
 2398SOL    HW218654   0.860   4.173   3.571  1.3518 -0.2293  1.7864
 2399SOL     OW18655   3.484   0.245   9.122  0.3639 -0.4925  0.4566
 2399SOL    HW118656   3.528   0.326   9.149  0.1432 -0.3107  0.2689
 2399SOL    HW218657   3.522   0.221   9.037 -1.6002  0.2654 -0.6232
 2400SOL     OW18658   0.580   1.268   4.363  0.3158 -0.3671  0.1877
 2400SOL    HW118659   0.500   1.277   4.416 -0.9509  0.2445 -1.8114
 2400SOL    HW218660   0.645   1.252   4.431 -1.9682  1.0803  2.7369
 2401SOL     OW18661   2.091   3.447   5.161  0.2274 -0.2009 -0.2254
 2401SOL    HW118662   2.116   3.472   5.073 -0.4008 -0.8904 -0.5984
 2401SOL    HW218663   2.175   3.462   5.204 -1.0337  1.9835  1.4881
 2402SOL     OW18664   2.161   4.319  10.585 -0.2802  0.5284 -0.5825
 2402SOL    HW118665   2.177   4.227  10.606  0.8870  0.9581  0.4133
 2402SOL    HW218666   2.246   4.338  10.546  0.0815  0.9517  0.4215
 2403SOL     OW18667   1.007   2.295   5.748  0.1218  0.0548 -0.3184
 2403SOL    HW118668   1.082   2.354   5.746  0.5807 -0.4772  1.5747
 2403SOL    HW218669   0.943   2.367   5.747 -1.0340 -0.9285  0.9730
 2404SOL     OW18670   3.441   1.247  16.736 -0.1033  0.2957 -0.4371
 2404SOL    HW118671   3.420   1.339  16.719 -0.1992  0.4194  0.3751
 2404SOL    HW218672   3.496   1.253  16.814  0.2095 -1.4794 -0.5165
 2405SOL     OW18673   1.300   0.246   1.502 -0.1508 -0.2070 -0.0986
 2405SOL    HW118674   1.316   0.310   1.433 -1.0533  0.2568  0.1206
 2405SOL    HW218675   1.388   0.222   1.532 -0.6944 -0.4228  1.3206
 2406SOL     OW18676   3.067   2.682   1.908 -0.2477 -0.0659 -0.5745
 2406SOL    HW118677   3.138   2.688   1.844  0.7452 -0.6658  0.4506
 2406SOL    HW218678   3.065   2.587   1.919  1.0795 -0.1015 -0.5834
 2407SOL     OW18679   1.477   4.142  17.439  0.1185 -0.1915 -0.0011
 2407SOL    HW118680   1.439   4.073  17.494  0.3678 -1.0851 -0.9414
 2407SOL    HW218681   1.501   4.088  17.363 -0.2042  0.2375 -0.4105
 2408SOL     OW18682   3.676   1.676   0.509  0.4590 -0.0783  0.6067
 2408SOL    HW118683   3.651   1.769   0.503  0.9737 -0.0121 -0.5375
 2408SOL    HW218684   3.750   1.689   0.450  0.0086  1.0880  0.2871
 2409SOL     OW18685   4.058   3.070   5.188  1.1585 -0.0390 -0.3458
 2409SOL    HW118686   4.092   3.158   5.171  0.8275 -0.1029 -1.3324
 2409SOL    HW218687   4.108   3.049   5.267  0.3356 -1.2711 -0.1469
 2410SOL     OW18688   3.518   2.558   8.290  0.3590  0.5238  0.1329
 2410SOL    HW118689   3.554   2.470   8.300  1.4914  1.0512  0.7363
 2410SOL    HW218690   3.432   2.553   8.331  0.8634 -0.2147  1.0858
 2411SOL     OW18691   2.272   0.992   2.151 -0.6842  0.5162 -0.0946
 2411SOL    HW118692   2.265   1.063   2.088  1.4542  0.0328 -0.9051
 2411SOL    HW218693   2.223   1.030   2.223  0.4459 -1.1486  1.5799
 2412SOL     OW18694   1.059   0.843  10.128 -0.0289 -0.5498  0.0389
 2412SOL    HW118695   1.043   0.879  10.041  0.2089  1.8341  0.9707
 2412SOL    HW218696   1.146   0.812  10.103  0.0751  0.4864 -0.8614
 2413SOL     OW18697   2.801   2.960   4.191 -0.4107  0.1903 -0.1734
 2413SOL    HW118698   2.877   3.015   4.211 -0.1971 -0.0022 -0.4509
 2413SOL    HW218699   2.813   2.942   4.097 -0.8576 -0.1960 -0.1516
 2414SOL     OW18700   3.171   3.451   0.746  0.2462  0.1519  0.5258
 2414SOL    HW118701   3.174   3.539   0.783  1.6491  0.9843 -1.6096
 2414SOL    HW218702   3.127   3.408   0.820 -0.5372  1.3378  0.7517
 2415SOL     OW18703   1.222   0.729   7.483 -0.3645  0.0224  0.4694
 2415SOL    HW118704   1.257   0.802   7.534  0.5423 -0.9649  1.2558
 2415SOL    HW218705   1.269   0.746   7.401 -0.4547  1.2176  0.6652
 2416SOL     OW18706   0.697   2.350   5.821 -0.1012 -0.2716  0.3892
 2416SOL    HW118707   0.738   2.363   5.906 -1.6837  0.6435  1.0233
 2416SOL    HW218708   0.679   2.440   5.792  0.4159 -0.2948 -0.0046
 2417SOL     OW18709   0.416   4.409  14.628 -0.2124  0.5499  0.9678
 2417SOL    HW118710   0.327   4.373  14.631  0.7437 -1.8999 -0.2729
 2417SOL    HW218711   0.462   4.327  14.643  0.7036  1.0690  1.0122
 2418SOL     OW18712   1.950   0.635   7.481  0.2631  0.3990  0.2395
 2418SOL    HW118713   2.018   0.671   7.538 -0.9111  0.4498  1.6185
 2418SOL    HW218714   2.006   0.576   7.429  0.1949  0.1337  0.4641
 2419SOL     OW18715   2.730   2.692  17.685  0.4750  0.4503  0.0642
 2419SOL    HW118716   2.678   2.650   0.056 -0.8737  1.2225 -0.4956
 2419SOL    HW218717   2.771   2.763   0.036 -0.6691 -0.7533  2.7736
 2420SOL     OW18718   3.849   3.927   9.484 -0.1545  0.7591  0.3623
 2420SOL    HW118719   3.822   4.013   9.451  1.1510  0.4978 -1.3877
 2420SOL    HW218720   3.931   3.915   9.437 -0.2306 -0.6111  0.5869
 2421SOL     OW18721   1.107   3.762   3.994  0.0318  0.1807  0.1562
 2421SOL    HW118722   1.175   3.737   4.057 -0.5996  1.1150  1.1962
 2421SOL    HW218723   1.065   3.836   4.037 -1.0734 -0.8076  0.7921
 2422SOL     OW18724   2.024   4.571  15.300  0.8886  0.7088 -0.1273
 2422SOL    HW118725   2.100   4.609  15.343 -0.7380  0.7518  2.7312
 2422SOL    HW218726   1.956   4.614  15.352 -0.4887 -2.4227  0.7107
 2423SOL     OW18727   2.515   2.142  15.478 -0.2040  0.2146  0.1824
 2423SOL    HW118728   2.527   2.208  15.546  0.0087  0.2347  0.1273
 2423SOL    HW218729   2.601   2.156  15.437 -1.5016  0.1082 -2.5863
 2424SOL     OW18730   2.293   2.029   7.711  0.1240  0.0339 -0.5147
 2424SOL    HW118731   2.286   2.014   7.805  0.6427 -1.3325 -0.6876
 2424SOL    HW218732   2.352   1.960   7.681  0.0717  0.7690 -2.3092
 2425SOL     OW18733   3.148   0.030   0.513 -0.2558  0.2072  0.5530
 2425SOL    HW118734   3.225   0.028   0.455 -1.1033 -0.5707 -0.5272
 2425SOL    HW218735   3.192   0.048   0.596 -0.7409  0.5750  0.7299
 2426SOL     OW18736   3.447   0.480   3.063 -0.0458 -0.1171  0.4610
 2426SOL    HW118737   3.359   0.460   3.095 -0.5680 -1.1072 -1.5454
 2426SOL    HW218738   3.507   0.444   3.128 -0.0937  1.3460  1.3218
 2427SOL     OW18739   0.382   0.001   2.667 -0.5180  0.2171 -0.3435
 2427SOL    HW118740   0.335   0.040   2.741  0.4111  0.2764  0.2084
 2427SOL    HW218741   0.398   0.077   2.612 -2.3877  0.7402 -0.1680
 2428SOL     OW18742   4.250   3.857   8.553  0.4273  0.3242  0.1577
 2428SOL    HW118743   4.246   3.763   8.533  1.7033  0.0782  1.1178
 2428SOL    HW218744   4.217   3.845   8.642 -1.4641  1.1470 -0.4253
 2429SOL     OW18745   2.197   0.509  13.367  0.1746  0.0395 -0.6092
 2429SOL    HW118746   2.156   0.590  13.398 -0.5084 -0.2377 -0.7948
 2429SOL    HW218747   2.165   0.515  13.277  0.5263 -0.0404 -0.7436
 2430SOL     OW18748   4.348   2.401   9.194 -0.0769 -0.6815 -0.1298
 2430SOL    HW118749   4.369   2.325   9.248 -0.0898  0.0543  0.9200
 2430SOL    HW218750   4.276   2.367   9.141  1.1899 -2.3559 -0.7639
 2431SOL     OW18751   4.142   4.394   6.383 -0.1248  0.0524  0.5504
 2431SOL    HW118752   4.235   4.384   6.402  0.0465 -0.5614 -0.6273
 2431SOL    HW218753   4.103   4.334   6.446 -0.3848 -1.6288 -1.1970
 2432SOL     OW18754   2.025   3.937   9.677  0.2197 -0.5981  0.0907
 2432SOL    HW118755   2.018   3.991   9.598  0.9760 -1.1340 -0.3485
 2432SOL    HW218756   1.946   3.953   9.729 -0.6098 -0.1417 -1.2983
 2433SOL     OW18757   2.091   0.823   6.125  0.1626  0.1794  0.2104
 2433SOL    HW118758   2.005   0.808   6.164  0.2685 -0.4844  0.1987
 2433SOL    HW218759   2.066   0.824   6.033 -0.6403 -2.5292  0.3956
 2434SOL     OW18760   2.915   0.944   2.451 -0.3137 -0.2827  0.0577
 2434SOL    HW118761   2.840   0.885   2.456 -3.6168  3.9604  0.5364
 2434SOL    HW218762   2.938   0.955   2.359 -0.8296 -0.7844 -0.1308
 2435SOL     OW18763   0.262   0.295   7.674 -0.4787  0.8312  0.0700
 2435SOL    HW118764   0.312   0.371   7.644 -1.9463  1.1725 -1.5510
 2435SOL    HW218765   0.179   0.306   7.627  0.8910 -1.8102 -2.9303
 2436SOL     OW18766   4.149   0.806   5.096  0.4018 -0.6051  0.4481
 2436SOL    HW118767   4.125   0.714   5.085 -0.3330 -0.2825 -0.6549
 2436SOL    HW218768   4.084   0.836   5.159 -0.3136 -2.1458  0.4466
 2437SOL     OW18769   4.721   4.530   1.904  0.8575  0.1725 -0.3529
 2437SOL    HW118770   0.051   4.580   1.965  1.1091  0.4762 -0.8256
 2437SOL    HW218771   4.709   4.592   1.831 -0.2135 -0.0690 -0.3781
 2438SOL     OW18772   3.678   2.017   7.149  0.0907 -0.4100  0.2705
 2438SOL    HW118773   3.612   2.087   7.151 -1.4565 -1.8404 -0.5604
 2438SOL    HW218774   3.752   2.045   7.203 -0.2660  0.6577  0.2213
 2439SOL     OW18775   2.982   2.203   3.937 -0.0446 -0.3107 -0.6025
 2439SOL    HW118776   3.067   2.161   3.921  0.6635  0.9966 -0.2408
 2439SOL    HW218777   2.967   2.231   3.847 -0.9559  1.3439  0.0760
 2440SOL     OW18778   3.356   1.007  14.243  0.3296 -0.7577  0.2677
 2440SOL    HW118779   3.386   0.953  14.169 -1.2053 -1.1644 -0.0592
 2440SOL    HW218780   3.426   1.010  14.308  0.7653 -1.4294 -0.1689
 2441SOL     OW18781   1.411   1.571   0.884  0.5633  0.6327 -0.4275
 2441SOL    HW118782   1.410   1.566   0.789 -1.4858 -0.2773 -0.3624
 2441SOL    HW218783   1.474   1.503   0.908  0.3122  0.2002 -0.9748
 2442SOL     OW18784   2.283   1.909   4.902 -0.6231  0.5126 -0.1243
 2442SOL    HW118785   2.280   1.862   4.985  0.6296  0.2463 -0.2275
 2442SOL    HW218786   2.284   1.832   4.845 -2.2362 -0.1235  0.7361
 2443SOL     OW18787   2.390   2.332   1.401 -0.3200  0.0339 -0.4380
 2443SOL    HW118788   2.352   2.291   1.479 -1.1710  0.8011 -0.4570
 2443SOL    HW218789   2.438   2.401   1.448 -2.5459  0.5089  1.1468
 2444SOL     OW18790   2.317   2.094   9.203  0.1143 -0.4088 -0.4532
 2444SOL    HW118791   2.379   2.156   9.241  1.0968 -1.1050 -0.8788
 2444SOL    HW218792   2.293   2.052   9.286 -2.5331  2.3059  0.1438
 2445SOL     OW18793   0.167   2.879   1.356 -0.6296  0.0446 -0.4421
 2445SOL    HW118794   0.246   2.865   1.409 -1.7993 -0.5088  1.1784
 2445SOL    HW218795   0.128   2.956   1.396  0.3913  0.6742 -0.6486
 2446SOL     OW18796   4.418   0.938  16.562 -0.2576 -0.1876  0.4645
 2446SOL    HW118797   4.358   0.933  16.487 -0.0414  0.1511  0.2687
 2446SOL    HW218798   4.454   0.850  16.569 -0.8671 -0.3395  1.5617
 2447SOL     OW18799   1.607   3.980   4.755  0.4854  0.0692  0.4087
 2447SOL    HW118800   1.677   4.044   4.757 -0.0950  0.7543 -1.3699
 2447SOL    HW218801   1.641   3.941   4.674  0.7454  1.7017 -0.2674
 2448SOL     OW18802   0.768   3.400  10.498  0.3046 -0.1334 -0.1834
 2448SOL    HW118803   0.750   3.332  10.434 -1.8553 -1.5101  1.8642
 2448SOL    HW218804   0.848   3.362  10.535  1.6130  1.5735 -1.2656
 2449SOL     OW18805   4.225   0.986   6.072  0.3904 -0.5628 -0.2839
 2449SOL    HW118806   4.274   1.041   6.132 -2.3408  1.1423  0.3873
 2449SOL    HW218807   4.257   0.899   6.096  3.0808  0.5264  0.0781
 2450SOL     OW18808   1.290   4.507  13.102 -0.0650  0.0320 -0.0270
 2450SOL    HW118809   1.233   4.537  13.032 -1.1550  0.2280  0.9578
 2450SOL    HW218810   1.254   4.562  13.172  2.1858 -0.0221  1.1816
 2451SOL     OW18811   3.956   3.176   6.110 -0.1156  0.0606 -0.2342
 2451SOL    HW118812   3.886   3.117   6.082 -0.0702  0.2558 -0.7719
 2451SOL    HW218813   3.902   3.251   6.134 -1.0322 -0.8335  0.4731
 2452SOL     OW18814   3.226   4.264   8.859 -0.3069  0.4903  0.4771
 2452SOL    HW118815   3.138   4.282   8.826 -1.3571 -1.0963  2.3951
 2452SOL    HW218816   3.206   4.197   8.924 -1.6038 -0.0290 -0.4688
 2453SOL     OW18817   0.782   1.257   4.533  0.4253  0.0937  0.3868
 2453SOL    HW118818   0.850   1.322   4.516 -1.2726  1.4295 -1.2306
 2453SOL    HW218819   0.801   1.237   4.625 -0.5505  2.3225  1.0792
 2454SOL     OW18820   3.632   4.661   0.857  0.3060  0.2736 -0.2685
 2454SOL    HW118821   3.616   4.711   0.777 -1.0288  1.2852  0.6239
 2454SOL    HW218822   3.705   4.602   0.839 -1.1351 -1.6282  0.1237
 2455SOL     OW18823   2.580   0.834  10.880 -0.0715  0.9242  0.3071
 2455SOL    HW118824   2.559   0.753  10.834  2.5600  0.7596 -0.5895
 2455SOL    HW218825   2.634   0.800  10.952  0.7138 -0.7911 -1.1229
 2456SOL     OW18826   3.093   2.605   9.495 -0.1537 -0.7546 -0.3838
 2456SOL    HW118827   3.111   2.640   9.582 -0.3902 -0.2674 -0.5290
 2456SOL    HW218828   3.164   2.648   9.446 -1.4344  2.5078  0.6031
 2457SOL     OW18829   0.355   1.883   5.937  0.1061 -0.0958  0.2536
 2457SOL    HW118830   0.445   1.852   5.921  0.0423  0.1598 -0.6026
 2457SOL    HW218831   0.304   1.802   5.930 -1.1932  0.8357 -1.0165
 2458SOL     OW18832   0.441   0.490   6.917 -0.5892  0.6455 -0.2054
 2458SOL    HW118833   0.469   0.518   6.830 -2.4521  2.8035 -0.0979
 2458SOL    HW218834   0.393   0.569   6.939  1.0384  1.6906 -0.4384
 2459SOL     OW18835   4.577   0.781   6.086  0.4737 -0.0957 -0.0327
 2459SOL    HW118836   4.656   0.752   6.041  0.5961  0.1295  0.0376
 2459SOL    HW218837   4.564   0.866   6.045  0.8249  0.6137  1.3185
 2460SOL     OW18838   2.508   2.972   1.854  0.3794  0.2262  0.8129
 2460SOL    HW118839   2.566   3.025   1.908  1.7644 -0.9312  0.4526
 2460SOL    HW218840   2.449   2.939   1.922  1.5020 -2.3426  0.5505
 2461SOL     OW18841   0.101   1.518   7.162  0.0898 -0.2292 -0.0461
 2461SOL    HW118842   0.119   1.516   7.256 -0.7082 -0.5231  0.1015
 2461SOL    HW218843   0.185   1.493   7.124  0.3347 -2.1583  1.7704
 2462SOL     OW18844   1.362   2.155   3.357  0.3342 -0.3205  0.3086
 2462SOL    HW118845   1.411   2.095   3.299  3.4713  1.3641  1.1969
 2462SOL    HW218846   1.437   2.212   3.375 -1.8479  2.8748 -0.8638
 2463SOL     OW18847   4.484   4.469   1.227 -0.5926  0.3555 -0.2760
 2463SOL    HW118848   4.414   4.509   1.279 -0.1504  1.6152 -0.6632
 2463SOL    HW218849   4.458   4.490   1.137 -0.4452 -1.6018 -0.7917
 2464SOL     OW18850   1.365   2.108   2.329 -0.5750 -0.0083 -0.2545
 2464SOL    HW118851   1.353   2.171   2.258  0.1849 -0.2567 -0.5945
 2464SOL    HW218852   1.451   2.132   2.363 -0.5349 -0.3068 -0.1423
 2465SOL     OW18853   3.101   1.703   2.560 -0.5695 -0.2925 -0.6397
 2465SOL    HW118854   3.069   1.612   2.555  0.4746 -0.6041 -1.6916
 2465SOL    HW218855   3.023   1.753   2.535 -1.9200 -3.6049 -3.1492
 2466SOL     OW18856   2.525   4.499   6.269  0.5021 -0.0349 -0.0115
 2466SOL    HW118857   2.533   4.593   6.254  4.0570 -0.2979  0.1347
 2466SOL    HW218858   2.488   4.494   6.357 -0.9750  0.9425 -0.5800
 2467SOL     OW18859   0.999   0.688   4.941 -0.1437 -0.5419 -0.2115
 2467SOL    HW118860   0.938   0.634   4.993 -0.9244 -1.3300 -1.9417
 2467SOL    HW218861   0.947   0.696   4.861 -2.4163 -2.2384  1.0746
 2468SOL     OW18862   2.812   2.736  17.427  0.0804  0.1841 -0.4619
 2468SOL    HW118863   2.767   2.716  17.509  0.7479 -0.3361 -0.2213
 2468SOL    HW218864   2.739   2.729  17.366 -0.8816 -0.1013  0.7214
 2469SOL     OW18865   2.689   0.059   8.104  0.5307  0.3096 -0.3196
 2469SOL    HW118866   2.770   0.075   8.152  0.2758  0.7629 -0.0428
 2469SOL    HW218867   2.674   0.148   8.071 -0.0870  0.6878  0.9952
 2470SOL     OW18868   4.419   3.396   2.917 -0.0380 -0.0721  0.3246
 2470SOL    HW118869   4.376   3.346   2.986  1.8656 -0.6522  1.0802
 2470SOL    HW218870   4.504   3.354   2.921  1.2003  2.3803 -0.0980
 2471SOL     OW18871   2.586   1.661   1.415 -0.4562 -0.2263  0.7749
 2471SOL    HW118872   2.499   1.685   1.447 -0.0996  1.6617  0.3508
 2471SOL    HW218873   2.630   1.721   1.476  3.3331 -1.6706 -0.5290
 2472SOL     OW18874   3.770   3.831   5.375  0.2593  0.8227 -0.0455
 2472SOL    HW118875   3.803   3.863   5.459 -0.1590 -1.0634  0.8366
 2472SOL    HW218876   3.759   3.738   5.395  0.0847  0.8503 -0.0104
 2473SOL     OW18877   2.666   1.311   4.262  0.0522 -0.2867  0.2578
 2473SOL    HW118878   2.586   1.260   4.247 -0.0090  0.2538 -1.2622
 2473SOL    HW218879   2.693   1.304   4.170 -0.1339  0.2807  0.1595
 2474SOL     OW18880   0.061   0.354   9.709 -0.4241  0.4943  0.2588
 2474SOL    HW118881   0.084   0.370   9.617  0.1756 -1.9333 -0.0077
 2474SOL    HW218882   0.096   0.433   9.751 -0.8548  1.5921 -1.4416
 2475SOL     OW18883   1.776   1.995   6.760  0.6828  0.0752  0.0161
 2475SOL    HW118884   1.716   1.941   6.811  1.2527 -0.1794  0.4038
 2475SOL    HW218885   1.812   2.048   6.831  0.8387 -2.5745  1.8792
 2476SOL     OW18886   0.459   2.668   7.478 -0.3422 -0.7318 -0.2275
 2476SOL    HW118887   0.374   2.640   7.512 -0.8033  0.8849 -0.0677
 2476SOL    HW218888   0.460   2.615   7.398 -1.6688 -1.0525 -0.0309
 2477SOL     OW18889   1.024   0.151   4.416  0.0143  0.5516  0.3641
 2477SOL    HW118890   1.031   0.060   4.444 -2.2059  0.2766 -0.0110
 2477SOL    HW218891   1.075   0.191   4.485  2.6115 -0.0869 -1.1775
 2478SOL     OW18892   2.482   1.372  10.713 -0.6852 -0.0484  0.2461
 2478SOL    HW118893   2.447   1.393  10.800 -0.0381 -0.7786  0.6804
 2478SOL    HW218894   2.547   1.306  10.739 -1.6841 -0.2365  2.3117
 2479SOL     OW18895   3.037   1.685  15.654 -0.2007 -0.2699  0.3805
 2479SOL    HW118896   3.090   1.765  15.661 -0.4355 -0.1567  0.8952
 2479SOL    HW218897   3.026   1.691  15.559  1.1426  0.0809  0.2512
 2480SOL     OW18898   3.054   4.705   3.865  0.2683  0.1081 -0.1267
 2480SOL    HW118899   2.961   0.004   3.866  0.1622 -0.3235 -0.3356
 2480SOL    HW218900   3.051   4.615   3.896 -0.2324  0.0251 -0.4184
 2481SOL     OW18901   1.088   2.747   6.480  0.3708  0.1853  0.1000
 2481SOL    HW118902   1.003   2.789   6.471 -0.9683 -2.0868  2.0365
 2481SOL    HW218903   1.066   2.654   6.476 -0.1707  0.3833 -1.4601
 2482SOL     OW18904   1.479   4.308   1.636  0.2203  0.0973 -0.2583
 2482SOL    HW118905   1.541   4.352   1.579  0.2656  1.8125  1.1388
 2482SOL    HW218906   1.533   4.296   1.714  0.2672  2.8178  0.1218
 2483SOL     OW18907   0.393   0.781   7.885  0.4240 -0.6528 -0.2512
 2483SOL    HW118908   0.398   0.838   7.962  1.4366  2.1514 -2.4094
 2483SOL    HW218909   0.472   0.732   7.907  0.4719  0.2498  1.6479
 2484SOL     OW18910   1.726   4.058   3.480  0.0107  0.0749 -0.1919
 2484SOL    HW118911   1.766   3.972   3.498 -2.7205 -1.2478 -0.5685
 2484SOL    HW218912   1.633   4.044   3.465 -0.4016  2.4441  0.1315
 2485SOL     OW18913   1.511   0.693  10.462 -0.3390  0.2676 -0.4019
 2485SOL    HW118914   1.583   0.741  10.422  0.5074  0.1162  0.9544
 2485SOL    HW218915   1.568   0.622  10.491  0.0622  0.7873  0.0709
 2486SOL     OW18916   4.059   3.728   6.461 -0.0414 -0.4874 -0.1858
 2486SOL    HW118917   4.040   3.641   6.495 -2.8235  0.4462  0.6383
 2486SOL    HW218918   4.004   3.788   6.511  2.3375  1.3757  0.2437
 2487SOL     OW18919   3.489   1.341   9.485 -0.8638 -0.2358  0.1150
 2487SOL    HW118920   3.551   1.319   9.415 -0.6809  1.4191 -0.2401
 2487SOL    HW218921   3.544   1.354   9.562  0.5815 -1.1605 -0.7557
 2488SOL     OW18922   1.804   4.079   1.416 -0.3759 -0.2641  0.0289
 2488SOL    HW118923   1.720   4.076   1.371 -0.3419  0.0831 -0.0644
 2488SOL    HW218924   1.801   4.164   1.461  0.4750 -1.3191  2.0799
 2489SOL     OW18925   0.854   2.633  14.763 -0.5281 -0.4495 -0.1875
 2489SOL    HW118926   0.829   2.695  14.693  0.6436 -0.6752 -0.8077
 2489SOL    HW218927   0.949   2.646  14.757 -0.6916  1.1034  0.4698
 2490SOL     OW18928   2.156   3.783   6.219 -0.5387  0.3275 -0.1977
 2490SOL    HW118929   2.064   3.782   6.193 -0.6727 -0.3872  0.3143
 2490SOL    HW218930   2.204   3.784   6.135 -0.0258  0.8347  0.1022
 2491SOL     OW18931   3.777   3.759   2.206 -0.2314 -0.1577 -0.2237
 2491SOL    HW118932   3.840   3.740   2.275 -0.9132 -1.3134  0.0781
 2491SOL    HW218933   3.787   3.854   2.208 -1.2158 -0.1026  1.8634
 2492SOL     OW18934   0.334   2.210  10.604 -0.4234 -0.8214  0.3045
 2492SOL    HW118935   0.241   2.202  10.622 -0.9132 -0.6829 -2.1709
 2492SOL    HW218936   0.366   2.273  10.669 -0.4349 -0.9616  0.4450
 2493SOL     OW18937   0.088   1.686  15.041  0.3773 -0.1400  0.1892
 2493SOL    HW118938   0.122   1.606  15.080  0.9700  0.5581  1.0768
 2493SOL    HW218939   0.072   1.659  14.950 -1.1585 -0.4922  0.5572
 2494SOL     OW18940   2.205   3.300   1.589  0.1890 -0.7681  0.5339
 2494SOL    HW118941   2.277   3.314   1.528 -1.1291  3.4622 -0.0690
 2494SOL    HW218942   2.130   3.314   1.531  1.9103  1.1866 -1.2274
 2495SOL     OW18943   4.442   2.815   4.503  0.1181 -0.3982 -0.0349
 2495SOL    HW118944   4.435   2.812   4.408 -0.4574  1.0923 -0.0508
 2495SOL    HW218945   4.415   2.906   4.517 -0.7412 -0.4399 -1.3853
 2496SOL     OW18946   2.243   1.383   4.481  0.4241 -0.1458 -0.3252
 2496SOL    HW118947   2.278   1.470   4.465 -0.0084 -0.4549 -3.0157
 2496SOL    HW218948   2.174   1.402   4.544  1.2433 -1.1971  0.8954
 2497SOL     OW18949   2.408   1.161   0.037 -0.3584 -0.3157 -0.2904
 2497SOL    HW118950   2.485   1.135   0.086 -0.9309  1.6330  1.6518
 2497SOL    HW218951   2.414   1.256   0.052  0.4243 -0.4882  0.4268
 2498SOL     OW18952   1.409   4.267  16.933  0.1131 -0.0752 -0.1999
 2498SOL    HW118953   1.417   4.189  16.878  2.6866  1.0520 -1.4549
 2498SOL    HW218954   1.444   4.324  16.865 -2.9620 -1.4368 -2.8963
 2499SOL     OW18955   2.729   2.758   4.637 -0.0907 -0.0257  0.0851
 2499SOL    HW118956   2.714   2.681   4.692  1.5432  0.0523  0.6138
 2499SOL    HW218957   2.669   2.730   4.567 -1.5011 -0.1130  1.3138
 2500SOL     OW18958   1.351   1.087   8.028 -0.1630  0.3247 -0.3835
 2500SOL    HW118959   1.341   1.166   7.974 -1.5047 -0.5161 -1.3575
 2500SOL    HW218960   1.440   1.081   8.063 -0.2564 -4.4213 -0.9348
 2501SOL     OW18961   1.744   2.769   2.231 -0.0097 -0.3064  0.5207
 2501SOL    HW118962   1.836   2.771   2.203 -0.1369 -1.4140 -0.0093
 2501SOL    HW218963   1.727   2.675   2.229 -1.0342 -0.0452 -2.7675
 2502SOL     OW18964   4.652   3.364   5.638 -0.1989  0.1343 -0.1553
 2502SOL    HW118965   4.568   3.364   5.592  0.3673 -1.4748 -1.1883
 2502SOL    HW218966   4.689   3.449   5.614  1.3165 -0.7373 -0.8696
 2503SOL     OW18967   2.295   1.541   5.416  0.2848  0.2551 -0.3551
 2503SOL    HW118968   2.311   1.537   5.511 -0.8152 -3.1170 -0.3050
 2503SOL    HW218969   2.201   1.556   5.408  0.4315  1.9748  1.1020
 2504SOL     OW18970   3.102   0.646   0.869 -0.0099  0.6514  0.2159
 2504SOL    HW118971   3.170   0.611   0.926 -1.5234 -1.4992  0.6757
 2504SOL    HW218972   3.046   0.681   0.938  1.2396 -2.7270  2.9298
 2505SOL     OW18973   1.034   0.932   4.720  0.0182 -0.3838  0.2900
 2505SOL    HW118974   1.062   0.957   4.632  0.6192 -1.1137  0.2724
 2505SOL    HW218975   0.977   0.859   4.696 -0.7059  0.8549 -1.7660
 2506SOL     OW18976   2.615   0.056  17.134  0.5397 -0.1145 -0.5335
 2506SOL    HW118977   2.582   4.721  17.201 -3.0052  1.0832 -1.2481
 2506SOL    HW218978   2.659   4.706  17.092 -2.0914 -1.3880 -0.9981
 2507SOL     OW18979   1.116   0.748   6.526  0.0601  0.3881 -0.1640
 2507SOL    HW118980   1.116   0.762   6.621  2.5958  2.2902 -0.4585
 2507SOL    HW218981   1.204   0.714   6.510 -0.3370  0.2111 -1.9675
 2508SOL     OW18982   4.145   1.207   4.272  0.0380 -0.1340  0.4085
 2508SOL    HW118983   4.090   1.277   4.235  0.5661  0.3133  0.4665
 2508SOL    HW218984   4.127   1.228   4.364 -0.1163  0.8571  0.1493
 2509SOL     OW18985   1.968   1.543   6.129  0.0010  0.0496 -1.3020
 2509SOL    HW118986   1.988   1.450   6.121 -0.0167 -0.1381  0.6512
 2509SOL    HW218987   2.037   1.564   6.193  1.3083  0.5065 -2.8806
 2510SOL     OW18988   3.247   4.539   6.600  0.0520  0.1239 -0.4546
 2510SOL    HW118989   3.299   4.618   6.608 -1.1212  0.7356  1.1938
 2510SOL    HW218990   3.307   4.466   6.612  1.1619  1.2868  0.9334
 2511SOL     OW18991   2.259   0.112  17.156  0.4332  0.3500  0.4466
 2511SOL    HW118992   2.178   0.066  17.179  1.2182 -1.4415 -0.3841
 2511SOL    HW218993   2.308   0.077  17.230 -3.0552 -3.1064  1.1281
 2512SOL     OW18994   0.299   4.588   6.814 -0.1368 -0.1644  0.2739
 2512SOL    HW118995   0.222   4.627   6.854  1.1573  2.0618  0.5787
 2512SOL    HW218996   0.353   4.571   6.892  0.9065 -0.8797 -0.6172
 2513SOL     OW18997   1.603   3.196  17.305  0.0415  0.2376  0.1871
 2513SOL    HW118998   1.595   3.200  17.209 -1.5240  2.5216  0.4067
 2513SOL    HW218999   1.693   3.167  17.317  0.3798  0.3793 -1.9338
 2514SOL     OW19000   1.883   0.380  12.877  0.6393  0.0182 -0.0504
 2514SOL    HW119001   1.809   0.407  12.823  0.0418  1.4791  1.5025
 2514SOL    HW219002   1.917   0.466  12.903  0.7184  0.2544 -0.9249
 2515SOL     OW19003   0.621   2.420   1.166 -0.4534 -0.1497 -0.1431
 2515SOL    HW119004   0.702   2.374   1.190  0.0733 -0.3946 -2.4638
 2515SOL    HW219005   0.587   2.370   1.092  0.5791 -3.4181  1.5664
 2516SOL     OW19006   4.172   3.508   3.211  0.1536  0.0339  0.7820
 2516SOL    HW119007   4.125   3.521   3.293  0.2712  1.2180  0.6685
 2516SOL    HW219008   4.105   3.489   3.146  1.2953  0.8788 -0.6560
 2517SOL     OW19009   3.425   0.257  10.521 -0.6314  0.8201 -0.5531
 2517SOL    HW119010   3.380   0.268  10.604  2.5664 -0.4553  1.3292
 2517SOL    HW219011   3.395   0.180  10.473  1.0069  0.6460 -1.2853
 2518SOL     OW19012   2.130   3.670  15.988  0.2446 -0.0397 -0.1540
 2518SOL    HW119013   2.105   3.604  16.053  2.9918  0.8640  1.8213
 2518SOL    HW219014   2.049   3.722  15.993 -1.7533 -2.9902 -1.5330
 2519SOL     OW19015   1.650   4.677   5.303  0.2810 -0.5899 -0.2977
 2519SOL    HW119016   1.720   4.702   5.363  0.3971 -1.3489 -0.1106
 2519SOL    HW219017   1.609   4.600   5.344  0.2641 -0.5124 -0.1716
 2520SOL     OW19018   3.071   1.466   5.040  0.0034  0.6069  0.8392
 2520SOL    HW119019   2.991   1.488   4.992 -1.1739 -1.7785  1.6963
 2520SOL    HW219020   3.127   1.422   4.976  0.6622  0.5153  1.4857
 2521SOL     OW19021   0.827   1.748   3.179 -0.2417  0.3660  0.2122
 2521SOL    HW119022   0.865   1.756   3.266 -3.7043  0.4481  1.7017
 2521SOL    HW219023   0.853   1.831   3.137  2.4427  0.1329  1.3891
 2522SOL     OW19024   0.343   4.697   1.668  0.1470  0.4094  0.1843
 2522SOL    HW119025   0.273   4.689   1.603  0.2717  1.4421 -0.0809
 2522SOL    HW219026   0.416   4.654   1.623  1.0713  2.6197 -0.4833
 2523SOL     OW19027   2.395   1.462   9.228  0.3940  0.3288  0.3075
 2523SOL    HW119028   2.299   1.466   9.233  0.2877 -1.7576  0.3103
 2523SOL    HW219029   2.412   1.540   9.280 -2.0236  1.7937 -1.1284
 2524SOL     OW19030   4.158   0.080   2.980  0.2084 -0.5164  0.1593
 2524SOL    HW119031   4.172   0.076   2.885 -0.0900  1.0852  0.0578
 2524SOL    HW219032   4.172   0.174   2.991 -0.6870 -0.2618 -0.8887
 2525SOL     OW19033   1.625   4.571   7.941 -0.3347 -0.6289 -0.3732
 2525SOL    HW119034   1.701   4.513   7.934 -0.3385 -0.5437 -1.0524
 2525SOL    HW219035   1.654   4.612   8.023  3.7402  0.9570 -2.5842
 2526SOL     OW19036   4.612   4.477   6.572 -0.0693  0.3019  0.1921
 2526SOL    HW119037   4.682   4.526   6.528 -1.2350 -0.4272 -2.4380
 2526SOL    HW219038   4.542   4.542   6.571 -0.3190 -0.0010 -1.1647
 2527SOL     OW19039   3.809   1.261  16.125 -0.1530 -0.4253 -0.6265
 2527SOL    HW119040   3.800   1.227  16.214  0.9636  0.6196 -0.1236
 2527SOL    HW219041   3.893   1.306  16.129 -0.9934  0.8509  2.6476
 2528SOL     OW19042   0.588   1.313   1.807 -0.0005  0.0783 -1.0295
 2528SOL    HW119043   0.579   1.401   1.770 -0.8255  0.4333  0.0113
 2528SOL    HW219044   0.508   1.268   1.778  0.6242 -2.5624  1.3364
 2529SOL     OW19045   0.221   4.081   9.234 -0.1736  0.2441 -0.3955
 2529SOL    HW119046   0.214   4.158   9.178  1.7771  1.7794  1.4150
 2529SOL    HW219047   0.155   4.103   9.300 -0.1438 -0.9768  0.0461
 2530SOL     OW19048   4.063   0.567   5.092 -0.1080  0.0170 -0.3253
 2530SOL    HW119049   4.111   0.485   5.083 -1.8750 -0.9529 -1.0638
 2530SOL    HW219050   3.980   0.537   5.053  0.3804  0.0008 -1.3438
 2531SOL     OW19051   2.458   4.396   0.830  0.2432  0.2017  0.0579
 2531SOL    HW119052   2.521   4.463   0.856  1.3657 -0.5469 -0.7100
 2531SOL    HW219053   2.484   4.374   0.741 -1.2138  1.0309 -0.5674
 2532SOL     OW19054   4.425   0.186   8.571  0.2881 -0.6143 -0.0696
 2532SOL    HW119055   4.481   0.235   8.510 -0.6014  0.2367 -0.2034
 2532SOL    HW219056   4.431   0.248   8.644 -0.4495 -1.0537  0.3712
 2533SOL     OW19057   3.138   3.483   2.650  0.1721 -0.2106  0.6336
 2533SOL    HW119058   3.180   3.566   2.629  0.0751 -0.5004 -0.7179
 2533SOL    HW219059   3.106   3.490   2.740 -0.9298 -2.0426  0.3889
 2534SOL     OW19060   3.001   0.103   6.830 -0.1653 -0.0075  0.7642
 2534SOL    HW119061   3.001   0.028   6.890  1.8769 -0.4065  0.2639
 2534SOL    HW219062   3.010   0.067   6.741  0.6595 -0.6469  1.1041
 2535SOL     OW19063   1.309   3.051  10.501  0.1191  0.4532 -0.1701
 2535SOL    HW119064   1.262   3.035  10.583  1.9993 -0.7454  0.7011
 2535SOL    HW219065   1.336   3.141  10.517  2.1818 -0.0866 -0.6085
 2536SOL     OW19066   3.280   3.120   4.245 -0.8017 -0.0532  0.0307
 2536SOL    HW119067   3.215   3.118   4.175  0.5271 -0.2620 -1.1922
 2536SOL    HW219068   3.353   3.140   4.186 -2.0872  2.2109 -0.7917
 2537SOL     OW19069   1.465   3.108   2.658 -0.1020 -0.2731  0.2370
 2537SOL    HW119070   1.511   3.039   2.705 -0.5014 -0.6078  0.1348
 2537SOL    HW219071   1.492   3.193   2.694 -0.4335 -0.0781  0.0325
 2538SOL     OW19072   1.281   4.665   6.097 -0.2696  0.0388  0.2934
 2538SOL    HW119073   1.368   4.697   6.123 -0.3870  0.0245  0.7125
 2538SOL    HW219074   1.291   4.659   6.002 -2.1702 -1.1114  0.1772
 2539SOL     OW19075   0.472   0.600  10.648 -0.0141 -0.0393 -0.2218
 2539SOL    HW119076   0.544   0.614  10.710 -0.3115  1.9551 -0.3066
 2539SOL    HW219077   0.396   0.638  10.691  0.3453 -0.0485  0.4201
 2540SOL     OW19078   4.186   3.073   9.634 -0.8231  0.5648  0.5409
 2540SOL    HW119079   4.197   2.988   9.677  0.5139  0.9866  1.0378
 2540SOL    HW219080   4.127   3.050   9.563  2.3648  1.7168 -2.4636
 2541SOL     OW19081   1.112   0.855   8.887 -0.8489 -0.2827 -0.3675
 2541SOL    HW119082   1.192   0.821   8.928 -0.8743  0.4681  0.2924
 2541SOL    HW219083   1.075   0.771   8.856 -1.6974 -0.5577  1.3907
 2542SOL     OW19084   0.558   3.260   9.376  0.2183 -0.4804 -0.3268
 2542SOL    HW119085   0.522   3.171   9.377 -0.5870 -0.1599 -1.3969
 2542SOL    HW219086   0.623   3.258   9.447  2.1890 -0.0521 -2.1266
 2543SOL     OW19087   3.003   0.712   9.818  0.1375 -0.0935  0.3184
 2543SOL    HW119088   3.005   0.635   9.762 -0.1244 -1.2262  1.8743
 2543SOL    HW219089   2.911   0.738   9.817  0.6741  1.7799 -1.4721
 2544SOL     OW19090   0.098   2.418   7.049 -0.1624 -0.0016  0.2103
 2544SOL    HW119091   0.056   2.426   6.963  0.3581  1.2995  0.0806
 2544SOL    HW219092   0.139   2.504   7.047 -0.4204  0.0833 -1.3145
 2545SOL     OW19093   4.354   3.016  13.989 -0.4526  0.0140  0.0551
 2545SOL    HW119094   4.307   3.080  13.935  0.6629  0.3566 -0.5204
 2545SOL    HW219095   4.309   3.027  14.073 -0.2410  1.4295 -0.0106
 2546SOL     OW19096   1.851   2.965   3.210  0.4942  0.2403  0.1069
 2546SOL    HW119097   1.812   3.019   3.279 -1.5697 -1.9673  0.6760
 2546SOL    HW219098   1.942   2.976   3.236  0.6486 -0.2515 -0.2250
 2547SOL     OW19099   4.416   0.363   6.089  0.1845  0.1862 -0.1433
 2547SOL    HW119100   4.332   0.407   6.098 -0.1283 -0.4498  0.0562
 2547SOL    HW219101   4.477   0.437   6.087  1.5079 -0.7805  3.2390
 2548SOL     OW19102   3.554   2.077   2.144 -0.7528 -0.4730 -0.5395
 2548SOL    HW119103   3.645   2.070   2.115  0.1850  0.2983  2.2423
 2548SOL    HW219104   3.509   2.111   2.066  1.4315  2.1064 -0.6807
 2549SOL     OW19105   1.027   1.483  14.064  0.0181 -0.5574 -0.0052
 2549SOL    HW119106   1.039   1.558  14.005 -0.4611 -0.4300  0.0583
 2549SOL    HW219107   0.935   1.464  14.046  0.4098 -4.0171  1.5991
 2550SOL     OW19108   3.313   1.576   2.689  0.0481  0.1811  0.8838
 2550SOL    HW119109   3.248   1.643   2.667  0.6058  0.1094 -0.9884
 2550SOL    HW219110   3.368   1.577   2.611 -4.4137 -1.2923 -2.3215
 2551SOL     OW19111   2.677   2.370   8.137 -0.1329 -0.6867  0.3274
 2551SOL    HW119112   2.750   2.431   8.146 -2.4061  2.0966 -0.0413
 2551SOL    HW219113   2.605   2.428   8.164 -0.3689  0.0569 -1.8994
 2552SOL     OW19114   4.180   1.433  13.323  0.0044 -0.0538  0.2871
 2552SOL    HW119115   4.164   1.384  13.243  1.7031  2.3603 -1.5524
 2552SOL    HW219116   4.089   1.459  13.339  0.2653  0.8509  0.3150
 2553SOL     OW19117   1.613   1.511   7.468 -0.2433 -0.2042 -0.3132
 2553SOL    HW119118   1.524   1.545   7.476 -0.6237 -1.5308  0.8782
 2553SOL    HW219119   1.668   1.572   7.517 -0.8025  1.0537 -1.2340
 2554SOL     OW19120   2.257   3.202   3.297  0.7807  0.1358  0.2772
 2554SOL    HW119121   2.199   3.256   3.243 -1.9741 -0.3171  2.7587
 2554SOL    HW219122   2.344   3.206   3.256 -0.0557  1.8194 -1.3260
 2555SOL     OW19123   2.367   2.829   1.215 -0.1724  0.6430 -0.6837
 2555SOL    HW119124   2.292   2.784   1.175  0.2443 -1.4377  0.8364
 2555SOL    HW219125   2.427   2.807   1.144  0.5649 -0.1583  0.1841
 2556SOL     OW19126   2.540   2.267   5.515 -0.0449 -0.7222  0.2133
 2556SOL    HW119127   2.585   2.252   5.598 -1.7572 -1.2472  1.0576
 2556SOL    HW219128   2.562   2.360   5.512  1.4436 -1.0507  1.0279
 2557SOL     OW19129   1.254   4.602   7.067  0.5579  0.0991 -0.1199
 2557SOL    HW119130   1.272   4.508   7.068 -0.1549 -0.0635 -1.7729
 2557SOL    HW219131   1.187   4.609   6.999 -0.1336 -3.0383  0.2398
 2558SOL     OW19132   4.432   4.169  12.263 -0.0666  0.1604  0.4136
 2558SOL    HW119133   4.405   4.212  12.182  2.1403  0.8943  0.0641
 2558SOL    HW219134   4.466   4.085  12.234  0.7543  0.9460 -0.8972
 2559SOL     OW19135   2.410   4.490   4.184  0.3237  0.2271  0.3920
 2559SOL    HW119136   2.395   4.409   4.135  2.4476  0.2129 -0.2286
 2559SOL    HW219137   2.439   4.464   4.271 -0.9384  0.6014  0.9325
 2560SOL     OW19138   2.896   1.783  11.372 -0.3532  0.4402 -0.2689
 2560SOL    HW119139   2.976   1.815  11.414 -0.6367  0.5939  0.1563
 2560SOL    HW219140   2.874   1.710  11.430  1.2600  0.7118  0.6754
 2561SOL     OW19141   4.486   3.475   6.913  0.0531 -0.2331 -0.4819
 2561SOL    HW119142   4.514   3.543   6.852 -2.0487 -1.4751 -2.8310
 2561SOL    HW219143   4.526   3.518   6.989  1.9687 -0.7930 -1.1672
 2562SOL     OW19144   1.411   4.305   6.032 -0.7504  0.9481 -0.2075
 2562SOL    HW119145   1.446   4.267   5.951  0.0666  2.1503 -0.4199
 2562SOL    HW219146   1.319   4.321   6.011 -1.1601 -1.2913 -0.1527
 2563SOL     OW19147   0.878   1.144  10.461  0.4890 -0.4361 -0.3463
 2563SOL    HW119148   0.927   1.157  10.542 -2.4758  0.9537  1.2339
 2563SOL    HW219149   0.787   1.131  10.490  0.2077  0.3089 -0.9023
 2564SOL     OW19150   0.297   3.692  12.383  0.6854 -0.1952  0.5050
 2564SOL    HW119151   0.380   3.694  12.431  0.3560 -2.0754  1.1593
 2564SOL    HW219152   0.308   3.766  12.323  1.0245 -0.5751  0.0971
 2565SOL     OW19153   4.400   3.263   7.661  0.4408  0.0791 -0.7662
 2565SOL    HW119154   4.403   3.233   7.570  1.4931  1.5869 -1.2427
 2565SOL    HW219155   4.416   3.183   7.711  0.3912  0.0397 -0.8133
 2566SOL     OW19156   1.970   4.128  17.152  0.1103 -0.3864 -0.1692
 2566SOL    HW119157   2.030   4.198  17.178 -1.0955  0.5683 -0.0036
 2566SOL    HW219158   2.035   4.072  17.108  1.5717  2.3498 -1.4702
 2567SOL     OW19159   1.520   0.398   8.333 -0.2773 -0.2060  0.0690
 2567SOL    HW119160   1.498   0.374   8.423  1.9733  1.1051  0.9940
 2567SOL    HW219161   1.503   0.492   8.342  0.7017 -0.1939  2.0043
 2568SOL     OW19162   0.740   1.537   2.558 -0.3751 -0.6019 -0.0254
 2568SOL    HW119163   0.827   1.546   2.521  0.0430 -0.2530  1.0334
 2568SOL    HW219164   0.708   1.616   2.515  2.0539  1.8359  2.6407
 2569SOL     OW19165   3.567   3.640   3.835  0.5642 -0.6999  0.4134
 2569SOL    HW119166   3.563   3.684   3.919 -0.1698 -0.1397  0.0840
 2569SOL    HW219167   3.526   3.556   3.854  0.3337 -0.7649 -0.3408
 2570SOL     OW19168   0.270   4.394   5.110  0.1268 -0.1818 -0.3216
 2570SOL    HW119169   0.361   4.392   5.141  0.3260 -1.7764 -1.0284
 2570SOL    HW219170   0.284   4.447   5.031  3.1086 -1.3752 -0.6021
 2571SOL     OW19171   2.503   1.436   7.933  0.1204  0.0122 -0.0479
 2571SOL    HW119172   2.493   1.343   7.956  1.4168 -0.3148 -0.8251
 2571SOL    HW219173   2.460   1.449   7.849  0.2471  3.5758  0.4526
 2572SOL     OW19174   1.378   0.827   4.035  0.1081  0.1411  0.2455
 2572SOL    HW119175   1.414   0.894   3.977  0.3118 -0.2917 -0.1356
 2572SOL    HW219176   1.464   0.803   4.071  0.4029 -1.4065 -1.4574
 2573SOL     OW19177   2.090   4.172   8.468 -0.7815  0.2949  0.1553
 2573SOL    HW119178   2.033   4.230   8.519 -2.2742 -0.9948 -0.0565
 2573SOL    HW219179   2.042   4.178   8.386  1.5616  1.7654 -1.1015
 2574SOL     OW19180   2.608   1.760  15.627 -0.2110 -0.2277  0.7735
 2574SOL    HW119181   2.616   1.666  15.614  1.1180  0.1455 -1.0859
 2574SOL    HW219182   2.595   1.797  15.539  3.4940  0.0383  0.3568
 2575SOL     OW19183   4.473   2.533   7.472  0.0453  0.3260  0.1862
 2575SOL    HW119184   4.429   2.534   7.556 -0.7623 -2.4066 -0.2151
 2575SOL    HW219185   4.417   2.575   7.406 -1.0839 -2.2728 -0.4800
 2576SOL     OW19186   0.953   2.239   6.132 -0.2696  0.3252 -0.9638
 2576SOL    HW119187   0.862   2.252   6.106 -0.6663 -1.0977 -0.2843
 2576SOL    HW219188   0.952   2.269   6.223  2.8630  1.4353 -1.2692
 2577SOL     OW19189   3.229   1.306   3.067 -0.7706  0.0445  0.2672
 2577SOL    HW119190   3.146   1.285   3.025 -0.9351  0.4388  0.4019
 2577SOL    HW219191   3.278   1.317   2.985  0.8845  3.9016  1.7403
 2578SOL     OW19192   3.312   0.939   8.798  0.1944  0.5102 -0.4458
 2578SOL    HW119193   3.307   0.878   8.724 -3.4806 -0.1947  0.3833
 2578SOL    HW219194   3.397   0.979   8.779  0.1951 -1.0300 -3.6199
 2579SOL     OW19195   2.467   1.973  16.046 -0.0444 -0.5952 -0.5175
 2579SOL    HW119196   2.481   1.981  15.951 -0.5783 -1.2868 -0.6539
 2579SOL    HW219197   2.554   1.948  16.078 -0.0991 -1.5676 -1.1395
 2580SOL     OW19198   0.250   4.554   4.888 -0.2759  0.3398 -0.1481
 2580SOL    HW119199   0.317   4.591   4.831  1.0968 -0.4928  0.9241
 2580SOL    HW219200   0.174   4.557   4.830  0.4323 -0.2384 -1.1068
 2581SOL     OW19201   3.807   0.227   8.376 -0.2456 -0.7221  0.1217
 2581SOL    HW119202   3.755   0.305   8.394 -0.5743 -0.8349 -0.3343
 2581SOL    HW219203   3.893   0.264   8.356 -0.1517 -0.3042  1.3123
 2582SOL     OW19204   3.434   4.202   7.051  0.2126 -0.6342  0.3903
 2582SOL    HW119205   3.528   4.187   7.049  0.1863 -0.8110  0.5131
 2582SOL    HW219206   3.421   4.278   6.994 -0.0172  0.5750  2.0424
 2583SOL     OW19207   0.161   3.711   7.907  0.1189 -0.1513  0.5134
 2583SOL    HW119208   0.086   3.662   7.873 -1.1468  0.7535  2.0286
 2583SOL    HW219209   0.228   3.643   7.907 -0.4950 -0.7497 -1.0193
 2584SOL     OW19210   1.000   2.063   4.041 -0.3443  0.6042 -0.1344
 2584SOL    HW119211   1.070   2.126   4.056 -0.4751  0.1127  2.4905
 2584SOL    HW219212   0.925   2.108   4.080 -0.8087 -0.3166  0.0477
 2585SOL     OW19213   1.586   2.874   7.392 -0.3923  0.0831  0.2737
 2585SOL    HW119214   1.557   2.882   7.301  1.7970  0.4255 -0.3853
 2585SOL    HW219215   1.669   2.922   7.392 -0.7146  0.6167  4.0350
 2586SOL     OW19216   1.514   0.431   7.841  0.2733  0.3114 -0.0900
 2586SOL    HW119217   1.549   0.452   7.754 -1.8364  1.1488 -0.7354
 2586SOL    HW219218   1.588   0.378   7.871  1.2811  2.3512  1.0039
 2587SOL     OW19219   2.381   0.078   3.383  0.7351 -0.0790  0.7166
 2587SOL    HW119220   2.346   4.713   3.379 -1.4032  0.7644  1.0455
 2587SOL    HW219221   2.408   0.090   3.291 -0.9096  0.9760  0.3710
 2588SOL     OW19222   3.661   1.698   9.408  0.5668 -0.2072  0.3747
 2588SOL    HW119223   3.670   1.686   9.503 -2.4063 -0.7659  0.5956
 2588SOL    HW219224   3.739   1.647   9.386  1.5075  0.8013  1.3610
 2589SOL     OW19225   1.519   1.320   7.300 -0.7221 -0.1841 -0.4455
 2589SOL    HW119226   1.543   1.395   7.355  1.5450 -1.1081 -0.1908
 2589SOL    HW219227   1.424   1.312   7.311 -0.6739  0.5820  0.5901
 2590SOL     OW19228   3.639   2.814   8.427  0.0714  0.0421 -0.2276
 2590SOL    HW119229   3.553   2.771   8.433  0.0343  0.4225  1.9682
 2590SOL    HW219230   3.676   2.791   8.342 -0.5900 -0.7998 -0.2925
 2591SOL     OW19231   3.353   3.568   5.521 -0.2631  0.1281 -0.3202
 2591SOL    HW119232   3.417   3.536   5.457 -0.1555 -1.4879  0.6037
 2591SOL    HW219233   3.364   3.663   5.521 -0.5694  0.1635 -0.3494
 2592SOL     OW19234   0.797   0.258  10.526  0.1966 -0.0690 -0.2580
 2592SOL    HW119235   0.840   0.261  10.612 -1.2697 -1.3536  0.5281
 2592SOL    HW219236   0.708   0.272  10.557  0.3703 -0.5387  0.4665
 2593SOL     OW19237   2.214   0.709   2.660 -0.1852 -0.8768 -0.1956
 2593SOL    HW119238   2.136   0.660   2.634 -0.0557 -1.3967  0.3900
 2593SOL    HW219239   2.251   0.647   2.723 -1.2124 -0.7087  0.5967
 2594SOL     OW19240   4.636   1.311   4.041 -0.0471 -0.0570 -0.5521
 2594SOL    HW119241   4.691   1.233   4.032 -1.6940 -1.3029  0.2596
 2594SOL    HW219242   4.569   1.272   4.097 -0.7923 -0.0152 -1.4296
 2595SOL     OW19243   1.406   1.410   2.210  0.9021  0.4853 -0.1270
 2595SOL    HW119244   1.377   1.414   2.301 -0.3680  1.3143 -0.5800
 2595SOL    HW219245   1.321   1.392   2.171  0.8672  1.2386 -0.4055
 2596SOL     OW19246   0.969   2.274   0.648  0.4205 -0.1687 -0.3146
 2596SOL    HW119247   1.042   2.213   0.656  0.9514  0.3777 -0.9150
 2596SOL    HW219248   0.938   2.281   0.738 -0.6935  1.6920 -0.8469
 2597SOL     OW19249   1.259   3.043   0.425  0.6897  0.2568  0.2374
 2597SOL    HW119250   1.316   3.120   0.424 -2.4199  2.5489  0.2989
 2597SOL    HW219251   1.217   3.068   0.342  0.8685  2.2059  0.7284
 2598SOL     OW19252   2.503   2.544   3.146  0.1446 -0.2617 -0.0564
 2598SOL    HW119253   2.441   2.517   3.079  2.5334  0.1798 -2.4354
 2598SOL    HW219254   2.521   2.463   3.194  2.1305  0.0802 -0.2183
 2599SOL     OW19255   4.114   1.047  17.536  0.4827 -0.4223 -0.3240
 2599SOL    HW119256   4.097   0.991  17.460 -2.1094 -0.7062  0.4417
 2599SOL    HW219257   4.197   1.085  17.509  0.3326 -1.7042 -2.5598
 2600SOL     OW19258   1.598   3.505  15.156  0.0009  0.0512 -0.0498
 2600SOL    HW119259   1.627   3.417  15.181  1.8235  0.2611 -1.4173
 2600SOL    HW219260   1.507   3.494  15.128  0.4454 -1.0835 -1.0761
 2601SOL     OW19261   1.528   4.544   6.385 -0.2273 -0.2093 -0.4920
 2601SOL    HW119262   1.587   4.541   6.310 -0.9498 -0.9319 -1.0334
 2601SOL    HW219263   1.590   4.513   6.451  0.1088  0.8531 -0.3096
 2602SOL     OW19264   1.246   0.567   4.904  0.6019  0.6154 -0.3361
 2602SOL    HW119265   1.203   0.487   4.933  1.3038 -1.4663 -5.0756
 2602SOL    HW219266   1.180   0.632   4.928  0.5739  0.1731  0.7660
 2603SOL     OW19267   1.793   2.688  13.566 -0.3629  0.3176  0.5959
 2603SOL    HW119268   1.746   2.757  13.611  1.5527  0.9419  1.6423
 2603SOL    HW219269   1.734   2.614  13.576 -1.0483  0.6377 -1.0678
 2604SOL     OW19270   0.187   4.701  11.036 -0.1965  0.5784 -0.6778
 2604SOL    HW119271   0.188   4.638  11.108  0.3614 -0.3754 -1.5271
 2604SOL    HW219272   0.099   0.013  11.048  0.1258  2.1076 -2.9659
 2605SOL     OW19273   2.942   2.599   3.798  0.2411 -0.3116  0.1587
 2605SOL    HW119274   2.866   2.652   3.774 -0.3141 -0.5905  1.3449
 2605SOL    HW219275   3.014   2.662   3.812 -0.8063  0.1658  3.4258
 2606SOL     OW19276   0.297   3.872   9.416  0.0404 -0.2924 -0.2751
 2606SOL    HW119277   0.272   3.924   9.340 -3.2632 -2.8814 -0.9810
 2606SOL    HW219278   0.240   3.915   9.480 -1.7106 -2.2913 -0.4755
 2607SOL     OW19279   2.012   2.833   7.078 -0.0576  0.1761 -0.3197
 2607SOL    HW119280   2.051   2.787   7.004  3.1496  0.7609  0.9770
 2607SOL    HW219281   1.960   2.903   7.041  0.1421  0.4188 -0.1465
 2608SOL     OW19282   4.491   4.676   9.212 -0.6119 -0.6298  0.3333
 2608SOL    HW119283   4.585   4.681   9.227 -0.8918  0.9201  1.5151
 2608SOL    HW219284   4.461   4.634   9.293 -2.8782  1.4451  0.5401
 2609SOL     OW19285   1.307   1.529   6.579  0.0075  0.1471 -0.2175
 2609SOL    HW119286   1.359   1.469   6.633 -1.6459 -1.2052 -0.1303
 2609SOL    HW219287   1.263   1.586   6.642  1.6379 -0.6521  1.6519
 2610SOL     OW19288   1.619   4.577  10.744 -0.1423 -0.4183 -0.4665
 2610SOL    HW119289   1.594   4.486  10.759  1.2088 -0.6527  0.3613
 2610SOL    HW219290   1.680   4.572  10.670  2.2895 -0.6838  1.5801
 2611SOL     OW19291   4.427   2.718   8.988 -0.0819  0.0287  0.0557
 2611SOL    HW119292   4.358   2.688   8.928 -0.8849  1.1027  0.4428
 2611SOL    HW219293   4.503   2.703   8.931  0.5427 -0.9150  1.1359
 2612SOL     OW19294   1.824   2.476  10.125 -0.3544 -0.4879  0.0828
 2612SOL    HW119295   1.890   2.525  10.174  3.1684 -1.8707 -3.3259
 2612SOL    HW219296   1.807   2.530  10.048  0.1347 -0.6729 -0.1529
 2613SOL     OW19297   4.151   0.407   0.331 -0.4793  0.7176 -0.5340
 2613SOL    HW119298   4.240   0.435   0.354 -0.3070 -0.0371 -0.2805
 2613SOL    HW219299   4.103   0.445   0.404  0.8363  0.1223  0.6315
 2614SOL     OW19300   3.199   2.414   0.269  0.2452  0.1398  0.4010
 2614SOL    HW119301   3.151   2.357   0.209 -0.1995  2.4612 -1.4829
 2614SOL    HW219302   3.211   2.373   0.354 -0.6753 -1.1177 -0.0730
 2615SOL     OW19303   4.462   4.066   5.191  0.5131  0.2290 -0.6712
 2615SOL    HW119304   4.458   4.138   5.255  0.1015  0.1598 -0.6181
 2615SOL    HW219305   4.443   3.995   5.252  0.1421  3.5755  3.1165
 2616SOL     OW19306   2.861   3.482   8.412 -0.6575 -0.2986 -0.7788
 2616SOL    HW119307   2.789   3.538   8.440  0.2625  1.1942 -1.3958
 2616SOL    HW219308   2.936   3.533   8.441 -0.0805 -1.3431 -0.4265
 2617SOL     OW19309   2.713   3.857   1.154  0.0825  0.1776 -0.2715
 2617SOL    HW119310   2.667   3.781   1.119  0.0963 -0.5786  1.3564
 2617SOL    HW219311   2.636   3.892   1.200 -0.8361 -3.1125  0.6729
 2618SOL     OW19312   2.640   4.427  10.151 -0.2010 -0.4018 -0.3668
 2618SOL    HW119313   2.577   4.492  10.119  1.9584  1.3821 -1.0236
 2618SOL    HW219314   2.680   4.472  10.225 -0.0931 -0.7818 -0.1940
 2619SOL     OW19315   3.802   4.388   9.645  0.1673 -0.3597  0.5233
 2619SOL    HW119316   3.715   4.369   9.680 -0.0645  0.0520  0.1742
 2619SOL    HW219317   3.807   4.333   9.567 -2.7412  1.8036 -1.1736
 2620SOL     OW19318   3.179   3.976   2.191 -0.1038  0.5407 -0.3280
 2620SOL    HW119319   3.164   4.048   2.253 -3.7664  0.2333 -0.8172
 2620SOL    HW219320   3.234   4.026   2.131  1.7159  0.2860  1.1387
 2621SOL     OW19321   4.434   2.618   1.390 -0.1223  0.4481  0.0786
 2621SOL    HW119322   4.462   2.665   1.468  2.9181  0.2127 -0.8869
 2621SOL    HW219323   4.361   2.565   1.422  2.3009 -2.1464  1.3329
 2622SOL     OW19324   3.068   3.224   6.611 -0.1025 -0.2651 -0.6082
 2622SOL    HW119325   3.143   3.180   6.571  0.2841 -0.9672  0.8813
 2622SOL    HW219326   3.048   3.168   6.687  0.3718  1.3710  0.7075
 2623SOL     OW19327   0.734   0.213   1.533 -0.4094  0.4703 -0.0528
 2623SOL    HW119328   0.672   0.195   1.462  0.3536  1.4264 -0.9660
 2623SOL    HW219329   0.676   0.176   1.599  2.8431 -1.5584  1.6395
 2624SOL     OW19330   2.788   2.367  15.057 -0.3678  0.0474  0.4956
 2624SOL    HW119331   2.701   2.407  15.060  0.4267  1.8752 -0.9444
 2624SOL    HW219332   2.776   2.278  15.024 -0.3431 -0.3037  1.4152
 2625SOL     OW19333   1.591   1.722   6.064  0.1740  0.8370 -0.1963
 2625SOL    HW119334   1.629   1.804   6.032 -1.4531  1.5913 -0.1873
 2625SOL    HW219335   1.516   1.755   6.113 -0.7255  3.0435 -3.0963
 2626SOL     OW19336   2.189   0.638  16.137 -0.2088 -0.5301 -0.3085
 2626SOL    HW119337   2.229   0.651  16.051  0.9195 -1.3526  0.1005
 2626SOL    HW219338   2.125   0.573  16.110  0.7587 -1.6053 -0.0351
 2627SOL     OW19339   1.945   2.004   7.296 -0.0362 -0.6938 -0.1333
 2627SOL    HW119340   2.038   2.014   7.273 -0.3070  1.5146 -0.2959
 2627SOL    HW219341   1.943   1.908   7.293  3.6665 -0.8052  1.4451
 2628SOL     OW19342   2.031   4.031  11.283  0.5415 -0.1871 -0.2740
 2628SOL    HW119343   1.962   4.096  11.270  0.3327 -0.5081 -0.7719
 2628SOL    HW219344   2.093   4.097  11.314 -1.3126  1.6839 -0.5141
 2629SOL     OW19345   2.134   3.178   5.714  0.5517  0.0043  0.2538
 2629SOL    HW119346   2.093   3.171   5.628  0.8465  2.4053 -0.0720
 2629SOL    HW219347   2.072   3.126   5.766  1.8874 -1.5224  0.3058
 2630SOL     OW19348   2.308   1.588   1.766  0.5074  0.1580 -0.4509
 2630SOL    HW119349   2.356   1.525   1.819 -0.9328  0.6788  1.4678
 2630SOL    HW219350   2.265   1.647   1.828 -0.8062 -1.6170  0.3352
 2631SOL     OW19351   1.878   3.299  12.560  0.1251 -0.2493 -0.2332
 2631SOL    HW119352   1.827   3.246  12.499  0.0461  1.4797 -1.6547
 2631SOL    HW219353   1.932   3.356  12.505 -2.9609  4.1798  1.3358
 2632SOL     OW19354   1.189   0.677   4.359  0.1658  0.0708  0.0416
 2632SOL    HW119355   1.181   0.611   4.428 -2.1444  2.6645  2.2188
 2632SOL    HW219356   1.142   0.634   4.287  1.6752  2.1854 -2.2048
 2633SOL     OW19357   4.174   2.743   6.593  0.0646 -0.3974 -0.0099
 2633SOL    HW119358   4.144   2.684   6.524  0.5356 -1.6850  0.8769
 2633SOL    HW219359   4.270   2.735   6.588 -0.0891  0.0457 -3.1189
 2634SOL     OW19360   2.986   1.688   2.877 -0.3305  0.3214 -0.2429
 2634SOL    HW119361   3.047   1.697   2.950 -1.2889  1.0169  0.4675
 2634SOL    HW219362   3.030   1.614   2.835 -0.8072  0.0104 -0.1977
 2635SOL     OW19363   2.654   4.267   5.507  0.5109  0.5314  0.5016
 2635SOL    HW119364   2.634   4.185   5.551 -1.4588  1.3165  1.0432
 2635SOL    HW219365   2.613   4.330   5.566  0.8010  1.6933 -0.5392
 2636SOL     OW19366   1.750   2.027   3.986 -0.0711  0.2943 -0.2808
 2636SOL    HW119367   1.726   1.941   4.021 -1.4820  0.5093 -0.7445
 2636SOL    HW219368   1.739   2.016   3.892 -1.4977  1.1544 -0.2254
 2637SOL     OW19369   2.533   0.019   6.617 -0.6766 -0.2779 -0.3699
 2637SOL    HW119370   2.539   0.024   6.713 -0.2207 -0.4350 -0.3903
 2637SOL    HW219371   2.513   4.650   6.603  1.0159 -0.4707 -1.6092
 2638SOL     OW19372   3.379   0.474   5.971  0.6204 -0.8764 -0.5828
 2638SOL    HW119373   3.299   0.525   5.959  1.5135  0.3788 -1.2666
 2638SOL    HW219374   3.443   0.535   5.932  0.0306  0.4603  0.5562
 2639SOL     OW19375   1.009   4.212   9.167 -0.3572  0.3452 -0.0004
 2639SOL    HW119376   1.074   4.143   9.151  1.0868  1.6268  0.4096
 2639SOL    HW219377   0.938   4.182   9.110 -1.3638  0.7351  1.0603
 2640SOL     OW19378   2.556   3.729   0.045 -0.0221  0.2345 -0.3108
 2640SOL    HW119379   2.470   3.736   0.086 -0.1843 -0.6757 -0.4831
 2640SOL    HW219380   2.545   3.642   0.006 -1.9546  0.0671  0.5858
 2641SOL     OW19381   0.778   4.654  11.431  0.2803 -0.2983 -0.2005
 2641SOL    HW119382   0.794   4.587  11.365  2.3056 -0.3128  0.3049
 2641SOL    HW219383   0.723   4.720  11.388 -2.3658 -1.8277  0.8257
 2642SOL     OW19384   4.128   3.446   5.771  0.6596 -0.2078  0.4981
 2642SOL    HW119385   4.041   3.453   5.811 -0.9081 -1.1545 -2.6940
 2642SOL    HW219386   4.119   3.356   5.740  1.9533  0.1358 -0.9018
 2643SOL     OW19387   2.675   2.781  14.808 -0.3207 -0.2768  0.2893
 2643SOL    HW119388   2.764   2.802  14.836  0.3957 -0.0772 -2.1768
 2643SOL    HW219389   2.698   2.710  14.748  0.3439 -0.4352  0.7283
 2644SOL     OW19390   2.553   1.327   2.372 -0.1120 -0.1204  0.3913
 2644SOL    HW119391   2.492   1.261   2.338  0.1720 -1.7585  3.0309
 2644SOL    HW219392   2.633   1.274   2.383 -0.3865 -0.8313 -1.0167
 2645SOL     OW19393   3.310   2.469   3.704  0.0421 -0.9015 -0.4361
 2645SOL    HW119394   3.349   2.382   3.701  1.4021 -0.2146 -2.5144
 2645SOL    HW219395   3.248   2.471   3.632  0.5826  1.9564 -0.8375
 2646SOL     OW19396   0.166   0.781   9.280 -0.0299 -0.2721 -0.2026
 2646SOL    HW119397   0.140   0.843   9.347  0.0019  0.8677 -1.2382
 2646SOL    HW219398   0.217   0.722   9.336  0.4733  1.0291  0.6958
 2647SOL     OW19399   2.179   2.208   2.116 -0.3368 -0.4090  0.4612
 2647SOL    HW119400   2.161   2.173   2.029 -1.7330 -0.6147  0.8200
 2647SOL    HW219401   2.105   2.264   2.140 -0.7525 -0.4073 -0.8304
 2648SOL     OW19402   0.521   3.215   2.669 -0.8118 -0.1103  0.0974
 2648SOL    HW119403   0.565   3.284   2.618  0.2410 -2.0790 -1.6620
 2648SOL    HW219404   0.563   3.232   2.753 -1.1729 -1.0166  0.4575
 2649SOL     OW19405   0.597   1.466  17.332  0.0467 -0.1482 -0.0956
 2649SOL    HW119406   0.660   1.444  17.400 -0.4016 -0.3531  0.2487
 2649SOL    HW219407   0.523   1.467  17.392 -0.1718 -0.3586 -0.3618
 2650SOL     OW19408   0.129   1.024   9.421 -0.4893 -0.4206 -0.8213
 2650SOL    HW119409   0.151   1.091   9.485 -0.6985  1.3081 -2.5426
 2650SOL    HW219410   0.064   1.070   9.368 -3.0825 -0.6782  2.1248
 2651SOL     OW19411   0.422   0.352   5.563  0.5474 -0.2359  0.7400
 2651SOL    HW119412   0.501   0.317   5.521 -1.3124 -0.7733 -2.3589
 2651SOL    HW219413   0.469   0.422   5.608  1.5237 -1.3573  1.4742
 2652SOL     OW19414   4.602   0.150   3.169 -0.0834 -0.4991  0.1428
 2652SOL    HW119415   4.509   0.163   3.189  0.4497  1.8615  1.0849
 2652SOL    HW219416   4.626   0.238   3.198 -1.1466 -0.2960  0.4129
 2653SOL     OW19417   3.925   1.589  10.894 -0.8825 -0.0013  0.0727
 2653SOL    HW119418   3.918   1.615  10.802 -0.0398 -0.6344 -0.1707
 2653SOL    HW219419   3.872   1.660  10.931  0.7061  0.1281  2.1079
 2654SOL     OW19420   3.016   3.189   3.199 -0.0304  0.2747  0.2058
 2654SOL    HW119421   3.106   3.164   3.179  0.1511  0.8901  0.2635
 2654SOL    HW219422   3.011   3.128   3.273 -0.6544 -2.6887 -2.2712
 2655SOL     OW19423   2.978   3.074   1.954 -0.5216 -0.2348 -0.6004
 2655SOL    HW119424   3.022   3.083   1.870 -0.0127 -2.2916 -0.5668
 2655SOL    HW219425   2.979   3.163   1.988 -0.9390 -0.7465  0.7638
 2656SOL     OW19426   2.376   3.798   0.681  0.2864  0.3679  0.3606
 2656SOL    HW119427   2.399   3.861   0.612  1.0361  0.3628  0.5949
 2656SOL    HW219428   2.281   3.804   0.688  0.1414 -1.6567 -0.0038
 2657SOL     OW19429   1.999   4.268  17.610 -0.3920  0.4387  0.3945
 2657SOL    HW119430   1.959   4.254  17.696  0.8779 -1.2648  0.7130
 2657SOL    HW219431   1.954   4.195  17.568  2.3167 -1.5694  0.9398
 2658SOL     OW19432   1.456   0.232  10.792  0.0841  0.1455 -0.0366
 2658SOL    HW119433   1.364   0.227  10.768 -0.5057  0.4428  2.1544
 2658SOL    HW219434   1.477   0.147  10.832 -0.0139 -0.2800 -0.8952
 2659SOL     OW19435   3.023   1.372   8.010 -0.5689  0.2278  0.1858
 2659SOL    HW119436   2.959   1.379   7.940  1.6423  1.5777 -1.7219
 2659SOL    HW219437   2.966   1.343   8.081 -0.8049 -2.5312 -1.1398
 2660SOL     OW19438   2.284   1.019   7.812  0.3755 -0.1799 -0.7396
 2660SOL    HW119439   2.261   0.954   7.879  0.1609  0.7813  0.1271
 2660SOL    HW219440   2.326   1.086   7.867  0.1752  1.3389 -2.4266
 2661SOL     OW19441   1.992   1.753   3.070 -0.0823 -0.0500 -0.2051
 2661SOL    HW119442   2.003   1.832   3.016  0.7225 -0.1125 -0.1328
 2661SOL    HW219443   2.082   1.751   3.102 -0.4425 -1.0032  0.7313
 2662SOL     OW19444   0.745   2.548   8.290  0.3215 -0.3747 -0.5152
 2662SOL    HW119445   0.702   2.595   8.362  0.3590  0.7858 -1.2452
 2662SOL    HW219446   0.752   2.462   8.330  2.6091 -0.6975 -1.6243
 2663SOL     OW19447   0.003   2.693   7.436 -0.3843  0.4334  0.8213
 2663SOL    HW119448   4.643   2.650   7.452 -0.3522 -0.1357 -0.5306
 2663SOL    HW219449   4.718   2.708   7.342 -0.5906  1.8593  1.0585
 2664SOL     OW19450   0.270   4.063  10.321  0.3048  0.8672  0.0766
 2664SOL    HW119451   0.348   4.061  10.267 -0.2906  1.3398 -0.7989
 2664SOL    HW219452   0.242   3.972  10.326  1.1116  0.5400 -1.5736
 2665SOL     OW19453   0.709   1.618   8.396  1.2330  0.2175 -0.1595
 2665SOL    HW119454   0.666   1.667   8.326  0.2916 -0.9227 -0.3811
 2665SOL    HW219455   0.763   1.692   8.426 -0.0526  0.5923  1.2772
 2666SOL     OW19456   3.721   0.978   9.473 -0.1059 -0.0955 -0.2501
 2666SOL    HW119457   3.686   1.025   9.549 -1.3269  1.4063 -1.7387
 2666SOL    HW219458   3.792   0.932   9.519  1.0919  2.4393  0.4766
 2667SOL     OW19459   2.976   2.243   4.195 -0.0847 -0.1393 -0.2638
 2667SOL    HW119460   2.960   2.261   4.103  0.4165 -1.1603 -0.5521
 2667SOL    HW219461   3.029   2.319   4.222 -0.6721  0.3054 -0.3634
 2668SOL     OW19462   0.974   3.428   1.284  0.2387  0.2014  0.0061
 2668SOL    HW119463   0.890   3.383   1.289  0.1359  0.2414 -1.4698
 2668SOL    HW219464   0.953   3.504   1.230  1.4656  0.5714  0.0428
 2669SOL     OW19465   1.432   0.876   9.212  0.0090  0.6597 -0.3143
 2669SOL    HW119466   1.355   0.846   9.164  0.5936  1.4179 -1.7097
 2669SOL    HW219467   1.505   0.848   9.158 -0.1838  1.1467 -0.8258
 2670SOL     OW19468   3.780   0.472   1.608  0.3153  0.2377 -0.3218
 2670SOL    HW119469   3.731   0.399   1.647 -1.4973  1.5065 -0.1990
 2670SOL    HW219470   3.710   0.537   1.598  0.7660  0.3801 -2.5657
 2671SOL     OW19471   1.046   4.262   2.430  0.7363  0.5541  0.2691
 2671SOL    HW119472   0.959   4.294   2.455  0.7996  1.8940 -1.2272
 2671SOL    HW219473   1.065   4.320   2.357 -2.2590  1.9876  0.6245
 2672SOL     OW19474   2.648   3.475  11.989  0.1524  0.2798 -0.3782
 2672SOL    HW119475   2.597   3.492  12.068 -0.4345 -2.3411 -0.1800
 2672SOL    HW219476   2.613   3.388  11.970  2.3441 -0.3127 -1.7500
 2673SOL     OW19477   3.933   1.659   2.949  0.1694 -1.2393  0.6587
 2673SOL    HW119478   3.928   1.688   2.858  1.5468 -1.1293  0.6140
 2673SOL    HW219479   3.906   1.569   2.961  2.5263 -1.8371  1.4320
 2674SOL     OW19480   2.909   0.152  10.954  0.4730  0.6226  0.5914
 2674SOL    HW119481   2.913   0.154  11.049  0.6769  3.1044  0.5468
 2674SOL    HW219482   2.869   0.238  10.937 -1.8763 -0.5831  0.0320
 2675SOL     OW19483   1.905   1.665   8.222 -0.6359 -0.4566  0.0757
 2675SOL    HW119484   1.893   1.758   8.237 -2.7744 -0.3079 -2.6524
 2675SOL    HW219485   1.899   1.624   8.308  0.6329  0.8216  0.7836
 2676SOL     OW19486   1.022   2.920   2.892  0.4329  0.0700  0.0453
 2676SOL    HW119487   1.051   3.011   2.904  0.8271  0.1001 -1.1674
 2676SOL    HW219488   1.099   2.876   2.928 -0.6691 -2.3592 -0.6300
 2677SOL     OW19489   3.651   4.621   3.530 -0.4643 -0.3213  0.2327
 2677SOL    HW119490   3.605   4.698   3.564  0.9647  1.2236 -1.3572
 2677SOL    HW219491   3.634   4.618   3.436 -0.2514 -0.8385  0.2076
 2678SOL     OW19492   0.027   1.597   2.271  0.2970 -0.4123  0.3179
 2678SOL    HW119493   0.117   1.572   2.247  0.5749  2.1572 -1.2556
 2678SOL    HW219494   0.018   1.680   2.225  1.8857 -0.9803 -1.0510
 2679SOL     OW19495   2.997   0.034  10.726  0.7292  0.1446 -0.2146
 2679SOL    HW119496   2.952   0.066  10.804 -1.1399  0.4940 -1.4529
 2679SOL    HW219497   3.091   0.037  10.746  0.1454  1.0568  2.4320
 2680SOL     OW19498   4.399   1.987   4.537 -0.1146  0.1185 -0.6094
 2680SOL    HW119499   4.455   1.910   4.536 -0.8856 -0.4228 -2.4745
 2680SOL    HW219500   4.420   2.032   4.619  1.6328  2.8211 -2.5597
 2681SOL     OW19501   2.934   2.838  11.094 -0.4148  0.5418 -0.2098
 2681SOL    HW119502   2.959   2.811  11.005 -0.4398 -0.9569  0.2431
 2681SOL    HW219503   3.016   2.808  11.132 -1.5588 -0.6518  1.3034
 2682SOL     OW19504   3.680   3.783   4.110  0.2068  0.1317 -0.3649
 2682SOL    HW119505   3.747   3.823   4.164  0.8151 -1.8441  0.3282
 2682SOL    HW219506   3.639   3.728   4.177  0.5842  1.0854  0.6566
 2683SOL     OW19507   4.138   0.058   6.257  0.2189 -0.1778 -0.2820
 2683SOL    HW119508   4.063   0.011   6.294  0.0953 -0.4374 -0.8535
 2683SOL    HW219509   4.158   0.000   6.182 -0.1930  1.0451 -1.3317
 2684SOL     OW19510   3.977   1.551   4.495 -0.3166  0.0469 -0.3485
 2684SOL    HW119511   3.927   1.631   4.480 -0.2053 -0.1369 -1.7246
 2684SOL    HW219512   3.972   1.510   4.408 -2.1126  0.8704 -0.6338
 2685SOL     OW19513   1.244   0.112   8.430  0.1180 -0.4503  0.3397
 2685SOL    HW119514   1.183   0.158   8.488  1.4975  0.5824  0.9894
 2685SOL    HW219515   1.207   0.118   8.342 -1.4720  0.3345  1.0577
 2686SOL     OW19516   4.336   2.948  10.835 -0.0695  0.2237  0.1323
 2686SOL    HW119517   4.383   2.889  10.894 -3.0669  0.0900  2.3544
 2686SOL    HW219518   4.352   2.900  10.754 -1.1051  1.9613 -1.1025
 2687SOL     OW19519   1.643   4.487   1.514  0.6426  0.3502 -0.2576
 2687SOL    HW119520   1.631   4.515   1.424 -0.9145  0.5566  0.0037
 2687SOL    HW219521   1.611   4.568   1.555  1.5051  0.5825 -0.0415
 2688SOL     OW19522   2.285   2.741  15.502  0.8131  0.2128 -0.3195
 2688SOL    HW119523   2.281   2.646  15.507 -0.8414  0.1958 -1.9022
 2688SOL    HW219524   2.312   2.770  15.589 -2.2542  1.6426  0.1552
 2689SOL     OW19525   1.638   3.588   7.771  0.4109  0.1355  0.3226
 2689SOL    HW119526   1.675   3.673   7.794 -1.2709  0.4786  1.7694
 2689SOL    HW219527   1.545   3.599   7.792  1.0721  1.7438  2.4619
 2690SOL     OW19528   2.713   3.643   8.743 -0.2751 -0.3976 -0.5827
 2690SOL    HW119529   2.664   3.581   8.797  0.2673  1.2248  1.8154
 2690SOL    HW219530   2.721   3.718   8.802 -0.0123 -0.3364 -0.6982
 2691SOL     OW19531   2.966   0.438   4.882  0.4306 -0.1882  0.0909
 2691SOL    HW119532   2.953   0.504   4.814  0.8611  0.0131  0.1979
 2691SOL    HW219533   2.958   0.355   4.836 -0.5159 -0.0681  0.0508
 2692SOL     OW19534   2.101   3.645  10.366  0.0203 -0.0947  0.5851
 2692SOL    HW119535   2.044   3.645  10.443  0.6763  0.0943  1.0639
 2692SOL    HW219536   2.186   3.660  10.407 -0.0279 -1.5489  1.2141
 2693SOL     OW19537   0.803   0.331  15.890  0.2939  0.3058  0.1148
 2693SOL    HW119538   0.863   0.347  15.963 -0.6832 -0.2053  1.0206
 2693SOL    HW219539   0.854   0.264  15.843  0.1632  1.4256 -1.6280
 2694SOL     OW19540   0.049   4.489  10.870  0.1479  0.7811 -0.0994
 2694SOL    HW119541   0.104   4.463  10.796  0.4770  2.9752 -0.6324
 2694SOL    HW219542   0.106   4.549  10.919 -0.0951  1.5738 -0.7805
 2695SOL     OW19543   4.670   3.407   2.500 -0.1161 -0.5260  0.5091
 2695SOL    HW119544   0.014   3.380   2.562  0.8453 -1.2938 -0.8909
 2695SOL    HW219545   4.633   3.475   2.558 -1.0471  0.2861 -1.0549
 2696SOL     OW19546   0.478   1.134   4.861  0.3170  0.2429 -0.2212
 2696SOL    HW119547   0.405   1.115   4.920 -0.3633 -0.9703 -1.4769
 2696SOL    HW219548   0.550   1.081   4.897 -1.3018 -3.1269 -2.0367
 2697SOL     OW19549   2.219   3.878   5.001 -0.1143  0.0530  0.4059
 2697SOL    HW119550   2.251   3.908   4.916 -0.9458  2.3388  0.8890
 2697SOL    HW219551   2.221   3.969   5.031  1.2776 -1.2090  4.1170
 2698SOL     OW19552   0.612   0.287   6.906 -0.3960 -0.1553 -0.4703
 2698SOL    HW119553   0.575   0.200   6.916 -0.1330 -0.0655  1.3358
 2698SOL    HW219554   0.543   0.353   6.903  0.5279  0.8657  0.6470
 2699SOL     OW19555   0.935   3.251   5.691 -0.0353  0.3186  0.1474
 2699SOL    HW119556   0.979   3.170   5.664 -0.4720  1.1995 -3.1806
 2699SOL    HW219557   0.953   3.310   5.617  0.7404  0.9045  0.7986
 2700SOL     OW19558   3.126   3.666   6.318  0.8598  0.0986  0.0354
 2700SOL    HW119559   3.078   3.678   6.400 -1.6682  0.8188 -1.5444
 2700SOL    HW219560   3.100   3.739   6.262 -2.4824  0.0319  1.4592
 2701SOL     OW19561   0.947   2.267   0.032 -0.2679  0.0881 -0.5151
 2701SOL    HW119562   1.036   2.299   0.049  0.0695 -1.6333  0.8641
 2701SOL    HW219563   0.945   2.295  17.639  0.1587 -1.5226 -1.0118
 2702SOL     OW19564   3.985   4.662  10.032  0.7173 -0.0169 -0.0995
 2702SOL    HW119565   4.081   4.670  10.039  0.6929 -0.7159  1.1325
 2702SOL    HW219566   3.964   4.603  10.105 -3.1262  2.0859  0.4876
 2703SOL     OW19567   2.633   1.968   5.169  0.6887  0.1622  0.1844
 2703SOL    HW119568   2.574   2.011   5.231 -0.6419  2.9209 -3.0320
 2703SOL    HW219569   2.566   1.910   5.131  0.9055  0.3758 -0.5105
 2704SOL     OW19570   3.970   0.039   5.008 -0.2678  0.2194 -0.0042
 2704SOL    HW119571   4.003   0.001   4.926 -0.0050 -1.1145  0.7321
 2704SOL    HW219572   3.879   0.056   4.982 -0.4378 -2.1492 -0.9147
 2705SOL     OW19573   1.854   3.169   6.835 -0.4017  0.3091 -0.6143
 2705SOL    HW119574   1.937   3.217   6.838 -0.6189  0.6098  0.3838
 2705SOL    HW219575   1.797   3.231   6.880 -2.4767 -1.4026 -0.8884
 2706SOL     OW19576   2.978   2.583   9.241 -0.3861 -0.2132 -0.1280
 2706SOL    HW119577   3.050   2.521   9.234  0.0038  0.1189  0.8123
 2706SOL    HW219578   2.988   2.606   9.334  0.9485  3.0347 -1.0687
 2707SOL     OW19579   1.412   4.712   0.473  0.9780  0.8691  0.0807
 2707SOL    HW119580   1.338   0.048   0.462  0.9496  0.7525 -0.3739
 2707SOL    HW219581   1.455   0.013   0.391  1.2074 -1.3680 -0.4902
 2708SOL     OW19582   4.293   3.419   2.361 -0.6422 -0.0195  0.3315
 2708SOL    HW119583   4.321   3.495   2.310 -0.9126 -1.2365 -1.6043
 2708SOL    HW219584   4.213   3.458   2.396 -1.2279  2.0040 -3.3034
 2709SOL     OW19585   1.132   3.430   2.857 -0.4353 -0.5332  0.2285
 2709SOL    HW119586   1.174   3.350   2.828  0.3064 -0.6929  1.7568
 2709SOL    HW219587   1.078   3.455   2.782 -0.6401  0.9660  0.8609
 2710SOL     OW19588   1.701   2.400   3.787 -0.1665 -0.5088 -0.0833
 2710SOL    HW119589   1.771   2.339   3.812  0.4174 -0.0473 -0.5967
 2710SOL    HW219590   1.655   2.338   3.731  1.6343 -1.5074 -0.4414
 2711SOL     OW19591   2.280   1.645  13.089  0.3027  0.0261  0.2641
 2711SOL    HW119592   2.205   1.698  13.063 -0.9907 -0.9370  2.0909
 2711SOL    HW219593   2.333   1.710  13.136  3.6304 -1.9810 -0.6917
 2712SOL     OW19594   1.456   2.602   0.911  0.3501  0.4571 -0.0612
 2712SOL    HW119595   1.449   2.514   0.949 -3.1172  1.0760  0.7620
 2712SOL    HW219596   1.524   2.592   0.845 -1.0479 -2.9535 -1.0050
 2713SOL     OW19597   4.455   2.311   7.705 -0.4645 -0.2573  0.2621
 2713SOL    HW119598   4.413   2.377   7.761 -2.3058 -0.4733 -0.8925
 2713SOL    HW219599   4.545   2.333   7.731 -0.4169  3.0238 -2.6153
 2714SOL     OW19600   3.864   1.317  11.205 -0.0494  0.0288 -0.3968
 2714SOL    HW119601   3.778   1.358  11.195 -1.2710 -3.0562 -2.5349
 2714SOL    HW219602   3.894   1.310  11.114  1.4261 -2.2632  0.2830
 2715SOL     OW19603   2.982   3.438   4.422  0.1646 -0.1022 -0.3249
 2715SOL    HW119604   2.993   3.457   4.515  0.7621 -2.6379  0.1212
 2715SOL    HW219605   2.919   3.507   4.402 -1.1286 -1.6485 -1.6694
 2716SOL     OW19606   1.352   1.129   4.483  0.3986 -0.4570  0.2839
 2716SOL    HW119607   1.342   1.036   4.464  0.5285 -1.1599  3.6753
 2716SOL    HW219608   1.262   1.154   4.507  0.3187  1.1547 -1.6606
 2717SOL     OW19609   4.115   2.451   3.872 -0.3155 -0.5259 -0.1187
 2717SOL    HW119610   4.181   2.419   3.934 -0.5912  0.5799  0.7422
 2717SOL    HW219611   4.076   2.520   3.925  1.4579 -1.1049  1.9621
 2718SOL     OW19612   1.289   3.848   2.769 -0.4138 -0.1193 -0.5355
 2718SOL    HW119613   1.295   3.779   2.834 -1.0323  0.0966 -0.2469
 2718SOL    HW219614   1.201   3.876   2.797 -1.1584  0.5563 -3.4553
 2719SOL     OW19615   4.596   3.753   0.605  0.2116  0.3277 -0.5419
 2719SOL    HW119616   4.542   3.760   0.683  0.8488 -0.1863 -0.0494
 2719SOL    HW219617   4.636   3.667   0.619  1.3383  1.0305  0.5773
 2720SOL     OW19618   2.392   3.277   0.206 -0.2917 -0.5579  0.4530
 2720SOL    HW119619   2.415   3.258   0.297 -0.1381  0.6424  0.6548
 2720SOL    HW219620   2.479   3.283   0.166 -1.0758 -6.1887 -2.2130
 2721SOL     OW19621   4.317   3.786   3.791  0.1989 -0.3419  0.0447
 2721SOL    HW119622   4.400   3.830   3.808  0.3446 -0.5194 -0.2099
 2721SOL    HW219623   4.322   3.777   3.696 -3.9007 -0.9296 -0.1365
 2722SOL     OW19624   1.633   4.295   0.310 -0.1826 -0.0154 -0.4520
 2722SOL    HW119625   1.666   4.313   0.399 -1.3294  0.9040 -0.2157
 2722SOL    HW219626   1.717   4.281   0.267  0.6261 -0.5368  1.2967
 2723SOL     OW19627   3.972   0.455   6.009  0.5707  0.2179  0.5612
 2723SOL    HW119628   3.911   0.391   6.046 -0.8199  0.4329 -1.3060
 2723SOL    HW219629   3.933   0.452   5.921 -0.0848 -2.1785  0.9450
 2724SOL     OW19630   1.997   2.444   6.992  0.2665 -0.3235 -0.1151
 2724SOL    HW119631   1.981   2.465   7.084  0.0813 -0.1855 -0.1798
 2724SOL    HW219632   2.051   2.516   6.961  1.1233 -1.9244 -2.3677
 2725SOL     OW19633   4.569   2.733  12.342 -0.5133  0.0616  0.0794
 2725SOL    HW119634   4.559   2.663  12.277 -1.1961 -0.1270  0.3901
 2725SOL    HW219635   4.605   2.678  12.412 -0.9178 -0.9112 -0.4742
 2726SOL     OW19636   2.151   2.212  12.075 -0.3845 -0.0424 -0.0572
 2726SOL    HW119637   2.129   2.281  12.012  1.6675 -0.1456 -0.8867
 2726SOL    HW219638   2.241   2.239  12.092 -0.8014  0.4449  1.3449
 2727SOL     OW19639   1.051   2.499   4.111  0.0831 -0.0894  0.2142
 2727SOL    HW119640   1.104   2.536   4.182  0.0336 -0.8788  0.6557
 2727SOL    HW219641   0.964   2.527   4.137  1.7805  1.3557  4.2412
 2728SOL     OW19642   3.691   4.099   3.040 -0.2967  0.3437  0.4291
 2728SOL    HW119643   3.685   4.070   3.131  0.9603  1.7720  0.9796
 2728SOL    HW219644   3.785   4.117   3.032  0.1046 -2.1661 -0.2699
 2729SOL     OW19645   2.517   1.391   2.753  0.3990  0.2463  0.1077
 2729SOL    HW119646   2.579   1.448   2.798  1.7694 -2.7232  1.9242
 2729SOL    HW219647   2.586   1.343   2.707 -0.0017  0.6222 -0.9020
 2730SOL     OW19648   3.329   3.989  16.728  0.1383  0.3780 -0.4924
 2730SOL    HW119649   3.343   3.971  16.635 -0.8151 -4.3609  0.2605
 2730SOL    HW219650   3.246   3.946  16.748  1.0769 -0.8509  0.8286
 2731SOL     OW19651   2.675   0.349  12.491 -0.1577  0.1933  0.3879
 2731SOL    HW119652   2.667   0.259  12.460  0.3152  0.5548 -0.7541
 2731SOL    HW219653   2.673   0.389  12.404 -1.4118  2.6637  1.5313
 2732SOL     OW19654   1.256   3.846   0.955  0.0046 -0.3692  0.4135
 2732SOL    HW119655   1.181   3.881   1.003  0.3554  0.5197  0.3094
 2732SOL    HW219656   1.317   3.834   1.028  0.8343 -0.5222 -0.3089
 2733SOL     OW19657   3.888   3.699   6.818  0.0646 -0.3209 -0.2620
 2733SOL    HW119658   3.896   3.746   6.900 -1.0388  0.9121 -0.8649
 2733SOL    HW219659   3.881   3.773   6.758 -0.1699  0.2554  0.4871
 2734SOL     OW19660   0.060   3.345   7.985 -0.0632  0.0492  0.7723
 2734SOL    HW119661   0.108   3.292   8.049  3.4731  2.8054  0.4660
 2734SOL    HW219662   0.072   3.290   7.908  3.6178  0.5167  1.0155
 2735SOL     OW19663   2.661   2.673  16.311  0.5795  0.1179  0.1622
 2735SOL    HW119664   2.725   2.651  16.243 -1.4523  1.0031 -2.0672
 2735SOL    HW219665   2.611   2.743  16.268  1.3003  0.3066 -0.3616
 2736SOL     OW19666   2.185   3.619  12.151  0.0057 -0.6109 -0.0597
 2736SOL    HW119667   2.256   3.626  12.087  1.2494  0.4589  1.4034
 2736SOL    HW219668   2.218   3.538  12.188  0.7479 -0.0890  0.4283
 2737SOL     OW19669   0.449   1.300   9.397  0.8039  0.0274  0.1673
 2737SOL    HW119670   0.438   1.290   9.492  2.0238  0.3132  0.3496
 2737SOL    HW219671   0.435   1.394   9.392  1.0309  0.1319  1.4336
 2738SOL     OW19672   0.641   2.003   5.167  0.2714  0.6142 -0.0159
 2738SOL    HW119673   0.607   1.934   5.109  1.5012 -1.0171  1.1822
 2738SOL    HW219674   0.561   2.036   5.206 -0.0689  1.1496 -1.1567
 2739SOL     OW19675   0.225   2.996   9.217 -0.1850 -0.1564 -0.6003
 2739SOL    HW119676   0.155   2.956   9.269  2.0511  0.6932  3.1518
 2739SOL    HW219677   0.277   3.047   9.280  1.2010  0.2872 -2.1109
 2740SOL     OW19678   3.955   1.816   8.971 -0.7740 -0.4554 -0.4310
 2740SOL    HW119679   3.861   1.819   8.951 -0.1035  0.5114 -3.4516
 2740SOL    HW219680   3.968   1.739   9.026 -1.9376  0.0588  0.5774
 2741SOL     OW19681   2.303   2.980   4.693 -0.4607  1.0576 -0.3140
 2741SOL    HW119682   2.388   3.005   4.729 -0.9526  0.4054  1.3353
 2741SOL    HW219683   2.254   3.063   4.690 -0.4012  1.0718 -0.8105
 2742SOL     OW19684   1.139   3.529   7.730 -0.0623  0.5564 -0.1685
 2742SOL    HW119685   1.106   3.505   7.817 -0.8461  2.9700  0.2004
 2742SOL    HW219686   1.145   3.438   7.702 -1.6503  0.7466 -1.1107
 2743SOL     OW19687   0.972   0.936   2.616  0.0153 -0.3915  0.3765
 2743SOL    HW119688   1.060   0.940   2.654 -0.2283 -0.6236  0.9682
 2743SOL    HW219689   0.982   0.874   2.544 -0.8758  1.3723 -1.2843
 2744SOL     OW19690   0.601   1.323  10.085  0.8439 -0.2845  0.1413
 2744SOL    HW119691   0.595   1.404  10.035 -2.1521 -1.1145 -0.8502
 2744SOL    HW219692   0.634   1.351  10.170  0.7428 -0.0932  0.1171
 2745SOL     OW19693   4.368   4.045   9.969 -0.6616 -0.2897  0.1626
 2745SOL    HW119694   4.435   4.056  10.037 -0.0891  0.9996 -0.6129
 2745SOL    HW219695   4.306   4.117   9.964  1.1571  1.2452 -0.0263
 2746SOL     OW19696   2.707   2.101   6.050  0.2133  0.4552 -0.3714
 2746SOL    HW119697   2.788   2.143   6.022 -0.2383  0.5848 -1.4972
 2746SOL    HW219698   2.675   2.153   6.123 -2.4699  0.0731 -1.2561
 2747SOL     OW19699   2.402   0.085   2.608  0.2915  0.1144  0.3792
 2747SOL    HW119700   2.348   0.057   2.535 -0.7643  2.5314  0.2254
 2747SOL    HW219701   2.486   0.087   2.561 -0.9201  0.0500 -1.7916
 2748SOL     OW19702   1.668   1.770  15.851 -0.2032  0.0824  0.1030
 2748SOL    HW119703   1.707   1.794  15.935  1.5655  2.0798 -1.2647
 2748SOL    HW219704   1.649   1.856  15.814  0.7141 -0.0015 -0.5884
 2749SOL     OW19705   0.742   1.265   5.169 -0.4675  0.0637 -0.8688
 2749SOL    HW119706   0.780   1.217   5.095 -0.5022 -0.3011 -0.6480
 2749SOL    HW219707   0.779   1.223   5.246 -2.6170 -2.3179 -1.1460
 2750SOL     OW19708   3.947   4.582  14.631  0.3105 -0.2952 -0.0985
 2750SOL    HW119709   3.991   4.579  14.546 -1.2548  2.8457 -1.0348
 2750SOL    HW219710   4.005   4.518  14.671 -1.5218 -1.2312  1.0347
 2751SOL     OW19711   0.151   4.477   3.430 -0.2050 -0.9815  0.1463
 2751SOL    HW119712   0.069   4.511   3.464  0.0775  2.0983 -2.2517
 2751SOL    HW219713   0.128   4.420   3.357  1.2527  0.2028 -1.2455
 2752SOL     OW19714   4.242   0.355  15.257  0.1200  0.1418  0.0501
 2752SOL    HW119715   4.205   0.430  15.211  0.0202  2.1538  3.3984
 2752SOL    HW219716   4.172   0.337  15.320  1.2530 -1.3108  0.9001
 2753SOL     OW19717   3.688   4.406   7.872 -0.2337  0.1443 -0.4679
 2753SOL    HW119718   3.622   4.423   7.940 -0.4698 -0.9508 -0.4181
 2753SOL    HW219719   3.760   4.362   7.918 -0.6454  0.1052  0.1370
 2754SOL     OW19720   2.025   1.463   3.791  0.1526  0.0332 -0.9116
 2754SOL    HW119721   1.962   1.519   3.837  0.3156  0.4559 -1.2014
 2754SOL    HW219722   2.107   1.514   3.793 -1.4903  2.5761  1.3926
 2755SOL     OW19723   0.607   4.140   6.606 -0.1694 -0.4729  0.3238
 2755SOL    HW119724   0.585   4.049   6.590  1.9800 -0.8270 -0.7050
 2755SOL    HW219725   0.701   4.134   6.585 -0.2726  0.1238 -0.3193
 2756SOL     OW19726   3.090   0.364   8.104  0.3605  0.0624  0.3253
 2756SOL    HW119727   3.154   0.316   8.052  0.4159  1.0151 -0.4862
 2756SOL    HW219728   3.147   0.387   8.178  0.3187  2.6597 -0.4712
 2757SOL     OW19729   3.010   2.895   1.622  0.1607  0.2109 -0.4781
 2757SOL    HW119730   3.017   2.801   1.639  3.1436  0.3377 -1.1443
 2757SOL    HW219731   3.101   2.924   1.628 -0.3884  1.7055  0.6352
 2758SOL     OW19732   0.009   0.010   7.116 -0.5293 -0.6876 -0.1821
 2758SOL    HW119733   4.652   0.020   7.166 -0.4119  1.6098 -0.4454
 2758SOL    HW219734   0.036   4.650   7.152  0.8846  0.1910  0.8218
 2759SOL     OW19735   3.619   3.991   3.596  0.4785 -0.9540 -0.0838
 2759SOL    HW119736   3.552   4.000   3.529  0.1523 -0.1568  0.3494
 2759SOL    HW219737   3.685   4.058   3.577  0.3301 -1.1632 -1.3312
 2760SOL     OW19738   3.366   1.173  15.042 -0.6531  0.3392  0.7823
 2760SOL    HW119739   3.322   1.238  15.096 -2.9781 -0.1004 -0.5670
 2760SOL    HW219740   3.448   1.216  15.016 -0.9042  0.6904  0.5791
 2761SOL     OW19741   2.345   4.252   4.068 -0.2447 -0.3472  0.6478
 2761SOL    HW119742   2.363   4.192   4.141 -1.3039 -1.7600 -0.2495
 2761SOL    HW219743   2.251   4.244   4.055 -0.2822  1.4629 -0.1946
 2762SOL     OW19744   1.698   1.608  11.590  0.1670 -0.0541  0.2767
 2762SOL    HW119745   1.758   1.671  11.629 -0.5141  0.3937  0.5957
 2762SOL    HW219746   1.742   1.600  11.506  1.0694 -2.4819  0.9543
 2763SOL     OW19747   1.391   1.752   5.289  0.5400  0.1681 -0.1885
 2763SOL    HW119748   1.396   1.748   5.385  1.5684  2.2014 -0.1552
 2763SOL    HW219749   1.310   1.705   5.273  0.7050  0.1084 -0.8338
 2764SOL     OW19750   1.140   3.111   0.194 -0.3220 -0.0387  0.1711
 2764SOL    HW119751   1.161   3.093   0.102  0.5150  1.1754  0.1300
 2764SOL    HW219752   1.074   3.180   0.191 -0.5534 -0.3114 -1.0358
 2765SOL     OW19753   1.298   4.009   5.036 -0.3684  0.4515  0.3619
 2765SOL    HW119754   1.258   3.952   5.101  0.6449 -0.2127  0.4027
 2765SOL    HW219755   1.216   4.049   5.006 -0.2382  0.3281 -0.1485
 2766SOL     OW19756   4.247   0.161   3.823 -0.2144  0.6010  0.3092
 2766SOL    HW119757   4.300   0.180   3.745  1.4320  2.4604  1.8849
 2766SOL    HW219758   4.317   0.119   3.872  0.1564 -0.0522 -0.7787
 2767SOL     OW19759   0.326   3.885   6.475 -0.3756 -0.4568 -0.4401
 2767SOL    HW119760   0.288   3.963   6.436  0.0342 -0.2829 -0.4950
 2767SOL    HW219761   0.414   3.879   6.437 -1.2281 -2.1386 -2.1419
 2768SOL     OW19762   2.964   4.152  14.027  0.3809  0.3720 -0.0963
 2768SOL    HW119763   2.991   4.191  13.944 -0.1170  0.2968 -0.2937
 2768SOL    HW219764   3.032   4.089  14.048  1.1814  0.1793 -3.2843
 2769SOL     OW19765   3.192   0.470   4.398 -0.3610 -0.2157  0.4996
 2769SOL    HW119766   3.237   0.456   4.481 -0.5829 -0.4606  0.5792
 2769SOL    HW219767   3.248   0.431   4.332 -0.9788  1.7969 -1.2213
 2770SOL     OW19768   3.089   3.782   7.669 -0.3975  0.0652 -0.2618
 2770SOL    HW119769   3.170   3.825   7.644  0.1794 -0.5568  0.5057
 2770SOL    HW219770   3.083   3.807   7.761 -2.8050 -0.8800 -0.1583
 2771SOL     OW19771   0.687   0.854   2.909 -0.0112  0.1865 -0.3278
 2771SOL    HW119772   0.734   0.827   2.830 -1.0443 -0.6267 -0.6686
 2771SOL    HW219773   0.608   0.892   2.872 -0.6227 -0.7174  0.0450
 2772SOL     OW19774   4.612   1.667  12.985  0.2689  0.0393 -0.2565
 2772SOL    HW119775   4.532   1.619  13.006  0.7821 -0.7874 -0.1869
 2772SOL    HW219776   4.596   1.705  12.899 -0.6608 -2.6247 -1.2772
 2773SOL     OW19777   1.910   3.305   1.514  0.2724 -0.0920 -0.1242
 2773SOL    HW119778   1.828   3.278   1.555  0.0806  2.0090  0.8881
 2773SOL    HW219779   1.910   3.396   1.542 -0.9521  0.0740 -0.6572
 2774SOL     OW19780   4.274   0.373   6.837  0.5847 -1.0200  0.1603
 2774SOL    HW119781   4.234   0.402   6.918  0.4485 -1.5428  0.2789
 2774SOL    HW219782   4.347   0.322   6.872  2.4504  0.4522 -1.5930
 2775SOL     OW19783   3.929   1.527   2.491 -0.7027 -0.0610 -0.2308
 2775SOL    HW119784   3.996   1.458   2.491 -0.9687 -0.3195 -0.7406
 2775SOL    HW219785   3.925   1.558   2.581  2.3661 -0.9763  0.2059
 2776SOL     OW19786   3.203   1.810   4.370  0.5626 -0.0673  0.0867
 2776SOL    HW119787   3.217   1.844   4.282  0.2455  1.5082  0.6506
 2776SOL    HW219788   3.165   1.888   4.409  0.2133 -0.5655  0.7456
 2777SOL     OW19789   2.714   3.743   6.234  1.0312 -0.2924  1.1200
 2777SOL    HW119790   2.695   3.649   6.237  0.3885 -0.3456 -3.4738
 2777SOL    HW219791   2.728   3.751   6.328  1.7123  2.3556  0.8079
 2778SOL     OW19792   3.839   2.264  14.919  0.2667 -0.3085  0.1511
 2778SOL    HW119793   3.782   2.307  14.982 -0.1803  0.5161 -0.8201
 2778SOL    HW219794   3.920   2.315  14.926  0.9209 -0.9540 -2.9115
 2779SOL     OW19795   2.816   1.591   9.429  0.3441 -0.2588  0.0284
 2779SOL    HW119796   2.807   1.496   9.438  0.6468 -0.2962 -0.0679
 2779SOL    HW219797   2.732   1.624   9.460  1.0811  0.4637  1.2397
 2780SOL     OW19798   4.505   3.537  11.294  0.3608 -0.9656 -0.5027
 2780SOL    HW119799   4.555   3.595  11.237 -1.8975  0.7345 -0.7629
 2780SOL    HW219800   4.571   3.518  11.361  0.0240 -1.7955 -0.4025
 2781SOL     OW19801   4.395   4.592   1.726  0.9498 -0.0791 -0.2132
 2781SOL    HW119802   4.399   4.560   1.816  1.9076 -1.1099 -0.6333
 2781SOL    HW219803   4.472   4.559   1.680  0.7882 -0.7833  0.0292
 2782SOL     OW19804   1.904   3.137   7.898  1.0949 -0.3274 -0.2040
 2782SOL    HW119805   1.913   3.232   7.903  1.9413 -0.2020 -4.1369
 2782SOL    HW219806   1.852   3.118   7.975  0.6192  0.6119 -0.2879
 2783SOL     OW19807   2.915   4.624   4.594 -0.1312  0.1835  0.1132
 2783SOL    HW119808   2.843   4.662   4.645 -0.7169 -0.7531 -0.0194
 2783SOL    HW219809   2.892   4.670   4.514  1.5036  0.1509 -0.3640
 2784SOL     OW19810   1.772   1.322   4.189 -0.0717 -0.1363 -0.0766
 2784SOL    HW119811   1.723   1.371   4.255 -0.5675  0.0250 -0.5615
 2784SOL    HW219812   1.751   1.232   4.215  0.6644 -0.4573 -0.5812
 2785SOL     OW19813   2.723   1.307   3.074  0.0683  0.4133 -0.3475
 2785SOL    HW119814   2.704   1.336   3.163  1.3766 -0.0898  0.0978
 2785SOL    HW219815   2.641   1.261   3.057  0.5204 -0.4529 -0.1672
 2786SOL     OW19816   0.705   3.011   3.828  0.2606 -0.1195 -0.1089
 2786SOL    HW119817   0.697   3.043   3.738  1.4787  2.1071  0.5779
 2786SOL    HW219818   0.760   2.934   3.811  0.8260  0.2891 -0.1198
 2787SOL     OW19819   1.084   3.961   7.812  0.2046 -0.3455  0.0430
 2787SOL    HW119820   1.091   3.990   7.903 -2.1519  1.7846 -0.4587
 2787SOL    HW219821   1.040   3.879   7.834 -1.5856  0.9003  1.1622
 2788SOL     OW19822   2.973   1.497  13.272 -0.0059  0.0254  0.2164
 2788SOL    HW119823   2.985   1.583  13.231 -1.0597  0.9065  1.7760
 2788SOL    HW219824   2.899   1.452  13.232  0.7329 -1.6580  0.7423
 2789SOL     OW19825   3.902   1.965  14.932 -0.2182 -0.1058 -0.1505
 2789SOL    HW119826   3.811   1.938  14.949 -0.1058  0.8122  1.8324
 2789SOL    HW219827   3.891   2.057  14.907 -2.0103 -0.8972 -2.3162
 2790SOL     OW19828   0.099   3.519   6.168  0.3128 -0.2602 -0.2436
 2790SOL    HW119829   0.174   3.539   6.113 -0.5602  2.2385 -0.5164
 2790SOL    HW219830   0.029   3.493   6.108 -0.0406 -0.8211  0.3998
 2791SOL     OW19831   1.356   3.986   5.419 -0.4145 -0.0028  0.5242
 2791SOL    HW119832   1.301   4.037   5.479 -0.9193 -0.9688  0.8771
 2791SOL    HW219833   1.288   3.936   5.375  0.2212 -1.3075  1.0275
 2792SOL     OW19834   1.283   1.049   1.124 -0.0878 -0.7906  0.1379
 2792SOL    HW119835   1.307   1.141   1.114 -1.7588 -0.0740  2.6074
 2792SOL    HW219836   1.358   1.008   1.167 -0.8097  0.3833  2.5674
 2793SOL     OW19837   3.572   3.971   8.548  0.0376 -0.1252 -0.5624
 2793SOL    HW119838   3.591   3.880   8.573 -1.4920  0.4650  2.6512
 2793SOL    HW219839   3.656   4.013   8.567  0.5611 -2.0748  1.5127
 2794SOL     OW19840   1.236   1.946   8.633 -0.5470 -0.5317  0.4741
 2794SOL    HW119841   1.214   1.864   8.589  0.5964 -0.5784 -0.0186
 2794SOL    HW219842   1.219   1.907   8.719  0.4461 -0.2770  0.7891
 2795SOL     OW19843   0.089   0.215   8.144  0.1360 -0.5068 -0.0098
 2795SOL    HW119844   0.048   0.302   8.134 -1.1665 -1.0506  0.6101
 2795SOL    HW219845   0.181   0.239   8.141 -0.3647  1.5603  0.6937
 2796SOL     OW19846   2.925   1.356  11.211 -0.4403 -0.6355 -0.7167
 2796SOL    HW119847   2.903   1.353  11.118  0.6304  1.6039 -1.0493
 2796SOL    HW219848   3.007   1.405  11.211 -0.1292 -1.1525 -1.2139
 2797SOL     OW19849   0.345   3.626   7.601  0.3388 -0.1575 -0.3069
 2797SOL    HW119850   0.354   3.638   7.507 -1.8543  1.1953 -0.3252
 2797SOL    HW219851   0.251   3.638   7.615  0.2720 -1.4065  0.3294
 2798SOL     OW19852   0.814   3.543   5.389 -0.8534  0.1046 -0.7593
 2798SOL    HW119853   0.727   3.530   5.351 -0.5631  0.1276 -1.4423
 2798SOL    HW219854   0.817   3.637   5.410 -3.1044  0.8685 -3.9179
 2799SOL     OW19855   4.094   1.693   6.973  0.0069 -0.4315  0.1798
 2799SOL    HW119856   4.030   1.719   7.039  0.0426  0.9718 -0.3461
 2799SOL    HW219857   4.174   1.690   7.025  0.6087  1.6311 -0.6274
 2800SOL     OW19858   4.318   3.974   2.989  0.2983  0.4299 -0.0807
 2800SOL    HW119859   4.316   3.998   3.081 -2.5255 -2.8394  0.6783
 2800SOL    HW219860   4.395   4.025   2.963 -0.0599  0.1037 -1.7800
 2801SOL     OW19861   1.940   3.573   1.563 -0.1775  0.3992  0.9373
 2801SOL    HW119862   2.004   3.561   1.634  1.0577  1.0979 -0.0540
 2801SOL    HW219863   1.986   3.639   1.511 -0.8765 -0.7350 -1.1446
 2802SOL     OW19864   1.968   1.777   5.959  0.1634 -0.3910  0.1455
 2802SOL    HW119865   2.054   1.811   5.984  0.6829 -0.6154 -1.3334
 2802SOL    HW219866   1.963   1.711   6.027 -0.2400 -1.7271 -1.1893
 2803SOL     OW19867   2.991   3.050   0.850  0.4567 -0.8434  0.5806
 2803SOL    HW119868   3.075   3.009   0.870  1.1483  0.5625  0.5491
 2803SOL    HW219869   2.955   2.969   0.813  2.6308 -1.3634 -0.3801
 2804SOL     OW19870   0.317   1.919   4.772  0.0462  0.2321  0.0141
 2804SOL    HW119871   0.374   1.993   4.792 -0.6281  0.1423  2.2076
 2804SOL    HW219872   0.355   1.852   4.829  2.7410  0.4754 -1.4948
 2805SOL     OW19873   1.368   3.484   2.245 -0.0750 -0.2527 -0.4223
 2805SOL    HW119874   1.415   3.431   2.181 -0.7105 -0.3123 -0.8427
 2805SOL    HW219875   1.279   3.453   2.226  0.7227 -1.4311 -2.3366
 2806SOL     OW19876   2.028   3.843  14.495  0.4407  0.1619 -0.1526
 2806SOL    HW119877   2.021   3.922  14.442 -2.0275  1.4458  2.0646
 2806SOL    HW219878   1.943   3.834  14.538  0.5291  0.0783  0.0015
 2807SOL     OW19879   4.620   3.139   3.623  0.2749  0.0114 -0.4585
 2807SOL    HW119880   4.524   3.140   3.619  0.3006 -2.0225 -1.7230
 2807SOL    HW219881   4.635   3.102   3.536 -0.0036 -0.7464 -0.1839
 2808SOL     OW19882   2.864   4.180   3.861 -0.1704 -0.2105  0.2890
 2808SOL    HW119883   2.903   4.120   3.798 -2.3201  0.0789 -1.3075
 2808SOL    HW219884   2.776   4.146   3.871 -0.5673  1.3926  2.2377
 2809SOL     OW19885   3.721   1.464   0.998 -0.7673 -0.0040 -0.1978
 2809SOL    HW119886   3.692   1.528   1.062  0.4499  1.5490 -1.2011
 2809SOL    HW219887   3.719   1.524   0.924 -0.1701  1.7051  1.1630
 2810SOL     OW19888   3.823   4.509   3.123 -0.6392 -0.1538 -0.1703
 2810SOL    HW119889   3.871   4.588   3.150  0.8393 -1.8749  2.2594
 2810SOL    HW219890   3.874   4.482   3.047  0.7776  1.0105  0.3698
 2811SOL     OW19891   4.329   1.087   9.320  0.3535 -0.0470  0.3139
 2811SOL    HW119892   4.305   1.066   9.411  0.0847 -0.6689  0.1032
 2811SOL    HW219893   4.370   1.008   9.284  1.4609  0.4546  0.4702
 2812SOL     OW19894   3.146   2.933  16.224 -0.0508 -0.9257 -0.1433
 2812SOL    HW119895   3.093   3.012  16.237 -2.3411 -1.9966 -2.7361
 2812SOL    HW219896   3.096   2.888  16.156 -0.0280  0.5541 -1.1331
 2813SOL     OW19897   1.031   1.555   6.302  0.0678 -0.0430  0.1034
 2813SOL    HW119898   1.046   1.631   6.357  1.4694 -0.6671  0.5918
 2813SOL    HW219899   1.111   1.554   6.249 -0.8399  0.1167 -1.2966
 2814SOL     OW19900   3.875   1.897   5.983 -0.6432  0.5707 -0.5106
 2814SOL    HW119901   3.950   1.927   6.033 -0.2214  2.0020 -2.0059
 2814SOL    HW219902   3.880   1.803   5.967 -3.5345  0.4858 -0.8891
 2815SOL     OW19903   2.398   3.033  16.795  0.4679 -0.0282  0.0601
 2815SOL    HW119904   2.406   2.951  16.746  0.8397 -0.5584  0.9996
 2815SOL    HW219905   2.468   3.015  16.859  1.1656  0.1455 -0.6649
 2816SOL     OW19906   4.651   2.471  17.589 -0.6323  0.0413  0.7347
 2816SOL    HW119907   4.693   2.471  17.503 -0.2520  0.1564  0.9224
 2816SOL    HW219908   4.695   2.549  17.623 -0.5050  0.6632 -0.8152
 2817SOL     OW19909   4.279   2.202   5.240 -0.3966  0.8172  0.0958
 2817SOL    HW119910   4.221   2.277   5.255  1.5201  2.6777 -1.7904
 2817SOL    HW219911   4.228   2.128   5.271  0.6451  0.0254 -0.0960
 2818SOL     OW19912   2.331   3.529   5.301 -0.3627 -0.2147 -0.4557
 2818SOL    HW119913   2.426   3.535   5.297 -0.3613  0.0596 -0.0727
 2818SOL    HW219914   2.319   3.486   5.386  2.7899 -0.2849 -0.0399
 2819SOL     OW19915   3.350   4.382   4.262 -0.2912 -0.4508  0.0384
 2819SOL    HW119916   3.440   4.413   4.248 -0.5890  0.0329 -0.7655
 2819SOL    HW219917   3.301   4.445   4.209  1.4964 -1.3499 -2.6890
 2820SOL     OW19918   4.690   0.892   2.320 -0.2590 -0.3398  0.0541
 2820SOL    HW119919   4.682   0.942   2.239 -0.9264 -0.3882  0.0922
 2820SOL    HW219920   0.027   0.824   2.289 -1.2445 -1.1450 -0.1196
 2821SOL     OW19921   1.254   3.845   6.264 -0.8945 -0.4741 -0.2000
 2821SOL    HW119922   1.312   3.844   6.340 -1.1693 -0.4808  0.0099
 2821SOL    HW219923   1.271   3.932   6.228  2.4079 -0.3594  1.6390
 2822SOL     OW19924   0.373   4.622  14.375  0.7701 -0.5878 -0.3841
 2822SOL    HW119925   0.376   4.581  14.462  1.2342 -0.8808 -0.5394
 2822SOL    HW219926   0.310   4.688  14.404  1.6008 -0.1471  0.4426
 2823SOL     OW19927   2.867   3.570  11.813 -0.4246  0.4378 -0.3156
 2823SOL    HW119928   2.877   3.654  11.857  3.0322 -0.1834  0.1207
 2823SOL    HW219929   2.776   3.551  11.835 -0.6242 -0.1507 -1.6272
 2824SOL     OW19930   1.587   0.519   7.594 -0.4413  0.2043 -0.2257
 2824SOL    HW119931   1.629   0.549   7.513 -0.2798  1.2925  0.2658
 2824SOL    HW219932   1.554   0.602   7.628 -0.6480 -0.0234  0.1287
 2825SOL     OW19933   2.851   3.808  11.977  0.0098 -0.1805 -0.0603
 2825SOL    HW119934   2.763   3.840  11.995 -0.0095 -0.3971  0.2225
 2825SOL    HW219935   2.867   3.746  12.048 -0.0894  0.8592  0.8741
 2826SOL     OW19936   0.689   2.599   5.691 -0.3537  0.6055 -0.0564
 2826SOL    HW119937   0.710   2.584   5.599  1.4703 -0.0256  0.4628
 2826SOL    HW219938   0.747   2.675   5.700  0.2745  0.4455 -2.7298
 2827SOL     OW19939   3.952   1.870   4.398 -0.5433 -0.0403 -0.4186
 2827SOL    HW119940   4.018   1.932   4.428  2.0128 -1.6175 -2.8070
 2827SOL    HW219941   3.940   1.912   4.313  0.9364  1.3471  0.0608
 2828SOL     OW19942   2.670   0.861   7.375  0.6510  0.0063 -0.2821
 2828SOL    HW119943   2.679   0.787   7.315 -1.6501 -1.5506  1.2940
 2828SOL    HW219944   2.753   0.851   7.422  0.5323 -0.2592 -0.1250
 2829SOL     OW19945   3.361   0.518  15.458 -0.0519 -0.1173 -0.0528
 2829SOL    HW119946   3.289   0.504  15.395 -1.0151 -0.9998  1.2324
 2829SOL    HW219947   3.412   0.437  15.453 -0.7418 -0.5579 -0.1218
 2830SOL     OW19948   4.029   0.748   4.493 -0.2091 -0.0232  1.0259
 2830SOL    HW119949   4.088   0.818   4.522 -0.6554  0.2088  1.3717
 2830SOL    HW219950   3.990   0.718   4.575 -2.6920  0.2011 -0.0912
 2831SOL     OW19951   4.389   1.857   5.483 -0.1431  0.1032  0.3456
 2831SOL    HW119952   4.303   1.826   5.456  0.1737 -1.0900  0.7231
 2831SOL    HW219953   4.406   1.904   5.401  1.7368 -1.5576 -0.2171
 2832SOL     OW19954   0.348   1.082   7.951 -0.1300  0.4839  0.5363
 2832SOL    HW119955   0.440   1.055   7.947 -1.1692 -3.2479  1.7802
 2832SOL    HW219956   0.354   1.136   8.030 -0.7201  0.9755  0.2415
 2833SOL     OW19957   1.226   2.062   7.985 -0.2640 -0.5435  0.6182
 2833SOL    HW119958   1.250   2.138   8.038  2.3547  1.1612 -3.0947
 2833SOL    HW219959   1.265   2.084   7.901  0.3874 -0.7920  0.8562
 2834SOL     OW19960   2.887   2.404   1.863  0.0413  0.5936  0.1354
 2834SOL    HW119961   2.970   2.403   1.909  0.8930 -1.3276 -1.4268
 2834SOL    HW219962   2.831   2.376   1.935  0.4528  3.5876  1.6337
 2835SOL     OW19963   1.915   4.393   7.886 -0.0449  0.4394  0.1955
 2835SOL    HW119964   1.916   4.432   7.799 -0.2751  0.4643  0.2042
 2835SOL    HW219965   1.831   4.348   7.884  0.2033 -0.0994  1.5748
 2836SOL     OW19966   1.662   0.467   4.157  0.2969 -0.4237  0.2626
 2836SOL    HW119967   1.751   0.462   4.194 -0.2205  1.1444  1.7104
 2836SOL    HW219968   1.606   0.441   4.230  0.2045 -1.3568 -0.1386
 2837SOL     OW19969   3.269   3.996   6.058  0.2228 -0.1020 -0.2102
 2837SOL    HW119970   3.187   3.949   6.071 -0.3372  0.6958 -0.9008
 2837SOL    HW219971   3.256   4.048   6.138  0.1210 -2.0228  1.0273
 2838SOL     OW19972   2.007   0.279   7.023  0.4376  0.6177  0.2443
 2838SOL    HW119973   2.022   0.223   6.947 -2.0710 -0.1729  0.3064
 2838SOL    HW219974   1.928   0.239   7.059  0.5103 -0.0051 -0.2821
 2839SOL     OW19975   2.756   2.600  14.318 -0.6230  0.0080 -0.3832
 2839SOL    HW119976   2.666   2.609  14.287 -0.2971 -0.6885 -1.5684
 2839SOL    HW219977   2.799   2.582  14.234 -3.3613 -1.5194 -1.4608
 2840SOL     OW19978   1.919   3.296  12.155 -0.6936  0.7398  0.8593
 2840SOL    HW119979   1.947   3.308  12.064  2.4836  1.8690  1.9930
 2840SOL    HW219980   1.860   3.221  12.155  0.5912 -0.2609  1.2393
 2841SOL     OW19981   0.032   1.500   8.202 -0.7401 -0.6837 -0.1706
 2841SOL    HW119982   0.061   1.545   8.123 -1.5184  0.4239  0.1589
 2841SOL    HW219983   4.661   1.516   8.199 -0.3037  2.1031  0.6203
 2842SOL     OW19984   3.795   1.258  14.990  0.4303 -0.1445  0.3360
 2842SOL    HW119985   3.783   1.213  15.073 -0.5429 -2.2245 -0.9176
 2842SOL    HW219986   3.709   1.300  14.988  0.2634 -0.4076  2.0703
 2843SOL     OW19987   1.214   2.698  10.346 -0.3534  0.5711 -0.5840
 2843SOL    HW119988   1.222   2.629  10.281 -0.3860 -1.8791  2.0142
 2843SOL    HW219989   1.138   2.658  10.390  1.0102 -0.6285  0.6520
 2844SOL     OW19990   0.610   2.539   4.607  0.9456 -0.5347  0.0654
 2844SOL    HW119991   0.693   2.585   4.601  0.8627 -0.3097  0.6508
 2844SOL    HW219992   0.555   2.592   4.664  1.5743 -0.7729  0.8869
 2845SOL     OW19993   2.145   0.431   7.345 -0.3370 -0.2515 -0.1071
 2845SOL    HW119994   2.086   0.360   7.318 -1.0956 -0.4146  1.9780
 2845SOL    HW219995   2.133   0.484   7.266  0.4059 -2.0500 -1.4330
 2846SOL     OW19996   0.305   2.666   6.413 -0.0372  0.8377 -0.1900
 2846SOL    HW119997   0.312   2.579   6.374 -1.1095  0.5624  0.2374
 2846SOL    HW219998   0.292   2.724   6.338 -1.0098  0.9594  0.0741
 2847SOL     OW19999   4.704   2.098   7.739  0.2464 -0.0835  0.0995
 2847SOL    HW120000   0.066   2.133   7.760  0.5238 -1.5827  1.4467
 2847SOL    HW220001   0.020   2.036   7.679  1.1786  0.2745  0.3528
 2848SOL     OW20002   0.681   2.551   7.923 -0.3026 -0.0769 -0.1049
 2848SOL    HW120003   0.656   2.573   7.833 -1.5989 -1.5683 -0.0899
 2848SOL    HW220004   0.643   2.464   7.922  0.8755 -0.5811 -1.4299
 2849SOL     OW20005   1.800   1.636   7.596 -0.5344  0.1194 -0.1305
 2849SOL    HW120006   1.826   1.655   7.686  0.5787 -0.6230 -0.3035
 2849SOL    HW220007   1.860   1.691   7.545 -0.8184  1.9672  1.4951
 2850SOL     OW20008   2.758   3.942  16.259 -0.0883 -0.2460 -0.3545
 2850SOL    HW120009   2.706   3.887  16.319 -1.6411  1.2664 -0.3216
 2850SOL    HW220010   2.696   4.015  16.251  0.4818  0.4047  1.1879
 2851SOL     OW20011   2.263   0.475   2.831 -0.5803  0.0234 -0.5712
 2851SOL    HW120012   2.294   0.385   2.822  0.2943  0.2256  0.4829
 2851SOL    HW220013   2.296   0.493   2.919  1.1880 -2.6951 -0.6807
 2852SOL     OW20014   2.028   4.212   0.333  0.6741  0.3556  0.8542
 2852SOL    HW120015   2.051   4.119   0.333  0.6307  0.3293  2.4436
 2852SOL    HW220016   1.932   4.203   0.331  1.0456 -3.2592 -0.6165
 2853SOL     OW20017   4.397   2.150   5.011 -0.5641 -0.2934  0.0285
 2853SOL    HW120018   4.385   2.170   5.104 -1.3202 -1.2444  0.1325
 2853SOL    HW220019   4.400   2.236   4.970 -0.3107 -0.8518 -1.1172
 2854SOL     OW20020   0.056   4.502   4.090 -0.1094  0.2046  0.4962
 2854SOL    HW120021   0.051   4.587   4.134  1.9083 -0.4397  1.9655
 2854SOL    HW220022   4.691   4.481   4.062 -0.1363  1.0049 -0.0295
 2855SOL     OW20023   0.672   0.688   2.073 -0.3334 -0.0470 -0.0028
 2855SOL    HW120024   0.631   0.602   2.081  1.9406 -1.2331 -0.8936
 2855SOL    HW220025   0.596   0.746   2.081  0.4198  0.7978  1.0167
 2856SOL     OW20026   0.621   2.077   5.617 -0.3381  0.5738 -0.2410
 2856SOL    HW120027   0.540   2.098   5.665  0.3390 -0.6880  1.4702
 2856SOL    HW220028   0.672   2.047   5.692 -1.3629  2.0601  1.0378
 2857SOL     OW20029   1.048   0.579   7.660  0.4022 -0.4137 -0.4700
 2857SOL    HW120030   1.129   0.529   7.670 -1.1682 -2.5216  2.0237
 2857SOL    HW220031   1.086   0.653   7.613 -0.7502 -0.1664 -1.0125
 2858SOL     OW20032   2.773   0.189  11.204  0.0529  0.2675 -0.0696
 2858SOL    HW120033   2.707   0.120  11.195  0.3295 -0.0603  0.4381
 2858SOL    HW220034   2.844   0.131  11.230  0.7854  1.8504  1.5142
 2859SOL     OW20035   2.354   2.956   0.634  0.5473  0.3041  0.0715
 2859SOL    HW120036   2.306   2.900   0.573 -1.6544 -0.0155  2.0864
 2859SOL    HW220037   2.363   2.896   0.708 -0.6061 -0.1012 -0.1223
 2860SOL     OW20038   0.258   2.664   2.781 -0.3811  0.2653 -0.2967
 2860SOL    HW120039   0.171   2.703   2.780 -1.4353 -2.0577 -0.2304
 2860SOL    HW220040   0.263   2.659   2.685 -0.4834 -1.2188 -0.2216
 2861SOL     OW20041   2.585   4.703   4.022 -0.2568  0.3822 -0.3131
 2861SOL    HW120042   2.510   4.678   3.968  0.4333 -0.7681 -0.7358
 2861SOL    HW220043   2.640   4.624   4.021 -0.4922  0.1910  1.4592
 2862SOL     OW20044   2.758   3.101   5.565 -0.0989  0.7367 -0.3144
 2862SOL    HW120045   2.667   3.124   5.584 -0.6959 -1.7033 -0.2186
 2862SOL    HW220046   2.796   3.189   5.557 -1.8722  1.6758  1.6761
 2863SOL     OW20047   3.018   0.573   3.367 -0.2535 -0.0399  0.0695
 2863SOL    HW120048   2.979   0.559   3.281 -1.3554 -2.0078  0.8917
 2863SOL    HW220049   2.970   0.516   3.426 -0.7835 -1.8991 -2.1600
 2864SOL     OW20050   3.476   2.936   2.762 -0.0789 -0.4281 -0.1943
 2864SOL    HW120051   3.459   2.890   2.844 -2.2828  2.4385  0.9948
 2864SOL    HW220052   3.440   3.021   2.787  1.0011 -0.6497  2.0472
 2865SOL     OW20053   1.976   1.853  11.386  0.6892 -0.1521 -0.0205
 2865SOL    HW120054   1.917   1.922  11.354  0.9173  0.5515  1.0996
 2865SOL    HW220055   1.983   1.888  11.474 -0.8741  0.0708  0.0094
 2866SOL     OW20056   2.060   1.616   9.708 -0.2904  0.0736  0.0066
 2866SOL    HW120057   2.069   1.645   9.618  1.4449  1.9650  0.7939
 2866SOL    HW220058   2.028   1.695   9.752 -3.0952  1.1485 -4.0011
 2867SOL     OW20059   3.662   3.386  11.110 -0.0703 -0.0111 -0.2078
 2867SOL    HW120060   3.736   3.433  11.071  1.8563 -2.7010  0.1724
 2867SOL    HW220061   3.673   3.298  11.074  1.5089  1.0554 -2.3091
 2868SOL     OW20062   3.155   0.949   5.235 -0.3546 -0.1892  0.2317
 2868SOL    HW120063   3.186   1.039   5.247 -0.0717 -0.5372  2.2522
 2868SOL    HW220064   3.178   0.904   5.317  2.0385 -0.1260 -0.4116
 2869SOL     OW20065   4.690   4.621   4.404 -0.2310  0.0270  0.5534
 2869SOL    HW120066   4.658   4.538   4.368 -1.5225  1.1955 -1.0084
 2869SOL    HW220067   4.699   4.676   4.327  0.8116 -0.2562  0.4776
 2870SOL     OW20068   3.534   2.848   3.881 -0.0779  0.1223  0.3854
 2870SOL    HW120069   3.605   2.896   3.923  0.7509  0.9939 -2.0174
 2870SOL    HW220070   3.573   2.765   3.852  0.0981  1.0451 -1.9996
 2871SOL     OW20071   0.316   0.114   4.598 -0.0263  0.6828 -0.1134
 2871SOL    HW120072   0.407   0.083   4.596  0.6676  2.5804  1.7410
 2871SOL    HW220073   0.302   0.122   4.692 -0.4113  1.3498 -0.2279
 2872SOL     OW20074   4.663   0.428   8.077  0.3002  0.0443 -0.2448
 2872SOL    HW120075   4.680   0.475   7.996 -2.6799 -0.0749 -0.9256
 2872SOL    HW220076   4.598   0.485   8.118 -1.3700 -0.7379 -1.8277
 2873SOL     OW20077   0.421   2.562   1.252 -0.7508 -0.2292 -0.4612
 2873SOL    HW120078   0.491   2.503   1.225 -1.7014 -1.0968 -0.9946
 2873SOL    HW220079   0.340   2.516   1.232 -0.5396  0.5370 -3.0418
 2874SOL     OW20080   3.581   2.334   7.656 -0.2067  0.1256 -0.2796
 2874SOL    HW120081   3.573   2.368   7.745 -0.8422 -1.2670  0.1991
 2874SOL    HW220082   3.672   2.315   7.633 -0.2279  0.0598 -0.3079
 2875SOL     OW20083   3.252   4.033  10.035  0.0831 -0.0527  0.5285
 2875SOL    HW120084   3.312   4.077  10.095  0.0595 -0.5191  0.8950
 2875SOL    HW220085   3.311   4.035   9.960 -1.7554  3.0869 -0.8122
 2876SOL     OW20086   0.260   3.024   5.856  0.2021  0.1828 -0.0829
 2876SOL    HW120087   0.273   2.934   5.885 -3.2092 -0.5227 -0.7748
 2876SOL    HW220088   0.201   3.025   5.780 -1.1667  0.6285  0.9737
 2877SOL     OW20089   3.641   3.525   3.323  0.2739 -0.2190 -0.3764
 2877SOL    HW120090   3.593   3.501   3.402  0.0175 -0.7298 -0.6827
 2877SOL    HW220091   3.578   3.590   3.292  0.5008 -0.6256 -1.6956
 2878SOL     OW20092   3.298   0.320   7.102  0.4220  0.6893  0.6335
 2878SOL    HW120093   3.280   0.231   7.072  1.6550  1.0883 -1.3094
 2878SOL    HW220094   3.309   0.314   7.197  1.5707 -0.6834  0.4150
 2879SOL     OW20095   1.658   2.273  15.239  0.2486  0.3472  0.5017
 2879SOL    HW120096   1.672   2.254  15.331  0.8658 -0.0051  0.3371
 2879SOL    HW220097   1.742   2.247  15.201  0.3244 -0.0491  0.9396
 2880SOL     OW20098   1.085   4.327   4.396 -0.3276 -0.1840 -0.1838
 2880SOL    HW120099   1.048   4.303   4.311 -0.0301  0.6082 -0.5473
 2880SOL    HW220100   1.007   4.312   4.448  0.9814  0.5227  1.9831
 2881SOL     OW20101   0.927   3.455  14.205  0.3492  0.0304  0.2827
 2881SOL    HW120102   0.839   3.420  14.196  0.3921  0.3385 -1.3960
 2881SOL    HW220103   0.966   3.397  14.139 -0.0897 -1.7394  1.5920
 2882SOL     OW20104   3.153   3.222   3.795 -0.4613 -0.1325  0.6355
 2882SOL    HW120105   3.197   3.145   3.760  1.9180  0.4663  2.2775
 2882SOL    HW220106   3.129   3.191   3.883  5.4744 -2.2320  1.5106
 2883SOL     OW20107   3.345   1.369   8.222 -0.0405  0.2276 -0.3679
 2883SOL    HW120108   3.306   1.456   8.217  0.6840  0.5970  0.6646
 2883SOL    HW220109   3.366   1.367   8.315 -1.7724 -2.2105 -0.0168
 2884SOL     OW20110   2.463   4.637  10.098  0.1379  0.2584 -0.0579
 2884SOL    HW120111   2.416   4.590  10.167 -0.3773 -0.1146 -0.6699
 2884SOL    HW220112   2.498   4.710  10.150  0.2375  0.8341 -0.9475
 2885SOL     OW20113   1.077   1.134   0.954  0.4863  0.0627 -0.6719
 2885SOL    HW120114   1.143   1.128   1.024 -0.4718  2.0100  0.3822
 2885SOL    HW220115   1.007   1.181   0.998  0.6684 -0.8256  0.5924
 2886SOL     OW20116   0.417   1.579  15.992 -0.1020  0.3229  0.2306
 2886SOL    HW120117   0.486   1.564  15.927  0.3406  1.1318  0.5063
 2886SOL    HW220118   0.436   1.519  16.064  0.7133 -0.0588 -0.2931
 2887SOL     OW20119   3.355   2.411   2.109  0.0703  0.7593  0.6067
 2887SOL    HW120120   3.333   2.458   2.189  0.4159  0.4972  0.8523
 2887SOL    HW220121   3.442   2.445   2.088 -0.1682  0.0306 -1.6351
 2888SOL     OW20122   1.859   3.707   2.198 -0.0687 -0.4802  0.3566
 2888SOL    HW120123   1.909   3.713   2.117  0.2777 -2.4783  0.4391
 2888SOL    HW220124   1.784   3.766   2.184  2.0625  1.5248 -2.4865
 2889SOL     OW20125   0.343   1.823  14.203 -0.5271 -0.7397  0.1411
 2889SOL    HW120126   0.339   1.888  14.274 -0.7319 -2.7817  1.9767
 2889SOL    HW220127   0.382   1.751  14.252 -1.5340 -0.1295  1.8510
 2890SOL     OW20128   3.403   0.902   1.647  0.5129 -0.1591  0.5454
 2890SOL    HW120129   3.309   0.912   1.632  0.1009 -3.0757  1.1256
 2890SOL    HW220130   3.419   0.993   1.671 -0.0179  0.7228 -2.5016
 2891SOL     OW20131   2.510   1.819   5.534 -0.7785 -0.2364  0.5146
 2891SOL    HW120132   2.547   1.884   5.474 -0.4538 -0.6674  0.2480
 2891SOL    HW220133   2.422   1.853   5.547 -0.7712  0.4363 -1.1478
 2892SOL     OW20134   2.757   2.833   0.271  0.1720  0.0101 -0.0530
 2892SOL    HW120135   2.734   2.818   0.363  0.5930 -0.4919 -0.0314
 2892SOL    HW220136   2.775   2.927   0.266 -0.6934  0.3396  3.0611
 2893SOL     OW20137   4.277   1.550   7.454 -0.1277 -0.3163 -0.1624
 2893SOL    HW120138   4.265   1.541   7.549 -1.0062 -1.0493 -0.3424
 2893SOL    HW220139   4.287   1.461   7.423  1.3053  0.2580 -1.3338
 2894SOL     OW20140   3.318   2.376   6.664  0.3370  0.6797  0.0976
 2894SOL    HW120141   3.367   2.294   6.679 -1.6809 -0.2311  1.7676
 2894SOL    HW220142   3.387   2.433   6.631  0.9036  0.3577  0.7053
 2895SOL     OW20143   1.414   4.596  12.698 -0.2088  0.0356 -0.5188
 2895SOL    HW120144   1.508   4.604  12.715 -0.7075 -0.4833  2.4095
 2895SOL    HW220145   1.386   4.511  12.733  1.4168  0.9605  3.0208
 2896SOL     OW20146   2.201   3.302   7.671 -0.7856  0.6637 -0.0914
 2896SOL    HW120147   2.185   3.386   7.715  1.1477  0.5050  0.9370
 2896SOL    HW220148   2.235   3.252   7.745  0.1023  1.0433 -0.2380
 2897SOL     OW20149   2.849   2.912   7.939  0.3863 -0.4437  0.2092
 2897SOL    HW120150   2.817   2.830   7.901  0.0406 -0.6649  0.9810
 2897SOL    HW220151   2.891   2.874   8.015  1.7112  0.0229 -0.2857
 2898SOL     OW20152   1.600   0.183   6.760  0.1524  0.0591 -0.1243
 2898SOL    HW120153   1.550   0.216   6.684  0.0418 -2.3037 -1.0658
 2898SOL    HW220154   1.524   0.147   6.805  1.5477 -2.5312  0.1256
 2899SOL     OW20155   0.310   4.640  12.983  0.0333 -0.0529 -0.5426
 2899SOL    HW120156   0.257   4.631  12.904  0.6248 -3.9633 -0.4690
 2899SOL    HW220157   0.325   0.010  12.972 -1.5490  0.2979  0.2811
 2900SOL     OW20158   1.504   2.836  11.078 -0.1268 -0.0250  0.0790
 2900SOL    HW120159   1.455   2.761  11.112  0.1705  0.4325  1.5133
 2900SOL    HW220160   1.595   2.807  11.082 -0.3028 -0.6100 -0.2038
 2901SOL     OW20161   0.465   2.420   6.972 -0.1383 -0.0346  0.1463
 2901SOL    HW120162   0.406   2.417   6.897  0.4083 -1.7033 -0.2080
 2901SOL    HW220163   0.432   2.345   7.022  0.2438 -1.0256 -1.1037
 2902SOL     OW20164   2.710   2.443  10.111  0.2036  0.1535  0.2317
 2902SOL    HW120165   2.801   2.465  10.094 -0.0683  0.1499 -1.1825
 2902SOL    HW220166   2.677   2.470  10.026  0.0572  0.6839  0.4532
 2903SOL     OW20167   2.190   1.265   2.264 -0.0367 -0.5410  0.4996
 2903SOL    HW120168   2.233   1.258   2.178 -0.5223 -0.4583  0.2469
 2903SOL    HW220169   2.164   1.357   2.262  0.6567 -0.3470  0.0698
 2904SOL     OW20170   0.053   3.596   3.942 -0.7115 -0.1061 -0.1950
 2904SOL    HW120171   0.136   3.639   3.923 -1.3792  1.5166  0.5805
 2904SOL    HW220172   0.067   3.510   3.901  2.0828 -0.9542  2.5819
 2905SOL     OW20173   3.847   2.979   2.319  0.6802 -0.2794  0.2615
 2905SOL    HW120174   3.909   2.992   2.391  1.3546 -1.9828 -0.0140
 2905SOL    HW220175   3.794   3.057   2.334  0.1574 -0.4829 -0.5120
 2906SOL     OW20176   0.183   0.561   7.366 -0.4298  0.1446  0.0302
 2906SOL    HW120177   0.269   0.521   7.376 -0.8677 -0.7760  0.0830
 2906SOL    HW220178   0.203   0.654   7.378  1.8685  0.0495 -3.1394
 2907SOL     OW20179   3.228   0.006   6.338  0.3085  0.3859 -0.0823
 2907SOL    HW120180   3.323   4.721   6.347  0.1783 -3.1119 -2.3207
 2907SOL    HW220181   3.214   0.093   6.300 -1.2241  1.5323  3.0448
 2908SOL     OW20182   0.916   2.079  12.482 -0.0361  0.4396  0.1398
 2908SOL    HW120183   0.852   2.011  12.503 -1.1320  1.9505  1.6365
 2908SOL    HW220184   0.974   2.029  12.426  0.4648  1.4050 -0.2075
 2909SOL     OW20185   3.915   0.059   3.066 -0.1774  0.4607  0.0499
 2909SOL    HW120186   3.866   0.069   2.985  0.3381  0.2492 -0.2847
 2909SOL    HW220187   4.006   0.074   3.042 -0.6044 -0.6424 -2.2600
 2910SOL     OW20188   3.374   4.550   0.385 -0.1614  0.1637  0.1983
 2910SOL    HW120189   3.375   4.646   0.385  0.6435  0.1452 -0.3376
 2910SOL    HW220190   3.381   4.548   0.481  1.8975  1.2016  0.0594
 2911SOL     OW20191   1.530   3.549   5.683 -0.0781  0.1244 -0.9182
 2911SOL    HW120192   1.512   3.463   5.646 -1.8272  0.6446 -1.2517
 2911SOL    HW220193   1.470   3.546   5.757 -1.7713  1.1972 -2.2412
 2912SOL     OW20194   1.824   3.225  15.610  0.1398  0.4788 -0.4334
 2912SOL    HW120195   1.847   3.147  15.661 -1.5160 -0.2323 -0.7521
 2912SOL    HW220196   1.834   3.300  15.670 -0.2327  0.1925 -0.0077
 2913SOL     OW20197   1.575   3.601  15.852  0.1720  0.1782 -0.2483
 2913SOL    HW120198   1.595   3.615  15.944  1.2881 -1.0200 -0.3034
 2913SOL    HW220199   1.664   3.598  15.818  0.5568  1.3286  0.6701
 2914SOL     OW20200   0.905   0.690   8.339 -0.1280  0.0562  0.0343
 2914SOL    HW120201   0.831   0.748   8.359  0.9587  1.0481  1.2270
 2914SOL    HW220202   0.859   0.607   8.331 -1.4008  0.7739 -0.1216
 2915SOL     OW20203   1.143   1.497   0.113  0.1376  0.3473  0.1645
 2915SOL    HW120204   1.079   1.463   0.175 -1.9676  0.0817 -2.1403
 2915SOL    HW220205   1.226   1.494   0.160 -0.3506  3.4014  1.2370
 2916SOL     OW20206   3.122   0.390   6.866  0.2947 -0.2587 -0.7806
 2916SOL    HW120207   3.214   0.397   6.892 -0.4264 -0.3715  1.8315
 2916SOL    HW220208   3.097   0.298   6.860  0.1808 -0.4022  2.1549
 2917SOL     OW20209   0.507   0.401   4.599  0.2197 -0.4193  0.2469
 2917SOL    HW120210   0.516   0.305   4.599 -0.5065 -0.4826  3.0917
 2917SOL    HW220211   0.421   0.409   4.640  0.3515  3.6621 -0.2916
 2918SOL     OW20212   2.789   0.578   8.750  0.6596 -0.1586 -0.2902
 2918SOL    HW120213   2.750   0.575   8.663  1.3762  0.5674 -0.6368
 2918SOL    HW220214   2.834   0.493   8.752 -0.5742 -0.7637  2.6186
 2919SOL     OW20215   2.424   4.333  10.509  0.4545  0.0470 -0.6147
 2919SOL    HW120216   2.433   4.422  10.543 -0.6280 -0.1729  0.2603
 2919SOL    HW220217   2.507   4.296  10.540 -1.1342 -4.1591 -1.4241
 2920SOL     OW20218   2.222   2.084   4.693 -0.0526 -0.2685  0.1647
 2920SOL    HW120219   2.202   2.177   4.702 -2.3784 -0.7361 -0.1228
 2920SOL    HW220220   2.254   2.051   4.777  1.5870  1.5016  0.2248
 2921SOL     OW20221   4.414   2.905   3.319 -0.4819 -0.4409  0.9163
 2921SOL    HW120222   4.471   2.970   3.278 -0.1297 -0.6678  1.0438
 2921SOL    HW220223   4.361   2.874   3.246  1.1373 -0.7410 -0.1548
 2922SOL     OW20224   1.047   1.600   7.137 -0.2601  0.2362  0.0847
 2922SOL    HW120225   1.107   1.673   7.121  1.1167 -1.0282 -0.5257
 2922SOL    HW220226   1.027   1.621   7.228 -0.2846 -1.7497  0.5334
 2923SOL     OW20227   0.739   2.307   5.542 -0.3495 -0.1969 -0.2119
 2923SOL    HW120228   0.719   2.214   5.557 -1.8241  0.4284  1.7323
 2923SOL    HW220229   0.729   2.340   5.632  0.3186 -0.6173  0.0220
 2924SOL     OW20230   0.808   0.910  10.271 -0.0445  0.4714 -0.3960
 2924SOL    HW120231   0.816   0.998  10.310  0.3636  0.8571 -1.3526
 2924SOL    HW220232   0.900   0.886  10.261  0.7338  2.7635  1.0423
 2925SOL     OW20233   4.651   1.184   9.310  0.4057 -0.4291 -0.3171
 2925SOL    HW120234   4.673   1.207   9.220  1.2180 -0.7792 -0.2036
 2925SOL    HW220235   4.567   1.229   9.320 -0.8921 -2.7738 -0.4730
 2926SOL     OW20236   0.138   4.409  14.661  0.4709 -0.6444 -0.1825
 2926SOL    HW120237   0.119   4.320  14.632 -0.3488 -0.7311  0.6493
 2926SOL    HW220238   0.054   4.454  14.664  1.4744  1.2245  0.0271
 2927SOL     OW20239   2.848   3.431   3.471  0.0888 -0.1115 -0.3583
 2927SOL    HW120240   2.857   3.519   3.433 -0.1136  0.3792  0.7491
 2927SOL    HW220241   2.924   3.438   3.529 -0.9967 -0.6021  1.1066
 2928SOL     OW20242   2.980   0.690   4.445  0.1314 -0.3121 -0.2550
 2928SOL    HW120243   3.071   0.698   4.416  0.6720 -1.3994  1.1073
 2928SOL    HW220244   2.926   0.698   4.366 -0.0728 -3.1445 -0.4302
 2929SOL     OW20245   1.984   2.296   1.850  0.1324  0.0803  0.4997
 2929SOL    HW120246   1.911   2.340   1.807 -0.3563  0.6190  1.8665
 2929SOL    HW220247   2.055   2.357   1.833 -0.2334  0.5631  0.7128
 2930SOL     OW20248   1.792   4.211   9.099 -0.3425 -0.5087  0.5697
 2930SOL    HW120249   1.766   4.156   9.025 -0.3769  0.8672 -0.4438
 2930SOL    HW220250   1.746   4.176   9.176 -0.4562  2.5997  1.9477
 2931SOL     OW20251   3.690   3.595  17.116 -0.5818  0.2891  0.3753
 2931SOL    HW120252   3.711   3.619  17.207 -0.6457  0.9942  0.1978
 2931SOL    HW220253   3.602   3.628  17.099 -0.8469  0.1224  1.4281
 2932SOL     OW20254   2.933   4.520  12.148 -0.1469  0.5651 -0.6334
 2932SOL    HW120255   2.907   4.510  12.240  1.9943 -1.6732 -0.2726
 2932SOL    HW220256   3.027   4.536  12.148  0.0737 -0.8105  1.0650
 2933SOL     OW20257   4.427   4.220   6.681 -0.1715  0.0488  0.8850
 2933SOL    HW120258   4.489   4.222   6.753 -1.0805  0.6449  1.6631
 2933SOL    HW220259   4.469   4.158   6.621 -2.8445 -1.4653  0.5667
 2934SOL     OW20260   1.245   2.743   4.598 -0.0686 -0.0009  0.3748
 2934SOL    HW120261   1.315   2.759   4.661  1.0756  1.3743 -1.2383
 2934SOL    HW220262   1.233   2.648   4.604  0.8940 -0.3179 -2.4524
 2935SOL     OW20263   0.173   1.554   6.137 -0.1753  0.7317 -0.0257
 2935SOL    HW120264   0.149   1.620   6.072  1.0525  0.5373 -0.6779
 2935SOL    HW220265   0.158   1.474   6.086  0.6745  0.3723  0.2973
 2936SOL     OW20266   3.868   3.876  11.865 -0.1664  0.4333 -0.6072
 2936SOL    HW120267   3.907   3.913  11.785 -0.9444  0.2454 -1.0754
 2936SOL    HW220268   3.786   3.925  11.873 -0.8635 -0.7502 -0.4920
 2937SOL     OW20269   2.185   0.248  16.695 -0.0178  0.1725  0.1091
 2937SOL    HW120270   2.097   0.285  16.686 -0.2348 -0.1791  0.8326
 2937SOL    HW220271   2.181   0.192  16.616  1.7962 -1.9588  1.5267
 2938SOL     OW20272   1.609   3.186   1.299  0.0444  0.0190 -0.6161
 2938SOL    HW120273   1.703   3.174   1.295  0.1568  1.2358 -2.1001
 2938SOL    HW220274   1.592   3.232   1.216 -3.0236 -1.1755 -0.6739
 2939SOL     OW20275   2.870   2.402   3.010 -0.0802 -0.0392  0.0340
 2939SOL    HW120276   2.925   2.433   3.082  0.4287 -1.0885  0.0953
 2939SOL    HW220277   2.873   2.476   2.949  0.1788  0.0101  0.1062
 2940SOL     OW20278   4.677   0.268   4.990 -0.3909 -0.7708 -0.1123
 2940SOL    HW120279   4.705   0.181   4.962 -1.3626 -1.6458  1.6108
 2940SOL    HW220280   4.722   0.315   4.919 -3.9229  1.1681 -1.1377
 2941SOL     OW20281   3.015   2.618   0.914 -0.0874  0.0792  0.2621
 2941SOL    HW120282   2.941   2.557   0.908  0.6284 -0.9115  1.5683
 2941SOL    HW220283   3.082   2.558   0.945 -2.6796 -2.5008  0.8891
 2942SOL     OW20284   2.982   0.801   0.682  0.7421  0.1533  0.1348
 2942SOL    HW120285   3.046   0.752   0.734  0.2277  0.8512  1.4240
 2942SOL    HW220286   3.045   0.859   0.639 -1.2562  2.7206  0.7160
 2943SOL     OW20287   0.049   2.675  17.694 -0.2008  0.1667 -0.0131
 2943SOL    HW120288   0.012   2.755  17.656  1.2471 -0.3489 -2.5379
 2943SOL    HW220289   0.076   2.708   0.081 -1.3198  0.5939  0.1743
 2944SOL     OW20290   3.074   0.171  10.521  0.1715 -0.2093 -0.8671
 2944SOL    HW120291   3.042   0.116  10.594 -0.1905  0.3175 -0.6288
 2944SOL    HW220292   3.086   0.243  10.583  1.7989 -2.1928  1.1509
 2945SOL     OW20293   3.060   1.218  12.372 -0.2480 -0.3595  0.8377
 2945SOL    HW120294   3.062   1.310  12.399  1.4429 -0.0220 -0.4338
 2945SOL    HW220295   2.966   1.207  12.358  0.0880 -1.2517 -0.7262
 2946SOL     OW20296   2.181   3.233   4.637 -0.4785 -0.4290 -0.0002
 2946SOL    HW120297   2.093   3.248   4.603  0.4418  2.6386 -0.9873
 2946SOL    HW220298   2.199   3.316   4.681 -0.9722  0.7968 -2.1161
 2947SOL     OW20299   1.257   1.140  15.286  0.2329 -1.0145  0.4965
 2947SOL    HW120300   1.337   1.146  15.338  0.0329 -4.0160  1.1440
 2947SOL    HW220301   1.197   1.190  15.341  1.8861  0.4100  1.0030
 2948SOL     OW20302   1.492   3.444   0.304  0.2011  0.5415  0.2275
 2948SOL    HW120303   1.491   3.519   0.364  0.6280  1.4122 -0.8593
 2948SOL    HW220304   1.454   3.372   0.355  0.6029 -0.9943 -1.6474
 2949SOL     OW20305   3.726   1.484  15.616 -0.2700  0.6422 -0.3684
 2949SOL    HW120306   3.752   1.565  15.661 -0.3131  0.9146 -0.8455
 2949SOL    HW220307   3.752   1.492  15.525  1.8834  0.0355  0.1865
 2950SOL     OW20308   2.879   0.493  12.613 -0.2620 -0.4260  0.2445
 2950SOL    HW120309   2.810   0.462  12.554 -1.1864  0.7625  0.6931
 2950SOL    HW220310   2.907   0.407  12.642  1.4035  0.7747  2.2402
 2951SOL     OW20311   1.377   0.315   8.871 -0.0228 -0.1956  0.4957
 2951SOL    HW120312   1.351   0.400   8.906 -2.0991  0.6372 -2.9867
 2951SOL    HW220313   1.463   0.308   8.912  0.1200 -0.0100  0.2300
 2952SOL     OW20314   2.676   0.230   6.037  0.2786  0.3458 -0.5727
 2952SOL    HW120315   2.695   0.280   5.958  0.3249 -1.3300 -1.6217
 2952SOL    HW220316   2.752   0.255   6.089  0.7404  0.5505 -1.3594
 2953SOL     OW20317   3.067   1.117   7.024 -0.0185  0.0819  0.4675
 2953SOL    HW120318   2.980   1.154   7.010 -0.9144 -1.3225  2.2142
 2953SOL    HW220319   3.051   1.068   7.105 -2.1839  2.2406  1.3346
 2954SOL     OW20320   1.997   4.145   5.035 -0.2466 -0.1690 -0.3807
 2954SOL    HW120321   1.976   4.077   4.971 -1.7004  0.6190 -0.7327
 2954SOL    HW220322   1.960   4.223   4.994  3.3412  1.6731 -0.1039
 2955SOL     OW20323   2.382   0.926  16.065  0.2297 -0.0544  0.1026
 2955SOL    HW120324   2.384   0.830  16.062  0.4337 -0.0490  0.0752
 2955SOL    HW220325   2.359   0.949  15.975  1.4301  0.8952  0.0486
 2956SOL     OW20326   2.118   3.851  11.454 -0.3966 -0.1443 -0.7154
 2956SOL    HW120327   2.090   3.911  11.385  0.0077  0.8762  0.0028
 2956SOL    HW220328   2.058   3.777  11.445 -0.4165 -0.2788  0.5095
 2957SOL     OW20329   2.158   0.490   6.801  0.7067  0.3735 -0.0094
 2957SOL    HW120330   2.133   0.398   6.797  0.1574  0.5509 -0.6987
 2957SOL    HW220331   2.104   0.522   6.874 -1.4126 -0.8596 -1.0327
 2958SOL     OW20332   3.177   0.611   1.810  0.0670  0.4164 -0.1728
 2958SOL    HW120333   3.214   0.592   1.724  1.2655  0.0202  0.4295
 2958SOL    HW220334   3.253   0.595   1.865  0.6432 -0.1568 -1.1320
 2959SOL     OW20335   1.446   1.057   7.010 -0.0089  0.3422  0.8513
 2959SOL    HW120336   1.428   1.148   6.986  1.4356 -0.2587 -2.5349
 2959SOL    HW220337   1.368   1.053   7.064 -0.0621 -0.0908  0.7394
 2960SOL     OW20338   4.542   0.582   5.421 -0.1837  0.0178  0.2436
 2960SOL    HW120339   4.451   0.577   5.392  0.1481 -1.5612 -0.5844
 2960SOL    HW220340   4.593   0.543   5.349  1.1344 -0.2804  1.3451
 2961SOL     OW20341   1.598   0.866   6.082 -0.4724 -0.1544  0.0325
 2961SOL    HW120342   1.635   0.921   6.013  0.3244 -0.5037  0.1836
 2961SOL    HW220343   1.509   0.860   6.047 -0.1241  0.1143 -0.8995
 2962SOL     OW20344   1.594   1.832   1.230 -0.0304 -0.0417  0.1467
 2962SOL    HW120345   1.566   1.836   1.139 -0.7028  1.4569  0.4233
 2962SOL    HW220346   1.544   1.757   1.262 -1.3254  0.0080 -1.7840
 2963SOL     OW20347   3.465   3.721   6.322 -0.4208 -0.8160 -0.3186
 2963SOL    HW120348   3.414   3.664   6.264  1.7437 -1.4886 -1.6019
 2963SOL    HW220349   3.477   3.670   6.402  1.4074  1.0135  0.5772
 2964SOL     OW20350   4.629   1.593   8.570 -0.2462 -0.4460 -0.0345
 2964SOL    HW120351   4.540   1.619   8.593  0.2809  1.4166 -0.0687
 2964SOL    HW220352   4.688   1.668   8.577 -2.3617  1.0427  1.7602
 2965SOL     OW20353   0.575   0.696  10.416  0.2106 -0.2882  0.0045
 2965SOL    HW120354   0.514   0.672  10.485  0.8472 -2.7564 -0.2748
 2965SOL    HW220355   0.658   0.699  10.464 -0.4206  1.5130  0.9751
 2966SOL     OW20356   4.433   4.668   4.832 -0.0458 -0.0299  0.3585
 2966SOL    HW120357   4.423   0.007   4.760  1.8170 -0.8597 -0.6246
 2966SOL    HW220358   4.477   4.598   4.785  0.0620  0.9677 -1.0276
 2967SOL     OW20359   2.262   1.685   8.456  0.0742  0.0998 -0.1128
 2967SOL    HW120360   2.317   1.763   8.457  0.5063 -0.2312  1.9628
 2967SOL    HW220361   2.175   1.726   8.460 -1.9215 -4.1736  0.3423
 2968SOL     OW20362   3.722   0.471   1.334  0.1430 -0.4687 -0.1602
 2968SOL    HW120363   3.789   0.435   1.276 -0.2331 -0.1252 -0.8056
 2968SOL    HW220364   3.753   0.442   1.420  0.2681 -0.1597 -0.1018
 2969SOL     OW20365   4.665   2.958   6.725 -0.0926 -0.3617  0.0469
 2969SOL    HW120366   4.720   2.917   6.658 -0.2713 -2.1895  1.0216
 2969SOL    HW220367   4.596   2.901   6.760 -2.2950  0.7913 -2.4081
 2970SOL     OW20368   4.207   4.497   9.563 -0.4989 -0.2134  0.2165
 2970SOL    HW120369   4.231   4.406   9.549 -0.4273 -0.4047  1.6354
 2970SOL    HW220370   4.140   4.495   9.631 -1.0634 -0.6995 -0.3538
 2971SOL     OW20371   3.769   0.155  14.615  0.1243  0.2728 -0.4065
 2971SOL    HW120372   3.777   0.216  14.542  0.5559  0.1361 -0.4698
 2971SOL    HW220373   3.673   0.150  14.612  0.2648 -1.8668 -0.9663
 2972SOL     OW20374   0.474   1.147   2.201  0.1660  0.0287  0.1498
 2972SOL    HW120375   0.552   1.182   2.158  0.6579 -1.7949 -0.4418
 2972SOL    HW220376   0.407   1.186   2.145 -0.8063 -0.5487  0.9146
 2973SOL     OW20377   0.078   4.288   2.569  0.1295 -0.5052 -0.1717
 2973SOL    HW120378   0.076   4.236   2.489  2.1731  2.4367 -2.1515
 2973SOL    HW220379   4.712   4.303   2.597 -0.0423  0.4604 -1.2361
 2974SOL     OW20380   4.187   1.789   2.645 -0.0455 -0.3124 -0.2483
 2974SOL    HW120381   4.244   1.721   2.610 -0.3562 -1.4938  1.5446
 2974SOL    HW220382   4.213   1.782   2.737  2.8890  0.1815 -1.0398
 2975SOL     OW20383   0.335   0.355   1.502  0.4295 -0.1315  0.5903
 2975SOL    HW120384   0.405   0.395   1.450 -0.0265  2.2650  1.8444
 2975SOL    HW220385   0.278   0.331   1.428  2.9541 -1.0793 -1.0437
 2976SOL     OW20386   2.287   2.379   3.910  0.2395 -0.0298  0.3032
 2976SOL    HW120387   2.194   2.386   3.890  0.0788 -0.3866  0.9246
 2976SOL    HW220388   2.316   2.466   3.938 -0.0322  0.6968 -1.7225
 2977SOL     OW20389   1.182   3.380  14.866  0.7331  0.0347 -0.0675
 2977SOL    HW120390   1.136   3.313  14.916  2.3634 -0.9097  0.1686
 2977SOL    HW220391   1.179   3.341  14.779 -0.2693  1.1028 -0.5134
 2978SOL     OW20392   2.617   0.023   3.605 -0.0513 -0.3532 -0.9807
 2978SOL    HW120393   2.696   4.713   3.562 -1.2595 -2.0303 -1.8591
 2978SOL    HW220394   2.551   0.006   3.539 -0.8716 -2.2031  0.3123
 2979SOL     OW20395   0.375   1.235   3.968  0.1635  0.6456 -0.0236
 2979SOL    HW120396   0.452   1.210   4.018  1.1610  0.2255 -1.7556
 2979SOL    HW220397   0.305   1.190   4.015 -0.0352  1.0955  0.1181
 2980SOL     OW20398   4.234   2.889   8.110  0.5484 -0.0527 -0.9032
 2980SOL    HW120399   4.249   2.805   8.152  0.9948 -0.3542 -1.6593
 2980SOL    HW220400   4.276   2.955   8.164  0.1815 -1.9102  1.6167
 2981SOL     OW20401   0.980   3.534   7.507 -0.3719  0.7454 -0.1855
 2981SOL    HW120402   1.036   3.578   7.571  1.0338 -0.1466 -0.7901
 2981SOL    HW220403   1.002   3.441   7.516  1.2613  1.0482 -0.9773
 2982SOL     OW20404   1.990   0.482   4.465 -0.0372  0.1057  0.1990
 2982SOL    HW120405   2.016   0.510   4.553 -0.4665 -0.1218  0.3949
 2982SOL    HW220406   1.963   0.392   4.481  1.9716 -0.8290 -1.6682
 2983SOL     OW20407   4.002   4.494   5.556  0.1693 -0.1071  0.2721
 2983SOL    HW120408   4.049   4.471   5.476 -0.0483  0.8567 -0.1408
 2983SOL    HW220409   4.061   4.558   5.595 -0.0852  0.0833  0.3482
 2984SOL     OW20410   1.386   1.058   3.887 -0.6301  0.1450  0.3962
 2984SOL    HW120411   1.331   1.129   3.918 -0.9306  0.1593 -0.1617
 2984SOL    HW220412   1.450   1.107   3.835 -0.0754 -0.1905  0.7530
 2985SOL     OW20413   0.188   2.983  12.233 -0.2039  0.2809  0.2810
 2985SOL    HW120414   0.190   3.051  12.166 -0.7325 -0.1338 -0.1580
 2985SOL    HW220415   0.104   3.002  12.273 -0.9658  0.1869 -1.2717
 2986SOL     OW20416   1.627   2.291   3.158 -0.4911  0.0557  0.3015
 2986SOL    HW120417   1.583   2.226   3.103  0.3375  0.4045 -0.7689
 2986SOL    HW220418   1.717   2.263   3.143 -0.3738 -0.5024  2.0085
 2987SOL     OW20419   1.097   1.205   4.553 -0.1965  0.2395 -0.0108
 2987SOL    HW120420   1.042   1.193   4.631 -3.2081 -0.7246 -2.2916
 2987SOL    HW220421   1.074   1.294   4.528 -0.0412  0.7698  1.6978
 2988SOL     OW20422   1.300   1.314   1.159 -0.1031  0.4673 -0.4312
 2988SOL    HW120423   1.270   1.377   1.093  3.8770  0.5261 -2.2041
 2988SOL    HW220424   1.307   1.375   1.233  0.7415 -0.5369  0.3011
 2989SOL     OW20425   3.669   1.861   4.232 -0.2874  0.2380  0.0078
 2989SOL    HW120426   3.698   1.917   4.160  0.4518  0.2408  0.3118
 2989SOL    HW220427   3.685   1.913   4.311  1.8045  2.1397 -1.6399
 2990SOL     OW20428   4.497   3.185  17.151  0.1457 -0.2146  0.1346
 2990SOL    HW120429   4.411   3.147  17.169  0.2785  0.9160  3.1250
 2990SOL    HW220430   4.515   3.216  17.240 -1.3317 -0.7921  0.6327
 2991SOL     OW20431   1.840   3.096   6.444  0.0287 -0.3693 -0.2347
 2991SOL    HW120432   1.821   3.166   6.507 -2.9921 -1.2104 -0.1716
 2991SOL    HW220433   1.773   3.115   6.379  1.7065 -1.6092 -2.3339
 2992SOL     OW20434   2.475   0.980   3.406 -0.2673 -0.2337 -0.6186
 2992SOL    HW120435   2.409   0.916   3.430 -1.6413  1.7005  0.7938
 2992SOL    HW220436   2.506   1.009   3.492 -0.4729 -1.6246 -0.0888
 2993SOL     OW20437   2.209   2.472  13.264  0.4174  0.3907  0.4205
 2993SOL    HW120438   2.207   2.379  13.286  1.7864 -0.0192 -1.1898
 2993SOL    HW220439   2.123   2.503  13.293 -0.5301 -2.5442  0.7391
 2994SOL     OW20440   0.110   3.931   4.407  0.3650 -0.5253 -0.0796
 2994SOL    HW120441   0.079   3.955   4.495 -0.2754 -0.7637 -0.2408
 2994SOL    HW220442   0.090   3.838   4.403 -1.5531 -0.1181  0.0030
 2995SOL     OW20443   0.665   4.605   3.900 -0.3518  0.0774  0.0238
 2995SOL    HW120444   0.618   4.600   3.817  1.8488 -0.5135 -1.1661
 2995SOL    HW220445   0.614   4.538   3.947 -2.2963  1.5650  0.0382
 2996SOL     OW20446   0.582   2.535   6.570 -0.9320  0.1502 -0.0825
 2996SOL    HW120447   0.539   2.616   6.598 -1.7174 -1.0708  2.2011
 2996SOL    HW220448   0.664   2.546   6.619 -0.8304  1.0690 -0.4551
 2997SOL     OW20449   0.532   2.097   1.677  0.4220 -0.0744  0.1403
 2997SOL    HW120450   0.438   2.103   1.664  0.4565  0.6270  0.1828
 2997SOL    HW220451   0.542   2.065   1.766  0.9393  0.3757  0.2509
 2998SOL     OW20452   1.627   0.134  15.495 -0.1975 -0.1634  0.6113
 2998SOL    HW120453   1.586   0.206  15.447  1.3930  1.2530  1.3885
 2998SOL    HW220454   1.618   0.170  15.583 -0.4627  2.1316 -0.3424
 2999SOL     OW20455   0.684   4.442  17.557  0.5720  0.3349  0.0489
 2999SOL    HW120456   0.681   4.476  17.467  0.6612  1.5706  0.5197
 2999SOL    HW220457   0.595   4.427  17.587  0.7880  1.6083  1.3459
 3000SOL     OW20458   4.448   4.698   4.250  0.2607  0.2398 -0.2100
 3000SOL    HW120459   4.382   4.629   4.254  1.7175 -1.2437 -1.4834
 3000SOL    HW220460   4.409   0.043   4.303 -1.9216 -0.2734 -1.1672
 3001SOL     OW20461   1.173   0.887   9.416 -0.3986  0.3451 -0.5273
 3001SOL    HW120462   1.216   0.824   9.474 -0.1621 -0.4099 -1.5160
 3001SOL    HW220463   1.181   0.851   9.328 -0.8106  3.3552 -1.7891
 3002SOL     OW20464   2.261   3.739   2.715 -0.0224  0.3311 -0.5537
 3002SOL    HW120465   2.353   3.748   2.690  1.0998 -1.3023  3.0388
 3002SOL    HW220466   2.266   3.651   2.751  1.3551  1.0802  1.0739
 3003SOL     OW20467   1.325   1.848  13.568  0.1434 -0.0428 -0.8843
 3003SOL    HW120468   1.265   1.919  13.592  0.2373  0.0349 -0.8809
 3003SOL    HW220469   1.267   1.800  13.509  0.8197 -2.9326  0.8213
 3004SOL     OW20470   2.140   2.216   5.329 -0.0035  0.8079 -0.0838
 3004SOL    HW120471   2.169   2.188   5.242  1.8282 -0.5070  0.9602
 3004SOL    HW220472   2.132   2.309   5.308  1.2528  1.1096  0.7940
 3005SOL     OW20473   3.611   3.500   1.657 -0.3742 -0.0695 -0.5758
 3005SOL    HW120474   3.552   3.474   1.586 -0.9484 -0.0604 -0.1036
 3005SOL    HW220475   3.643   3.579   1.614 -2.7116  0.7217 -0.8645
 3006SOL     OW20476   0.393   0.246   2.484 -0.2364  0.2419 -0.0477
 3006SOL    HW120477   0.371   0.274   2.573 -0.9727 -0.4460 -0.0191
 3006SOL    HW220478   0.433   0.329   2.459  0.5729  0.2960  1.3663
 3007SOL     OW20479   3.934   2.334   2.488 -0.1385 -0.1206  0.1952
 3007SOL    HW120480   3.912   2.265   2.425  0.6233 -1.4066  1.3504
 3007SOL    HW220481   4.000   2.384   2.440 -1.8068  1.7766 -0.1250
 3008SOL     OW20482   4.014   3.312   4.856 -0.2074 -0.1406  0.2839
 3008SOL    HW120483   4.062   3.324   4.939 -0.7294  1.9211  0.3037
 3008SOL    HW220484   4.029   3.220   4.838 -3.2279 -1.1780  3.0098
 3009SOL     OW20485   2.550   1.404   2.079 -0.2930  0.0263 -0.3446
 3009SOL    HW120486   2.537   1.387   2.172  2.8455 -0.2868  0.0628
 3009SOL    HW220487   2.555   1.500   2.074 -1.9740  0.0535 -1.1643
 3010SOL     OW20488   3.983   3.480   2.410  0.0505  0.2542  0.7217
 3010SOL    HW120489   3.958   3.450   2.323  2.6168  1.8741 -0.5776
 3010SOL    HW220490   3.901   3.463   2.457  0.5205 -1.9725  0.7308
 3011SOL     OW20491   2.287   4.245   1.359 -0.1766  0.0875  0.2055
 3011SOL    HW120492   2.265   4.333   1.387  0.5204 -0.2726  1.9108
 3011SOL    HW220493   2.241   4.195   1.427 -1.4164 -0.1014 -0.7601
 3012SOL     OW20494   3.543   1.912  13.870 -0.3531 -0.7202  0.5122
 3012SOL    HW120495   3.472   1.851  13.892  1.0565 -2.6405 -0.2769
 3012SOL    HW220496   3.496   1.962  13.803 -1.3295 -1.3784  0.6988
 3013SOL     OW20497   4.613   1.786   7.254 -0.0059 -0.3871  0.0017
 3013SOL    HW120498   4.663   1.801   7.174  0.3294 -1.3763  0.0289
 3013SOL    HW220499   4.591   1.693   7.256 -0.3971 -0.2593  1.6628
 3014SOL     OW20500   3.907   0.882   9.634  0.6702 -0.4765 -0.4205
 3014SOL    HW120501   3.899   0.903   9.727 -0.8724  0.4936 -0.7825
 3014SOL    HW220502   3.880   0.790   9.629 -0.5902 -0.2197  1.7215
 3015SOL     OW20503   2.338   0.308   8.739  0.4152  0.0364  0.2457
 3015SOL    HW120504   2.407   0.285   8.676  0.9765 -2.5398  1.8014
 3015SOL    HW220505   2.275   0.235   8.743  1.8638 -1.1092  1.8196
 3016SOL     OW20506   0.741   3.810   8.189  0.2357 -0.4530  0.5425
 3016SOL    HW120507   0.771   3.856   8.111 -2.2823  1.8847  0.9521
 3016SOL    HW220508   0.802   3.848   8.252  0.2992  0.9758 -0.3636
 3017SOL     OW20509   2.137   1.482   9.211  0.0964  0.5770 -0.0427
 3017SOL    HW120510   2.043   1.475   9.227  0.2082 -0.8871 -0.0532
 3017SOL    HW220511   2.131   1.518   9.122 -0.9500 -0.6366 -0.4759
 3018SOL     OW20512   2.680   1.313  14.681  0.0867  0.2359 -0.4072
 3018SOL    HW120513   2.651   1.223  14.665  0.8286 -0.2909  1.2423
 3018SOL    HW220514   2.662   1.343  14.592  0.6128  0.3494 -0.4801
 3019SOL     OW20515   3.406   1.310   8.474 -0.4700  0.1370 -0.0394
 3019SOL    HW120516   3.377   1.398   8.497  2.6090  1.2139 -0.2822
 3019SOL    HW220517   3.502   1.312   8.473 -0.5591  3.8033 -0.9464
 3020SOL     OW20518   2.659   3.476   6.318  0.1845  0.0501  0.5259
 3020SOL    HW120519   2.590   3.415   6.294  0.7750 -0.3156 -0.2230
 3020SOL    HW220520   2.728   3.429   6.364  1.2770  0.0130 -1.1681
 3021SOL     OW20521   2.147   0.184  12.137 -0.7018 -0.1673  0.4482
 3021SOL    HW120522   2.194   0.107  12.104 -0.8256 -0.2064  0.3642
 3021SOL    HW220523   2.182   0.189  12.226  1.9118  3.9571 -0.8067
 3022SOL     OW20524   0.522   3.024   3.604  0.3965  0.0908 -0.2086
 3022SOL    HW120525   0.478   2.939   3.604 -0.1584  0.3832  1.2588
 3022SOL    HW220526   0.560   3.026   3.516 -0.6903  1.2581 -0.6427
 3023SOL     OW20527   1.719   3.622   3.121  0.2692 -0.4123 -0.1015
 3023SOL    HW120528   1.648   3.665   3.073  0.9200  2.4083  1.4368
 3023SOL    HW220529   1.695   3.646   3.211 -3.1290 -0.4356 -1.0006
 3024SOL     OW20530   3.469   4.678  16.768 -0.6313 -0.2445  0.0330
 3024SOL    HW120531   3.415   0.019  16.724  0.5236  0.5876 -0.1261
 3024SOL    HW220532   3.399   4.613  16.777  1.6727 -2.5514  1.3536
 3025SOL     OW20533   4.269   0.264   6.504 -0.3194 -0.9209  0.2893
 3025SOL    HW120534   4.220   0.241   6.425 -0.6088 -2.6175  0.9668
 3025SOL    HW220535   4.256   0.194   6.568  1.3516 -0.7677  0.8057
 3026SOL     OW20536   0.138   1.729  12.942 -0.4515  0.3231  0.0539
 3026SOL    HW120537   0.050   1.691  12.949 -0.0052 -0.8298 -0.5289
 3026SOL    HW220538   0.129   1.775  12.859 -0.3671 -0.0303 -0.1555
 3027SOL     OW20539   2.882   4.124  17.277  0.0613  0.8434  0.5053
 3027SOL    HW120540   2.919   4.062  17.214  2.8741  2.4582  0.5782
 3027SOL    HW220541   2.957   4.166  17.318  0.9481  1.6712 -1.9352
 3028SOL     OW20542   0.962   3.213  14.979 -0.3375  0.0259 -0.0092
 3028SOL    HW120543   0.893   3.164  14.935 -1.8743  1.1636  1.1287
 3028SOL    HW220544   0.910   3.280  15.023 -0.2299  0.4950 -0.6021
 3029SOL     OW20545   2.438   3.067   2.734  0.0746 -0.1345 -0.1635
 3029SOL    HW120546   2.416   3.157   2.759  0.5301 -0.2213  0.5360
 3029SOL    HW220547   2.500   3.087   2.664  1.3864  1.6785  1.5367
 3030SOL     OW20548   4.206   3.056  12.237  0.6367 -0.6997 -0.2083
 3030SOL    HW120549   4.197   3.121  12.307 -0.3433  0.0609 -1.0275
 3030SOL    HW220550   4.301   3.052  12.223  0.5532 -1.4745 -0.5738
 3031SOL     OW20551   0.382   3.029   9.465  0.0472  0.0769 -0.2645
 3031SOL    HW120552   0.317   3.020   9.535 -0.2116 -0.9034 -0.6447
 3031SOL    HW220553   0.440   2.956   9.484 -2.0222 -1.7347 -1.0018
 3032SOL     OW20554   2.018   3.371   1.093  0.8802 -0.6219  0.2102
 3032SOL    HW120555   2.036   3.464   1.080 -1.2931 -0.5155 -2.2904
 3032SOL    HW220556   2.086   3.339   1.033 -0.4762  0.6502 -2.0218
 3033SOL     OW20557   2.026   1.954   3.302 -0.5825  0.3839  0.3026
 3033SOL    HW120558   1.998   1.864   3.320 -0.2923  0.0625 -0.8379
 3033SOL    HW220559   2.117   1.946   3.332 -0.0645 -0.0238 -1.3873
 3034SOL     OW20560   2.287   0.214   8.005 -0.2314 -0.2425  0.2467
 3034SOL    HW120561   2.357   0.274   7.981  1.1537 -1.5219  1.1398
 3034SOL    HW220562   2.241   0.275   8.063  0.5497  0.2323  0.3570
 3035SOL     OW20563   2.403   4.247   1.130  0.2980  0.0909 -0.1979
 3035SOL    HW120564   2.335   4.256   1.063  0.3137  0.5652 -0.1517
 3035SOL    HW220565   2.359   4.239   1.214  0.7158 -1.9487 -0.1595
 3036SOL     OW20566   3.184   4.452  12.028  0.0805 -0.6347  0.0614
 3036SOL    HW120567   3.141   4.421  11.948  0.0695  0.6831 -0.4529
 3036SOL    HW220568   3.163   4.384  12.091  0.6125 -1.3180 -0.5033
 3037SOL     OW20569   1.926   2.081   2.278 -0.0786 -0.3980  0.6514
 3037SOL    HW120570   1.929   2.004   2.335 -0.3015  0.1154  1.3626
 3037SOL    HW220571   2.010   2.060   2.236 -2.1133 -2.7300 -2.2383
 3038SOL     OW20572   0.006   2.045   2.515  0.5807  0.4739 -0.1055
 3038SOL    HW120573   0.042   1.960   2.540 -2.2157 -0.2026  1.6287
 3038SOL    HW220574   0.061   2.107   2.563  3.2211 -2.6938  0.9863
 3039SOL     OW20575   2.255   0.939  15.822  0.8397 -0.0943  0.0270
 3039SOL    HW120576   2.166   0.903  15.817 -0.2157  2.2429  1.7648
 3039SOL    HW220577   2.264   0.972  15.733 -1.3251  0.9932  0.2203
 3040SOL     OW20578   0.286   1.839   2.385  0.4677 -0.2068  0.0793
 3040SOL    HW120579   0.366   1.788   2.398 -0.1884 -0.7546  1.9812
 3040SOL    HW220580   0.334   1.922   2.387  0.6076 -0.2911  0.2413
 3041SOL     OW20581   3.684   0.765   9.092 -0.4167 -0.5464 -0.2176
 3041SOL    HW120582   3.660   0.743   9.182  1.5230  0.5833  0.5888
 3041SOL    HW220583   3.602   0.800   9.057 -1.4420 -2.7969 -0.0664
 3042SOL     OW20584   2.783   3.438   2.118  0.0266  0.2597 -0.0562
 3042SOL    HW120585   2.768   3.531   2.102  0.2668  0.0674 -1.3743
 3042SOL    HW220586   2.693   3.409   2.106  0.5434 -1.3233 -0.0409
 3043SOL     OW20587   4.205   2.609   2.163  0.1551  0.1365  0.1267
 3043SOL    HW120588   4.244   2.683   2.117  0.0610  1.0871  1.5789
 3043SOL    HW220589   4.277   2.553   2.192  2.7701  1.7959 -3.2292
 3044SOL     OW20590   0.732   4.531   6.003 -0.0824 -0.5317 -0.5326
 3044SOL    HW120591   0.768   4.496   6.084  1.6766 -0.0198 -1.0955
 3044SOL    HW220592   0.638   4.544   6.015  0.0238  0.3271 -0.6924
 3045SOL     OW20593   4.302   1.037  10.924 -0.3898  0.2403  0.2123
 3045SOL    HW120594   4.358   1.002  10.856 -1.0807  0.4946 -0.4845
 3045SOL    HW220595   4.236   0.968  10.919  1.2492 -1.4031  1.2033
 3046SOL     OW20596   1.670   1.366   8.213 -0.5130  0.3087 -0.2159
 3046SOL    HW120597   1.643   1.389   8.124 -0.9983  0.3649 -0.0568
 3046SOL    HW220598   1.622   1.283   8.222  0.1379 -0.2412 -1.8767
 3047SOL     OW20599   2.672   0.652   4.496 -0.3287 -0.3360  0.3555
 3047SOL    HW120600   2.762   0.625   4.479 -0.3346  0.7133 -1.2921
 3047SOL    HW220601   2.681   0.746   4.514 -1.0669 -0.3603  0.8485
 3048SOL     OW20602   0.224   4.711  11.727 -0.2852  0.0193 -0.1768
 3048SOL    HW120603   0.220   4.722  11.822  0.9758  0.5443 -0.1866
 3048SOL    HW220604   0.301   4.655  11.723  0.0561  0.3572  1.5491
 3049SOL     OW20605   0.362   4.569  13.615 -0.2051 -0.1067 -0.1289
 3049SOL    HW120606   0.449   4.570  13.576  0.7552  0.4702  2.0667
 3049SOL    HW220607   0.351   4.654  13.658  0.5487 -0.1224  0.0893
 3050SOL     OW20608   2.829   0.297   6.843  0.0729  0.7945  0.1135
 3050SOL    HW120609   2.846   0.295   6.937 -0.8484 -0.5103  0.2510
 3050SOL    HW220610   2.894   0.228   6.826 -1.4398 -0.8232  1.0273
 3051SOL     OW20611   4.073   4.645   2.265 -0.5825 -0.1807 -0.6173
 3051SOL    HW120612   4.168   4.653   2.263 -0.6293  0.2880 -0.8773
 3051SOL    HW220613   4.046   4.676   2.351  1.0797 -1.2314  0.2883
 3052SOL     OW20614   4.696   0.810   0.645  0.0655  0.1150  0.1174
 3052SOL    HW120615   0.006   0.895   0.673  1.7875 -0.9495  1.2499
 3052SOL    HW220616   0.032   0.790   0.574 -1.1479  0.8613 -1.1111
 3053SOL     OW20617   2.532   1.696   6.140 -0.0296  0.5375  0.3556
 3053SOL    HW120618   2.486   1.730   6.217 -0.8545  0.4428 -0.0949
 3053SOL    HW220619   2.615   1.663   6.174 -0.3021  0.4508  0.9485
 3054SOL     OW20620   3.575   3.327   8.175 -0.0549  0.4007 -0.5094
 3054SOL    HW120621   3.544   3.406   8.130 -0.1288  1.0280  0.6456
 3054SOL    HW220622   3.668   3.348   8.162  0.3474 -1.0709 -0.0745
 3055SOL     OW20623   2.975   2.669   4.502 -0.9103  0.1886 -0.7640
 3055SOL    HW120624   3.024   2.751   4.493 -2.3233  0.6582 -3.9943
 3055SOL    HW220625   2.908   2.708   4.559  0.9642  0.4392  1.2749
 3056SOL     OW20626   1.227   2.313  10.692  0.0577 -0.8772  0.2017
 3056SOL    HW120627   1.150   2.351  10.650  2.0298  1.4853 -1.2537
 3056SOL    HW220628   1.209   2.219  10.692  1.8991 -1.2301 -0.5453
 3057SOL     OW20629   3.856   3.706  16.304  0.2721  0.8820  0.2687
 3057SOL    HW120630   3.852   3.799  16.328 -2.9311  1.1672 -1.3719
 3057SOL    HW220631   3.936   3.703  16.252 -0.5915 -0.7535 -0.9420
 3058SOL     OW20632   3.426   4.529   7.321  0.2325  0.0331  0.1187
 3058SOL    HW120633   3.428   4.564   7.232 -0.0615  1.9551  0.8696
 3058SOL    HW220634   3.369   4.454   7.304  0.6922  0.1087 -1.7830
 3059SOL     OW20635   4.362   4.205   9.640 -0.1898 -0.0450 -0.0399
 3059SOL    HW120636   4.430   4.160   9.691  1.6175  1.4631 -1.1390
 3059SOL    HW220637   4.409   4.263   9.581  1.3233 -0.1634  1.0439
 3060SOL     OW20638   1.820   2.527   1.874  0.3232  0.2158  0.1110
 3060SOL    HW120639   1.825   2.616   1.838  1.2382  0.0153 -0.2595
 3060SOL    HW220640   1.742   2.505   1.822 -0.5341 -1.7088  2.2091
 3061SOL     OW20641   4.528   4.059  17.577 -0.1704 -0.0696 -0.1668
 3061SOL    HW120642   4.602   4.012  17.616  0.2857 -0.5376 -1.5947
 3061SOL    HW220643   4.574   4.110  17.510 -0.9414  0.7551 -0.0735
 3062SOL     OW20644   1.352   2.903   3.173 -0.5957  0.5460  0.1967
 3062SOL    HW120645   1.309   2.859   3.099  1.6533  1.5300 -1.6985
 3062SOL    HW220646   1.427   2.948   3.135 -0.9327 -0.1995 -1.3757
 3063SOL     OW20647   1.776   1.718   9.037  0.7925  0.7188  0.1642
 3063SOL    HW120648   1.682   1.728   9.047  0.6374  0.6455 -1.2796
 3063SOL    HW220649   1.798   1.673   9.119 -2.7771 -3.0521 -1.0052
 3064SOL     OW20650   3.965   3.978  14.481  0.6299 -0.3170  0.0729
 3064SOL    HW120651   3.924   4.037  14.543  0.2646 -0.2386 -0.2435
 3064SOL    HW220652   4.058   4.001  14.478  0.4198  0.5904  0.5492
 3065SOL     OW20653   4.602   3.389  13.198 -0.4613 -0.0939  0.3579
 3065SOL    HW120654   4.539   3.431  13.140 -0.6516 -0.3179  0.3986
 3065SOL    HW220655   4.618   3.465  13.253  0.1047 -0.5189  0.7887
 3066SOL     OW20656   4.359   0.899   8.693  0.4744  0.4255  0.4272
 3066SOL    HW120657   4.357   0.855   8.779  1.4294  0.2349  0.3511
 3066SOL    HW220658   4.425   0.845   8.649 -1.0045 -2.5925  1.8777
 3067SOL     OW20659   2.249   4.681   3.087 -0.0656 -0.4286 -0.2064
 3067SOL    HW120660   2.330   4.630   3.097  0.3481  0.5163  1.2303
 3067SOL    HW220661   2.186   4.613   3.062  0.4552 -0.8482 -0.3666
 3068SOL     OW20662   3.878   1.027   5.164  0.0465  0.2024 -0.3677
 3068SOL    HW120663   3.863   0.944   5.119 -0.7821  0.7320 -1.0661
 3068SOL    HW220664   3.899   1.002   5.254 -1.4514 -0.2298 -0.1256
 3069SOL     OW20665   2.365   0.759   1.049 -0.2728 -0.1573 -0.2086
 3069SOL    HW120666   2.300   0.695   1.078  0.2160 -0.7142 -0.3457
 3069SOL    HW220667   2.340   0.769   0.957  1.2593  0.9690 -0.5065
 3070SOL     OW20668   4.712   4.487  11.823 -0.6787  0.4849  0.3789
 3070SOL    HW120669   0.026   4.431  11.755 -0.9842 -2.4853  2.6317
 3070SOL    HW220670   0.012   4.435  11.901 -0.1554 -0.4698 -0.4137
 3071SOL     OW20671   3.438   0.657   7.617 -0.3544  0.2551 -0.4479
 3071SOL    HW120672   3.413   0.749   7.626 -1.6586 -0.2122  0.6824
 3071SOL    HW220673   3.427   0.651   7.522 -0.0688  2.0385 -0.6021
 3072SOL     OW20674   0.045   4.447  12.507  0.1296  0.5697 -0.3655
 3072SOL    HW120675   0.116   4.510  12.518 -1.2821  2.2747 -0.8073
 3072SOL    HW220676   4.694   4.504  12.528 -0.6743 -0.5453 -0.2268
 3073SOL     OW20677   1.626   4.495   3.970  0.5524  0.0801 -0.0350
 3073SOL    HW120678   1.553   4.454   3.925  2.1177 -1.2258 -1.4193
 3073SOL    HW220679   1.677   4.535   3.899 -1.8007  2.6543 -0.2794
 3074SOL     OW20680   3.275   0.571  10.595 -0.0602 -0.6633 -0.0593
 3074SOL    HW120681   3.368   0.556  10.612  0.2264  0.3607 -0.7154
 3074SOL    HW220682   3.263   0.664  10.614 -2.2090 -1.2042  1.2532
 3075SOL     OW20683   2.361   4.436   5.126  0.1474  0.4131 -0.2824
 3075SOL    HW120684   2.457   4.437   5.124  0.1880  2.3331  2.4844
 3075SOL    HW220685   2.338   4.529   5.122 -0.4160  0.2381 -1.1640
 3076SOL     OW20686   2.573   3.285   7.831 -0.0244 -0.4966 -0.1769
 3076SOL    HW120687   2.514   3.212   7.850 -1.2728  0.8770  1.2271
 3076SOL    HW220688   2.595   3.281   7.738  0.6243 -2.0937  0.0485
 3077SOL     OW20689   2.763   2.143   4.778  0.1291  0.0223 -0.5013
 3077SOL    HW120690   2.796   2.107   4.860 -1.9709  2.2143  1.3117
 3077SOL    HW220691   2.685   2.088   4.774 -0.2179  0.5838 -1.6300
 3078SOL     OW20692   4.498   0.808   7.916  0.5606 -0.1938 -0.5332
 3078SOL    HW120693   4.449   0.764   7.985  0.0407  0.6662 -0.3616
 3078SOL    HW220694   4.571   0.747   7.906  2.1618  1.4378  1.3171
 3079SOL     OW20695   3.977   0.329   2.554 -0.3533 -0.2042  0.1503
 3079SOL    HW120696   3.944   0.329   2.644 -2.4707 -2.5125 -0.6093
 3079SOL    HW220697   3.917   0.385   2.505 -1.3055 -1.3537  0.0043
 3080SOL     OW20698   0.974   3.633   0.568  0.2207 -0.0059 -0.5981
 3080SOL    HW120699   0.943   3.685   0.642 -0.0119 -1.4341  0.3262
 3080SOL    HW220700   0.982   3.694   0.495  2.8600 -0.5954 -0.7980
 3081SOL     OW20701   0.440   1.675  12.489  0.4005  0.1763  0.1260
 3081SOL    HW120702   0.411   1.626  12.412 -2.3054 -0.3192  1.4522
 3081SOL    HW220703   0.454   1.613  12.560  2.9745  0.4322 -0.1904
 3082SOL     OW20704   3.476   0.846   8.323  0.3631  0.0347  0.1101
 3082SOL    HW120705   3.391   0.877   8.353 -0.7387 -2.5293 -0.4104
 3082SOL    HW220706   3.542   0.907   8.357  0.0612  0.5784 -0.2732
 3083SOL     OW20707   0.408   0.397   4.330 -0.0894 -0.0939 -0.1783
 3083SOL    HW120708   0.490   0.362   4.364  0.1524  0.4433 -0.2068
 3083SOL    HW220709   0.432   0.489   4.322 -3.1551  0.6434 -0.8213
 3084SOL     OW20710   3.153   0.740  14.228  0.2145 -0.4420 -0.0018
 3084SOL    HW120711   3.197   0.818  14.262  0.9492 -0.5691 -0.6587
 3084SOL    HW220712   3.202   0.679  14.283 -0.0444  0.1289  0.8547
 3085SOL     OW20713   0.909   2.255  13.506  0.1910  0.2681 -0.4559
 3085SOL    HW120714   0.904   2.325  13.572  2.3347 -0.8323  0.8628
 3085SOL    HW220715   0.848   2.278  13.436 -0.7812 -0.6357  0.0939
 3086SOL     OW20716   4.437   4.589   2.866  0.2659  0.0515  0.0103
 3086SOL    HW120717   4.457   4.668   2.816 -0.9851  0.6751  0.5041
 3086SOL    HW220718   4.395   4.532   2.801  1.7929  1.0689 -1.8850
 3087SOL     OW20719   0.587   0.788   5.563  0.2146  0.0277  0.3097
 3087SOL    HW120720   0.492   0.784   5.548  0.1706  0.2958  0.5145
 3087SOL    HW220721   0.609   0.713   5.508 -0.5230 -0.0723  0.1438
 3088SOL     OW20722   2.625   4.418   1.728  0.0576  0.3156 -0.2241
 3088SOL    HW120723   2.573   4.410   1.647 -0.0238 -3.6160  0.2513
 3088SOL    HW220724   2.667   4.501   1.702  0.2602  0.8389  1.8137
 3089SOL     OW20725   2.081   1.854  16.214 -0.1483 -0.3218  0.5572
 3089SOL    HW120726   2.050   1.940  16.187  2.7635 -0.1963 -2.4040
 3089SOL    HW220727   2.121   1.821  16.133  0.5057 -2.6440  1.8181
 3090SOL     OW20728   0.523   2.454  13.048  0.6255 -0.1006 -0.2790
 3090SOL    HW120729   0.447   2.437  13.104  0.9370 -0.7252 -0.0463
 3090SOL    HW220730   0.555   2.534  13.089  0.7320  0.1738 -0.9034
 3091SOL     OW20731   4.705   4.338  13.756  0.0800 -0.8437  0.0977
 3091SOL    HW120732   4.650   4.268  13.721 -1.1675 -0.4255  1.2194
 3091SOL    HW220733   4.691   4.315  13.848  1.9430  0.0347  0.5881
 3092SOL     OW20734   2.242   3.517   8.735 -1.0174 -0.3712 -0.5610
 3092SOL    HW120735   2.232   3.586   8.670  3.2722  0.0922 -0.6800
 3092SOL    HW220736   2.252   3.577   8.808  0.7888  1.2852 -2.1835
 3093SOL     OW20737   2.837   2.777   3.510 -0.4345  0.0882 -0.0275
 3093SOL    HW120738   2.894   2.827   3.569  0.5801 -0.2605 -0.7150
 3093SOL    HW220739   2.762   2.763   3.569 -1.4398  4.2258 -0.3023
 3094SOL     OW20740   0.834   1.607   7.640  0.1083  0.4699 -0.3337
 3094SOL    HW120741   0.887   1.660   7.699  1.4755 -0.4684 -0.7262
 3094SOL    HW220742   0.777   1.566   7.705 -0.8998 -0.3261 -1.7363
 3095SOL     OW20743   2.809   0.381   2.929  0.2267  0.2069 -0.0616
 3095SOL    HW120744   2.782   0.381   3.021 -0.0773  1.6278 -0.1594
 3095SOL    HW220745   2.773   0.295   2.905  0.4068  1.2024 -3.8318
 3096SOL     OW20746   0.423   1.427   0.447 -0.2769  0.3271  0.0617
 3096SOL    HW120747   0.402   1.339   0.479 -0.9744  0.4476 -0.0587
 3096SOL    HW220748   0.481   1.466   0.513  0.7393  1.2943 -1.4021
 3097SOL     OW20749   0.561   3.251  14.958  0.6315  0.6875  0.7802
 3097SOL    HW120750   0.469   3.272  14.941  0.3065 -0.9723  0.4545
 3097SOL    HW220751   0.571   3.298  15.040 -3.6068  1.3108  0.9351
 3098SOL     OW20752   2.766   0.154   4.156  0.1900  0.1534 -0.1668
 3098SOL    HW120753   2.708   0.112   4.092  1.0390 -2.2324  0.6557
 3098SOL    HW220754   2.838   0.187   4.102 -1.3535  0.8666 -1.7887
 3099SOL     OW20755   3.470   2.025   8.121 -0.2626 -0.1529 -0.4388
 3099SOL    HW120756   3.484   1.951   8.062 -0.2352 -0.8484  0.4275
 3099SOL    HW220757   3.464   1.976   8.203  1.4232  0.4083  0.0074
 3100SOL     OW20758   1.399   4.526   6.805  0.0494  0.1568  0.7494
 3100SOL    HW120759   1.390   4.448   6.860 -0.6284 -0.3361 -0.0642
 3100SOL    HW220760   1.324   4.529   6.746 -2.2716  0.3986  3.6601
 3101SOL     OW20761   0.005   2.828  15.750  0.1450 -0.3664  0.4884
 3101SOL    HW120762   0.006   2.859  15.841 -0.2792  1.3589 -0.0981
 3101SOL    HW220763   4.638   2.812  15.724  0.6966  2.1821 -2.9821
 3102SOL     OW20764   4.179   4.474   3.962  0.0916  0.1053  0.7217
 3102SOL    HW120765   4.101   4.422   3.940 -0.0655  1.6494 -2.3512
 3102SOL    HW220766   4.137   4.557   3.939  0.6138  0.2892  0.4346
 3103SOL     OW20767   0.327   1.728   2.724 -0.0502  0.5833 -0.3734
 3103SOL    HW120768   0.312   1.650   2.778  0.5163  0.5227 -0.2994
 3103SOL    HW220769   0.355   1.683   2.644  0.4343 -2.3475  1.4194
 3104SOL     OW20770   0.520   1.001   2.438  0.0188 -0.1641 -0.1178
 3104SOL    HW120771   0.547   1.064   2.372  0.7966  1.2148  1.5245
 3104SOL    HW220772   0.603   0.961   2.465 -1.1783 -2.1100  0.6913
 3105SOL     OW20773   2.435   2.427   7.894  0.0535  0.0759  0.2286
 3105SOL    HW120774   2.350   2.382   7.893  0.6162 -1.0067  0.6735
 3105SOL    HW220775   2.470   2.424   7.984 -1.2006  0.7926  0.7322
 3106SOL     OW20776   1.576   2.075  17.145 -0.1898  0.1202 -0.1903
 3106SOL    HW120777   1.651   2.022  17.118  0.7270  2.0009 -1.3880
 3106SOL    HW220778   1.623   2.156  17.166  1.3757 -0.2702 -2.1313
 3107SOL     OW20779   0.382   2.969   9.009  0.1745 -0.4075 -0.5951
 3107SOL    HW120780   0.319   2.983   9.079 -1.0226  0.6874 -1.9065
 3107SOL    HW220781   0.422   3.055   9.018  0.4135 -0.4358 -1.4026
 3108SOL     OW20782   0.082   0.484  14.320  0.2394  0.2406  0.1647
 3108SOL    HW120783   0.094   0.553  14.254  1.2452  0.4390  0.5500
 3108SOL    HW220784   0.124   0.524  14.396 -0.5259  0.9953  0.2066
 3109SOL     OW20785   3.157   1.757  13.724 -0.4457 -0.3738  0.1434
 3109SOL    HW120786   3.075   1.801  13.748 -0.2036 -0.7632  1.7007
 3109SOL    HW220787   3.125   1.691  13.663 -1.7480  1.0895 -0.7380
 3110SOL     OW20788   3.339   4.428   8.111 -0.4772  0.2471  0.3156
 3110SOL    HW120789   3.253   4.405   8.146 -1.1736 -0.0069 -1.5351
 3110SOL    HW220790   3.319   4.503   8.055  0.8098  1.8250  1.9843
 3111SOL     OW20791   2.076   4.028   2.953  0.6257  0.1395 -0.0382
 3111SOL    HW120792   2.087   4.088   2.879  0.3561 -0.4913 -0.5927
 3111SOL    HW220793   2.019   3.962   2.913 -1.7100  1.7414  0.6399
 3112SOL     OW20794   3.534   3.242   2.836  0.1017 -0.0488  0.0040
 3112SOL    HW120795   3.628   3.226   2.835 -0.1595 -1.4601 -1.3589
 3112SOL    HW220796   3.528   3.299   2.913 -1.1434 -0.5922  0.3123
 3113SOL     OW20797   1.901   3.512   7.256  0.4874 -0.1349 -0.0188
 3113SOL    HW120798   1.842   3.483   7.325  0.9455  1.5809  1.1169
 3113SOL    HW220799   1.980   3.531   7.308  1.7436 -3.5399 -0.6889
 3114SOL     OW20800   4.710   4.493   5.029 -0.0440 -0.3663  0.4093
 3114SOL    HW120801   4.671   4.410   5.057 -0.7117 -0.4803 -0.8885
 3114SOL    HW220802   0.079   4.475   5.042 -0.5580 -2.4013  1.3100
 3115SOL     OW20803   4.255   4.662   8.693 -0.5692 -0.3753  0.0304
 3115SOL    HW120804   4.328   4.715   8.659 -1.4556  1.0876  0.4171
 3115SOL    HW220805   4.256   4.591   8.629  1.8590  0.3786 -0.7824
 3116SOL     OW20806   2.790   3.003   2.677 -0.0230 -0.6491 -0.1590
 3116SOL    HW120807   2.821   2.913   2.664 -0.2632 -0.7606  0.0437
 3116SOL    HW220808   2.869   3.045   2.711 -0.1404 -1.0036  0.5440
 3117SOL     OW20809   2.262   2.172   5.070  0.1059  0.2661 -0.5432
 3117SOL    HW120810   2.345   2.206   5.036  0.7383  0.6601  1.4100
 3117SOL    HW220811   2.264   2.092   5.017 -2.9868 -0.6620  0.7144
 3118SOL     OW20812   0.922   1.228   4.773 -0.2956 -0.5583  0.1790
 3118SOL    HW120813   0.916   1.145   4.820  0.5301 -1.2292 -0.9025
 3118SOL    HW220814   0.937   1.283   4.850 -0.9851  0.3295 -0.3250
 3119SOL     OW20815   0.501   0.354  12.005  0.5999 -0.0030  0.0395
 3119SOL    HW120816   0.518   0.414  11.933  0.5208 -0.8187 -0.6507
 3119SOL    HW220817   0.505   0.423  12.072 -2.9275  0.4794 -0.2522
 3120SOL     OW20818   0.574   3.946   1.813 -0.3455  0.0329 -0.2343
 3120SOL    HW120819   0.615   4.031   1.828  0.8465 -0.3974 -1.1137
 3120SOL    HW220820   0.638   3.884   1.846 -1.9020 -1.0106  0.8471
 3121SOL     OW20821   3.768   3.315  14.637 -0.0100 -0.2838 -0.6034
 3121SOL    HW120822   3.834   3.339  14.702 -0.8980 -0.6284  0.4188
 3121SOL    HW220823   3.800   3.374  14.569 -1.7085  2.0564  0.6183
 3122SOL     OW20824   2.867   0.372   3.509  0.7265  0.3014  0.3822
 3122SOL    HW120825   2.926   0.340   3.578 -1.6373  0.4604  2.5126
 3122SOL    HW220826   2.784   0.337   3.544  1.1772  0.3693  1.5308
 3123SOL     OW20827   2.532   2.342   7.659  0.4356  0.6108  0.3952
 3123SOL    HW120828   2.597   2.280   7.692 -0.6830 -0.5335  0.4328
 3123SOL    HW220829   2.497   2.374   7.742 -0.1439 -1.0730  0.8011
 3124SOL     OW20830   4.361   3.897   5.602 -0.2642  0.1557  0.2721
 3124SOL    HW120831   4.423   3.825   5.616 -1.2739 -0.8655 -0.5224
 3124SOL    HW220832   4.293   3.859   5.548  1.1105 -0.6844 -0.8720
 3125SOL     OW20833   1.639   3.430   3.566 -0.6545 -0.2096 -0.6967
 3125SOL    HW120834   1.568   3.402   3.508 -0.3249 -0.5471 -0.9357
 3125SOL    HW220835   1.710   3.382   3.524 -1.2957  0.4086 -2.4866
 3126SOL     OW20836   2.302   2.507  14.362  0.1238  0.6040 -0.0831
 3126SOL    HW120837   2.347   2.466  14.288 -2.9847 -1.9925 -0.5379
 3126SOL    HW220838   2.345   2.592  14.359 -0.8037  1.0416 -1.2340
 3127SOL     OW20839   1.862   2.769  16.158  1.0825  0.3039  0.3544
 3127SOL    HW120840   1.769   2.752  16.174  0.7373  2.4815  0.6354
 3127SOL    HW220841   1.867   2.852  16.112 -0.7091 -1.2079 -2.5275
 3128SOL     OW20842   0.186   0.780   8.792 -0.5218 -0.5649  0.4593
 3128SOL    HW120843   0.209   0.750   8.880 -1.7776  0.7005  1.2053
 3128SOL    HW220844   0.102   0.824   8.802 -0.1313 -0.0980  1.6115
 3129SOL     OW20845   0.593   1.763   9.299 -0.0087  0.1843 -0.6312
 3129SOL    HW120846   0.641   1.721   9.371  0.2708  0.5530 -0.6046
 3129SOL    HW220847   0.628   1.714   9.225 -2.0236  0.8147 -1.9880
 3130SOL     OW20848   4.105   0.561   0.547 -0.1684  0.4474 -0.3035
 3130SOL    HW120849   4.031   0.576   0.605  0.5255  2.0356  0.1919
 3130SOL    HW220850   4.116   0.646   0.504  0.1729  1.0011  0.8544
 3131SOL     OW20851   0.670   4.626  15.223 -0.6339 -0.1788  0.3602
 3131SOL    HW120852   0.686   4.597  15.312  1.7460 -0.5211 -0.1852
 3131SOL    HW220853   0.643   4.542  15.186  0.6951  0.0942 -1.2194
 3132SOL     OW20854   0.219   0.272   0.661  1.2978  0.0484 -0.0247
 3132SOL    HW120855   0.284   0.203   0.648  1.7089 -0.0798  2.6861
 3132SOL    HW220856   0.273   0.342   0.625  0.8894 -0.8813 -2.4378
 3133SOL     OW20857   0.614   2.882   6.612 -0.0300  0.2315 -0.2983
 3133SOL    HW120858   0.534   2.913   6.655  0.1889  0.0249  0.2538
 3133SOL    HW220859   0.589   2.912   6.525 -0.5797 -1.1945 -0.6386
 3134SOL     OW20860   1.057   0.402   5.298 -0.5008 -0.1997 -0.6409
 3134SOL    HW120861   0.989   0.426   5.235 -1.3355  1.3829  0.8597
 3134SOL    HW220862   1.105   0.340   5.243  1.2283  1.5311 -1.0654
 3135SOL     OW20863   1.032   2.036   5.874  0.0326 -0.1041  0.2997
 3135SOL    HW120864   1.009   2.108   5.816 -0.6298  0.2667  1.0324
 3135SOL    HW220865   0.963   2.042   5.939  0.1365 -1.2913  0.5161
 3136SOL     OW20866   4.714   2.290   4.037  0.2418  0.1549  0.0632
 3136SOL    HW120867   0.044   2.323   3.965  1.0459  0.6676  0.9034
 3136SOL    HW220868   4.661   2.223   3.993  0.4887  0.2945 -0.4419
 3137SOL     OW20869   1.398   0.177  15.075 -0.2092  0.0443  0.3965
 3137SOL    HW120870   1.366   0.231  15.148  0.4667  4.4764 -2.6237
 3137SOL    HW220871   1.492   0.193  15.076 -0.5711  2.0021  2.0396
 3138SOL     OW20872   0.093   0.033   8.354  0.5315  0.3752  0.2583
 3138SOL    HW120873   0.025   4.690   8.343  0.6662  0.2413  0.2352
 3138SOL    HW220874   0.076   0.073   8.268  0.6196 -2.4784 -1.0826
 3139SOL     OW20875   3.085   4.685   9.000  0.2497 -0.1868  0.4210
 3139SOL    HW120876   3.122   4.620   9.061  1.1781 -0.1532 -0.0934
 3139SOL    HW220877   3.130   0.045   9.013 -2.1556  0.8424  1.9028
 3140SOL     OW20878   1.294   1.421   5.234  0.3858 -0.3016 -0.1438
 3140SOL    HW120879   1.241   1.364   5.179  1.3482 -0.0850 -1.2956
 3140SOL    HW220880   1.234   1.495   5.243  0.5629 -0.1099 -0.5445
 3141SOL     OW20881   2.857   0.836  13.730  0.2560 -0.0398 -0.0834
 3141SOL    HW120882   2.784   0.781  13.701 -0.2197  0.8770 -0.6337
 3141SOL    HW220883   2.849   0.826  13.825 -0.8492  0.0689 -0.1691
 3142SOL     OW20884   0.118   1.797   3.434  0.6668  0.0487  0.4405
 3142SOL    HW120885   0.106   1.734   3.505 -0.3241 -1.4822 -1.1082
 3142SOL    HW220886   0.026   1.823   3.425  1.8228  3.4061 -1.5186
 3143SOL     OW20887   2.684   1.612  13.187 -0.0401  0.0559  0.1353
 3143SOL    HW120888   2.627   1.560  13.130 -0.4045  0.4318  0.1547
 3143SOL    HW220889   2.675   1.569  13.272 -2.0048  0.6862  0.2438
 3144SOL     OW20890   2.795   4.249   5.273 -0.7791  0.3282 -0.0216
 3144SOL    HW120891   2.847   4.180   5.313 -0.2865 -0.6825 -2.4133
 3144SOL    HW220892   2.730   4.261   5.342 -0.2004  2.2031  0.1882
 3145SOL     OW20893   2.398   3.305   8.712  0.1425  0.3432 -0.0149
 3145SOL    HW120894   2.422   3.321   8.621 -0.1694  0.5391 -0.0620
 3145SOL    HW220895   2.352   3.386   8.734  2.2290  0.6968  2.8922
 3146SOL     OW20896   0.350   1.041   0.014 -0.2327 -0.3018  0.8383
 3146SOL    HW120897   0.297   1.099  17.657  0.0118  0.8197  1.7879
 3146SOL    HW220898   0.414   0.994  17.659 -0.8459 -1.3728  1.0566
 3147SOL     OW20899   2.111   2.842   5.572  0.2405  0.0279 -0.1097
 3147SOL    HW120900   2.200   2.853   5.607  0.7941 -0.3124 -1.3765
 3147SOL    HW220901   2.101   2.924   5.525  2.1520  0.7918  0.8092
 3148SOL     OW20902   0.735   1.178   5.708 -0.2772 -0.3406 -0.0296
 3148SOL    HW120903   0.773   1.128   5.781  2.5833  3.0962  0.8292
 3148SOL    HW220904   0.729   1.110   5.641  0.1969 -2.0118  1.6227
 3149SOL     OW20905   0.236   2.188   4.820  0.1797 -0.4059 -0.5269
 3149SOL    HW120906   0.231   2.231   4.735  0.4067 -0.8717 -0.7729
 3149SOL    HW220907   0.147   2.164   4.844  1.3101 -1.3672  2.7668
 3150SOL     OW20908   3.138   0.104   7.871 -0.0061  0.1207 -0.5315
 3150SOL    HW120909   3.231   0.120   7.857 -0.1158  1.2433  0.0408
 3150SOL    HW220910   3.103   0.088   7.783 -1.4479 -0.7266  0.1886
 3151SOL     OW20911   2.339   2.883   9.841 -0.0084  0.0146  0.0840
 3151SOL    HW120912   2.306   2.828   9.770 -0.7661 -0.9017  1.1584
 3151SOL    HW220913   2.255   2.911   9.877  0.3319 -0.0857  0.9426
 3152SOL     OW20914   3.434   0.819   4.148 -0.0167 -0.0229  0.2082
 3152SOL    HW120915   3.397   0.820   4.060 -0.8034  0.5346  0.5481
 3152SOL    HW220916   3.509   0.760   4.137  1.2829  1.0672  3.2962
 3153SOL     OW20917   3.951   2.598  11.384 -0.1938 -0.1636  0.6485
 3153SOL    HW120918   4.036   2.560  11.405 -0.6133 -2.3795 -1.6773
 3153SOL    HW220919   3.932   2.539  11.312 -0.5367  0.1085  0.5163
 3154SOL     OW20920   1.482   2.936   5.376 -0.2602 -0.8259  0.0142
 3154SOL    HW120921   1.436   2.862   5.338 -0.1426  0.1455 -2.0494
 3154SOL    HW220922   1.555   2.949   5.314 -2.4837 -0.0189 -2.4378
 3155SOL     OW20923   4.046   1.667   8.635 -0.2792  0.0134  0.2390
 3155SOL    HW120924   4.120   1.660   8.575 -0.1997  1.7335  0.1393
 3155SOL    HW220925   4.094   1.681   8.716  0.4759  2.3958 -0.6151
 3156SOL     OW20926   0.707   2.259   1.516 -0.0574  0.4397  0.5048
 3156SOL    HW120927   0.671   2.186   1.566 -3.5511  1.1257 -1.0289
 3156SOL    HW220928   0.693   2.226   1.427  3.6430 -1.9488  0.8305
 3157SOL     OW20929   1.363   1.924  17.201 -0.0712 -0.1243 -0.7350
 3157SOL    HW120930   1.442   1.978  17.194 -0.7398  0.8731 -0.7649
 3157SOL    HW220931   1.378   1.870  17.278 -2.8026  2.1974  1.4006
 3158SOL     OW20932   3.302   4.127   5.813  0.5362 -0.0350  0.4736
 3158SOL    HW120933   3.281   4.077   5.891 -1.9167 -2.4136 -1.7268
 3158SOL    HW220934   3.223   4.181   5.806  1.5171  1.4222  0.5160
 3159SOL     OW20935   0.970   3.349   0.251  0.1902  0.2408  0.3491
 3159SOL    HW120936   1.030   3.410   0.209 -0.8318 -0.0505 -1.5187
 3159SOL    HW220937   0.989   3.353   0.345 -0.2955 -1.1553  0.5150
 3160SOL     OW20938   0.994   2.925   5.607 -0.2453 -0.9493 -0.1845
 3160SOL    HW120939   1.090   2.928   5.614 -0.3099 -1.2806  0.9135
 3160SOL    HW220940   0.983   2.890   5.519 -0.7628  0.2644 -0.6040
 3161SOL     OW20941   3.319   1.250   7.406 -0.3404  0.7847 -0.1153
 3161SOL    HW120942   3.271   1.272   7.326 -0.0672  2.2206  0.1033
 3161SOL    HW220943   3.274   1.172   7.437 -2.5078  2.7290  1.5566
 3162SOL     OW20944   2.992   0.090   7.657  0.2528 -0.2078 -0.5675
 3162SOL    HW120945   2.904   0.087   7.696  1.0951  1.5197  1.4223
 3162SOL    HW220946   2.987   0.028   7.584 -0.5872 -0.6289 -0.1616
 3163SOL     OW20947   4.562   3.101  16.602 -0.0261 -0.0189  0.9123
 3163SOL    HW120948   4.481   3.073  16.560 -0.2905  2.9424 -0.5627
 3163SOL    HW220949   4.553   3.059  16.687  0.0330 -0.2562  0.8031
 3164SOL     OW20950   4.580   1.517   7.242  0.3306  0.0514 -0.0657
 3164SOL    HW120951   4.667   1.516   7.202  0.4363 -0.3545  0.1721
 3164SOL    HW220952   4.577   1.422   7.252  1.0267  0.2498  1.9419
 3165SOL     OW20953   3.510   3.265   8.450  0.0322 -0.3995  0.2790
 3165SOL    HW120954   3.439   3.328   8.435 -2.0526 -2.2941  2.2168
 3165SOL    HW220955   3.546   3.254   8.362  1.9480  0.9973  0.8906
 3166SOL     OW20956   0.244   1.543   5.557  0.6624 -0.1807  0.2307
 3166SOL    HW120957   0.259   1.602   5.482 -1.4828  1.2906  0.9318
 3166SOL    HW220958   0.149   1.533   5.568  1.1621 -2.1734  2.5046
 3167SOL     OW20959   1.660   4.553   7.421  0.4604 -0.1101 -0.4238
 3167SOL    HW120960   1.717   4.629   7.425  1.1838 -0.5771 -1.8628
 3167SOL    HW220961   1.637   4.541   7.329  0.8343 -1.8311 -0.2921
 3168SOL     OW20962   2.948   2.084   3.492  0.2245  0.4475 -0.2809
 3168SOL    HW120963   2.963   2.139   3.569 -0.0292  0.5472 -0.3026
 3168SOL    HW220964   2.919   2.158   3.438  0.6404  1.2517  0.5939
 3169SOL     OW20965   2.886   2.859   8.568  0.5659  0.1242  0.1419
 3169SOL    HW120966   2.973   2.820   8.578  0.9136  0.3475 -1.8430
 3169SOL    HW220967   2.855   2.865   8.658  2.3559  0.1190  0.7505
 3170SOL     OW20968   2.296   2.079   0.773 -0.4415  0.2349 -0.1151
 3170SOL    HW120969   2.341   2.011   0.723 -1.4038 -0.5084  0.0348
 3170SOL    HW220970   2.376   2.126   0.798 -0.4761  1.2399 -1.9077
 3171SOL     OW20971   3.859   1.561   6.670  0.3327  0.1497  0.0743
 3171SOL    HW120972   3.801   1.593   6.740 -0.6717 -0.0631 -0.6596
 3171SOL    HW220973   3.932   1.527   6.722 -0.3074 -0.7447  0.4064
 3172SOL     OW20974   3.857   3.170   3.425 -0.6186 -0.0890 -0.4612
 3172SOL    HW120975   3.824   3.211   3.345  1.1211  1.4470 -0.3797
 3172SOL    HW220976   3.862   3.246   3.482  1.1314 -0.5207 -0.0626
 3173SOL     OW20977   2.990   2.065  16.918  0.1945  0.4059  0.7948
 3173SOL    HW120978   3.057   2.042  16.982 -0.0218 -2.5407 -0.0374
 3173SOL    HW220979   2.915   2.062  16.977  0.3582  0.5194  1.0094
 3174SOL     OW20980   4.301   2.581   4.547  0.2623  0.2630 -0.4023
 3174SOL    HW120981   4.216   2.573   4.589  0.8328 -0.6224  0.5930
 3174SOL    HW220982   4.339   2.668   4.561 -0.3632  0.4278  0.2472
 3175SOL     OW20983   1.637   0.273   6.013  0.1446  0.4255  0.1882
 3175SOL    HW120984   1.604   0.345   6.068 -1.1772 -0.1647  0.1570
 3175SOL    HW220985   1.724   0.257   6.049  0.7978  0.2171 -1.4730
 3176SOL     OW20986   3.812   1.288   5.193  0.4116  0.1374  0.8542
 3176SOL    HW120987   3.774   1.283   5.281  0.6724  0.9721  1.0147
 3176SOL    HW220988   3.840   1.197   5.187  0.2948  0.1007  0.8581
 3177SOL     OW20989   1.362   0.192   6.336 -0.4788 -0.2309  0.1561
 3177SOL    HW120990   1.431   0.142   6.293  0.1081  0.9742 -0.2974
 3177SOL    HW220991   1.362   0.149   6.421  1.8789  1.0154  0.7771
 3178SOL     OW20992   1.505   2.084   0.752  0.4195  0.6493  0.6507
 3178SOL    HW120993   1.456   2.161   0.722 -0.6733 -0.2476  0.1671
 3178SOL    HW220994   1.597   2.111   0.749  0.4312  0.6901  1.5629
 3179SOL     OW20995   3.143   1.639  10.911  0.1804  0.4742  0.0932
 3179SOL    HW120996   3.197   1.636  10.832 -1.2464  1.7467 -0.9304
 3179SOL    HW220997   3.067   1.684  10.875 -0.7388 -0.2403  1.1616
 3180SOL     OW20998   1.919   0.692  16.062 -0.2196 -0.1161 -0.0905
 3180SOL    HW120999   1.976   0.690  16.139 -0.7272  0.3008  0.3031
 3180SOL    HW221000   1.845   0.741  16.099 -0.1616 -0.7117  0.8351
 3181SOL     OW21001   2.135   2.504   0.834  0.0425  0.3638  0.2359
 3181SOL    HW121002   2.050   2.462   0.848  0.2710 -0.1315  0.1419
 3181SOL    HW221003   2.174   2.445   0.769  0.1949  2.1669 -1.2980
 3182SOL     OW21004   0.376   1.155   1.732  0.0596  0.2320 -0.4191
 3182SOL    HW121005   0.437   1.123   1.666 -0.6708 -2.0774  0.0174
 3182SOL    HW221006   0.304   1.092   1.734  0.8073 -0.5720  1.6006
 3183SOL     OW21007   1.168   1.177   7.593 -0.4643 -0.5010 -0.2424
 3183SOL    HW121008   1.229   1.249   7.580 -0.8423  0.1156  1.4041
 3183SOL    HW221009   1.082   1.215   7.572  0.0544  1.1042  0.5183
 3184SOL     OW21010   0.412   1.498  12.733 -0.6923  0.3971 -0.3756
 3184SOL    HW121011   0.405   1.489  12.828 -0.2141 -3.3093 -0.6895
 3184SOL    HW221012   0.334   1.450  12.704  0.9710 -1.4151 -1.7862
 3185SOL     OW21013   0.016   1.472   3.050  0.4234  0.1367 -0.4697
 3185SOL    HW121014   4.709   1.507   3.133 -3.0892 -0.9738 -1.3130
 3185SOL    HW221015   4.689   1.391   3.049 -1.1798  1.1513 -1.2239
 3186SOL     OW21016   0.324   2.263   0.962 -0.3206  0.0615  0.3065
 3186SOL    HW121017   0.251   2.221   0.918 -2.1772  1.9198  1.5827
 3186SOL    HW221018   0.281   2.328   1.018 -0.6432 -0.4518  0.6496
 3187SOL     OW21019   1.729   4.279   4.224  0.8665 -0.0024 -0.3652
 3187SOL    HW121020   1.688   4.229   4.154 -0.7670  3.3789 -1.8347
 3187SOL    HW221021   1.659   4.340   4.248  1.1574  0.9243 -1.8675
 3188SOL     OW21022   0.843   3.538   7.271  0.4007  0.6257 -0.0777
 3188SOL    HW121023   0.844   3.633   7.254 -0.5665  0.2989 -2.0215
 3188SOL    HW221024   0.910   3.535   7.338 -0.6932 -1.1894  0.9181
 3189SOL     OW21025   0.150   4.398   7.423  0.0269  0.0512 -0.6507
 3189SOL    HW121026   0.224   4.430   7.476 -0.7089  1.7812 -0.6742
 3189SOL    HW221027   0.193   4.351   7.352 -0.1638  2.5007 -2.3996
 3190SOL     OW21028   2.281   4.530   2.729 -0.1372  0.4781  0.6868
 3190SOL    HW121029   2.297   4.475   2.653 -0.2340  1.8941 -0.3590
 3190SOL    HW221030   2.364   4.577   2.734 -0.9143  1.8453  0.7048
 3191SOL     OW21031   4.542   2.513   4.075  0.0655  0.0043 -0.4643
 3191SOL    HW121032   4.492   2.475   4.003  1.1446 -1.2198 -0.5626
 3191SOL    HW221033   4.612   2.448   4.085 -1.2936 -1.2675  0.8743
 3192SOL     OW21034   1.985   1.478   5.845 -0.4647  0.1465 -0.1912
 3192SOL    HW121035   1.987   1.410   5.912 -1.8600  0.8283  0.5279
 3192SOL    HW221036   1.965   1.556   5.896  0.8550  0.4358 -0.1244
 3193SOL     OW21037   1.880   3.264   7.594 -0.4160 -0.3617 -0.0497
 3193SOL    HW121038   1.929   3.290   7.672  0.1402 -1.3297 -0.0731
 3193SOL    HW221039   1.948   3.255   7.527  0.5936 -0.2103  0.9603
 3194SOL     OW21040   2.849   1.930   9.688 -0.1241  0.4826 -0.4750
 3194SOL    HW121041   2.787   1.863   9.657 -2.3702  2.2493  0.1624
 3194SOL    HW221042   2.789   1.991   9.731  1.0540  2.5408 -1.8080
 3195SOL     OW21043   1.937   2.098   4.600  0.4840  0.5706 -0.6028
 3195SOL    HW121044   1.918   2.024   4.542  1.4792 -0.6489  0.6190
 3195SOL    HW221045   2.022   2.065   4.629  0.3219  0.8673  0.2080
 3196SOL     OW21046   4.046   3.203   0.664 -0.3230 -0.0643  0.3668
 3196SOL    HW121047   3.988   3.260   0.613 -0.8943 -1.7729 -0.9005
 3196SOL    HW221048   4.083   3.150   0.593 -0.5892  1.7100 -1.0869
 3197SOL     OW21049   2.338   0.972   7.174  0.3717 -1.2004  0.2580
 3197SOL    HW121050   2.267   1.035   7.186 -0.5158 -2.3618  1.1602
 3197SOL    HW221051   2.307   0.929   7.095 -2.6929  0.9944  0.2946
 3198SOL     OW21052   2.865   4.454   1.028 -0.4582  0.5998 -0.0034
 3198SOL    HW121053   2.899   4.418   0.947 -2.2726 -0.1682 -0.4202
 3198SOL    HW221054   2.943   4.482   1.075 -0.3768 -0.0294  0.2294
 3199SOL     OW21055   1.448   3.542  15.611 -0.2414 -0.0197 -0.2546
 3199SOL    HW121056   1.533   3.521  15.571 -0.3678  1.7757 -1.4870
 3199SOL    HW221057   1.479   3.559  15.700 -0.6269  1.4747 -0.3942
 3200SOL     OW21058   1.295   0.619  13.858  0.1229  0.0582  0.4588
 3200SOL    HW121059   1.314   0.626  13.952 -3.4808  0.9623  1.1164
 3200SOL    HW221060   1.357   0.551  13.834  3.3985  3.6341 -1.1396
 3201SOL     OW21061   1.569   4.704  17.091 -0.3295  0.2065 -0.2027
 3201SOL    HW121062   1.613   4.628  17.053  2.6583  1.2698  1.0915
 3201SOL    HW221063   1.583   0.046  17.023  1.9887  0.4341  0.4884
 3202SOL     OW21064   1.292   2.266   0.313  0.0469  0.3735  0.1041
 3202SOL    HW121065   1.373   2.285   0.266  0.0180  1.3610  0.4715
 3202SOL    HW221066   1.228   2.315   0.262  0.4881 -1.0921 -1.8965
 3203SOL     OW21067   0.037   4.284   3.246  0.6760  0.1786 -0.8526
 3203SOL    HW121068   0.014   4.367   3.205  1.8212  1.5466  1.3227
 3203SOL    HW221069   0.088   4.238   3.179  1.4169  0.2699 -0.3568
 3204SOL     OW21070   4.344   0.315  13.995 -0.2654  0.4271  0.7696
 3204SOL    HW121071   4.248   0.316  13.996 -0.2696  0.6664 -0.7582
 3204SOL    HW221072   4.361   0.257  14.070  0.5140 -1.0396 -0.5454
 3205SOL     OW21073   4.147   2.033   8.483 -0.7589  0.5991 -0.2530
 3205SOL    HW121074   4.071   2.031   8.541 -0.0398  1.4628  0.7176
 3205SOL    HW221075   4.118   1.967   8.420 -1.8907 -0.4296  1.3243
 3206SOL     OW21076   1.028   1.039  12.765  0.3624  1.0107 -0.2299
 3206SOL    HW121077   1.022   1.031  12.670  0.0548 -1.0204 -0.0452
 3206SOL    HW221078   1.006   0.952  12.798  0.4087  1.3666  0.7184
 3207SOL     OW21079   2.124   0.204   3.291 -0.4422 -0.6491 -0.1067
 3207SOL    HW121080   2.179   0.127   3.277 -1.4308 -1.0890 -1.5349
 3207SOL    HW221081   2.193   0.271   3.284  0.5174 -1.8841 -2.5904
 3208SOL     OW21082   0.345   3.850   7.002  0.3693  0.2147  0.3668
 3208SOL    HW121083   0.385   3.763   7.007  2.1846  1.0306  0.0242
 3208SOL    HW221084   0.336   3.850   6.907 -2.0172 -0.8480  0.6006
 3209SOL     OW21085   0.379   1.913   8.875 -0.0315 -0.6583  0.2981
 3209SOL    HW121086   0.293   1.875   8.894 -0.1059 -0.0564  1.1779
 3209SOL    HW221087   0.372   1.901   8.780 -0.7236  3.9219 -0.2187
 3210SOL     OW21088   4.323   2.742   2.437  0.2484 -0.2726  0.4987
 3210SOL    HW121089   4.325   2.650   2.411  3.0203  0.4152 -1.7545
 3210SOL    HW221090   4.354   2.789   2.360  0.7609 -1.2641  0.1041
 3211SOL     OW21091   1.057   2.434  12.586 -0.0980 -0.5856 -0.0091
 3211SOL    HW121092   1.087   2.420  12.676 -0.2398 -0.4057  0.0661
 3211SOL    HW221093   1.143   2.459  12.551  0.2493 -0.6657  0.8024
 3212SOL     OW21094   0.870   2.289   0.897 -0.6882 -0.3545 -0.0971
 3212SOL    HW121095   0.779   2.285   0.867 -0.0182 -0.9722 -2.0286
 3212SOL    HW221096   0.860   2.288   0.992 -0.2160  0.9610 -0.0363
 3213SOL     OW21097   0.835   1.756   6.588 -0.5852  0.3308 -0.3734
 3213SOL    HW121098   0.773   1.684   6.572 -1.9927  1.4307  0.0596
 3213SOL    HW221099   0.774   1.814   6.634 -2.7093 -0.1665 -2.5117
 3214SOL     OW21100   2.922   3.286  11.776  0.4625  0.1721  0.1631
 3214SOL    HW121101   2.849   3.251  11.827  2.2493 -2.1491  1.1726
 3214SOL    HW221102   2.918   3.380  11.793  0.4318  0.7235 -2.9554
 3215SOL     OW21103   1.803   2.721   1.169 -0.1632  0.0141  0.4950
 3215SOL    HW121104   1.710   2.721   1.146 -0.2568  0.7787  0.8686
 3215SOL    HW221105   1.804   2.663   1.245  0.5775  0.1246  0.5727
 3216SOL     OW21106   0.075   0.003   5.957  0.1330  0.5710  0.0185
 3216SOL    HW121107   0.128   0.022   6.034 -1.7025 -0.3700  1.5311
 3216SOL    HW221108   0.001   4.687   6.004 -0.6106  0.0651 -1.5577
 3217SOL     OW21109   3.097   3.449   1.019 -0.4929 -0.2353 -0.4139
 3217SOL    HW121110   3.068   3.463   1.109  0.5743 -1.8574  0.1792
 3217SOL    HW221111   3.185   3.488   1.021 -1.0682  1.0209  0.4448
 3218SOL     OW21112   3.037   0.060   6.067  0.1056  0.0463 -0.1005
 3218SOL    HW121113   3.128   0.088   6.059  0.1414 -0.0281  0.0484
 3218SOL    HW221114   3.004   0.072   5.978 -2.6833  0.7174  1.0148
 3219SOL     OW21115   3.671   0.022  12.795 -0.0885  0.0118  0.0611
 3219SOL    HW121116   3.680   0.099  12.740  1.6901 -2.0237 -2.5291
 3219SOL    HW221117   3.638   0.060  12.876 -1.6909 -0.0259 -0.5738
 3220SOL     OW21118   4.373   1.556   9.718 -0.3331  0.0770 -0.5949
 3220SOL    HW121119   4.454   1.607   9.710  0.5209 -0.8880  1.8015
 3220SOL    HW221120   4.379   1.541   9.813 -0.1936 -0.7437 -0.7353
 3221SOL     OW21121   3.621   2.313   8.332 -0.1288 -0.0545  0.2695
 3221SOL    HW121122   3.542   2.277   8.374 -1.9984 -1.9994 -4.9593
 3221SOL    HW221123   3.675   2.234   8.322 -1.6073 -1.0336 -0.0294
 3222SOL     OW21124   1.930   2.851  12.046 -0.2366 -0.3317 -0.4810
 3222SOL    HW121125   1.942   2.832  12.139 -3.2779 -2.7473 -0.5859
 3222SOL    HW221126   1.963   2.774  11.999  1.5326  0.1948 -0.1021
 3223SOL     OW21127   4.398   3.788   5.304 -0.5612 -0.0654  0.1215
 3223SOL    HW121128   4.345   3.745   5.371  2.5546  0.0804  2.6676
 3223SOL    HW221129   4.342   3.810   5.229 -0.1319  0.5595 -0.0167
 3224SOL     OW21130   2.988   0.663   2.295  0.1627  0.4766 -0.4839
 3224SOL    HW121131   2.948   0.735   2.244 -1.7390  0.2702  0.7125
 3224SOL    HW221132   3.080   0.673   2.273  0.0477 -0.6818 -1.4886
 3225SOL     OW21133   2.426   0.107  16.915 -0.6648  0.7396  0.4938
 3225SOL    HW121134   2.429   0.080  17.007 -0.1333 -0.2181  0.2001
 3225SOL    HW221135   2.406   0.025  16.870 -1.1159  1.0302  0.1671
 3226SOL     OW21136   4.063   1.635   0.191  0.1478 -0.3709 -0.0839
 3226SOL    HW121137   4.048   1.720   0.233  0.8196  0.1853 -0.9468
 3226SOL    HW221138   4.027   1.659   0.105  0.4979 -0.5844 -0.2900
 3227SOL     OW21139   1.841   0.804   5.085 -0.0687  0.0808 -0.3490
 3227SOL    HW121140   1.834   0.840   4.996 -1.8607 -1.3965 -0.8193
 3227SOL    HW221141   1.751   0.780   5.108  0.2621  0.7333  1.5973
 3228SOL     OW21142   2.893   1.199   7.489  0.0309  0.0795  0.2265
 3228SOL    HW121143   2.868   1.290   7.475 -0.4869 -0.5371 -2.7851
 3228SOL    HW221144   2.824   1.155   7.540 -0.5779  0.0408 -0.6256
 3229SOL     OW21145   3.833   2.285   5.160  0.1470 -0.3661  0.2718
 3229SOL    HW121146   3.858   2.352   5.224  0.9854  0.2672 -0.7242
 3229SOL    HW221147   3.767   2.249   5.219  1.4589  0.1549  2.0532
 3230SOL     OW21148   2.574   2.561   8.637  0.2794  0.0202 -0.1902
 3230SOL    HW121149   2.579   2.466   8.623  0.8410  0.0105  0.0517
 3230SOL    HW221150   2.622   2.583   8.557  1.6156 -0.3612  0.4902
 3231SOL     OW21151   0.442   3.552   7.280 -0.0746  0.3544 -0.0008
 3231SOL    HW121152   0.347   3.567   7.280  0.1267  1.6126  0.4735
 3231SOL    HW221153   0.467   3.596   7.199  1.8468  0.0690  0.4443
 3232SOL     OW21154   0.421   2.319   5.997  0.6293  0.5671 -0.3975
 3232SOL    HW121155   0.327   2.324   5.981  0.5766 -0.2072 -0.3485
 3232SOL    HW221156   0.466   2.315   5.913 -0.5305  0.6363 -1.0151
 3233SOL     OW21157   0.664   2.343   4.405  0.3316 -0.0034 -0.2490
 3233SOL    HW121158   0.594   2.402   4.432  1.6994  1.6507 -0.2965
 3233SOL    HW221159   0.630   2.307   4.323 -0.0410  0.9263 -0.5005
 3234SOL     OW21160   3.245   3.983  11.511 -0.7645 -0.3762  0.2038
 3234SOL    HW121161   3.233   3.994  11.606  2.1196 -0.5334  0.5787
 3234SOL    HW221162   3.259   4.073  11.482 -0.0605 -0.2810  0.8583
 3235SOL     OW21163   4.412   3.314   6.214 -0.2065  0.1883  0.0213
 3235SOL    HW121164   4.466   3.241   6.184  0.5991  1.6052 -2.0348
 3235SOL    HW221165   4.339   3.300   6.153  1.4511  0.5052 -2.0530
 3236SOL     OW21166   1.496   0.916   1.225  0.3510 -0.1999 -0.1776
 3236SOL    HW121167   1.590   0.903   1.216  0.1526 -0.5087 -1.7914
 3236SOL    HW221168   1.453   0.834   1.249 -0.7819  0.1713 -0.9045
 3237SOL     OW21169   3.682   1.617   4.331  0.1507  0.2052 -0.3793
 3237SOL    HW121170   3.684   1.704   4.293  0.4948 -0.1365 -1.1488
 3237SOL    HW221171   3.597   1.584   4.303  0.3367 -0.9972  0.4556
 3238SOL     OW21172   0.272   3.528   8.473 -0.3499 -0.3840  0.3924
 3238SOL    HW121173   0.307   3.445   8.442  0.5302  0.8674 -1.9620
 3238SOL    HW221174   0.297   3.522   8.565  2.1989 -1.3157 -0.3720
 3239SOL     OW21175   2.111   3.291   6.089  0.0360  0.6782 -0.0233
 3239SOL    HW121176   2.183   3.246   6.045 -2.3164 -1.7672 -1.3682
 3239SOL    HW221177   2.074   3.344   6.018 -1.6843 -0.5491 -0.0433
 3240SOL     OW21178   2.155   2.193  17.516 -0.2804  0.0157  0.2028
 3240SOL    HW121179   2.146   2.242  17.434  2.4050  0.3231  0.0876
 3240SOL    HW221180   2.250   2.187  17.513 -0.3592 -1.3150  0.6789
 3241SOL     OW21181   2.384   0.244   5.546  0.1402  0.0276  0.2163
 3241SOL    HW121182   2.335   0.183   5.490  0.9725 -0.1805 -0.2840
 3241SOL    HW221183   2.324   0.241   5.620 -1.9056 -0.7054 -1.4688
 3242SOL     OW21184   2.531   2.907   7.766 -0.0133  0.0107  0.3258
 3242SOL    HW121185   2.540   2.903   7.670  0.8760 -1.0105  0.4525
 3242SOL    HW221186   2.480   2.828   7.783  0.6097 -1.1292 -3.0571
 3243SOL     OW21187   3.344   1.735  13.899 -0.8560  0.0201 -0.2718
 3243SOL    HW121188   3.287   1.734  13.822  0.8509  0.3095 -1.5388
 3243SOL    HW221189   3.277   1.727  13.967 -0.8496  3.8153  0.2121
 3244SOL     OW21190   3.161   4.154   0.872 -0.1120  0.3391 -0.0493
 3244SOL    HW121191   3.109   4.235   0.878 -1.2586 -0.3221 -1.0377
 3244SOL    HW221192   3.146   4.137   0.779 -1.5973  3.0604 -0.3120
 3245SOL     OW21193   2.814   1.634   2.189  0.3845 -0.3098 -0.0990
 3245SOL    HW121194   2.874   1.689   2.239 -0.2607 -0.8194  1.2548
 3245SOL    HW221195   2.846   1.544   2.201 -0.6417 -0.8492 -1.3916
 3246SOL     OW21196   0.472   0.500   6.104  0.0246  0.2258 -0.9726
 3246SOL    HW121197   0.429   0.484   6.188 -1.2028  0.7809 -1.4982
 3246SOL    HW221198   0.444   0.428   6.048 -0.7212 -0.3363  0.1334
 3247SOL     OW21199   1.485   2.757   1.918 -0.2841 -0.2651  0.1423
 3247SOL    HW121200   1.580   2.758   1.902 -0.3992 -2.3219 -0.7194
 3247SOL    HW221201   1.454   2.835   1.871  0.1724  0.9267  1.8086
 3248SOL     OW21202   2.079   2.947   6.462  0.4794  0.4916  0.5524
 3248SOL    HW121203   2.116   3.020   6.511 -1.7025  1.6836  0.4075
 3248SOL    HW221204   1.992   2.978   6.437 -0.5219 -1.6162  1.4125
 3249SOL     OW21205   3.741   4.100   8.922  0.4490 -0.0461 -0.2945
 3249SOL    HW121206   3.731   4.045   8.844  0.6007  1.7397 -1.5898
 3249SOL    HW221207   3.806   4.051   8.971  1.0450 -1.3926 -2.4527
 3250SOL     OW21208   0.328   3.505   8.734  0.0300  0.1403  0.1427
 3250SOL    HW121209   0.338   3.413   8.759 -1.9269  0.0241  0.4917
 3250SOL    HW221210   0.235   3.517   8.752  0.6251  2.2333  1.8015
 3251SOL     OW21211   2.282   2.902   9.371  0.0485 -0.0247 -0.0944
 3251SOL    HW121212   2.259   2.851   9.449  0.8742 -0.0447  0.1328
 3251SOL    HW221213   2.369   2.865   9.356  0.6365  1.2805  0.0916
 3252SOL     OW21214   3.268   2.939   5.787 -0.7578 -0.3151  0.3354
 3252SOL    HW121215   3.202   2.952   5.855 -1.0097  1.1212 -0.1860
 3252SOL    HW221216   3.242   2.848   5.768  1.5228 -1.4724  2.7529
 3253SOL     OW21217   1.920   3.867   2.775  0.3748  0.1971  0.4025
 3253SOL    HW121218   1.920   3.794   2.713 -1.6932  1.4359 -1.0764
 3253SOL    HW221219   1.848   3.917   2.736 -0.4078 -0.0540  1.5291
 3254SOL     OW21220   0.171   2.785   3.527 -0.5266  0.1754  1.2402
 3254SOL    HW121221   0.231   2.816   3.459 -1.0445 -0.1040  0.6678
 3254SOL    HW221222   0.158   2.869   3.573 -3.6643  0.6433 -0.5118
 3255SOL     OW21223   2.580   0.753   5.654  0.0238 -0.3908  0.6414
 3255SOL    HW121224   2.670   0.757   5.620 -0.5463 -1.1117 -0.9477
 3255SOL    HW221225   2.580   0.657   5.661  2.5259 -0.4129  0.4458
 3256SOL     OW21226   4.483   3.802   1.871  0.0993 -0.2635 -0.3030
 3256SOL    HW121227   4.479   3.871   1.805  0.0349 -1.0933 -1.1690
 3256SOL    HW221228   4.393   3.788   1.901  1.1918 -3.1214  1.6003
 3257SOL     OW21229   1.170   0.009   0.695 -0.0802 -0.2135  0.1406
 3257SOL    HW121230   1.151   0.074   0.628  1.6447  0.7774  0.6196
 3257SOL    HW221231   1.111   4.666   0.660  0.0349 -0.7693  0.9965
 3258SOL     OW21232   0.078   4.164   0.861 -0.1747 -0.2001 -0.3096
 3258SOL    HW121233   0.117   4.129   0.781 -0.1008  0.3990 -0.5375
 3258SOL    HW221234   0.096   4.257   0.850 -0.8729  0.1093  1.1907
 3259SOL     OW21235   3.339   4.585   0.663 -0.2161  0.3257  0.1352
 3259SOL    HW121236   3.330   4.671   0.703 -1.1672  1.2485 -2.0305
 3259SOL    HW221237   3.375   4.535   0.737 -0.9628  0.7400  0.7779
 3260SOL     OW21238   0.248   4.472   4.395  1.0392  0.9011  0.1972
 3260SOL    HW121239   0.167   4.516   4.420 -0.5318 -1.0136 -1.5454
 3260SOL    HW221240   0.220   4.381   4.410 -1.4553  1.9226  1.8474
 3261SOL     OW21241   0.827   3.899   3.283 -0.3379 -0.2913 -0.1124
 3261SOL    HW121242   0.739   3.921   3.254 -1.0566  0.0311  2.3110
 3261SOL    HW221243   0.818   3.804   3.278  0.3848 -0.3252 -0.7828
 3262SOL     OW21244   3.968   0.020  15.504 -0.1469  0.0811 -0.1483
 3262SOL    HW121245   3.969   4.649  15.509  0.5842  0.0276 -1.3034
 3262SOL    HW221246   3.875   0.034  15.483 -0.0564  1.1353  0.1530
 3263SOL     OW21247   0.071   3.336  14.054 -0.2070 -0.0987  0.2402
 3263SOL    HW121248   0.049   3.399  13.985 -2.8885 -2.5003 -1.0845
 3263SOL    HW221249   0.153   3.298  14.024 -0.4821 -0.9832  0.5955
 3264SOL     OW21250   3.761   1.354  13.080  0.1587 -0.1105 -0.1861
 3264SOL    HW121251   3.791   1.318  12.997  1.3723 -0.6144  0.4692
 3264SOL    HW221252   3.784   1.286  13.143  0.8953  0.0887 -0.2449
 3265SOL     OW21253   0.667   0.401  15.159 -0.0372  0.5410  0.2923
 3265SOL    HW121254   0.600   0.347  15.118  0.9866 -0.4775 -0.0364
 3265SOL    HW221255   0.740   0.339  15.157 -0.1467  0.3916  1.0155
 3266SOL     OW21256   3.413   0.353   5.303  0.2865 -0.2576  0.4508
 3266SOL    HW121257   3.447   0.298   5.373 -0.4956  1.3287  2.0984
 3266SOL    HW221258   3.415   0.305   5.221 -0.4852 -0.1421  0.3589
 3267SOL     OW21259   2.579   3.545  10.117  0.2542 -0.0895  0.2436
 3267SOL    HW121260   2.490   3.510  10.121  0.6137 -1.0508 -0.2736
 3267SOL    HW221261   2.571   3.617  10.180 -1.1916 -1.4858  1.6583
 3268SOL     OW21262   1.063   2.809   3.596 -0.4346  0.2479  0.8592
 3268SOL    HW121263   1.020   2.877   3.544 -0.4148  0.0637  0.5991
 3268SOL    HW221264   1.005   2.801   3.671 -1.6764 -0.3936 -0.1591
 3269SOL     OW21265   1.662   2.964  11.811 -0.1503  0.5921 -0.8463
 3269SOL    HW121266   1.754   2.987  11.821 -0.4677  0.4148  2.3674
 3269SOL    HW221267   1.666   2.917  11.727 -0.0180 -1.3214  0.2130
 3270SOL     OW21268   3.458   3.381   1.427 -0.1457  0.3117  0.1563
 3270SOL    HW121269   3.551   3.359   1.421  0.4581  2.4188  1.7436
 3270SOL    HW221270   3.424   3.341   1.347  1.5578  0.1378 -0.4863
 3271SOL     OW21271   3.284   1.354   8.735  0.3139 -0.7156 -0.1798
 3271SOL    HW121272   3.286   1.385   8.826 -1.6888  2.2356 -1.1223
 3271SOL    HW221273   3.349   1.284   8.727  0.3400 -0.5136 -1.6875
 3272SOL     OW21274   3.553   1.669   5.953 -0.4764 -0.0752  0.5889
 3272SOL    HW121275   3.520   1.648   6.041 -1.3479 -0.8299  0.0822
 3272SOL    HW221276   3.647   1.651   5.951 -1.0340 -2.5706 -3.2116
 3273SOL     OW21277   3.043   0.397   9.038  0.8739  0.1255 -0.0165
 3273SOL    HW121278   3.112   0.331   9.041  1.6450  0.9252 -0.0795
 3273SOL    HW221279   2.963   0.345   9.046  0.4954  0.7574  0.3182
 3274SOL     OW21280   3.449   3.536   8.035  0.3940  0.1516  0.1545
 3274SOL    HW121281   3.449   3.616   8.087  0.0430 -0.6420  1.3757
 3274SOL    HW221282   3.527   3.554   7.983  1.3381 -0.2334  1.4263
 3275SOL     OW21283   1.478   1.564  14.589 -0.0542  0.1577  0.0914
 3275SOL    HW121284   1.551   1.597  14.536 -0.7996 -0.5127 -1.3553
 3275SOL    HW221285   1.506   1.477  14.618  0.5646  1.3780  3.1865
 3276SOL     OW21286   0.345   0.956   4.354 -0.1734 -0.7843  0.1868
 3276SOL    HW121287   0.348   0.881   4.414  0.4594 -2.2348 -1.6377
 3276SOL    HW221288   0.376   0.924   4.269 -0.1653 -1.1863  0.3416
 3277SOL     OW21289   2.598   3.524  14.870 -0.7505  0.0512  0.2803
 3277SOL    HW121290   2.620   3.431  14.863  0.7185  0.2877  1.7274
 3277SOL    HW221291   2.674   3.559  14.917 -0.2220 -1.3553  0.4652
 3278SOL     OW21292   0.647   0.904  15.228 -0.1746  0.1732  0.2931
 3278SOL    HW121293   0.642   0.809  15.240  0.3628  0.1955  0.6924
 3278SOL    HW221294   0.697   0.914  15.147 -0.0301  1.0586  0.4961
 3279SOL     OW21295   3.889   2.064  12.273 -0.0269 -0.4244 -0.4492
 3279SOL    HW121296   3.915   1.972  12.280 -1.6943 -0.8685 -0.1612
 3279SOL    HW221297   3.883   2.094  12.364 -2.1738  0.6693 -0.9453
 3280SOL     OW21298   2.962   2.672   0.511  0.0470  0.6556  0.8548
 3280SOL    HW121299   2.887   2.613   0.505  2.6194 -2.4893 -0.3893
 3280SOL    HW221300   2.989   2.692   0.421 -1.7244 -1.0230 -0.0288
 3281SOL     OW21301   0.710   1.580   9.501 -0.1633  0.7807  0.6985
 3281SOL    HW121302   0.805   1.575   9.504 -0.1057  0.6169 -1.5315
 3281SOL    HW221303   0.687   1.490   9.477  1.3245  1.1843 -2.3123
 3282SOL     OW21304   4.541   0.679   8.197  0.1802 -0.5733  0.4505
 3282SOL    HW121305   4.573   0.767   8.178  1.0757 -0.2334  3.5229
 3282SOL    HW221306   4.611   0.659   8.260  0.0722 -0.6854  0.5334
 3283SOL     OW21307   2.196   0.535   3.910 -0.1691  0.7056  0.0944
 3283SOL    HW121308   2.102   0.539   3.928 -0.0417 -1.9674  1.3226
 3283SOL    HW221309   2.194   0.575   3.823  1.1906 -0.3776 -0.4265
 3284SOL     OW21310   0.227   3.942  10.012  0.8081  0.4628  0.0436
 3284SOL    HW121311   0.214   3.878  10.081  0.6025 -0.3667 -0.7612
 3284SOL    HW221312   0.276   4.015  10.050  0.0800  0.7256  0.4746
 3285SOL     OW21313   3.708   2.637   2.464  0.2756 -0.1207 -0.7136
 3285SOL    HW121314   3.652   2.711   2.489 -0.4464 -1.1453  0.6695
 3285SOL    HW221315   3.767   2.618   2.537 -1.0521 -0.8666  0.1514
 3286SOL     OW21316   2.537   3.838   0.903 -0.1231 -0.0514  0.5088
 3286SOL    HW121317   2.478   3.812   0.832  0.5190 -2.2245  0.7574
 3286SOL    HW221318   2.544   3.933   0.898  1.1422 -0.1257  0.8964
 3287SOL     OW21319   1.331   4.275   4.203 -0.6304  0.4218  0.4665
 3287SOL    HW121320   1.325   4.363   4.239 -2.2138  0.9174 -0.9987
 3287SOL    HW221321   1.304   4.225   4.280 -0.7666  0.2989  0.3407
 3288SOL     OW21322   1.087   1.758   2.865 -0.0751  0.2631 -0.1251
 3288SOL    HW121323   1.000   1.775   2.828  1.5959  1.3775 -3.6200
 3288SOL    HW221324   1.060   1.710   2.943  1.0002 -0.7120 -0.3634
 3289SOL     OW21325   2.214   1.900   8.143 -0.0967  0.2594 -0.3933
 3289SOL    HW121326   2.275   1.875   8.212 -0.1865  0.8598 -0.0955
 3289SOL    HW221327   2.260   1.910   8.059 -1.4376 -1.4395 -1.3420
 3290SOL     OW21328   2.601   2.729   1.016  0.0576  1.0537  0.1586
 3290SOL    HW121329   2.677   2.685   1.055  0.9849  0.4864 -2.2747
 3290SOL    HW221330   2.645   2.807   0.983  2.2591 -0.1211  0.3095
 3291SOL     OW21331   0.865   3.342   5.931  0.2686 -0.8393  0.2514
 3291SOL    HW121332   0.810   3.396   5.875  0.4850 -0.6631  0.2092
 3291SOL    HW221333   0.903   3.289   5.861  0.1429 -1.3391  0.5625
 3292SOL     OW21334   1.480   1.548  11.750 -0.3377 -0.1667 -0.8906
 3292SOL    HW121335   1.504   1.460  11.781  0.4933 -0.4895 -2.4461
 3292SOL    HW221336   1.561   1.570  11.704  0.3589  0.9741  0.9113
 3293SOL     OW21337   4.012   1.289   5.776 -0.1600 -0.0926 -0.2858
 3293SOL    HW121338   4.082   1.225   5.790 -0.7252 -0.3921  1.1182
 3293SOL    HW221339   3.934   1.240   5.803 -0.3289  1.0433  1.2640
 3294SOL     OW21340   4.085   0.117   4.158  0.1754  0.0701  0.3998
 3294SOL    HW121341   4.140   0.182   4.201  1.1763  0.7266 -1.8633
 3294SOL    HW221342   4.085   0.044   4.220 -1.6570  1.6962  2.2689
 3295SOL     OW21343   1.478   2.464   3.912 -0.0359 -0.1541 -0.4958
 3295SOL    HW121344   1.539   2.428   3.848  0.1473 -0.5140 -0.1103
 3295SOL    HW221345   1.494   2.405   3.986 -1.8709  0.2376  0.2162
 3296SOL     OW21346   4.432   0.658  16.594 -0.0167  0.3243 -0.7139
 3296SOL    HW121347   4.450   0.657  16.500  0.3602 -4.7456 -0.6042
 3296SOL    HW221348   4.436   0.565  16.615 -0.1383  0.6865  0.9047
 3297SOL     OW21349   4.169   2.671   9.111 -0.0004  0.2769 -0.2532
 3297SOL    HW121350   4.258   2.638   9.097 -0.1825 -0.1032 -0.4933
 3297SOL    HW221351   4.170   2.758   9.070 -2.9079  0.2815 -0.3298
 3298SOL     OW21352   3.188   3.029   7.962  0.2876 -0.0011 -0.1082
 3298SOL    HW121353   3.130   2.999   8.031  0.7508  1.7854  1.0462
 3298SOL    HW221354   3.267   3.023   8.015 -0.4544 -5.4633  0.3706
 3299SOL     OW21355   3.410   0.686   7.363 -0.1316 -0.3293 -0.0242
 3299SOL    HW121356   3.475   0.680   7.293  0.6420 -0.8948  0.7524
 3299SOL    HW221357   3.327   0.669   7.317  0.4962  1.1785 -1.7456
 3300SOL     OW21358   1.852   4.711  15.444 -0.3087 -0.2179 -0.0542
 3300SOL    HW121359   1.804   4.628  15.442 -0.5316 -0.0845 -0.2894
 3300SOL    HW221360   1.780   0.047  15.464 -0.4966 -0.6257  0.4988
 3301SOL     OW21361   3.422   0.258   6.569  0.1756  0.2204 -0.5005
 3301SOL    HW121362   3.362   0.292   6.502 -0.5166 -0.6623 -0.3289
 3301SOL    HW221363   3.416   0.322   6.640 -0.6175 -1.2758  0.7675
 3302SOL     OW21364   0.350   4.248   5.914  0.1055 -0.0237  0.7516
 3302SOL    HW121365   0.347   4.232   6.008  0.2288 -0.5641  0.6609
 3302SOL    HW221366   0.352   4.157   5.884  1.4263  0.0771  0.5510
 3303SOL     OW21367   0.779   0.074   7.495  0.1856 -0.2449 -0.6337
 3303SOL    HW121368   0.711   0.055   7.430  0.2952 -0.3317 -0.7239
 3303SOL    HW221369   0.848   0.112   7.441  1.1944  1.2778  1.7365
 3304SOL     OW21370   1.545   2.478   9.238  0.3873  0.0626 -0.0112
 3304SOL    HW121371   1.627   2.442   9.272  0.0236 -0.1465  0.6334
 3304SOL    HW221372   1.497   2.500   9.317  1.7555  0.9592  0.5837
 3305SOL     OW21373   4.264   4.075   3.623 -0.7146 -0.0613  0.1583
 3305SOL    HW121374   4.353   4.053   3.652  0.0629 -1.6718 -3.5018
 3305SOL    HW221375   4.237   4.138   3.690  1.9209 -0.5383  1.6748
 3306SOL     OW21376   0.331   1.164   6.751 -0.1735 -0.2330 -0.0346
 3306SOL    HW121377   0.255   1.197   6.798  0.2719  2.0264 -0.8701
 3306SOL    HW221378   0.293   1.110   6.682  0.4463  0.1210 -0.6564
 3307SOL     OW21379   2.628   2.967   1.361 -0.1129  0.2200  0.3027
 3307SOL    HW121380   2.611   3.042   1.305  1.1025 -1.0751 -1.7858
 3307SOL    HW221381   2.536   2.949   1.383  0.1238 -1.3120  0.0789
 3308SOL     OW21382   2.787   0.937  11.571  0.0829  0.2231  0.6223
 3308SOL    HW121383   2.716   0.949  11.634 -0.7319 -1.0393 -0.0245
 3308SOL    HW221384   2.823   1.025  11.575  0.9506 -0.1712  1.3011
 3309SOL     OW21385   4.676   3.045   7.211  0.7228  0.6595  0.3707
 3309SOL    HW121386   4.674   2.950   7.202 -0.9044  0.8194 -1.1526
 3309SOL    HW221387   4.639   3.071   7.126  0.8692 -0.7167 -0.1166
 3310SOL     OW21388   3.980   3.042   8.185  0.5029  0.2104  0.6057
 3310SOL    HW121389   4.061   3.067   8.140 -0.5419  0.6292 -1.0604
 3310SOL    HW221390   3.937   3.127   8.173  0.9054  0.6814  2.5387
 3311SOL     OW21391   1.526   1.666   7.117  0.4751 -0.0893  0.1058
 3311SOL    HW121392   1.447   1.674   7.170  0.1097  1.2548 -0.6326
 3311SOL    HW221393   1.505   1.592   7.060  0.7900  1.7719 -2.4299
 3312SOL     OW21394   2.601   3.464   5.568 -0.4841  0.0746 -0.1493
 3312SOL    HW121395   2.672   3.496   5.624 -0.2162  1.0716 -1.0603
 3312SOL    HW221396   2.633   3.462   5.478 -2.0704  3.2156 -0.7748
 3313SOL     OW21397   0.539   4.545   7.822  0.4952  0.2931  0.0004
 3313SOL    HW121398   0.539   4.641   7.822 -1.6286  0.3053  1.9822
 3313SOL    HW221399   0.495   4.518   7.903 -1.8810 -2.1783 -2.1308
 3314SOL     OW21400   0.022   1.585   3.908  0.3985  0.3464  0.6129
 3314SOL    HW121401   0.069   1.606   3.988 -0.8650  1.7697  0.9804
 3314SOL    HW221402   4.714   1.502   3.943 -0.6215 -0.3517 -1.9631
 3315SOL     OW21403   3.278   0.188   1.676 -0.0398  0.4837  0.2697
 3315SOL    HW121404   3.241   0.255   1.617 -0.3070  0.5253  0.4809
 3315SOL    HW221405   3.220   0.205   1.751  0.0527 -0.8318  0.6371
 3316SOL     OW21406   0.434   2.597   5.786 -0.1622 -0.3155  0.0134
 3316SOL    HW121407   0.404   2.529   5.725 -0.1895 -1.3862  1.2361
 3316SOL    HW221408   0.524   2.607   5.755  0.3694 -0.8339  1.4012
 3317SOL     OW21409   0.781   1.395   6.277 -0.1254  0.4802  0.4269
 3317SOL    HW121410   0.789   1.338   6.201  0.7888 -0.1695  1.0221
 3317SOL    HW221411   0.860   1.448   6.289 -0.0473  0.6567 -0.8082
 3318SOL     OW21412   0.827   0.299   0.731 -0.0744 -0.7023 -0.0707
 3318SOL    HW121413   0.816   0.219   0.679 -0.0928 -1.1863  0.6705
 3318SOL    HW221414   0.918   0.302   0.759  0.9027 -0.8567 -3.2280
 3319SOL     OW21415   1.021   2.962   1.568  0.1331 -0.2680 -0.3022
 3319SOL    HW121416   0.998   3.023   1.499  0.8841 -0.0861 -0.3955
 3319SOL    HW221417   1.044   2.892   1.508  0.5891  0.8134 -1.3905
 3320SOL     OW21418   1.186   3.042   8.043 -0.2444 -0.5025 -0.5632
 3320SOL    HW121419   1.100   3.002   8.034 -0.4328  0.3986 -2.5874
 3320SOL    HW221420   1.220   3.037   7.954  0.7763  0.7898 -0.2463
 3321SOL     OW21421   4.614   0.523   2.403 -0.2851 -0.6454 -1.0303
 3321SOL    HW121422   4.604   0.551   2.494  2.0798  0.8426 -1.2316
 3321SOL    HW221423   4.542   0.572   2.362 -0.0242 -0.0711 -0.7965
 3322SOL     OW21424   1.653   2.529  15.045 -0.1688  0.3138  0.4867
 3322SOL    HW121425   1.714   2.565  15.110 -0.1203 -2.0821  1.7665
 3322SOL    HW221426   1.633   2.453  15.101  0.9816 -0.3595 -0.0348
 3323SOL     OW21427   1.019   3.286   9.372  0.3346  0.7216  0.0543
 3323SOL    HW121428   0.956   3.268   9.303  1.5211 -0.9281 -0.5998
 3323SOL    HW221429   0.958   3.287   9.446  0.9882 -0.2717  0.6054
 3324SOL     OW21430   0.584   3.099   3.335 -0.8909  0.4090 -0.1813
 3324SOL    HW121431   0.551   3.131   3.251 -1.4629  2.7507  0.9400
 3324SOL    HW221432   0.636   3.174   3.363 -1.9270  0.6539  1.0714
 3325SOL     OW21433   4.361   1.088   6.500 -0.8612  0.1929  0.0884
 3325SOL    HW121434   4.343   1.179   6.524 -1.0040  0.0794  0.4033
 3325SOL    HW221435   4.366   1.090   6.404  1.5685 -1.0284  0.1777
 3326SOL     OW21436   0.134   0.064  16.943  0.8204  0.5355 -0.1003
 3326SOL    HW121437   0.063   0.026  16.891 -1.9905  2.9411  1.9801
 3326SOL    HW221438   0.085   0.106  17.014  1.5159  1.4002 -0.1332
 3327SOL     OW21439   0.019   2.789   2.815 -0.1945 -0.2769 -0.3999
 3327SOL    HW121440   4.652   2.818   2.809 -0.3980 -0.7126  0.5823
 3327SOL    HW221441   0.052   2.853   2.751 -0.2342  1.3122  1.1538
 3328SOL     OW21442   3.125   1.577  11.429  1.0871 -0.0578  0.0503
 3328SOL    HW121443   3.142   1.557  11.337 -0.2556  1.2040 -0.4859
 3328SOL    HW221444   3.033   1.555  11.447  1.2960 -0.9780 -0.0073
 3329SOL     OW21445   0.320   3.822  15.570 -0.2313  0.0017 -0.2886
 3329SOL    HW121446   0.283   3.738  15.596  0.4104  0.0807  0.8805
 3329SOL    HW221447   0.371   3.798  15.493 -1.5256 -0.3771 -1.0183
 3330SOL     OW21448   3.335   1.950  10.704  0.3616 -0.5970  0.1822
 3330SOL    HW121449   3.302   1.882  10.645 -0.0742 -0.1965 -0.0287
 3330SOL    HW221450   3.317   2.033  10.661 -1.0001 -1.0811 -0.1700
 3331SOL     OW21451   4.232   3.838   5.085 -0.1533  0.7801  0.0664
 3331SOL    HW121452   4.245   3.919   5.036  0.0251 -0.5332 -2.0882
 3331SOL    HW221453   4.138   3.854   5.092 -0.7845 -2.6968 -0.5855
 3332SOL     OW21454   0.204   0.597   3.592  0.2518 -0.1551  0.1149
 3332SOL    HW121455   0.114   0.630   3.597  0.9864  1.9493 -0.9144
 3332SOL    HW221456   0.219   0.587   3.686 -1.7020 -1.7779  0.2674
 3333SOL     OW21457   4.704   2.188  11.798 -0.0001  0.2741  0.7013
 3333SOL    HW121458   4.662   2.248  11.860 -0.7124 -2.2481  2.6305
 3333SOL    HW221459   0.062   2.177  11.845  0.3686 -0.4638 -0.1228
 3334SOL     OW21460   1.603   0.784   0.269  0.3344 -0.3142  0.2485
 3334SOL    HW121461   1.691   0.803   0.303  0.3218  0.7179 -0.2890
 3334SOL    HW221462   1.618   0.696   0.235 -2.5995 -0.1915 -1.3507
 3335SOL     OW21463   0.349   0.336   2.758  0.6017 -0.1244 -0.0687
 3335SOL    HW121464   0.294   0.404   2.719  1.0674 -0.5857 -1.5229
 3335SOL    HW221465   0.287   0.275   2.797 -0.2844  0.6139 -0.3012
 3336SOL     OW21466   2.151   2.339   4.764  0.1978 -0.6222 -0.6980
 3336SOL    HW121467   2.181   2.417   4.717  1.6350 -1.0295 -0.4516
 3336SOL    HW221468   2.062   2.369   4.784  1.4959  2.1110  1.1169
 3337SOL     OW21469   0.032   4.255  10.070  0.2438 -0.5122 -0.0199
 3337SOL    HW121470   4.698   4.199  10.121  0.3835  0.6777  1.4551
 3337SOL    HW221471   4.692   4.312  10.028 -1.2017 -1.3937  0.9999
 3338SOL     OW21472   0.825   3.687  12.206  0.2286  0.1932 -0.2347
 3338SOL    HW121473   0.735   3.719  12.210  0.2062  0.3161 -1.5997
 3338SOL    HW221474   0.834   3.617  12.270  2.8890  0.8322  0.1257
 3339SOL     OW21475   0.336   0.516   5.278 -0.4272  0.1362  0.4954
 3339SOL    HW121476   0.298   0.454   5.340  0.1614 -0.7675 -0.0427
 3339SOL    HW221477   0.409   0.547   5.330 -0.7533 -1.3029  1.7918
 3340SOL     OW21478   0.839   0.979   1.998 -0.2971  0.5404 -0.9386
 3340SOL    HW121479   0.876   1.060   2.032 -1.9465  0.5437  0.8271
 3340SOL    HW221480   0.916   0.931   1.967 -0.0466  0.6981 -0.5589
 3341SOL     OW21481   2.466   0.487   0.616 -0.1078  0.5995 -0.1012
 3341SOL    HW121482   2.438   0.489   0.525 -1.2171 -0.0340  0.2252
 3341SOL    HW221483   2.392   0.440   0.653  0.5678  0.0775  0.5965
 3342SOL     OW21484   2.601   0.953   8.566  0.1763 -0.5388  0.5182
 3342SOL    HW121485   2.586   0.939   8.660 -3.3458  0.5374  0.1203
 3342SOL    HW221486   2.684   1.001   8.568  0.5792 -1.2515  0.7949
 3343SOL     OW21487   0.718   1.360  11.516 -0.3777  0.1341  0.9312
 3343SOL    HW121488   0.804   1.375  11.555  0.3788  0.2558 -0.7826
 3343SOL    HW221489   0.677   1.302  11.580  1.3842 -1.3620  0.6922
 3344SOL     OW21490   3.073   2.217   7.368  0.1611  0.9362  0.2199
 3344SOL    HW121491   2.983   2.208   7.402 -0.4073  3.4423 -0.6273
 3344SOL    HW221492   3.113   2.228   7.454  1.3720 -2.2469  0.0736
 3345SOL     OW21493   4.614   0.343   3.537  0.0816 -0.7595 -0.2307
 3345SOL    HW121494   4.639   0.369   3.625 -4.3562  1.6471  0.3553
 3345SOL    HW221495   4.536   0.290   3.552  0.2630 -0.9080  0.1790
 3346SOL     OW21496   3.553   1.841  16.918  0.0941 -0.2131 -0.7762
 3346SOL    HW121497   3.611   1.820  16.844  2.1361  4.7715 -0.5844
 3346SOL    HW221498   3.563   1.934  16.934  1.5898 -0.2953 -1.2124
 3347SOL     OW21499   1.509   4.351  14.710 -0.2523 -0.2669  0.2015
 3347SOL    HW121500   1.464   4.431  14.684 -3.3557 -1.5187  1.7873
 3347SOL    HW221501   1.504   4.294  14.633  0.3508  1.3451 -1.0206
 3348SOL     OW21502   3.942   3.520   8.343  0.0640  0.0864 -0.0645
 3348SOL    HW121503   3.874   3.523   8.411  1.8606 -1.0999  1.7960
 3348SOL    HW221504   3.932   3.608   8.307 -1.1011 -0.3679 -0.8446
 3349SOL     OW21505   1.935   0.635   3.971 -0.1385 -0.0187  0.3120
 3349SOL    HW121506   1.910   0.727   3.976 -0.0216  0.0280  0.0426
 3349SOL    HW221507   1.936   0.609   4.063 -0.8388  0.8981  0.5775
 3350SOL     OW21508   1.161   4.176   7.626  0.8131  0.1634 -0.6148
 3350SOL    HW121509   1.254   4.162   7.610  0.6372 -2.5714  0.7006
 3350SOL    HW221510   1.143   4.096   7.676  1.8056 -0.0455 -0.5881
 3351SOL     OW21511   4.161   1.415   7.156  0.5771 -0.0535  0.0100
 3351SOL    HW121512   4.065   1.413   7.156  0.6036 -1.7780  1.9472
 3351SOL    HW221513   4.179   1.509   7.166 -0.4296  0.1352  0.0997
 3352SOL     OW21514   4.478   1.208  12.406 -0.0158  0.2136  0.0664
 3352SOL    HW121515   4.552   1.269  12.407 -2.2770  2.9636  0.7361
 3352SOL    HW221516   4.407   1.270  12.390 -1.1576 -1.1183 -0.0298
 3353SOL     OW21517   0.732   3.225   8.924 -0.0693  0.4244 -0.4683
 3353SOL    HW121518   0.643   3.214   8.958  0.3730 -0.4573  0.4210
 3353SOL    HW221519   0.773   3.279   8.992 -1.4718  0.7167  0.1374
 3354SOL     OW21520   4.664   4.190  13.995 -0.3912  0.1115  0.1911
 3354SOL    HW121521   0.034   4.184  14.010 -0.1812  2.4299 -0.2040
 3354SOL    HW221522   4.663   4.108  13.945 -1.4624  0.1741  0.1131
 3355SOL     OW21523   1.970   2.263  13.253  0.5841  0.1004  0.3377
 3355SOL    HW121524   1.960   2.346  13.300  2.2297 -0.0551  0.9750
 3355SOL    HW221525   2.059   2.246  13.284  1.3473  0.4032 -1.6967
 3356SOL     OW21526   1.166   3.857   5.267  0.0331 -0.3291  0.0797
 3356SOL    HW121527   1.191   3.768   5.239  0.4597  0.4376 -1.9715
 3356SOL    HW221528   1.077   3.869   5.236  0.5352  0.6237 -0.9922
 3357SOL     OW21529   2.200   1.005  17.677 -0.4069 -0.3250  0.8386
 3357SOL    HW121530   2.277   1.049   0.015  0.6517 -1.3623 -0.1446
 3357SOL    HW221531   2.137   1.076  17.668 -0.0449 -0.0306  0.5937
 3358SOL     OW21532   2.381   0.330  16.162 -0.4214  0.5422 -0.7545
 3358SOL    HW121533   2.406   0.334  16.069 -0.3482 -0.6930 -0.7910
 3358SOL    HW221534   2.286   0.332  16.155 -0.5072  0.5859  0.3899
 3359SOL     OW21535   3.137   4.077   5.140 -1.2968  0.0079 -0.2043
 3359SOL    HW121536   3.093   4.023   5.074  0.3995 -1.8272  0.1824
 3359SOL    HW221537   3.097   4.052   5.223  2.0304 -1.7052  0.8639
 3360SOL     OW21538   2.125   1.599  11.402  0.2183  0.0150  0.6478
 3360SOL    HW121539   2.080   1.673  11.362 -1.6569 -1.2408  0.4330
 3360SOL    HW221540   2.060   1.566  11.465  1.4517 -2.0445  0.8213
 3361SOL     OW21541   2.361   4.131  14.341 -0.2355 -0.4259 -0.6149
 3361SOL    HW121542   2.419   4.097  14.409 -2.1123  1.2723  1.8322
 3361SOL    HW221543   2.388   4.084  14.262 -1.4776  1.6735 -2.2990
 3362SOL     OW21544   2.949   3.514   2.886  0.2088 -0.3089  0.3264
 3362SOL    HW121545   2.898   3.434   2.880  0.4683 -0.4248 -0.3287
 3362SOL    HW221546   2.905   3.550   2.963 -1.0956  1.1084 -1.1070
 3363SOL     OW21547   2.538   3.087   3.606  0.0218  0.2865  0.1370
 3363SOL    HW121548   2.628   3.107   3.631 -0.9139  1.5249  2.6072
 3363SOL    HW221549   2.539   3.062   3.514  0.6727  0.0303  0.2120
 3364SOL     OW21550   4.652   3.355  14.312  0.1852 -0.2869  0.3000
 3364SOL    HW121551   4.721   3.368  14.247  1.0965 -1.6229  0.9972
 3364SOL    HW221552   4.618   3.269  14.289 -1.5928  0.0153  1.7658
 3365SOL     OW21553   4.371   0.922   3.675  0.5322 -0.4273  0.3716
 3365SOL    HW121554   4.380   0.893   3.766 -0.8632 -1.0549  0.3049
 3365SOL    HW221555   4.352   1.014   3.693  1.1632 -0.2300  0.0357
 3366SOL     OW21556   4.197   1.865   0.425  0.8374  0.1410  0.1179
 3366SOL    HW121557   4.112   1.850   0.466 -0.1106 -1.1839 -2.3536
 3366SOL    HW221558   4.251   1.877   0.503  0.2791 -2.3000  0.8731
 3367SOL     OW21559   1.271   1.209   7.299  0.1953 -0.2981  0.0611
 3367SOL    HW121560   1.205   1.175   7.239 -1.7225  1.1985  1.3196
 3367SOL    HW221561   1.237   1.295   7.324  1.8026  0.9115 -1.9403
 3368SOL     OW21562   3.278   2.534  11.262 -0.3767  0.0712 -0.4188
 3368SOL    HW121563   3.369   2.554  11.282 -0.7770  1.2779  0.1891
 3368SOL    HW221564   3.281   2.442  11.288 -1.8911  0.8508  2.5859
 3369SOL     OW21565   1.168   0.978  10.378 -0.2168  0.5677  0.6177
 3369SOL    HW121566   1.146   0.924  10.454  3.1152 -2.3559 -0.4681
 3369SOL    HW221567   1.123   0.931  10.308 -1.5248  1.6514  0.7275
 3370SOL     OW21568   1.678   1.050   7.347 -0.4305 -0.3075  0.5523
 3370SOL    HW121569   1.720   1.033   7.431  0.1809  1.2154  0.5675
 3370SOL    HW221570   1.642   1.138   7.357 -0.3381  0.1764 -3.1856
 3371SOL     OW21571   0.576   3.737   3.922  0.1042 -0.1696  0.1429
 3371SOL    HW121572   0.671   3.742   3.912 -0.1777  0.0226 -2.4675
 3371SOL    HW221573   0.548   3.669   3.860 -0.5534 -0.3447  0.6250
 3372SOL     OW21574   1.400   2.217  16.980  0.1062 -0.4208  0.7850
 3372SOL    HW121575   1.446   2.167  17.048  0.4498  0.8306  1.4767
 3372SOL    HW221576   1.312   2.180  16.987 -0.4419  0.9926  1.5229
 3373SOL     OW21577   0.143   0.117   2.397  0.0667  0.1705 -0.0811
 3373SOL    HW121578   0.201   0.058   2.349 -0.7334  0.6568 -1.6590
 3373SOL    HW221579   0.209   0.177   2.431 -1.9797  1.5610  1.4165
 3374SOL     OW21580   3.522   0.732   2.931 -0.4144  0.4780 -0.2812
 3374SOL    HW121581   3.494   0.657   2.983 -1.9545  1.4981  0.3734
 3374SOL    HW221582   3.586   0.777   2.988  1.6626 -0.3154 -1.9826
 3375SOL     OW21583   3.280   4.204  11.311 -0.4336 -0.1476 -0.0459
 3375SOL    HW121584   3.330   4.226  11.231 -0.8482 -0.0035 -0.2627
 3375SOL    HW221585   3.351   4.228  11.371 -0.6921  0.4218  0.0293
 3376SOL     OW21586   0.368   2.345   7.636 -0.2534 -0.0114 -0.5377
 3376SOL    HW121587   0.401   2.287   7.568 -0.3877 -0.6908 -0.0222
 3376SOL    HW221588   0.338   2.424   7.591 -3.5088 -0.7268  0.3542
 3377SOL     OW21589   4.071   0.808  14.749 -0.0687 -0.0034 -0.3370
 3377SOL    HW121590   4.090   0.734  14.692  1.5481  0.0908  0.0805
 3377SOL    HW221591   4.040   0.875  14.687 -0.7174 -1.3982 -1.5162
 3378SOL     OW21592   4.497   3.471   1.922  0.0147 -0.4410 -0.6321
 3378SOL    HW121593   4.505   3.564   1.943  1.9975 -1.0634  1.5014
 3378SOL    HW221594   4.481   3.469   1.828  0.7467  0.7974 -0.7811
 3379SOL     OW21595   2.289   0.700   3.337 -0.0613  1.0790 -0.1175
 3379SOL    HW121596   2.202   0.662   3.325  0.9567 -0.6816 -1.9501
 3379SOL    HW221597   2.295   0.716   3.242 -0.9259  0.3740 -0.2973
 3380SOL     OW21598   0.069   2.235  10.520  0.2800 -0.0066 -0.2577
 3380SOL    HW121599   0.058   2.152  10.474  0.0674 -0.2400  0.2270
 3380SOL    HW221600   0.121   2.284  10.456 -1.0560  2.8464  0.8203
 3381SOL     OW21601   0.774   0.435   8.311 -0.0487  0.3891  0.2827
 3381SOL    HW121602   0.864   0.406   8.292 -0.5047 -0.6161 -0.3380
 3381SOL    HW221603   0.735   0.348   8.323 -1.4693  0.8866 -0.7308
 3382SOL     OW21604   2.746   0.703   7.861  0.0200  0.2470 -0.2582
 3382SOL    HW121605   2.762   0.663   7.776  0.5228 -2.0760  0.9365
 3382SOL    HW221606   2.827   0.687   7.910 -0.1743  0.4002  0.1113
 3383SOL     OW21607   3.122   4.121   1.646  0.3457 -0.1660 -0.0291
 3383SOL    HW121608   3.087   4.205   1.676  0.2165 -0.4226  0.5393
 3383SOL    HW221609   3.106   4.128   1.552 -1.1087 -1.2513  0.1366
 3384SOL     OW21610   3.425   2.305  11.269  0.0686 -0.4253  0.1063
 3384SOL    HW121611   3.492   2.260  11.322  0.3091 -0.6074 -0.3474
 3384SOL    HW221612   3.460   2.292  11.180 -0.7739  2.7230 -0.6696
 3385SOL     OW21613   3.630   0.476  12.935  0.0394 -0.2697  0.0194
 3385SOL    HW121614   3.698   0.524  12.888  0.8269 -1.0505  0.3590
 3385SOL    HW221615   3.562   0.496  12.871  1.2625 -2.2706 -1.9155
 3386SOL     OW21616   2.952   1.838  12.532 -0.6689  0.1052 -0.2593
 3386SOL    HW121617   2.907   1.836  12.448  0.1784 -1.2899 -0.6786
 3386SOL    HW221618   3.031   1.787  12.511  2.5938  5.1710 -0.2432
 3387SOL     OW21619   3.684   0.119   2.925  0.1696 -0.0251 -0.4202
 3387SOL    HW121620   3.614   0.144   2.985 -1.3343 -2.5109 -1.1613
 3387SOL    HW221621   3.654   0.029   2.912  1.4463 -0.9161  2.8410
 3388SOL     OW21622   4.163   4.226   9.439 -0.1009 -0.2365 -0.4002
 3388SOL    HW121623   4.203   4.154   9.391  1.1645  0.1575  0.0734
 3388SOL    HW221624   4.181   4.195   9.528  1.4432 -0.3114 -0.7464
 3389SOL     OW21625   0.670   2.518  12.266  0.0685  0.2136 -0.1025
 3389SOL    HW121626   0.766   2.522  12.269 -0.0214  0.8676  1.8180
 3389SOL    HW221627   0.653   2.579  12.339 -0.8208  0.5259 -0.5755
 3390SOL     OW21628   3.170   1.566   6.066  0.3973 -0.0189  0.1970
 3390SOL    HW121629   3.223   1.500   6.019 -0.6450  0.4739 -1.6697
 3390SOL    HW221630   3.176   1.543   6.159 -0.6448  0.1184  0.2952
 3391SOL     OW21631   4.344   3.504   8.034 -0.0015  0.0035 -0.3714
 3391SOL    HW121632   4.332   3.580   8.090 -1.4917  0.3237 -1.1193
 3391SOL    HW221633   4.436   3.495   8.060 -0.3076  0.5352  0.8871
 3392SOL     OW21634   2.500   2.422   0.962 -0.1055 -0.1007 -0.2915
 3392SOL    HW121635   2.413   2.386   0.977  0.0186 -2.0398 -4.1444
 3392SOL    HW221636   2.540   2.365   1.028  0.6951 -1.0564 -1.6100
 3393SOL     OW21637   0.830   3.247   4.744 -0.1599  0.2690  0.2572
 3393SOL    HW121638   0.752   3.301   4.755 -1.9315 -2.5708  1.5465
 3393SOL    HW221639   0.815   3.185   4.816  0.7037  0.0569  0.2605
 3394SOL     OW21640   0.237   2.128   3.788 -0.2855  0.1592  0.5213
 3394SOL    HW121641   0.158   2.181   3.779 -0.1782 -0.1516 -2.1673
 3394SOL    HW221642   0.212   2.039   3.814 -0.7510  0.2510  0.3959
 3395SOL     OW21643   2.803   2.285   1.007 -0.1512 -0.3921  0.1266
 3395SOL    HW121644   2.824   2.279   1.100 -2.5405 -0.2576  0.6630
 3395SOL    HW221645   2.847   2.203   0.984  0.0222 -0.2264 -0.1390
 3396SOL     OW21646   3.772   0.010   2.600 -0.5365  0.1871  0.6753
 3396SOL    HW121647   3.734   4.650   2.627  0.7217 -0.8499 -0.7280
 3396SOL    HW221648   3.740   0.018   2.510 -1.2178  2.0665  1.1077
 3397SOL     OW21649   2.871   1.555  11.508  0.4399  0.5797  0.2978
 3397SOL    HW121650   2.859   1.547  11.603  0.3288  2.7876  0.4647
 3397SOL    HW221651   2.849   1.463  11.494 -2.1573  1.6890 -2.8393
 3398SOL     OW21652   1.545   2.512  10.246 -0.7801  0.1141 -0.2039
 3398SOL    HW121653   1.500   2.476  10.169 -0.3182  0.0102 -0.4212
 3398SOL    HW221654   1.630   2.478  10.218 -0.8743 -0.3319  0.0393
 3399SOL     OW21655   4.710   3.000   6.300  0.0022  0.3468  0.3226
 3399SOL    HW121656   4.715   3.094   6.317 -0.4795  0.4350 -0.0485
 3399SOL    HW221657   0.026   2.987   6.214  0.3179  1.3392  0.3195
 3400SOL     OW21658   3.737   1.332   4.403 -0.2800  0.1706  0.3322
 3400SOL    HW121659   3.722   1.317   4.310 -0.1622 -1.1712  0.5321
 3400SOL    HW221660   3.748   1.426   4.388 -0.2000  0.2951  1.1821
 3401SOL     OW21661   1.842   4.313   1.545 -0.0519  0.5818  0.3804
 3401SOL    HW121662   1.921   4.325   1.598  1.1743 -0.2016 -1.2775
 3401SOL    HW221663   1.802   4.399   1.531 -1.4043  0.5517  3.8535
 3402SOL     OW21664   4.088   3.419   7.915 -0.2232 -0.0694 -0.6241
 3402SOL    HW121665   4.066   3.500   7.869 -0.1009  1.3909  1.8977
 3402SOL    HW221666   4.182   3.430   7.933 -0.1980  0.9791 -1.3583
 3403SOL     OW21667   1.844   4.213  11.235 -0.2667  0.4446 -0.5710
 3403SOL    HW121668   1.886   4.260  11.162  1.1025 -1.9252 -1.2929
 3403SOL    HW221669   1.751   4.229  11.220  0.4060  2.5639 -2.5004
 3404SOL     OW21670   1.262   3.115  17.316  0.6393 -0.2486 -0.1004
 3404SOL    HW121671   1.288   3.062  17.241  0.1896 -2.1845  1.1017
 3404SOL    HW221672   1.226   3.193  17.274 -0.1681 -0.7609 -0.3438
 3405SOL     OW21673   2.362   3.849   1.127 -0.2319 -0.3394 -0.0042
 3405SOL    HW121674   2.341   3.756   1.140 -1.9502  0.0218 -0.1863
 3405SOL    HW221675   2.407   3.831   1.045  1.5057  0.4457  0.7895
 3406SOL     OW21676   1.171   1.502  17.517  0.5665  0.0068  0.3532
 3406SOL    HW121677   1.166   1.505  17.613  0.6777  1.8464  0.2985
 3406SOL    HW221678   1.190   1.593  17.497  0.3805 -0.5919 -2.5039
 3407SOL     OW21679   2.041   3.781   2.373  0.1716 -0.2237 -0.7249
 3407SOL    HW121680   1.983   3.744   2.307  1.3768 -0.6408 -1.5445
 3407SOL    HW221681   2.039   3.874   2.350 -1.4210 -0.2044 -0.5696
 3408SOL     OW21682   1.210   4.706   1.494 -0.0600 -0.2776  0.3809
 3408SOL    HW121683   1.268   4.691   1.420 -1.0891  1.0470 -0.6932
 3408SOL    HW221684   1.265   0.038   1.549  0.5383 -1.3695  0.9065
 3409SOL     OW21685   3.607   1.923   9.243 -0.2575  0.1896 -0.4468
 3409SOL    HW121686   3.575   1.902   9.155  0.8456  1.9921 -1.2666
 3409SOL    HW221687   3.631   1.835   9.272 -2.5203 -0.7965 -1.5632
 3410SOL     OW21688   2.203   1.249   4.186  0.2022 -0.7111  0.4398
 3410SOL    HW121689   2.272   1.305   4.149 -0.2689 -0.5374 -0.1721
 3410SOL    HW221690   2.181   1.311   4.255  2.1681  0.5256 -0.0257
 3411SOL     OW21691   0.774   3.666  16.134 -0.0961  0.3715 -0.3569
 3411SOL    HW121692   0.696   3.693  16.181  1.1827 -0.1239  2.0440
 3411SOL    HW221693   0.811   3.752  16.113  1.5587 -0.0157  0.9254
 3412SOL     OW21694   3.697   3.799  15.507  0.2170  0.2756 -0.2123
 3412SOL    HW121695   3.752   3.863  15.552 -0.9371  0.5966  0.7413
 3412SOL    HW221696   3.761   3.742  15.464 -0.7125 -1.1999  0.3467
 3413SOL     OW21697   4.462   3.070   5.611  0.7897  0.1226 -0.3250
 3413SOL    HW121698   4.409   3.086   5.689  0.6480 -0.7564 -0.2469
 3413SOL    HW221699   4.502   3.157   5.611  1.9932 -0.4371  1.2853
 3414SOL     OW21700   3.420   4.383   9.089 -0.3155 -0.2778 -0.0137
 3414SOL    HW121701   3.353   4.356   9.026 -0.9880  0.7720  0.2447
 3414SOL    HW221702   3.385   4.343   9.169  2.3075 -2.1943  0.1658
 3415SOL     OW21703   0.112   2.808   4.353  0.1570 -0.2097 -0.4615
 3415SOL    HW121704   0.208   2.810   4.356  0.1940  0.5618 -1.7461
 3415SOL    HW221705   0.103   2.788   4.259 -3.0776  0.9563 -0.4004
 3416SOL     OW21706   2.629   0.139   9.016 -0.0167 -0.4870 -0.1251
 3416SOL    HW121707   2.609   0.060   8.966 -0.6942 -0.9224  0.8455
 3416SOL    HW221708   2.548   0.191   9.017 -0.7799 -1.6909  0.6071
 3417SOL     OW21709   2.073   3.017  13.759  0.6502  0.5273 -0.1924
 3417SOL    HW121710   2.003   2.955  13.742  0.9307  0.6540 -1.7765
 3417SOL    HW221711   2.147   2.984  13.708 -1.0624 -0.5125 -1.9716
 3418SOL     OW21712   1.872   0.013   5.458  0.2362 -0.4423  0.0683
 3418SOL    HW121713   1.865   0.051   5.545  0.2440  0.9310 -0.5319
 3418SOL    HW221714   1.953   0.058   5.436  0.9370 -1.6109  0.2271
 3419SOL     OW21715   3.095   2.156   8.630 -0.1144 -0.3269  0.0354
 3419SOL    HW121716   3.167   2.095   8.644 -1.1368 -1.0247  2.2686
 3419SOL    HW221717   3.143   2.235   8.603 -1.1403  0.2672 -0.0246
 3420SOL     OW21718   2.982   0.257   3.777 -0.0458  0.6778 -0.5047
 3420SOL    HW121719   2.894   0.219   3.775 -0.1811  0.8761  2.7875
 3420SOL    HW221720   2.960   0.349   3.792  0.9084  0.8283 -0.0417
 3421SOL     OW21721   4.680   4.008  15.035 -0.3415 -0.5448 -0.4609
 3421SOL    HW121722   4.696   4.008  14.940  1.1193 -0.7402 -0.2127
 3421SOL    HW221723   0.030   4.064  15.057  0.1289 -1.2608 -0.2251
 3422SOL     OW21724   2.524   2.003  14.912 -0.4066 -0.5749 -0.4543
 3422SOL    HW121725   2.607   1.960  14.930 -0.4621  0.3021  1.9508
 3422SOL    HW221726   2.522   2.021  14.818  0.6627  1.4654 -0.0757
 3423SOL     OW21727   2.751   0.955   6.568 -0.5938  0.0104 -0.2996
 3423SOL    HW121728   2.671   0.918   6.530 -0.5619  0.8144 -1.1331
 3423SOL    HW221729   2.790   0.998   6.492 -1.0919  2.1937  0.6865
 3424SOL     OW21730   0.100   3.272   3.370 -0.2290  0.1297  0.2218
 3424SOL    HW121731   0.019   3.323   3.378 -2.0711 -2.9544  1.4705
 3424SOL    HW221732   0.078   3.191   3.417 -0.3113 -0.5713 -1.0256
 3425SOL     OW21733   3.200   2.687   3.309 -0.5064 -0.5182 -0.0528
 3425SOL    HW121734   3.257   2.614   3.284 -2.5066 -2.0885 -0.1087
 3425SOL    HW221735   3.181   2.717   3.220 -0.1058  0.6011  0.2415
 3426SOL     OW21736   0.748   2.815   3.575  0.6298 -0.0710 -0.0102
 3426SOL    HW121737   0.758   2.909   3.556 -2.0316  0.4629  1.2216
 3426SOL    HW221738   0.771   2.761   3.499  1.4079 -0.7714  0.7274
 3427SOL     OW21739   2.323   1.476   8.285 -0.0835  0.9312  0.2471
 3427SOL    HW121740   2.269   1.509   8.214  0.6795  1.9495  0.1309
 3427SOL    HW221741   2.326   1.547   8.349  0.7060  1.5558 -0.4781
 3428SOL     OW21742   3.846   2.572   5.653 -0.4736 -0.5100 -0.0321
 3428SOL    HW121743   3.844   2.528   5.738  0.5669 -1.1993 -0.3697
 3428SOL    HW221744   3.937   2.600   5.654 -0.6562  0.0869  0.2093
 3429SOL     OW21745   3.707   1.783  16.133 -0.1049  0.3568  0.2715
 3429SOL    HW121746   3.777   1.729  16.098  1.5416  1.1810  2.2638
 3429SOL    HW221747   3.631   1.734  16.101  0.8296 -0.4593 -0.6860
 3430SOL     OW21748   2.816   2.189   7.485  0.2379  0.3884 -0.5040
 3430SOL    HW121749   2.733   2.164   7.446  0.6225 -0.2890 -0.8951
 3430SOL    HW221750   2.793   2.207   7.576  0.2327 -3.1627  0.1871
 3431SOL     OW21751   2.368   2.492   5.267 -0.0216 -0.1367  0.2628
 3431SOL    HW121752   2.435   2.438   5.225 -0.4496 -0.2704 -0.2559
 3431SOL    HW221753   2.324   2.523   5.188 -0.5613 -1.1196  0.1731
 3432SOL     OW21754   3.219   2.450  15.615  0.0105 -0.4875  0.1435
 3432SOL    HW121755   3.212   2.510  15.689  1.7889 -2.5369  1.9885
 3432SOL    HW221756   3.313   2.460  15.602 -0.9955  0.7284 -6.3600
 3433SOL     OW21757   2.091   1.844   4.014 -0.0758 -0.1785  0.3037
 3433SOL    HW121758   2.007   1.833   3.969  0.1406 -0.1313 -0.1023
 3433SOL    HW221759   2.067   1.912   4.078  1.5440  1.9850 -1.4107
 3434SOL     OW21760   3.658   1.455  15.991 -0.4261  0.3273 -0.2540
 3434SOL    HW121761   3.603   1.409  15.927 -1.1381  0.9090 -0.0709
 3434SOL    HW221762   3.685   1.383  16.048 -1.8195  0.3344  0.4350
 3435SOL     OW21763   4.464   3.844  15.353 -0.2432  0.3701 -0.0054
 3435SOL    HW121764   4.387   3.860  15.299 -0.4107 -0.8161 -0.1277
 3435SOL    HW221765   4.528   3.802  15.295 -0.8545  0.6570 -0.8848
 3436SOL     OW21766   3.440   1.038   3.018 -0.4696 -0.2443 -0.3922
 3436SOL    HW121767   3.478   0.993   2.943 -0.9083  0.8317 -1.2564
 3436SOL    HW221768   3.360   1.077   2.983 -1.0100 -1.7241 -0.8013
 3437SOL     OW21769   0.699   1.492  14.324 -0.2054  0.2746  0.5245
 3437SOL    HW121770   0.742   1.412  14.292  0.5595  1.8948 -2.5178
 3437SOL    HW221771   0.766   1.552  14.292 -1.0584  0.1623 -1.4516
 3438SOL     OW21772   3.226   3.582   3.325 -0.4956 -0.2789 -0.2446
 3438SOL    HW121773   3.149   3.537   3.288 -0.7954 -1.3031  1.6365
 3438SOL    HW221774   3.215   3.554   3.416  0.5420  0.7460  0.1947
 3439SOL     OW21775   0.686   1.747   7.444  0.5252  0.2969  0.4201
 3439SOL    HW121776   0.681   1.677   7.379  0.3899  0.9811 -0.3048
 3439SOL    HW221777   0.754   1.708   7.499  1.3600 -2.2311 -2.4215
 3440SOL     OW21778   2.457   2.697   9.290 -0.3001 -0.1627  0.3793
 3440SOL    HW121779   2.503   2.623   9.331  1.9376  1.8056  1.4335
 3440SOL    HW221780   2.527   2.757   9.265 -0.6477  0.3167  0.5731
 3441SOL     OW21781   2.233   3.782   4.493 -0.0850 -0.0551 -0.4763
 3441SOL    HW121782   2.306   3.828   4.453  0.4130  1.1038  1.7386
 3441SOL    HW221783   2.166   3.790   4.426 -2.2976 -0.2603  1.7102
 3442SOL     OW21784   1.580   3.736   5.993  0.0304 -0.0568  0.1654
 3442SOL    HW121785   1.653   3.769   5.940  0.7696 -2.2176 -0.1664
 3442SOL    HW221786   1.581   3.808   6.056 -0.6367 -1.3048  1.6120
 3443SOL     OW21787   0.277   4.270   4.771  0.1200  0.0705  0.0866
 3443SOL    HW121788   0.347   4.236   4.828  0.8755  0.0734 -0.8495
 3443SOL    HW221789   0.281   4.364   4.789 -1.9793  0.0985  0.4119
 3444SOL     OW21790   0.894   4.184   6.134 -0.1473  0.2157  0.2261
 3444SOL    HW121791   0.948   4.120   6.180  0.6083  1.8718  1.6330
 3444SOL    HW221792   0.915   4.172   6.041  0.0840 -0.7097  0.3999
 3445SOL     OW21793   0.044   2.915   4.581  0.0866 -0.0573  0.3057
 3445SOL    HW121794   4.673   2.918   4.582  0.0995  0.7297 -0.6658
 3445SOL    HW221795   0.070   2.863   4.505 -1.3436 -2.6274  1.5969
 3446SOL     OW21796   3.138   0.590   8.883 -0.1130 -0.2395  0.0642
 3446SOL    HW121797   3.072   0.533   8.922  1.6007 -2.0615  0.2910
 3446SOL    HW221798   3.085   0.648   8.828 -0.0376 -1.3836 -1.2240
 3447SOL     OW21799   4.610   1.187  12.972 -0.5036 -0.0651 -0.1802
 3447SOL    HW121800   4.520   1.218  12.961 -0.5543  0.4304  1.5037
 3447SOL    HW221801   4.654   1.231  13.046 -2.6602  1.3523  0.2470
 3448SOL     OW21802   2.483   2.474   6.607 -0.1861  0.1081  0.0422
 3448SOL    HW121803   2.551   2.529   6.567 -0.5213 -0.7518 -1.6993
 3448SOL    HW221804   2.438   2.539   6.661 -0.4568 -0.3016  0.3057
 3449SOL     OW21805   2.024   3.609   3.361  0.0980 -0.1917 -0.2892
 3449SOL    HW121806   1.959   3.556   3.407  0.9559  0.1006  1.2837
 3449SOL    HW221807   2.100   3.613   3.420  0.5182  0.6326 -0.8919
 3450SOL     OW21808   4.602   4.425   7.401 -0.0638  0.1696  0.2295
 3450SOL    HW121809   4.553   4.453   7.478  0.8579 -1.5982  1.4452
 3450SOL    HW221810   4.692   4.424   7.432  0.7496 -2.2699 -2.1991
 3451SOL     OW21811   2.295   3.483   6.913 -0.0946  0.1324 -0.1221
 3451SOL    HW121812   2.302   3.444   7.000  0.0880 -0.0539 -0.2213
 3451SOL    HW221813   2.387   3.495   6.893 -0.3189 -2.4728 -2.6662
 3452SOL     OW21814   3.165   4.006  14.135  0.6946 -0.1536  0.1965
 3452SOL    HW121815   3.228   4.008  14.207 -2.1279 -1.2366  2.6940
 3452SOL    HW221816   3.200   3.945  14.070 -1.5911 -0.5266 -0.6848
 3453SOL     OW21817   4.403   1.127   6.895 -0.9480 -0.2973  0.6403
 3453SOL    HW121818   4.488   1.110   6.935  0.7876  2.3820 -1.9096
 3453SOL    HW221819   4.390   1.034   6.877  1.5392 -0.6105  0.4875
 3454SOL     OW21820   3.889   1.299   9.606 -0.0956 -0.1234  0.3635
 3454SOL    HW121821   3.953   1.292   9.677 -0.2434  0.1864  0.5257
 3454SOL    HW221822   3.809   1.334   9.645  1.2717  1.0890  2.0474
 3455SOL     OW21823   4.608   3.505   0.419  0.2597 -0.3536 -0.6281
 3455SOL    HW121824   4.581   3.418   0.448 -0.1839 -0.2118 -0.6267
 3455SOL    HW221825   4.519   3.539   0.409  1.3872  2.2502 -2.0172
 3456SOL     OW21826   4.558   0.588  12.823 -0.6494 -0.1577 -0.0114
 3456SOL    HW121827   4.511   0.562  12.902 -0.6260 -0.1421  0.0074
 3456SOL    HW221828   4.625   0.644  12.861  1.0766 -1.4628 -1.1351
 3457SOL     OW21829   3.574   2.436  13.681 -0.3604 -1.3068 -0.2921
 3457SOL    HW121830   3.612   2.389  13.756  0.0489 -0.8762 -0.2334
 3457SOL    HW221831   3.651   2.484  13.651 -0.5560 -0.5461  0.4263
 3458SOL     OW21832   2.084   4.454   5.735 -0.0749 -0.3195  0.6380
 3458SOL    HW121833   2.015   4.443   5.669 -0.7429 -2.7076  1.7327
 3458SOL    HW221834   2.130   4.525   5.690 -0.7979 -0.1433  0.1763
 3459SOL     OW21835   3.516   2.709   6.678 -0.0636 -0.0763 -0.7544
 3459SOL    HW121836   3.547   2.639   6.736  0.4611  1.1657  0.4663
 3459SOL    HW221837   3.498   2.665   6.596  1.4889  0.8910 -1.6148
 3460SOL     OW21838   0.295   2.410   6.264  0.1935 -0.5425 -0.7616
 3460SOL    HW121839   0.342   2.399   6.181  1.9871  0.5966  0.1280
 3460SOL    HW221840   0.338   2.339   6.312 -1.0817 -1.6129 -1.1971
 3461SOL     OW21841   1.581   3.062  13.963 -0.0303  0.3740  0.0917
 3461SOL    HW121842   1.621   2.991  13.914 -0.2425  2.8887 -3.7342
 3461SOL    HW221843   1.496   3.023  13.984 -0.3479  0.4175 -1.0645
 3462SOL     OW21844   3.859   1.264  17.515 -0.3822 -0.3949  0.1320
 3462SOL    HW121845   3.813   1.238  17.595  1.6402 -0.3649  1.2958
 3462SOL    HW221846   3.948   1.263  17.550 -0.7889  0.8673  1.2090
 3463SOL     OW21847   3.126   2.390   1.964  0.2313  0.8268  0.6362
 3463SOL    HW121848   3.202   2.412   2.019  0.8384  0.3693 -0.0272
 3463SOL    HW221849   3.173   2.371   1.883  0.3427  0.6614  0.7394
 3464SOL     OW21850   4.069   1.743   7.437 -0.2247  0.2058 -0.1015
 3464SOL    HW121851   4.149   1.693   7.451 -0.6828 -0.2181  1.0012
 3464SOL    HW221852   4.108   1.824   7.404 -2.2693  1.6742  1.0506
 3465SOL     OW21853   0.693   4.528  16.590 -0.1588 -0.2144  0.1261
 3465SOL    HW121854   0.754   4.509  16.661 -1.3131  0.5775  1.3401
 3465SOL    HW221855   0.612   4.495  16.630 -1.0039 -0.1812 -1.5545
 3466SOL     OW21856   4.682   4.308   0.093  0.0159  0.2158 -0.1845
 3466SOL    HW121857   0.029   4.269   0.145 -1.0191  0.2029  1.2102
 3466SOL    HW221858   0.016   4.358   0.035 -0.1368 -0.9355 -1.3190
 3467SOL     OW21859   1.107   2.345   2.888 -0.2530  0.1687 -0.2984
 3467SOL    HW121860   1.069   2.426   2.853  1.2807  0.7448 -0.6150
 3467SOL    HW221861   1.030   2.288   2.885 -0.4178  0.5937 -3.6968
 3468SOL     OW21862   0.470   0.849  11.674 -0.5205 -0.2253  0.1347
 3468SOL    HW121863   0.474   0.769  11.622 -0.7769  0.0536 -0.3113
 3468SOL    HW221864   0.479   0.918  11.608 -1.8839 -3.1132 -3.1000
 3469SOL     OW21865   2.014   3.898  13.641 -0.3399 -0.3549  0.0850
 3469SOL    HW121866   1.933   3.894  13.693 -0.1920 -0.6344  0.2974
 3469SOL    HW221867   2.083   3.896  13.708  1.3501  2.4341 -1.6269
 3470SOL     OW21868   4.405   3.474   5.324 -0.4235 -0.0032  0.2022
 3470SOL    HW121869   4.482   3.522   5.295 -2.1384  0.1132 -4.2019
 3470SOL    HW221870   4.338   3.506   5.263 -0.6062  1.1394  0.9977
 3471SOL     OW21871   3.465   4.327   2.890 -0.2445  0.4595 -0.8255
 3471SOL    HW121872   3.518   4.355   2.964  0.2406 -0.7011 -0.7299
 3471SOL    HW221873   3.535   4.310   2.827 -0.5229 -0.6758 -0.8268
 3472SOL     OW21874   3.489   4.504   9.375  0.2495 -0.0950 -0.5335
 3472SOL    HW121875   3.459   4.563   9.306  0.8689 -0.9743 -1.5544
 3472SOL    HW221876   3.583   4.494   9.359  0.4119  0.1269  0.3173
 3473SOL     OW21877   3.379   3.751  10.399  0.5893  0.4973 -0.5682
 3473SOL    HW121878   3.315   3.822  10.398  1.3360  1.1567 -1.0049
 3473SOL    HW221879   3.398   3.744  10.305  1.5277 -2.7864 -0.1316
 3474SOL     OW21880   1.221   0.727   9.837  0.4310 -0.0774 -0.2712
 3474SOL    HW121881   1.309   0.688   9.838  0.5569  0.2016 -0.3160
 3474SOL    HW221882   1.176   0.654   9.878  0.9161 -1.4744 -2.2292
 3475SOL     OW21883   2.398   0.679   4.013 -0.4320  0.6116 -0.2207
 3475SOL    HW121884   2.326   0.616   4.010  0.5237 -0.5444  1.1445
 3475SOL    HW221885   2.356   0.764   3.999 -0.7034  0.0898 -2.7182
 3476SOL     OW21886   1.477   3.102   0.731 -0.1728  0.2797 -0.4744
 3476SOL    HW121887   1.530   3.076   0.806  0.8747  0.9830 -0.9710
 3476SOL    HW221888   1.434   3.019   0.711 -0.4493  0.2481  0.2507
 3477SOL     OW21889   1.376   4.081   0.838 -0.0252  0.7421 -0.0773
 3477SOL    HW121890   1.348   4.009   0.895  0.6651 -0.0456 -0.7453
 3477SOL    HW221891   1.467   4.057   0.821 -0.6691 -0.7103 -1.4438
 3478SOL     OW21892   4.400   4.145  12.531 -0.0536 -0.3503 -0.4227
 3478SOL    HW121893   4.409   4.170  12.439 -0.5134  0.1235 -0.3394
 3478SOL    HW221894   4.342   4.215  12.563 -0.0099  0.1126 -1.3700
 3479SOL     OW21895   4.305   1.718  14.456 -0.0892  0.3261 -0.1095
 3479SOL    HW121896   4.227   1.701  14.509 -0.4188 -0.6899 -0.9296
 3479SOL    HW221897   4.270   1.780  14.392 -0.2463  0.9000  0.5231
 3480SOL     OW21898   1.831   0.473   5.850 -0.5881 -0.2632 -0.5907
 3480SOL    HW121899   1.781   0.550   5.878  0.0405 -0.2444  0.5068
 3480SOL    HW221900   1.873   0.512   5.774 -1.2627  0.6387 -0.5073
 3481SOL     OW21901   1.737   1.764   4.101 -0.2409 -0.0314 -0.4564
 3481SOL    HW121902   1.777   1.743   4.186 -0.4038 -0.0403 -0.3822
 3481SOL    HW221903   1.644   1.742   4.102  0.0658 -1.3540 -0.4853
 3482SOL     OW21904   2.342   1.648   4.466  0.5171 -0.6130  0.0249
 3482SOL    HW121905   2.351   1.669   4.373  0.2720 -1.4712 -0.1930
 3482SOL    HW221906   2.402   1.704   4.514 -0.7105  0.4374  0.3327
 3483SOL     OW21907   4.039   1.196   3.089 -0.4123 -0.1189 -0.5929
 3483SOL    HW121908   4.067   1.154   3.170 -1.0080 -0.7028 -0.6938
 3483SOL    HW221909   4.064   1.132   3.023  0.8599 -0.9184  0.6483
 3484SOL     OW21910   0.165   0.470   2.377 -0.1553  0.4316 -0.4165
 3484SOL    HW121911   0.071   0.456   2.381 -0.0104 -1.1689 -2.8048
 3484SOL    HW221912   0.178   0.472   2.472 -2.0766 -2.1036 -0.1118
 3485SOL     OW21913   0.534   2.070   4.850 -0.5574  0.1296  0.2801
 3485SOL    HW121914   0.520   2.104   4.938  2.3028  0.3002  0.6763
 3485SOL    HW221915   0.567   2.152   4.814  1.9568 -1.1896 -0.4279
 3486SOL     OW21916   0.053   4.415   6.140 -0.0044 -0.3805 -0.0188
 3486SOL    HW121917   0.012   4.498   6.115  0.8344 -0.6285 -2.2746
 3486SOL    HW221918   4.705   4.353   6.132 -0.2488 -0.2716  1.4700
 3487SOL     OW21919   0.527   0.326  10.574  0.0989 -0.1718  0.1200
 3487SOL    HW121920   0.520   0.418  10.598 -0.1580  0.1278 -1.1234
 3487SOL    HW221921   0.436   0.300  10.561 -0.4747  2.3371 -0.8784
 3488SOL     OW21922   1.079   3.727   1.430 -0.1052 -0.0645 -0.3234
 3488SOL    HW121923   1.111   3.816   1.445  0.5940 -0.9317  3.3682
 3488SOL    HW221924   1.142   3.702   1.363  2.7614 -1.6545  2.9589
 3489SOL     OW21925   3.185   4.685  13.839 -0.1517  0.1472  0.7833
 3489SOL    HW121926   3.222   0.022  13.903  1.7626  1.1315 -1.2576
 3489SOL    HW221927   3.183   0.014  13.760  0.7465 -1.8612 -0.6164
 3490SOL     OW21928   3.382   3.864   7.939 -0.1451 -0.2104 -0.2931
 3490SOL    HW121929   3.292   3.894   7.928  0.3784  0.9366 -1.5284
 3490SOL    HW221930   3.386   3.844   8.032  2.5872  1.9968  0.0515
 3491SOL     OW21931   3.550   2.343  12.132  0.7604  0.4484  0.2050
 3491SOL    HW121932   3.582   2.259  12.099  1.0166  1.3283 -1.7950
 3491SOL    HW221933   3.600   2.359  12.212 -0.5047  1.1301  0.8521
 3492SOL     OW21934   3.680   4.509  16.745 -0.2543 -0.6148  0.1251
 3492SOL    HW121935   3.608   4.573  16.746 -1.0920 -1.5439 -0.4079
 3492SOL    HW221936   3.638   4.451  16.808 -0.8354 -1.8555 -1.4131
 3493SOL     OW21937   0.190   3.404   2.633  0.2729  0.3908 -0.0434
 3493SOL    HW121938   0.286   3.403   2.633  0.2623 -0.7174 -0.2920
 3493SOL    HW221939   0.187   3.500   2.632  1.1405  0.4381  1.9169
 3494SOL     OW21940   3.766   1.502  12.719  0.3132 -0.7328  0.6167
 3494SOL    HW121941   3.720   1.547  12.649  1.8569  0.0491  0.1107
 3494SOL    HW221942   3.846   1.479  12.672  1.6425 -0.2799  2.6303
 3495SOL     OW21943   2.126   1.535   2.340 -0.4929 -0.2520 -0.2259
 3495SOL    HW121944   2.212   1.576   2.345 -1.2112  0.9279  2.5770
 3495SOL    HW221945   2.096   1.538   2.431 -1.8248 -2.2280 -0.5857
 3496SOL     OW21946   3.645   3.986   5.196  0.3972  0.2016  0.0815
 3496SOL    HW121947   3.635   4.062   5.254  0.7432  1.2653 -1.2505
 3496SOL    HW221948   3.689   3.919   5.248 -0.6425 -1.6161 -1.4391
 3497SOL     OW21949   1.061   3.952   6.614 -0.2236 -0.0475 -0.1263
 3497SOL    HW121950   1.013   4.000   6.681  0.5696  2.5859 -1.4402
 3497SOL    HW221951   1.068   3.862   6.646 -0.2099 -0.0289 -0.0784
 3498SOL     OW21952   3.607   4.488   3.923 -0.1120 -0.4854 -0.9365
 3498SOL    HW121953   3.626   4.394   3.917 -0.9513 -0.7493  0.4742
 3498SOL    HW221954   3.519   4.486   3.885  0.2172  1.2815 -1.7883
 3499SOL     OW21955   1.804   2.622  11.704  0.2893 -0.5658  0.0835
 3499SOL    HW121956   1.868   2.666  11.647  1.0196 -2.5689 -0.6730
 3499SOL    HW221957   1.724   2.674  11.697  1.7915  2.0375  2.2122
 3500SOL     OW21958   4.476   0.393   5.665 -0.7253 -0.2967  0.1851
 3500SOL    HW121959   4.488   0.381   5.571 -2.9747  2.4440 -0.4637
 3500SOL    HW221960   4.541   0.462   5.680  0.9147 -1.4779 -1.6267
 3501SOL     OW21961   1.271   0.145  12.727  0.1361  0.2834 -0.0018
 3501SOL    HW121962   1.282   0.050  12.717 -0.1321  0.4362 -1.6716
 3501SOL    HW221963   1.346   0.188  12.769 -0.1474  0.6063  0.1709
 3502SOL     OW21964   2.013   3.768   0.519  0.0912 -0.6853 -0.0059
 3502SOL    HW121965   2.066   3.805   0.590 -0.0500  0.0411 -0.2845
 3502SOL    HW221966   2.045   3.828   0.451  0.0120 -0.3074  0.2876
 3503SOL     OW21967   1.063   4.506   5.650  0.0450 -0.2299 -0.2657
 3503SOL    HW121968   1.099   4.436   5.594  0.5034 -1.0793  1.0871
 3503SOL    HW221969   1.052   4.567   5.577 -1.1107  0.1748  0.2468
 3504SOL     OW21970   4.183   0.518   5.684 -0.2137  0.2898  0.2629
 3504SOL    HW121971   4.274   0.486   5.690 -0.6232 -1.1515 -1.0088
 3504SOL    HW221972   4.162   0.490   5.595  1.8198  1.1699 -0.5001
 3505SOL     OW21973   0.949   2.343  13.139 -0.5985 -0.1914 -0.7885
 3505SOL    HW121974   0.982   2.426  13.174  0.2239 -0.5070 -0.8165
 3505SOL    HW221975   0.877   2.318  13.196  1.7678 -2.1177  1.3331
 3506SOL     OW21976   3.132   0.931   6.176  0.0918 -0.2432  0.5992
 3506SOL    HW121977   3.165   0.846   6.149 -0.0899 -0.8903  2.4860
 3506SOL    HW221978   3.076   0.902   6.248  2.0374 -3.1140  0.9423
 3507SOL     OW21979   2.293   1.685   2.064 -0.3974  0.3273  0.6442
 3507SOL    HW121980   2.314   1.769   2.023 -1.5439  0.0334 -0.5326
 3507SOL    HW221981   2.374   1.675   2.114 -0.9758 -1.0264  1.3044
 3508SOL     OW21982   2.186   4.006  17.021 -0.0013  0.3167 -0.3547
 3508SOL    HW121983   2.238   3.955  16.959 -0.7055  1.9173 -2.2466
 3508SOL    HW221984   2.245   4.028  17.093 -0.4127  1.2373 -0.2992
 3509SOL     OW21985   3.672   2.540   8.964 -0.2637 -0.0687 -0.2197
 3509SOL    HW121986   3.634   2.628   8.957  0.4563  0.3015  0.5997
 3509SOL    HW221987   3.761   2.561   8.990 -1.5916  2.5050  2.2146
 3510SOL     OW21988   1.803   1.171   7.005  0.0243 -0.3400 -0.2106
 3510SOL    HW121989   1.850   1.223   7.070  0.9381 -1.9173  0.4024
 3510SOL    HW221990   1.807   1.084   7.045  0.3230 -0.2259  0.0012
 3511SOL     OW21991   0.061   0.243   5.649  0.5976  0.4182 -0.0627
 3511SOL    HW121992   0.076   0.277   5.738 -1.9400  0.0318  0.5177
 3511SOL    HW221993   4.712   0.184   5.662  0.5910  0.6553  1.0223
 3512SOL     OW21994   1.870   4.133   3.111  0.1665  0.0036  0.0709
 3512SOL    HW121995   1.805   4.063   3.115  1.3929 -0.9719  2.3789
 3512SOL    HW221996   1.950   4.087   3.086  1.6731  2.6970 -0.0954
 3513SOL     OW21997   2.400   0.193  11.246  0.3827 -0.0940 -0.2356
 3513SOL    HW121998   2.343   0.151  11.310 -0.2367 -1.6182 -1.7502
 3513SOL    HW221999   2.459   0.233  11.309  2.7553  1.7401 -3.5972
 3514SOL     OW22000   1.282   2.935   4.416 -0.1463  0.4649 -0.0830
 3514SOL    HW122001   1.265   2.882   4.493  0.7599 -1.9345 -1.5435
 3514SOL    HW222002   1.306   3.021   4.450  0.3006 -0.4583  1.8918
 3515SOL     OW22003   3.520   4.244  11.412  0.3847 -0.1366 -0.2335
 3515SOL    HW122004   3.567   4.316  11.453 -0.7402  1.3474 -1.5826
 3515SOL    HW222005   3.591   4.179  11.411  1.0758  0.5821  2.1042
 3516SOL     OW22006   0.702   1.434  10.333  0.2146 -0.1657 -0.3213
 3516SOL    HW122007   0.628   1.492  10.350  0.7743  0.3502  0.3280
 3516SOL    HW222008   0.757   1.446  10.411 -0.7434  0.5706  0.2406
 3517SOL     OW22009   2.316   4.570   1.086  0.0494  0.4295  0.6013
 3517SOL    HW122010   2.251   4.503   1.062 -1.2394  1.7572  0.3570
 3517SOL    HW222011   2.320   4.624   1.007  1.2555  2.1412  1.8286
 3518SOL     OW22012   4.093   0.757   7.405 -0.1135  0.0688 -0.0083
 3518SOL    HW122013   4.176   0.764   7.360 -0.0505  3.0786  0.5246
 3518SOL    HW222014   4.113   0.695   7.475 -0.9387  0.6267  0.7293
 3519SOL     OW22015   1.780   4.517  10.352  0.2416  0.6022 -0.0379
 3519SOL    HW122016   1.778   4.443  10.412 -0.0503 -0.1016 -0.9161
 3519SOL    HW222017   1.873   4.539  10.363  0.2255  1.6586 -1.9457
 3520SOL     OW22018   0.211   1.837   7.197  0.3252 -0.1322 -0.0017
 3520SOL    HW122019   0.244   1.831   7.286  1.9488 -0.3893 -0.6240
 3520SOL    HW222020   0.212   1.745   7.173  2.7181 -0.0069 -0.4110
 3521SOL     OW22021   1.942   1.096   6.679  0.1617 -0.2103  0.1102
 3521SOL    HW122022   1.892   1.136   6.608  0.5823  1.5131  0.7962
 3521SOL    HW222023   1.985   1.025   6.631  3.1070 -0.3610  2.9817
 3522SOL     OW22024   2.456   0.345   7.604  0.0520 -0.2426  0.0308
 3522SOL    HW122025   2.525   0.367   7.667  0.9357 -1.7055 -0.4170
 3522SOL    HW222026   2.457   0.250   7.601 -0.9263 -0.2664  0.3026
 3523SOL     OW22027   4.044   4.281   4.223  0.0957 -0.1808 -0.4317
 3523SOL    HW122028   4.055   4.191   4.191  0.0607 -0.2933 -0.1303
 3523SOL    HW222029   3.952   4.294   4.203 -0.2537 -1.9689 -0.0069
 3524SOL     OW22030   2.724   2.489   0.556  0.0748 -0.4223  0.3827
 3524SOL    HW122031   2.715   2.447   0.642  1.3243 -1.8594 -0.1733
 3524SOL    HW222032   2.709   2.415   0.497 -2.7315  0.1500  0.4082
 3525SOL     OW22033   0.985   0.306  11.550  0.1810  0.1502  0.2379
 3525SOL    HW122034   0.916   0.327  11.612 -0.4957 -1.0595 -0.0957
 3525SOL    HW222035   1.051   0.263  11.604 -1.2182 -0.8708  1.1387
 3526SOL     OW22036   4.445   2.344   8.311 -0.2353  0.0588  0.1099
 3526SOL    HW122037   4.519   2.403   8.323 -0.5252  0.4368  0.0422
 3526SOL    HW222038   4.466   2.282   8.381 -0.9966 -2.9766 -2.3659
 3527SOL     OW22039   2.826   4.235   0.577 -0.2435  0.0937  0.2370
 3527SOL    HW122040   2.791   4.319   0.547  0.6299  0.3934  0.0476
 3527SOL    HW222041   2.872   4.219   0.494 -1.0590  0.7000 -0.3341
 3528SOL     OW22042   4.530   2.715  14.185 -0.0892 -0.1288 -0.4037
 3528SOL    HW122043   4.495   2.794  14.225  1.2251 -0.2859  1.0364
 3528SOL    HW222044   4.538   2.656  14.260  0.5864  1.8034  1.0459
 3529SOL     OW22045   0.815   1.509   4.842  0.3721  0.0619  0.7398
 3529SOL    HW122046   0.814   1.578   4.776  0.9424  1.3662  2.0904
 3529SOL    HW222047   0.904   1.473   4.849  1.0224  1.4314 -0.6574
 3530SOL     OW22048   4.263   0.808   2.692 -0.2491 -0.4166 -0.0697
 3530SOL    HW122049   4.341   0.848   2.654 -1.4762  1.0333 -1.0646
 3530SOL    HW222050   4.302   0.734   2.738  1.5735 -0.3884 -1.5660
 3531SOL     OW22051   4.353   2.975   7.172 -0.1035 -0.1902  0.0367
 3531SOL    HW122052   4.359   2.948   7.081  1.4903  5.4670 -1.5163
 3531SOL    HW222053   4.386   3.063   7.159  1.2104 -0.6095  0.5228
 3532SOL     OW22054   3.837   3.652  12.604 -0.2550  0.1408  0.2554
 3532SOL    HW122055   3.837   3.590  12.677  1.1812 -1.4423 -1.0687
 3532SOL    HW222056   3.817   3.588  12.535  0.0923  0.7260 -0.3875
 3533SOL     OW22057   4.200   4.461   0.691  0.1613  0.7059  0.2792
 3533SOL    HW122058   4.107   4.483   0.700 -0.0087 -0.7711  2.0377
 3533SOL    HW222059   4.193   4.423   0.603 -1.5136 -1.4016  1.3203
 3534SOL     OW22060   0.075   0.768   1.965  0.0562  0.4202 -0.1189
 3534SOL    HW122061   0.010   0.819   2.014 -0.3561  0.0263 -0.2542
 3534SOL    HW222062   0.141   0.751   2.032 -0.5645 -0.6548  0.2137
 3535SOL     OW22063   0.721   1.890   9.767 -0.2396  0.1314  0.1034
 3535SOL    HW122064   0.688   1.948   9.836  0.4545 -0.9545  1.3447
 3535SOL    HW222065   0.741   1.958   9.703 -0.5993 -0.7804 -0.9787
 3536SOL     OW22066   2.912   0.303  13.246 -0.5138 -0.2900 -0.0806
 3536SOL    HW122067   2.919   0.230  13.185 -0.7224  0.5219 -1.0912
 3536SOL    HW222068   2.953   0.264  13.323  2.3781  2.1884 -0.3750
 3537SOL     OW22069   1.012   4.359   8.427  0.5715  0.7858  0.1517
 3537SOL    HW122070   0.929   4.349   8.380  1.1489 -1.2822 -0.4610
 3537SOL    HW222071   1.000   4.451   8.449 -1.9404 -0.0407  2.1323
 3538SOL     OW22072   2.431   3.054   8.802  0.1968  0.1280  0.2226
 3538SOL    HW122073   2.432   3.146   8.775  1.0397 -0.4463 -1.7142
 3538SOL    HW222074   2.509   3.045   8.858  0.0949 -2.9118 -0.1305
 3539SOL     OW22075   2.695   3.873   0.247  0.4698  0.4676 -0.1138
 3539SOL    HW122076   2.649   3.824   0.178 -0.3996  1.4317 -0.2207
 3539SOL    HW222077   2.678   3.964   0.224 -0.7575 -0.0605 -1.3308
 3540SOL     OW22078   3.621   2.662   5.583  0.6195 -0.0713  0.2845
 3540SOL    HW122079   3.704   2.626   5.612  0.5537 -1.0991 -0.8238
 3540SOL    HW222080   3.661   2.714   5.513 -1.5289  0.8298 -0.3008
 3541SOL     OW22081   2.955   3.647   6.548  0.0208  0.6039  0.0150
 3541SOL    HW122082   2.945   3.627   6.641 -1.4771  1.3932  0.0254
 3541SOL    HW222083   2.877   3.702   6.540 -0.4854 -0.0986  0.1244
 3542SOL     OW22084   1.507   3.303  10.858 -0.1732 -0.5317  0.2060
 3542SOL    HW122085   1.559   3.223  10.853 -2.0451 -1.6947 -0.6794
 3542SOL    HW222086   1.512   3.313  10.953  0.2173  0.4333  0.0850
 3543SOL     OW22087   2.622   3.985   2.715 -0.5392 -0.3553 -0.0369
 3543SOL    HW122088   2.716   4.001   2.727 -0.2491 -1.0196 -1.4027
 3543SOL    HW222089   2.611   3.890   2.707 -0.4748 -0.3270 -0.4842
 3544SOL     OW22090   2.108   4.272  13.002 -0.1770  0.2529  0.4063
 3544SOL    HW122091   2.093   4.179  12.987 -0.5421  0.3436  0.2077
 3544SOL    HW222092   2.074   4.315  12.923  0.3915 -0.1992 -0.0773
 3545SOL     OW22093   1.673   4.714   9.420 -0.2266 -0.2091  0.1723
 3545SOL    HW122094   1.678   4.646   9.353  0.2469 -0.5062  0.5124
 3545SOL    HW222095   1.744   0.052   9.405 -2.0377  2.3842  2.2384
 3546SOL     OW22096   1.780   4.700   6.651  0.3253  0.1388 -0.0562
 3546SOL    HW122097   1.739   4.614   6.656  0.6843 -0.1457 -2.0011
 3546SOL    HW222098   1.711   0.028   6.693 -0.6578 -2.2692  1.3066
 3547SOL     OW22099   4.178   4.189   3.861 -0.0035 -0.5600 -0.6422
 3547SOL    HW122100   4.099   4.241   3.874  1.2275  0.8391  1.3387
 3547SOL    HW222101   4.158   4.124   3.929  4.4586  0.8299  2.0458
 3548SOL     OW22102   0.712   3.868   6.568 -0.7040 -0.5197  0.3272
 3548SOL    HW122103   0.791   3.817   6.548  0.7125  2.0064 -0.4530
 3548SOL    HW222104   0.653   3.863   6.493  1.7205  0.2959 -1.6311
 3549SOL     OW22105   2.883   0.777   7.589 -0.2620  0.6935 -0.3322
 3549SOL    HW122106   2.951   0.715   7.564 -0.3881  0.9749 -1.3758
 3549SOL    HW222107   2.929   0.842   7.643  3.7293 -3.2811  1.0724
 3550SOL     OW22108   2.642   3.785  12.457  0.4273 -0.2830  0.0677
 3550SOL    HW122109   2.696   3.758  12.531 -1.7555  1.1302  2.1879
 3550SOL    HW222110   2.716   3.804  12.399  0.1173 -0.1944 -0.3028
 3551SOL     OW22111   2.416   2.301   1.895 -0.0344  0.1399 -0.0818
 3551SOL    HW122112   2.488   2.243   1.872  0.7470  1.2617 -0.4435
 3551SOL    HW222113   2.432   2.325   1.987 -0.0560 -0.3117  0.0408
 3552SOL     OW22114   2.006   2.033   1.943 -0.4062  0.1866  0.0064
 3552SOL    HW122115   2.072   1.996   1.885 -2.4717 -0.5319 -1.9017
 3552SOL    HW222116   1.991   2.115   1.896 -1.8537 -1.3334 -2.2323
 3553SOL     OW22117   3.044   2.757   9.016 -0.9299  0.4789 -0.2061
 3553SOL    HW122118   3.007   2.707   9.089 -0.0648  1.3864  0.8325
 3553SOL    HW222119   3.086   2.691   8.960 -0.7373  1.2228 -0.9348
 3554SOL     OW22120   1.672   1.973   3.460 -0.2362  0.3962 -0.0413
 3554SOL    HW122121   1.578   1.954   3.456 -0.5451  2.1779 -1.6502
 3554SOL    HW222122   1.701   1.918   3.388  3.0556  0.7064  1.0658
 3555SOL     OW22123   1.878   3.340  14.378  0.0367  0.1584 -0.2459
 3555SOL    HW122124   1.942   3.352  14.448 -1.5545 -0.8877  1.3968
 3555SOL    HW222125   1.932   3.327  14.300  0.3950  1.6908 -0.2492
 3556SOL     OW22126   0.748   1.108   3.347  0.4443  0.2226  0.2922
 3556SOL    HW122127   0.728   1.137   3.258 -3.0901 -0.1034  0.9481
 3556SOL    HW222128   0.663   1.072   3.375 -0.6004 -0.0953 -3.3234
 3557SOL     OW22129   3.531   0.165   3.606  0.6041 -0.6662 -0.5539
 3557SOL    HW122130   3.487   0.189   3.688  1.4299 -2.9843  0.5658
 3557SOL    HW222131   3.594   0.238   3.608  0.5701 -0.6385 -0.4995
 3558SOL     OW22132   2.831   1.085   7.185 -0.0623  0.2524  0.4261
 3558SOL    HW122133   2.797   1.004   7.149 -1.4357  1.5527 -1.2157
 3558SOL    HW222134   2.769   1.105   7.255  0.8410 -0.9844  1.5711
 3559SOL     OW22135   0.233   2.734   3.852  0.3480 -0.7361 -0.3449
 3559SOL    HW122136   0.202   2.699   3.768 -2.1258 -0.6414  0.5261
 3559SOL    HW222137   0.213   2.825   3.830 -1.9387 -0.9032  1.0493
 3560SOL     OW22138   4.711   2.001  10.403  0.5903  0.1041 -0.5489
 3560SOL    HW122139   4.656   1.972  10.330 -1.1259 -0.4417  0.9537
 3560SOL    HW222140   4.655   1.979  10.478  3.2840 -1.4575  1.0232
 3561SOL     OW22141   3.633   3.725   0.430  0.8406  0.5538  0.2939
 3561SOL    HW122142   3.643   3.694   0.340  0.8709  1.4144 -0.0008
 3561SOL    HW222143   3.542   3.754   0.429  0.7058  0.0213 -2.1069
 3562SOL     OW22144   1.628   2.675  10.549  0.0830 -1.0125 -0.2263
 3562SOL    HW122145   1.552   2.620  10.569 -0.7691  1.5893  3.5725
 3562SOL    HW222146   1.582   2.730  10.485  0.8976  1.9957  1.7444
 3563SOL     OW22147   2.834   1.983   0.186  0.1274 -0.3350  0.3919
 3563SOL    HW122148   2.751   1.971   0.233  0.1723 -1.8056  0.0838
 3563SOL    HW222149   2.840   1.904   0.133  1.2766 -0.0445  0.1001
 3564SOL     OW22150   0.872   2.063   2.639  0.2790 -0.1440 -0.4672
 3564SOL    HW122151   0.786   2.095   2.611 -1.0057 -1.2665  2.1847
 3564SOL    HW222152   0.881   1.986   2.583  0.2995 -0.6134  0.1801
 3565SOL     OW22153   1.097   0.972  16.739  0.1088 -0.8283  0.5149
 3565SOL    HW122154   1.009   0.984  16.704  0.6351  1.2641 -0.0765
 3565SOL    HW222155   1.104   0.877  16.725  0.0095 -0.6245 -0.8460
 3566SOL     OW22156   0.299   0.510   5.825  0.0849 -0.1233  0.5897
 3566SOL    HW122157   0.259   0.516   5.739 -0.5990 -0.7485  0.8676
 3566SOL    HW222158   0.244   0.443   5.866 -0.0682 -0.3440  0.0233
 3567SOL     OW22159   4.111   0.721   5.868 -0.1220 -0.0512 -0.2444
 3567SOL    HW122160   4.201   0.729   5.900 -1.2159 -1.0959  3.0357
 3567SOL    HW222161   4.117   0.657   5.797  2.1716  1.9529 -1.8624
 3568SOL     OW22162   2.087   1.188  13.850 -0.4590  0.2689  0.0339
 3568SOL    HW122163   2.055   1.163  13.937 -0.8082 -2.0262 -0.7448
 3568SOL    HW222164   2.020   1.147  13.796 -0.1138 -0.5450  0.2168
 3569SOL     OW22165   2.993   0.779  12.842 -0.7673  0.1405 -0.0600
 3569SOL    HW122166   2.905   0.815  12.833 -1.8822 -2.5813 -0.0716
 3569SOL    HW222167   2.971   0.692  12.876  0.0187  0.1282  0.4148
 3570SOL     OW22168   0.033   1.599   5.193  0.6159 -0.6613 -0.7013
 3570SOL    HW122169   4.678   1.611   5.246  1.1990 -0.8350  0.2010
 3570SOL    HW222170   0.009   1.597   5.100  0.3585 -0.4781 -0.6409
 3571SOL     OW22171   2.943   0.965   4.271  0.1550 -0.6521 -0.0953
 3571SOL    HW122172   2.940   0.956   4.176 -3.0715 -0.9428  0.0288
 3571SOL    HW222173   3.034   0.938   4.282 -0.1956 -0.8188  2.3488
 3572SOL     OW22174   1.023   3.207  10.262 -0.1069 -0.5721 -0.1397
 3572SOL    HW122175   0.944   3.214  10.207 -0.2865  0.5206  0.2531
 3572SOL    HW222176   0.992   3.129  10.309  0.2346 -0.9599 -0.5553
 3573SOL     OW22177   0.678   1.022   5.489  0.2256 -0.1662 -0.6777
 3573SOL    HW122178   0.656   0.933   5.515  1.7476 -0.3147  0.0694
 3573SOL    HW222179   0.692   1.011   5.395  0.6706  1.3343 -0.7802
 3574SOL     OW22180   1.546   0.787   7.624  0.1841  0.1033 -0.1926
 3574SOL    HW122181   1.452   0.805   7.626 -0.0471 -1.0361 -0.7472
 3574SOL    HW222182   1.578   0.876   7.610 -0.1588  0.4980  1.5039
 3575SOL     OW22183   0.355   1.820   8.624  0.0600 -0.2148  0.1417
 3575SOL    HW122184   0.389   1.731   8.631  1.1642  0.3172  1.4231
 3575SOL    HW222185   0.403   1.851   8.547  1.6874  0.7031  1.5162
 3576SOL     OW22186   3.597   4.504   8.148  0.3848 -0.0973  0.0586
 3576SOL    HW122187   3.559   4.591   8.155  0.3246  0.0467 -2.0396
 3576SOL    HW222188   3.520   4.453   8.126 -0.0916  0.5468  0.2287
 3577SOL     OW22189   3.313   1.673   8.105 -0.1960  0.1534  0.1480
 3577SOL    HW122190   3.287   1.737   8.171 -1.2111 -0.5598  0.4459
 3577SOL    HW222191   3.231   1.669   8.054  1.1864  3.5757 -2.3162
 3578SOL     OW22192   2.189   3.411   5.567  0.8916  0.3308 -0.1466
 3578SOL    HW122193   2.112   3.383   5.518  0.2817  3.4355 -0.9746
 3578SOL    HW222194   2.211   3.333   5.617  1.0803  0.4464 -0.0516
 3579SOL     OW22195   3.104   3.824   3.730 -0.1909 -0.3285 -0.3743
 3579SOL    HW122196   3.096   3.731   3.749  1.9763 -0.4302  0.0183
 3579SOL    HW222197   3.199   3.834   3.731 -0.3103  0.9985 -1.5955
 3580SOL     OW22198   4.580   0.240   4.456 -0.2958  0.8371 -0.2689
 3580SOL    HW122199   4.558   0.333   4.454  2.8453  1.5887 -0.5426
 3580SOL    HW222200   4.621   0.233   4.370  0.1377  1.3467 -0.1090
 3581SOL     OW22201   4.070   2.090  17.449 -0.1524  0.1952 -0.2790
 3581SOL    HW122202   4.047   2.136  17.369 -0.4833  2.1249  0.9125
 3581SOL    HW222203   4.121   2.159  17.493 -0.2712 -0.1394  0.3892
 3582SOL     OW22204   2.628   0.452   5.355  0.1826  0.3247 -0.2116
 3582SOL    HW122205   2.689   0.406   5.298  1.4063  2.6290 -0.7416
 3582SOL    HW222206   2.574   0.507   5.299 -1.9709  0.0212  1.5621
 3583SOL     OW22207   2.987   1.225   2.996  0.6229 -0.3129  0.5696
 3583SOL    HW122208   2.909   1.275   3.021  0.3817 -0.3697 -0.0604
 3583SOL    HW222209   2.960   1.133   3.004 -0.4233 -0.0699 -0.0465
 3584SOL     OW22210   2.687   3.735  10.535  0.8647  0.1468  0.3315
 3584SOL    HW122211   2.751   3.694  10.477  0.4789 -0.7228  0.5191
 3584SOL    HW222212   2.626   3.661  10.534 -0.3201  1.1054  2.1117
 3585SOL     OW22213   4.540   4.207   8.813 -0.0183  0.2618  0.0744
 3585SOL    HW122214   4.635   4.201   8.815 -0.0617 -0.1533  0.9659
 3585SOL    HW222215   4.524   4.243   8.901  1.0587 -1.2235  0.8673
 3586SOL     OW22216   3.517   0.826   6.252  0.3318  0.1733 -0.0167
 3586SOL    HW122217   3.575   0.751   6.237 -1.8950 -1.9512  2.0067
 3586SOL    HW222218   3.530   0.843   6.345 -0.1722  1.3119 -0.1581
 3587SOL     OW22219   3.946   3.834  14.076  0.4774  0.3313 -0.1442
 3587SOL    HW122220   4.038   3.857  14.087  0.9937 -1.4643 -0.7893
 3587SOL    HW222221   3.949   3.812  13.983  1.4392  0.5490 -0.1594
 3588SOL     OW22222   1.121   2.357   3.191 -0.3201 -0.4433 -0.3624
 3588SOL    HW122223   1.155   2.269   3.171  1.0571  0.1270 -0.5102
 3588SOL    HW222224   1.202   2.406   3.206  0.0739 -1.4469  0.8476
 3589SOL     OW22225   1.808   1.241   6.451  0.0405 -0.0915  0.6555
 3589SOL    HW122226   1.740   1.221   6.387  1.2841 -1.2893 -0.2804
 3589SOL    HW222227   1.881   1.260   6.393  1.3105  0.2371  2.3534
 3590SOL     OW22228   3.899   0.514   3.359  0.0411  0.9221 -0.2454
 3590SOL    HW122229   3.980   0.563   3.373  0.4340  0.1437  0.2092
 3590SOL    HW222230   3.864   0.533   3.446 -0.7128 -0.7188 -0.1815
 3591SOL     OW22231   4.098   0.789  12.195  0.7843  0.7297  0.0838
 3591SOL    HW122232   4.075   0.699  12.171 -0.2124  1.3400 -1.2178
 3591SOL    HW222233   4.142   0.784  12.280  1.3661 -0.5847 -0.3000
 3592SOL     OW22234   2.452   0.697  16.529 -0.3578  0.4460  0.2833
 3592SOL    HW122235   2.479   0.642  16.456 -0.8366  1.6101 -0.7706
 3592SOL    HW222236   2.383   0.753  16.494 -1.2876  0.8339  2.7386
 3593SOL     OW22237   4.677   2.351   0.155 -0.2811  0.1256  0.1477
 3593SOL    HW122238   4.649   2.401   0.079  0.2560  2.2606  1.3585
 3593SOL    HW222239   0.043   2.377   0.172 -0.5944  0.2248  1.6641
 3594SOL     OW22240   1.680   2.171  15.541  0.3210 -0.5447 -0.1145
 3594SOL    HW122241   1.665   2.215  15.625 -0.6032 -0.8673 -0.1132
 3594SOL    HW222242   1.772   2.154  15.560  0.4420 -1.2936 -1.3933
 3595SOL     OW22243   0.620   0.069  13.946  0.6711 -0.3091 -0.0620
 3595SOL    HW122244   0.707   0.100  13.971  1.4910 -1.2080 -1.7607
 3595SOL    HW222245   0.613   4.716  14.002  1.1553 -0.3748 -0.0924
 3596SOL     OW22246   2.606   2.214  13.819  0.2893  0.0568  0.1469
 3596SOL    HW122247   2.678   2.213  13.755 -1.5422 -1.9880 -1.8516
 3596SOL    HW222248   2.625   2.287  13.879 -0.7393  1.1960 -0.9041
 3597SOL     OW22249   0.026   0.058  10.518 -0.2287 -0.5163  0.1416
 3597SOL    HW122250   4.691   0.121  10.477  0.2535  0.3025  0.7159
 3597SOL    HW222251   4.693   4.705  10.508 -1.6474  0.4049  1.2112
 3598SOL     OW22252   3.604   3.781  11.686 -0.0044 -0.7224  0.3131
 3598SOL    HW122253   3.681   3.737  11.649  1.7988  2.3121  0.4803
 3598SOL    HW222254   3.631   3.857  11.737 -1.6175  0.3546 -0.3922
 3599SOL     OW22255   4.706   1.234   3.714 -0.6991  0.2564 -0.1373
 3599SOL    HW122256   0.077   1.247   3.719 -1.0248  1.4722  3.0656
 3599SOL    HW222257   4.691   1.149   3.757  2.1938 -0.1014  0.1620
 3600SOL     OW22258   0.435   3.202   7.154 -0.1724  0.4617 -0.6526
 3600SOL    HW122259   0.506   3.230   7.212  1.8465 -0.6606 -2.5989
 3600SOL    HW222260   0.368   3.186   7.221  1.1741 -0.4324  0.4784
 3601SOL     OW22261   1.928   3.110  14.588 -0.0704  0.2758  0.3628
 3601SOL    HW122262   1.971   3.030  14.559 -2.0112  0.2140 -2.3359
 3601SOL    HW222263   2.002   3.134  14.644 -0.0043 -0.3178  0.5253
 3602SOL     OW22264   3.720   2.977   4.036 -0.2342 -0.1659  0.0003
 3602SOL    HW122265   3.788   2.933   4.087 -1.9024 -3.2280 -0.3441
 3602SOL    HW222266   3.711   3.065   4.070  2.0991 -0.8792  2.4373
 3603SOL     OW22267   0.046   0.707   6.318 -0.1177 -0.2685 -0.4205
 3603SOL    HW122268   0.119   0.717   6.379 -0.5929 -0.2411  0.1433
 3603SOL    HW222269   0.001   0.792   6.321  0.3238 -0.0374 -0.3466
 3604SOL     OW22270   1.656   0.665   5.912 -0.0040  0.0489  0.3656
 3604SOL    HW122271   1.571   0.622   5.917  1.0544 -1.9485  0.8711
 3604SOL    HW222272   1.662   0.702   6.001 -1.9394 -0.5720  0.7507
 3605SOL     OW22273   0.301   2.217  11.577  0.6967  0.1550  0.6570
 3605SOL    HW122274   0.355   2.211  11.655 -0.4106  1.2759  1.5053
 3605SOL    HW222275   0.281   2.310  11.567  0.0356 -0.1190 -0.6519
 3606SOL     OW22276   2.939   4.696   8.717 -0.6324 -0.0179  0.2810
 3606SOL    HW122277   2.947   0.045   8.778  3.8073  0.2725 -0.6396
 3606SOL    HW222278   3.032   4.675   8.717 -1.0450 -1.9346 -3.5361
 3607SOL     OW22279   3.749   3.216   5.681 -0.1537  1.0152  0.2943
 3607SOL    HW122280   3.769   3.127   5.654 -0.0804  1.2578 -0.4588
 3607SOL    HW222281   3.659   3.231   5.652 -0.5817 -2.5947 -0.2687
 3608SOL     OW22282   0.268   4.631  17.153 -0.3046  0.3793 -0.0049
 3608SOL    HW122283   0.248   4.693  17.223  0.3023  0.7102 -0.1331
 3608SOL    HW222284   0.202   4.653  17.087 -1.7397 -0.0021  1.2860
 3609SOL     OW22285   4.434   3.798  16.108 -0.5547 -0.6624 -0.4554
 3609SOL    HW122286   4.393   3.723  16.152  0.0484  0.1050  1.4366
 3609SOL    HW222287   4.421   3.854  16.185 -0.6274 -0.8908 -0.2994
 3610SOL     OW22288   0.509   4.599   3.678 -0.1893  0.6423 -0.6528
 3610SOL    HW122289   0.460   4.662   3.625  2.0649  3.3149  0.4157
 3610SOL    HW222290   0.439   4.538   3.703 -1.3394  1.3005 -2.2712
 3611SOL     OW22291   0.562   3.368   4.700 -0.1400 -0.1666 -0.2867
 3611SOL    HW122292   0.507   3.328   4.768  2.2129  0.4371  1.9900
 3611SOL    HW222293   0.500   3.419   4.647  0.0862  1.3765  0.9195
 3612SOL     OW22294   1.850   3.219  14.912  0.2112  0.2623  0.1469
 3612SOL    HW122295   1.911   3.164  14.863 -0.3484 -0.6053  0.4123
 3612SOL    HW222296   1.791   3.148  14.937  1.7432 -0.6861  1.0561
 3613SOL     OW22297   0.369   4.530   0.552  0.3977 -0.0168  0.1362
 3613SOL    HW122298   0.311   4.484   0.613  1.3695 -1.6843 -0.2155
 3613SOL    HW222299   0.445   4.476   0.575  1.0920  0.5083 -0.9204
 3614SOL     OW22300   1.074   3.062   7.107 -0.3347  0.2073 -0.1293
 3614SOL    HW122301   1.031   3.146   7.120  0.5304  0.4467  1.1010
 3614SOL    HW222302   1.143   3.076   7.171  0.0328  0.7797 -0.6538
 3615SOL     OW22303   1.814   0.842   3.300 -0.1612  0.2265  0.1617
 3615SOL    HW122304   1.732   0.820   3.344 -0.2730 -0.5090 -0.4166
 3615SOL    HW222305   1.788   0.904   3.232  1.3107  1.3696  0.6258
 3616SOL     OW22306   1.489   0.620   3.595  0.6766  0.1913 -0.1151
 3616SOL    HW122307   1.506   0.633   3.688 -1.4793  1.6877  0.0694
 3616SOL    HW222308   1.468   0.706   3.560  0.6428  0.7486  1.2566
 3617SOL     OW22309   4.588   3.456   8.135  0.6296  0.3307  0.2243
 3617SOL    HW122310   4.632   3.483   8.216  1.3641  1.0969 -0.4380
 3617SOL    HW222311   4.658   3.418   8.082 -1.1109 -0.4135 -1.5636
 3618SOL     OW22312   3.133   3.522   7.008 -0.3611  0.2218 -0.2952
 3618SOL    HW122313   3.141   3.427   7.016  0.7713  0.2849 -0.6755
 3618SOL    HW222314   3.226   3.544   6.995  0.2649 -2.8719 -1.0164
 3619SOL     OW22315   3.601   2.958   7.817  0.3022  0.2772 -0.3200
 3619SOL    HW122316   3.542   2.891   7.783 -0.2112  1.2999 -1.4164
 3619SOL    HW222317   3.681   2.910   7.792  1.2368  3.8395 -4.0408
 3620SOL     OW22318   0.898   3.442   1.594 -0.6067 -0.2958 -0.3326
 3620SOL    HW122319   0.963   3.426   1.526 -0.2872  0.5385 -0.2255
 3620SOL    HW222320   0.926   3.380   1.662 -1.3779 -0.7742 -0.4562
 3621SOL     OW22321   4.312   1.233  15.940 -0.2179 -0.3139  0.1489
 3621SOL    HW122322   4.379   1.208  16.004  2.0103  0.6041 -1.8347
 3621SOL    HW222323   4.361   1.281  15.873  3.2216 -1.4008  1.8985
 3622SOL     OW22324   2.220   0.084   4.394 -0.2634 -0.3286 -0.1545
 3622SOL    HW122325   2.224   0.044   4.308 -1.4302 -1.0663  0.1331
 3622SOL    HW222326   2.275   0.160   4.378 -0.2625 -0.7887 -2.2286
 3623SOL     OW22327   0.481   1.567   5.413 -0.1227  0.2048  0.0060
 3623SOL    HW122328   0.523   1.572   5.499 -1.3737  0.1502  0.6260
 3623SOL    HW222329   0.479   1.472   5.403  0.0734 -0.0700  2.4525
 3624SOL     OW22330   2.519   2.146   9.534 -1.0458 -0.3166 -0.0242
 3624SOL    HW122331   2.502   2.192   9.616  1.7448 -0.5109  0.6474
 3624SOL    HW222332   2.477   2.210   9.476  0.1646  0.3874 -0.1096
 3625SOL     OW22333   2.723   0.064   7.712  0.0167  0.1439 -0.8043
 3625SOL    HW122334   2.737   4.723   7.642  1.0102 -1.0297  0.4669
 3625SOL    HW222335   2.654   0.021   7.763  0.5958  0.0422 -0.1049
 3626SOL     OW22336   3.213   1.438   6.304 -0.6115 -0.0545 -0.1745
 3626SOL    HW122337   3.299   1.406   6.332  0.8165  1.5465 -2.7278
 3626SOL    HW222338   3.179   1.488   6.378 -0.5307 -0.0724 -0.1255
 3627SOL     OW22339   4.323   1.677   4.611  0.2867 -0.0411 -0.0954
 3627SOL    HW122340   4.245   1.691   4.664  1.1762  0.7178  0.9984
 3627SOL    HW222341   4.384   1.669   4.684 -0.5386 -0.1300  0.5822
 3628SOL     OW22342   4.230   1.402  12.585  0.1455  0.8892  0.3407
 3628SOL    HW122343   4.263   1.465  12.649  1.7097  0.3928  0.0297
 3628SOL    HW222344   4.180   1.346  12.645 -0.8352 -0.0977 -1.3932
 3629SOL     OW22345   1.618   3.732   3.343 -0.2379 -0.0619  0.3352
 3629SOL    HW122346   1.641   3.727   3.436 -2.3649  0.2465  0.8854
 3629SOL    HW222347   1.614   3.825   3.323 -1.0022 -0.1871 -0.1226
 3630SOL     OW22348   0.731   2.102   6.861  1.1931  0.0861  0.0819
 3630SOL    HW122349   0.643   2.072   6.885  2.3095 -2.3003  1.2220
 3630SOL    HW222350   0.727   2.188   6.902  1.4127 -0.5156  1.3520
 3631SOL     OW22351   4.404   2.750  10.666  0.6282 -0.1661 -0.1758
 3631SOL    HW122352   4.392   2.657  10.644  1.2753  0.5354 -3.3816
 3631SOL    HW222353   4.412   2.803  10.587  0.9080  1.4921  0.9743
 3632SOL     OW22354   0.343   1.995  13.962  0.1251 -0.2277  0.1729
 3632SOL    HW122355   0.358   1.960  14.050 -1.0271 -1.7412 -0.2351
 3632SOL    HW222356   0.428   1.981  13.921  0.5852  1.4708  0.5447
 3633SOL     OW22357   2.700   1.796   2.375  0.1183 -0.0894 -0.5922
 3633SOL    HW122358   2.637   1.750   2.319  1.2673 -0.5563 -1.5151
 3633SOL    HW222359   2.697   1.737   2.450  0.3046  0.3512 -0.2341
 3634SOL     OW22360   0.098   4.693   2.634 -0.0582  0.3505  0.1577
 3634SOL    HW122361   0.171   4.647   2.593 -1.6068 -2.1164  0.1688
 3634SOL    HW222362   0.068   0.010   2.553  0.0904 -0.5375 -0.3444
 3635SOL     OW22363   4.645   1.141   3.079 -0.7079 -0.6091  0.0081
 3635SOL    HW122364   4.692   1.125   2.997  1.6887  0.6544  1.1321
 3635SOL    HW222365   4.614   1.053   3.099  0.3845 -1.1189 -0.5255
 3636SOL     OW22366   0.525   2.988  13.369 -0.2332  0.1137  0.1532
 3636SOL    HW122367   0.602   2.989  13.313  1.1924 -0.7037  2.0946
 3636SOL    HW222368   0.524   3.080  13.395  2.2281  0.5973 -1.5420
 3637SOL     OW22369   2.671   1.416  13.740 -0.3680 -0.3123 -0.0456
 3637SOL    HW122370   2.627   1.362  13.675  0.2022  0.3077 -0.9359
 3637SOL    HW222371   2.621   1.498  13.734  1.2812  0.6965  0.0835
 3638SOL     OW22372   2.771   1.344   3.342 -0.3897 -0.3797  0.3690
 3638SOL    HW122373   2.852   1.335   3.292  0.0171  0.0627  0.9466
 3638SOL    HW222374   2.800   1.285   3.412  0.9334  2.5228  2.2959
 3639SOL     OW22375   0.407   0.374   9.633 -0.0997  0.3177  0.1768
 3639SOL    HW122376   0.342   0.441   9.613 -2.6036 -2.3845 -0.7358
 3639SOL    HW222377   0.485   0.400   9.584 -1.0474  1.6967 -0.6189
 3640SOL     OW22378   3.552   1.788   7.133 -0.3038 -0.1901 -0.0321
 3640SOL    HW122379   3.633   1.838   7.144 -0.1106 -0.7436  1.0611
 3640SOL    HW222380   3.523   1.812   7.045 -1.4055  0.8729  0.6194
 3641SOL     OW22381   3.182   2.733  16.462  0.1624  0.2200  0.9390
 3641SOL    HW122382   3.171   2.663  16.397 -2.5914  1.6698 -0.1396
 3641SOL    HW222383   3.205   2.804  16.402  0.3654  0.2508  1.0529
 3642SOL     OW22384   2.743   1.825   5.943 -0.2229 -0.3911 -0.8305
 3642SOL    HW122385   2.765   1.873   5.863 -1.5261  1.7639  0.0809
 3642SOL    HW222386   2.811   1.760   5.957 -0.3917 -0.3744  0.1231
 3643SOL     OW22387   3.270   0.006  10.788 -0.1743 -0.1933 -0.6792
 3643SOL    HW122388   3.224   4.665  10.840 -0.8254  1.7921  1.2228
 3643SOL    HW222389   3.336   4.676  10.746  0.1288 -2.0040  2.1376
 3644SOL     OW22390   4.477   3.110   4.986  0.8270 -0.0143  0.5822
 3644SOL    HW122391   4.488   3.026   4.942 -0.4852 -0.6075  1.4098
 3644SOL    HW222392   4.494   3.101   5.079  2.3449  0.8905  0.3967
 3645SOL     OW22393   0.701   3.596   7.661  0.5761  0.0039  0.5820
 3645SOL    HW122394   0.778   3.649   7.646  0.0064  0.4731 -0.6925
 3645SOL    HW222395   0.734   3.509   7.637  0.1325 -0.2668  0.9401
 3646SOL     OW22396   3.356   4.132   2.038 -0.4837 -0.6315 -0.4705
 3646SOL    HW122397   3.377   4.136   2.131  0.7432 -0.7399 -0.7443
 3646SOL    HW222398   3.422   4.193   2.006  0.1996 -0.4149  1.3902
 3647SOL     OW22399   1.176   1.162   3.410  0.3673  0.2795  0.5023
 3647SOL    HW122400   1.215   1.085   3.452  1.4126  0.6572  0.2288
 3647SOL    HW222401   1.249   1.222   3.397  1.3137 -1.3129 -1.5671
 3648SOL     OW22402   4.596   1.058   0.495 -0.5957  0.3000  0.3322
 3648SOL    HW122403   4.679   1.100   0.474 -0.4169  0.6699  1.7413
 3648SOL    HW222404   4.639   0.988   0.543 -0.7023 -0.3687 -0.5551
 3649SOL     OW22405   3.049   4.486  13.970 -0.0398 -0.3292  0.1276
 3649SOL    HW122406   3.120   4.422  13.968  1.0157  0.8525 -0.1517
 3649SOL    HW222407   3.097   4.559  13.931  0.6327  0.3035  2.0994
 3650SOL     OW22408   2.542   2.108   4.570  0.0308  0.1017 -0.1720
 3650SOL    HW122409   2.630   2.141   4.590  0.3608  0.2047 -1.7366
 3650SOL    HW222410   2.494   2.191   4.568 -0.9498 -0.4154  1.9964
 3651SOL     OW22411   2.216   3.217   2.474 -0.1981 -0.2813  0.4355
 3651SOL    HW122412   2.226   3.273   2.551 -1.4525  2.8046 -1.6275
 3651SOL    HW222413   2.121   3.227   2.469 -0.4379 -1.9056  1.9805
 3652SOL     OW22414   2.874   3.000   4.650  0.4620  0.3014 -0.0421
 3652SOL    HW122415   2.822   3.071   4.612  0.1718 -0.2184 -0.6193
 3652SOL    HW222416   2.833   2.917   4.626 -1.8875  2.0430 -2.1197
 3653SOL     OW22417   1.646   0.191   5.160  0.1950 -0.2699  0.2360
 3653SOL    HW122418   1.673   0.258   5.222 -1.8781  0.5903  0.2097
 3653SOL    HW222419   1.643   0.113   5.216 -2.2720 -1.2698 -1.2454
 3654SOL     OW22420   1.694   2.216   1.083 -0.6582  0.0659  0.0939
 3654SOL    HW122421   1.726   2.159   1.013 -2.2355  1.7052 -1.9835
 3654SOL    HW222422   1.723   2.163   1.157 -1.5124 -0.3628  0.1117
 3655SOL     OW22423   2.943   0.319  12.870  0.1263 -0.3900  0.3190
 3655SOL    HW122424   2.925   0.242  12.923 -0.7043 -1.1799 -1.1103
 3655SOL    HW222425   2.953   0.281  12.783  2.4147 -1.0324  0.8515
 3656SOL     OW22426   2.699   2.113  15.266  0.3705 -0.4191 -0.4032
 3656SOL    HW122427   2.734   2.190  15.310  1.9177 -0.9519 -0.7066
 3656SOL    HW222428   2.676   2.136  15.176  0.1472  1.1920  0.0696
 3657SOL     OW22429   1.434   4.424   3.776  0.4660  0.1972  0.4126
 3657SOL    HW122430   1.339   4.415   3.773  0.2101  2.5601  1.1687
 3657SOL    HW222431   1.438   4.452   3.684 -1.3751  0.5557  0.4356
 3658SOL     OW22432   0.573   1.230  16.633 -0.7136 -0.5952  0.2147
 3658SOL    HW122433   0.538   1.165  16.694 -0.0291 -0.5107  0.6879
 3658SOL    HW222434   0.612   1.297  16.688 -1.0405 -0.0538 -0.2066
 3659SOL     OW22435   2.721   3.426   0.806 -0.4051  0.6298 -0.7687
 3659SOL    HW122436   2.709   3.506   0.857  1.0079  0.7165 -0.5536
 3659SOL    HW222437   2.781   3.377   0.862  0.6157  0.4150 -2.0228
 3660SOL     OW22438   1.267   1.780   7.184 -0.6551 -0.2079  0.0037
 3660SOL    HW122439   1.238   1.862   7.144 -0.3170  0.2047  0.6041
 3660SOL    HW222440   1.286   1.819   7.270  1.0206  2.7097 -1.7153
 3661SOL     OW22441   3.252   3.801   5.797  0.2087  0.4254 -0.4960
 3661SOL    HW122442   3.306   3.874   5.826  1.5328 -1.2757  1.3836
 3661SOL    HW222443   3.319   3.733   5.805 -0.6926 -0.4123  0.0105
 3662SOL     OW22444   0.484   3.105   3.040 -0.0631  0.6439 -0.0410
 3662SOL    HW122445   0.452   3.025   3.000 -0.8343  0.7223  0.4096
 3662SOL    HW222446   0.405   3.156   3.061 -0.5091  0.6801 -1.8411
 3663SOL     OW22447   3.137   3.439  14.048 -0.1768  0.7886  0.4583
 3663SOL    HW122448   3.047   3.432  14.080  0.1984  1.2134  1.6353
 3663SOL    HW222449   3.166   3.351  14.070  3.8188  1.6160 -1.3921
 3664SOL     OW22450   2.138   1.967  15.447  0.1005 -0.0105  0.8008
 3664SOL    HW122451   2.153   1.874  15.434  1.9590  0.6044 -1.5056
 3664SOL    HW222452   2.180   2.006  15.370 -1.4159  1.6817  0.8395
 3665SOL     OW22453   2.225   1.413   6.675 -0.2463 -0.2842 -0.3978
 3665SOL    HW122454   2.198   1.382   6.589 -1.9761 -0.7513  0.3223
 3665SOL    HW222455   2.173   1.351   6.725 -1.4003 -0.6309 -2.0259
 3666SOL     OW22456   0.251   2.707   2.280 -0.5428 -0.7826 -0.0762
 3666SOL    HW122457   0.331   2.662   2.254 -0.3711  0.4544 -1.6994
 3666SOL    HW222458   0.283   2.797   2.286 -2.0661 -0.4402  3.3261
 3667SOL     OW22459   0.455   0.040   6.678 -0.0696 -0.0506  0.0527
 3667SOL    HW122460   0.382   0.014   6.734  1.0951  0.3461  1.7369
 3667SOL    HW222461   0.466   4.690   6.619  1.0964 -1.0678  1.5534
 3668SOL     OW22462   0.549   2.886   0.867 -0.1541 -0.1672 -0.6904
 3668SOL    HW122463   0.624   2.855   0.817  0.1718 -1.4799  0.6202
 3668SOL    HW222464   0.577   2.975   0.889 -1.5062  0.7806 -2.8390
 3669SOL     OW22465   0.241   1.537  10.873 -0.2711  0.0271  0.2703
 3669SOL    HW122466   0.246   1.565  10.782 -0.0567  2.4937  1.0327
 3669SOL    HW222467   0.147   1.516  10.878 -0.2593 -0.8112 -3.2304
 3670SOL     OW22468   3.293   2.398  17.546 -0.1743  0.0171  0.5755
 3670SOL    HW122469   3.242   2.471  17.511  1.7290 -0.4663 -3.1359
 3670SOL    HW222470   3.218   2.345  17.574 -0.2039  0.2849  0.9944
 3671SOL     OW22471   1.937   2.094  12.359 -0.1187 -0.4633  0.0122
 3671SOL    HW122472   2.031   2.085  12.342  0.1355 -0.2701  1.3322
 3671SOL    HW222473   1.891   2.112  12.277  0.9720 -0.0127 -0.4933
 3672SOL     OW22474   0.375   3.537   7.901  0.2562 -0.3535  0.6551
 3672SOL    HW122475   0.381   3.525   7.995  0.5403  1.8361  0.9241
 3672SOL    HW222476   0.354   3.448   7.873 -1.6783  0.0538  0.7983
 3673SOL     OW22477   2.987   3.934   8.886 -0.0456 -0.1815  0.7844
 3673SOL    HW122478   2.924   3.912   8.955 -0.3639 -3.2363 -0.4863
 3673SOL    HW222479   2.925   3.944   8.813 -1.2868  2.0628  2.1306
 3674SOL     OW22480   4.575   0.975   5.481  0.3954 -0.3187  0.4419
 3674SOL    HW122481   4.480   0.967   5.471  0.4787 -0.2644 -0.4111
 3674SOL    HW222482   4.598   0.900   5.535  0.6014  0.3725  1.3061
 3675SOL     OW22483   3.897   2.826  11.915 -0.1825 -0.2979  0.3725
 3675SOL    HW122484   3.882   2.840  11.822  1.3060  0.1081  0.1900
 3675SOL    HW222485   3.984   2.862  11.931  0.5525 -1.7315 -0.3494
 3676SOL     OW22486   2.373   1.209   6.833  0.5373  0.0451  0.1081
 3676SOL    HW122487   2.362   1.153   6.756  1.7121  0.9648 -0.7249
 3676SOL    HW222488   2.282   1.209   6.864  0.1364 -0.0626 -1.0879
 3677SOL     OW22489   1.621   1.468   3.985 -0.1897 -0.5605  0.2681
 3677SOL    HW122490   1.678   1.422   4.047  0.2408 -0.9795 -0.4358
 3677SOL    HW222491   1.548   1.491   4.043 -2.7362 -3.3954 -1.7928
 3678SOL     OW22492   1.780   2.791   0.633  0.6123  0.0737  0.6126
 3678SOL    HW122493   1.730   2.865   0.669  1.6384  1.3265 -0.5087
 3678SOL    HW222494   1.865   2.811   0.671  1.2769 -3.3364  0.8775
 3679SOL     OW22495   3.850   2.444   6.915  0.2477 -0.1440  0.2127
 3679SOL    HW122496   3.767   2.461   6.959 -0.3964 -0.6601 -0.8063
 3679SOL    HW222497   3.879   2.356   6.940 -2.2646 -1.1953 -0.5872
 3680SOL     OW22498   2.485   4.021   1.985  0.4335  0.0415 -0.8583
 3680SOL    HW122499   2.432   3.941   1.987  0.5422 -0.0125 -0.2660
 3680SOL    HW222500   2.484   4.043   2.078  1.2560 -0.1952 -0.7912
 3681SOL     OW22501   4.427   1.517  13.128 -0.0765 -0.9009  0.1443
 3681SOL    HW122502   4.346   1.522  13.178  0.2478 -1.7808  0.7485
 3681SOL    HW222503   4.488   1.536  13.199  0.2765  1.7099 -0.8170
 3682SOL     OW22504   0.190   1.016   6.556  0.3585  0.5643 -0.0740
 3682SOL    HW122505   0.210   1.061   6.473 -0.5559 -0.3121 -0.7657
 3682SOL    HW222506   0.099   1.041   6.568 -0.0538 -1.4707  0.9695
 3683SOL     OW22507   4.412   2.791  12.059 -0.2175 -0.0254  0.0906
 3683SOL    HW122508   4.431   2.711  12.107 -0.2235  1.2813  2.2651
 3683SOL    HW222509   4.500   2.806  12.026 -0.3235  1.3681  0.4069
 3684SOL     OW22510   0.172   0.903  17.019 -0.3686  0.2764  0.6430
 3684SOL    HW122511   0.240   0.953  17.063  0.2126  0.4845 -0.4773
 3684SOL    HW222512   0.147   0.953  16.941 -1.4809  0.7307  1.3008
 3685SOL     OW22513   2.176   3.732   6.976 -0.5241  0.0280 -0.1015
 3685SOL    HW122514   2.201   3.646   6.943 -0.1831 -0.3657  1.2022
 3685SOL    HW222515   2.264   3.768   6.987  0.2556 -1.1111 -2.5441
 3686SOL     OW22516   1.457   3.482   2.518 -0.3716  0.1331  0.2048
 3686SOL    HW122517   1.512   3.560   2.514  2.1813 -1.5155  2.2791
 3686SOL    HW222518   1.429   3.472   2.427  0.4417  0.1277 -0.0438
 3687SOL     OW22519   0.374   4.294  11.214  0.2480  0.4153  0.3900
 3687SOL    HW122520   0.338   4.221  11.164  1.3580 -1.4964  2.3620
 3687SOL    HW222521   0.465   4.296  11.184 -0.6325  1.4198 -2.1722
 3688SOL     OW22522   2.991   1.909   5.802 -0.5087 -0.2252 -0.4097
 3688SOL    HW122523   3.038   1.940   5.725  0.2929 -1.7721 -0.5424
 3688SOL    HW222524   2.934   1.840   5.767  0.3949 -0.8313 -0.6940
 3689SOL     OW22525   0.576   2.175  13.090  0.0928 -0.3089  0.0839
 3689SOL    HW122526   0.559   2.266  13.066  1.3100  0.0648  0.6060
 3689SOL    HW222527   0.537   2.129  13.015  2.5091  0.3951 -1.6249
 3690SOL     OW22528   3.803   3.134   2.032  0.0997  0.1948 -0.6871
 3690SOL    HW122529   3.787   3.151   1.939 -0.7229 -0.9534 -0.7529
 3690SOL    HW222530   3.894   3.104   2.032 -0.0136 -0.1438 -2.1886
 3691SOL     OW22531   4.299   3.061   1.391  0.4595 -0.2361  0.0456
 3691SOL    HW122532   4.208   3.035   1.376 -0.8767  4.4561 -0.0915
 3691SOL    HW222533   4.333   2.997   1.454  0.2069 -1.0338 -0.6217
 3692SOL     OW22534   3.669   4.482   2.652 -0.1650  0.6491  0.4129
 3692SOL    HW122535   3.760   4.455   2.668 -0.2053  0.5909  0.5469
 3692SOL    HW222536   3.627   4.397   2.666 -0.4776  0.4466 -1.8529
 3693SOL     OW22537   1.105   2.380   4.903 -0.5781 -0.3449 -0.3931
 3693SOL    HW122538   1.129   2.304   4.956  0.1522  1.2308  1.5316
 3693SOL    HW222539   1.176   2.441   4.922 -0.0482 -0.7038 -1.2069
 3694SOL     OW22540   3.593   3.251   9.250 -0.4134  0.3995  0.2393
 3694SOL    HW122541   3.633   3.238   9.164 -1.5329  1.1453 -0.3925
 3694SOL    HW222542   3.550   3.334   9.227  1.0425  0.1347 -3.4561
 3695SOL     OW22543   1.223   3.193   2.744  0.3838  0.2141 -0.3842
 3695SOL    HW122544   1.228   3.138   2.822 -0.8352  3.2154  1.8235
 3695SOL    HW222545   1.305   3.161   2.705  1.0306 -0.3028  1.3957
 3696SOL     OW22546   1.490   4.494  17.500 -0.3173 -0.1842  0.4331
 3696SOL    HW122547   1.471   4.531  17.587 -2.3746  0.9537 -0.5032
 3696SOL    HW222548   1.574   4.539  17.487 -0.0029 -0.9378 -0.1300
 3697SOL     OW22549   0.883   3.016   1.964  0.6440  0.5017  0.1843
 3697SOL    HW122550   0.908   2.994   2.054  0.6876  0.8333  0.2544
 3697SOL    HW222551   0.847   3.105   1.971 -1.2971 -0.3254  0.7584
 3698SOL     OW22552   4.323   3.170   0.698 -0.5035  0.3781  0.1915
 3698SOL    HW122553   4.248   3.194   0.754  0.0890  4.3101 -0.6727
 3698SOL    HW222554   4.348   3.081   0.722  1.1109  1.5082  2.7362
 3699SOL     OW22555   3.321   1.203  12.498 -0.3615  0.7463  0.0145
 3699SOL    HW122556   3.363   1.230  12.417 -0.0224  0.0501 -0.0423
 3699SOL    HW222557   3.233   1.193  12.462 -1.1561 -0.0658  2.1810
 3700SOL     OW22558   3.362   2.925   6.665  0.1105 -0.0617 -0.3811
 3700SOL    HW122559   3.414   2.845   6.667  1.5805  0.8679 -0.3760
 3700SOL    HW222560   3.431   2.989   6.685 -0.5776  0.7326 -0.5480
 3701SOL     OW22561   3.295   4.379   5.475  0.5974  0.2367  0.2071
 3701SOL    HW122562   3.270   4.388   5.383  2.9141  0.1883 -0.4400
 3701SOL    HW222563   3.280   4.468   5.509  0.7290  0.3831 -0.1143
 3702SOL     OW22564   3.502   0.490   7.044  0.0204  0.0931  0.0105
 3702SOL    HW122565   3.566   0.481   7.114  1.6422  2.6286 -1.1451
 3702SOL    HW222566   3.426   0.440   7.076 -0.1475  0.8948  0.8499
 3703SOL     OW22567   3.788   3.444  12.762 -0.2172  0.5312  0.0795
 3703SOL    HW122568   3.710   3.416  12.809  0.4553 -0.0831  0.8356
 3703SOL    HW222569   3.766   3.421  12.671 -0.2257 -0.1891  0.2634
 3704SOL     OW22570   2.763   1.084   0.521 -0.5977 -0.2677 -0.5295
 3704SOL    HW122571   2.837   1.140   0.497  0.6332 -1.4316  0.5651
 3704SOL    HW222572   2.791   1.040   0.601  0.4256  1.6957  0.2144
 3705SOL     OW22573   0.916   2.120   5.089  0.0888  0.0771 -0.1886
 3705SOL    HW122574   0.927   2.108   4.995  0.2670  3.4953 -0.5950
 3705SOL    HW222575   0.824   2.097   5.098  0.1256  0.6754  1.6988
 3706SOL     OW22576   1.487   3.837   4.284 -0.0645 -1.0424 -0.3814
 3706SOL    HW122577   1.504   3.890   4.363  1.9236 -1.0961 -0.7606
 3706SOL    HW222578   1.535   3.760   4.314 -1.5579 -1.6269  0.4825
 3707SOL     OW22579   0.385   1.525   2.556  0.0539  0.1916  0.4059
 3707SOL    HW122580   0.435   1.444   2.564 -1.6198 -0.8172  0.6291
 3707SOL    HW222581   0.423   1.571   2.481  1.6356 -2.1070 -0.1827
 3708SOL     OW22582   3.419   0.304  14.024 -0.0306  0.1094 -0.2684
 3708SOL    HW122583   3.505   0.345  14.015 -0.0374  0.5499  1.6268
 3708SOL    HW222584   3.354   0.364  13.987  0.2020  1.4040  1.4405
 3709SOL     OW22585   1.792   3.625   7.055 -0.1931  0.2964  0.0890
 3709SOL    HW122586   1.758   3.550   7.005 -0.0871  0.2104  0.1449
 3709SOL    HW222587   1.834   3.580   7.128 -0.0831 -0.6652 -0.5541
 3710SOL     OW22588   2.994   2.209   2.887 -0.0040 -0.0268 -0.4518
 3710SOL    HW122589   2.984   2.281   2.825  0.3558 -0.6426 -1.2347
 3710SOL    HW222590   2.954   2.265   2.954 -1.2727  0.7277 -1.8424
 3711SOL     OW22591   0.635   4.651  15.911 -0.1584 -0.1290  0.7684
 3711SOL    HW122592   0.645   4.706  15.989  1.3968  1.5254 -0.5917
 3711SOL    HW222593   0.541   4.641  15.894  0.2929 -0.4781 -1.5246
 3712SOL     OW22594   3.371   0.417   8.856  0.1432 -0.4346 -0.0483
 3712SOL    HW122595   3.436   0.435   8.787 -1.1709  2.0637 -0.6352
 3712SOL    HW222596   3.311   0.490   8.840  1.4183  0.7872  0.7581
 3713SOL     OW22597   2.033   3.555   4.065  0.4570  0.1370 -0.3822
 3713SOL    HW122598   1.974   3.594   4.000 -0.6536  1.4291  1.3846
 3713SOL    HW222599   1.983   3.480   4.094 -1.3596  0.6393 -2.2094
 3714SOL     OW22600   3.866   3.494   4.259 -0.9727 -0.0790 -0.0870
 3714SOL    HW122601   3.928   3.426   4.286  0.3658  1.0332 -0.3010
 3714SOL    HW222602   3.865   3.559   4.329 -1.4867 -2.2201  1.9162
 3715SOL     OW22603   2.787   4.118   2.349  0.1515 -0.1220 -0.5061
 3715SOL    HW122604   2.869   4.101   2.395  1.1736  1.9067 -1.5656
 3715SOL    HW222605   2.825   4.124   2.262  0.8578  2.0936 -0.0472
 3716SOL     OW22606   0.257   0.091   1.911  0.4528  0.0366 -0.1252
 3716SOL    HW122607   0.243   0.178   1.873  0.7416 -0.6529 -1.8158
 3716SOL    HW222608   0.279   0.046   1.829  0.9476 -0.9915  0.5752
 3717SOL     OW22609   0.660   3.821  17.199  0.0637  0.3217  0.0588
 3717SOL    HW122610   0.706   3.899  17.230  0.7189  0.3862 -1.0749
 3717SOL    HW222611   0.687   3.833  17.108 -1.6607 -0.0245 -0.4869
 3718SOL     OW22612   4.251   3.157  13.592 -0.0450  0.4525 -0.6477
 3718SOL    HW122613   4.326   3.211  13.616 -0.6951  0.8913  0.3764
 3718SOL    HW222614   4.247   3.164  13.496  0.4086 -2.6262 -0.8843
 3719SOL     OW22615   2.750   4.166  11.972  0.3148  0.0383  0.1861
 3719SOL    HW122616   2.834   4.123  11.988  0.5730  0.4813  0.0083
 3719SOL    HW222617   2.784   4.240  11.921  1.3623  0.5524  1.6367
 3720SOL     OW22618   0.841   4.567   8.479  0.2130  0.6051 -0.5799
 3720SOL    HW122619   0.773   4.593   8.417  0.8103 -3.7798 -3.0681
 3720SOL    HW222620   0.891   4.646   8.500 -1.1083  1.1258  0.5991
 3721SOL     OW22621   3.347   2.100   8.896 -0.2590  0.2966 -0.1593
 3721SOL    HW122622   3.262   2.136   8.919 -0.6752  1.2398 -3.2127
 3721SOL    HW222623   3.398   2.167   8.941 -0.9111  1.5882 -1.3344
 3722SOL     OW22624   2.064   2.307   6.784 -0.5738 -0.2180  0.2435
 3722SOL    HW122625   2.038   2.344   6.868 -2.5116  0.9780 -0.8925
 3722SOL    HW222626   2.011   2.364   6.729  1.1660  0.5469 -0.6472
 3723SOL     OW22627   1.633   3.105   1.884 -0.0008  0.2639 -0.4503
 3723SOL    HW122628   1.558   3.064   1.840  1.1466 -0.8250 -1.3938
 3723SOL    HW222629   1.624   3.050   1.961  0.5588  0.3590 -0.3163
 3724SOL     OW22630   0.295   1.612   3.621 -0.0645 -0.2385 -0.1852
 3724SOL    HW122631   0.368   1.661   3.584 -1.0719  0.7404 -0.8562
 3724SOL    HW222632   0.324   1.611   3.713  0.1063  0.4017 -0.2352
 3725SOL     OW22633   4.194   3.353  11.621 -0.1259  0.6933  0.2366
 3725SOL    HW122634   4.245   3.394  11.691 -0.6623  0.3579  0.8299
 3725SOL    HW222635   4.185   3.270  11.668  2.6077  0.9134  1.1512
 3726SOL     OW22636   0.839   0.777   6.753  0.2225  0.2790 -0.1045
 3726SOL    HW122637   0.787   0.733   6.819 -0.2776  1.4221  0.2553
 3726SOL    HW222638   0.804   0.758   6.666  0.6389  1.4833 -0.5429
 3727SOL     OW22639   2.133   4.500   9.167  0.2744 -0.2564  0.5598
 3727SOL    HW122640   2.195   4.476   9.099  0.8435 -1.7165  1.5988
 3727SOL    HW222641   2.177   4.564   9.223 -1.2963 -0.8339  2.4734
 3728SOL     OW22642   2.830   4.294   3.330  0.1746 -0.0274 -0.5289
 3728SOL    HW122643   2.759   4.347   3.368 -1.7357 -1.6455 -1.8765
 3728SOL    HW222644   2.784   4.223   3.286  0.4694 -1.5962  1.7137
 3729SOL     OW22645   2.128   3.802   0.763  0.2274  0.0133  0.1941
 3729SOL    HW122646   2.074   3.726   0.785  1.1572 -0.4497  0.8424
 3729SOL    HW222647   2.121   3.863   0.836  1.0183  0.8343 -0.4249
 3730SOL     OW22648   1.942   2.642   3.015  0.2074 -0.1794 -0.6733
 3730SOL    HW122649   2.018   2.678   3.062 -0.1836 -0.3974  0.1336
 3730SOL    HW222650   1.899   2.582   3.077  2.3544 -0.5365  0.4742
 3731SOL     OW22651   2.826   1.794   5.621  0.8744 -0.3841  0.1282
 3731SOL    HW122652   2.824   1.828   5.532  0.5660 -0.4048  0.1274
 3731SOL    HW222653   2.823   1.699   5.608 -1.7880 -0.1358 -0.8648
 3732SOL     OW22654   0.582   2.583   0.834 -0.3814 -0.4117 -0.0116
 3732SOL    HW122655   0.540   2.658   0.876 -0.1660  0.1702 -0.8531
 3732SOL    HW222656   0.539   2.587   0.748  1.9409  1.2729 -1.0598
 3733SOL     OW22657   2.624   2.803   3.691  0.4783  0.4001 -0.0384
 3733SOL    HW122658   2.589   2.728   3.740 -1.3103  0.2201 -1.6133
 3733SOL    HW222659   2.559   2.872   3.705 -1.3477 -0.9467 -1.9206
 3734SOL     OW22660   0.451   1.717   4.566  0.1325  1.0662 -0.3219
 3734SOL    HW122661   0.428   1.719   4.659 -1.5884 -1.0657 -0.7218
 3734SOL    HW222662   0.450   1.810   4.543 -0.0426  0.5754 -2.3160
 3735SOL     OW22663   0.573   0.756  14.830  0.0342  0.3027  0.5696
 3735SOL    HW122664   0.485   0.792  14.842  0.6759  1.9123  0.3394
 3735SOL    HW222665   0.617   0.840  14.843  0.3887  0.1786  0.1623
 3736SOL     OW22666   0.279   1.105   6.268 -0.7776 -0.8414 -0.0473
 3736SOL    HW122667   0.263   1.117   6.175  0.2251 -1.6968 -0.3253
 3736SOL    HW222668   0.344   1.036   6.259 -0.3176 -0.6426  1.6460
 3737SOL     OW22669   0.926   2.794  15.494  0.3389  0.2340  0.1065
 3737SOL    HW122670   0.906   2.716  15.546 -2.3878 -0.1740 -1.5812
 3737SOL    HW222671   0.840   2.832  15.509 -0.0361  0.4330 -2.5906
 3738SOL     OW22672   0.645   0.242  15.566 -0.5046  0.3545 -0.0845
 3738SOL    HW122673   0.597   0.243  15.483 -0.2309  1.4658 -0.2291
 3738SOL    HW222674   0.664   0.149  15.578 -1.3211  0.0784 -0.9177
 3739SOL     OW22675   0.383   2.034   6.594  0.7844 -0.3173 -0.2830
 3739SOL    HW122676   0.404   1.986   6.674  0.4698 -1.8721 -1.1309
 3739SOL    HW222677   0.318   1.975   6.556 -0.4051  0.4396  0.5686
 3740SOL     OW22678   1.071   1.287   5.183  0.2027  0.4717 -0.2414
 3740SOL    HW122679   1.030   1.346   5.246  1.7365 -1.2723  2.4306
 3740SOL    HW222680   1.058   1.204   5.229 -1.5040  0.8660 -0.0276
 3741SOL     OW22681   3.039   4.592   4.323  0.4346 -0.3148  0.2745
 3741SOL    HW122682   3.002   4.571   4.237  1.8345  2.2233 -0.9637
 3741SOL    HW222683   2.969   4.548   4.371 -0.0144  0.3026  0.1746
 3742SOL     OW22684   1.461   0.952   4.700  0.0344 -0.1315 -0.1374
 3742SOL    HW122685   1.442   1.016   4.631 -1.0351 -0.0102  0.2770
 3742SOL    HW222686   1.471   0.873   4.647  1.6057 -0.7577  1.0793
 3743SOL     OW22687   4.217   2.467   6.591  0.3509 -0.1493 -0.2099
 3743SOL    HW122688   4.131   2.485   6.631  1.3171  2.8310  0.5087
 3743SOL    HW222689   4.170   2.437   6.513  0.5469 -2.1258  0.4324
 3744SOL     OW22690   3.647   4.394   5.786 -0.4083 -0.4210  0.2928
 3744SOL    HW122691   3.555   4.384   5.814 -0.0774  0.3421  1.6501
 3744SOL    HW222692   3.704   4.326   5.820 -0.7034 -0.7292  0.1657
 3745SOL     OW22693   2.437   3.641   4.274  0.0511 -0.4360  0.2971
 3745SOL    HW122694   2.424   3.733   4.254  0.9314 -0.4658 -0.3857
 3745SOL    HW222695   2.498   3.653   4.347 -1.2933  1.3513  1.1324
 3746SOL     OW22696   4.355   3.764   7.877 -0.3171 -0.7221  0.1745
 3746SOL    HW122697   4.331   3.696   7.814  2.7928 -1.3063 -0.3909
 3746SOL    HW222698   4.386   3.709   7.948 -1.3427  0.2998  1.4078
 3747SOL     OW22699   1.308   2.605   7.359 -0.0024  0.4895 -0.1274
 3747SOL    HW122700   1.283   2.513   7.366  0.0657  0.4106 -0.9253
 3747SOL    HW222701   1.366   2.610   7.283  0.8475  1.4472  0.5710
 3748SOL     OW22702   2.362   2.430  16.724  0.3583  0.4457  0.1009
 3748SOL    HW122703   2.415   2.480  16.662 -0.6076 -0.2141 -1.2552
 3748SOL    HW222704   2.282   2.423  16.672  0.7915 -0.3109 -0.4719
 3749SOL     OW22705   0.034   4.006  11.856  0.0572 -0.2951  0.0823
 3749SOL    HW122706   0.075   4.039  11.776  0.1532 -0.9292 -0.1326
 3749SOL    HW222707   0.072   3.918  11.859 -2.8026 -1.5417 -0.4949
 3750SOL     OW22708   2.525   0.934  11.938  0.5854 -0.4966  0.5889
 3750SOL    HW122709   2.546   0.841  11.944 -2.3797 -1.2913 -0.8704
 3750SOL    HW222710   2.614   0.969  11.941 -0.1071  1.6210 -2.7847
 3751SOL     OW22711   3.929   1.757   2.683 -0.6228 -0.0434 -0.1988
 3751SOL    HW122712   3.909   1.781   2.593 -1.0889  0.3134 -0.0023
 3751SOL    HW222713   4.023   1.767   2.668 -0.1951 -1.0212  1.7242
 3752SOL     OW22714   2.770   4.114   4.602  0.0804  0.1253 -0.0931
 3752SOL    HW122715   2.722   4.087   4.524  1.0237  3.3790 -1.8069
 3752SOL    HW222716   2.816   4.192   4.572  0.4033 -0.4971 -1.2371
 3753SOL     OW22717   3.981   1.395   6.878  0.4266  0.0949 -0.8227
 3753SOL    HW122718   4.042   1.324   6.857 -0.2730 -0.8113  0.2356
 3753SOL    HW222719   4.025   1.432   6.954  2.3025 -1.2705 -1.2270
 3754SOL     OW22720   4.512   0.649   1.836 -0.2939  0.2371 -0.0555
 3754SOL    HW122721   4.526   0.721   1.774 -0.4974  1.3456  1.1833
 3754SOL    HW222722   4.581   0.663   1.902 -1.0963  1.9944  0.4025
 3755SOL     OW22723   0.921   2.004  15.921  0.4147  0.4687 -0.0013
 3755SOL    HW122724   0.833   1.972  15.939  1.1931 -1.3834  0.5137
 3755SOL    HW222725   0.902   2.091  15.884  1.2308 -1.0421 -4.0553
 3756SOL     OW22726   2.022   4.299   7.566 -0.4811  0.3796 -0.1672
 3756SOL    HW122727   2.007   4.336   7.479 -0.7350 -0.5564 -0.5220
 3756SOL    HW222728   1.948   4.334   7.616 -0.7335 -0.0974 -0.2063
 3757SOL     OW22729   3.989   3.387   0.836 -0.3736 -0.5505 -0.4818
 3757SOL    HW122730   4.020   3.452   0.773  0.7137 -1.5153 -0.9303
 3757SOL    HW222731   4.033   3.310   0.802  1.4984 -0.2094  1.2033
 3758SOL     OW22732   0.259   1.331  12.372  0.5629 -0.8198 -0.1941
 3758SOL    HW122733   0.168   1.355  12.361  0.1013 -0.3543  4.4548
 3758SOL    HW222734   0.306   1.393  12.316 -0.1637  1.0356  1.2507
 3759SOL     OW22735   1.465   3.208   1.514 -0.2989  0.6854 -0.5321
 3759SOL    HW122736   1.400   3.143   1.487 -0.2870  0.5606 -0.2569
 3759SOL    HW222737   1.523   3.203   1.438 -0.3107 -2.2704 -0.3335
 3760SOL     OW22738   4.138   2.831   7.256 -0.5815 -0.7074 -0.5426
 3760SOL    HW122739   4.206   2.897   7.238 -1.1434 -0.0574 -0.2923
 3760SOL    HW222740   4.070   2.849   7.192 -2.1858  0.7643  1.5833
 3761SOL     OW22741   1.723   2.100   7.184  0.4115 -0.0400  0.2033
 3761SOL    HW122742   1.784   2.107   7.110  0.9630 -1.9162  0.4557
 3761SOL    HW222743   1.784   2.059   7.246  0.1555 -0.0812  0.4232
 3762SOL     OW22744   4.647   0.595   5.747 -0.0684  0.0776 -0.3520
 3762SOL    HW122745   4.667   0.594   5.840 -1.9466 -0.7931  0.0288
 3762SOL    HW222746   4.662   0.688   5.730 -2.3662  0.9136  2.3679
 3763SOL     OW22747   0.707   0.865   8.443 -0.3693  0.2206  0.4492
 3763SOL    HW122748   0.718   0.871   8.538  1.4036 -1.7825  0.3871
 3763SOL    HW222749   0.712   0.957   8.419 -0.3787  0.2833  0.6845
 3764SOL     OW22750   3.540   3.588   8.354 -0.5019  0.5229 -0.1510
 3764SOL    HW122751   3.601   3.612   8.424  0.2283  3.2166 -1.7109
 3764SOL    HW222752   3.477   3.535   8.402  0.2130  0.7378  1.0520
 3765SOL     OW22753   0.042   3.559  15.007  0.1743 -0.0490 -0.3278
 3765SOL    HW122754   0.072   3.500  14.938 -1.2155 -1.4354  0.2555
 3765SOL    HW222755   0.111   3.625  14.999 -0.1962  0.7019  2.8935
 3766SOL     OW22756   1.951   4.411  12.366  0.4783  0.0402  0.0545
 3766SOL    HW122757   2.017   4.362  12.414 -1.4582 -2.8744 -0.2913
 3766SOL    HW222758   1.927   4.339  12.309 -3.3725  0.7224  0.8177
 3767SOL     OW22759   1.899   3.840  11.748 -0.2080 -0.4581  0.0084
 3767SOL    HW122760   1.951   3.885  11.682  0.3527  1.4503  1.7164
 3767SOL    HW222761   1.859   3.910  11.800 -3.1776 -1.1509 -1.3498
 3768SOL     OW22762   3.596   2.288   2.492 -0.0525 -0.2106 -0.5839
 3768SOL    HW122763   3.662   2.352   2.518 -1.1319 -0.0255  1.6970
 3768SOL    HW222764   3.544   2.331   2.424 -1.1715 -1.6542 -0.6364
 3769SOL     OW22765   1.895   2.326   8.272  0.1480  0.6155 -0.9291
 3769SOL    HW122766   1.982   2.287   8.285 -0.9131 -1.1456  1.0495
 3769SOL    HW222767   1.908   2.414   8.307  0.0871  1.2003 -2.3714
 3770SOL     OW22768   0.657   4.113   5.359  0.2778 -0.5965  0.7379
 3770SOL    HW122769   0.682   4.200   5.390 -0.2818 -0.3380  0.4750
 3770SOL    HW222770   0.583   4.090   5.415 -0.0179 -3.0856 -0.6535
 3771SOL     OW22771   2.136   3.907   1.954  0.2588  0.1942 -0.1067
 3771SOL    HW122772   2.109   3.852   1.881  0.2395  0.4007 -0.2542
 3771SOL    HW222773   2.047   3.921   1.987  0.7475 -0.4166  1.4672
 3772SOL     OW22774   4.158   4.322   1.173 -0.8210  0.3337 -0.3942
 3772SOL    HW122775   4.188   4.294   1.086 -0.5250  1.3502 -0.6260
 3772SOL    HW222776   4.101   4.399   1.166  0.3093  1.1998 -0.1374
 3773SOL     OW22777   3.339   2.104   0.799  0.0977  0.4785  0.2296
 3773SOL    HW122778   3.264   2.070   0.749 -0.3030  0.1502  1.0620
 3773SOL    HW222779   3.381   2.168   0.741  2.8426  1.4294  3.2530
 3774SOL     OW22780   3.622   0.168  13.023  0.5935 -0.6433  0.7327
 3774SOL    HW122781   3.590   0.254  12.994  2.2698 -1.1349 -2.6253
 3774SOL    HW222782   3.625   0.176  13.118 -1.0411 -1.0289  0.8231
 3775SOL     OW22783   0.357   3.083   3.829  0.0970  0.0952  0.1461
 3775SOL    HW122784   0.382   3.174   3.848  0.4384 -0.1467  0.8354
 3775SOL    HW222785   0.406   3.060   3.750 -0.7900  1.0002 -0.6772
 3776SOL     OW22786   2.215   3.115   2.200  0.0544 -0.7056 -0.3372
 3776SOL    HW122787   2.204   3.139   2.292 -0.5916 -2.0366 -0.0667
 3776SOL    HW222788   2.172   3.188   2.156  0.7338  0.8121  1.5190
 3777SOL     OW22789   1.104   1.813  16.450  0.1863  0.0968 -0.3990
 3777SOL    HW122790   1.026   1.854  16.487  0.2179 -0.2895  0.0846
 3777SOL    HW222791   1.102   1.727  16.492  0.3975  0.5158  0.4566
 3778SOL     OW22792   1.669   3.449   1.841 -0.6124  0.0381 -0.8694
 3778SOL    HW122793   1.671   3.390   1.767  0.4594  1.5458 -2.0460
 3778SOL    HW222794   1.751   3.438   1.889  0.1993  1.8188 -1.8236
 3779SOL     OW22795   1.963   2.995   4.076 -0.1288  0.1799 -0.0122
 3779SOL    HW122796   1.898   2.996   4.145 -0.4453 -0.5901 -0.3085
 3779SOL    HW222797   1.942   2.918   4.023 -3.3783 -0.8789  2.8202
 3780SOL     OW22798   3.624   4.218   3.354 -0.1811 -0.4170  0.2886
 3780SOL    HW122799   3.612   4.128   3.326  0.7661 -0.7593  0.9896
 3780SOL    HW222800   3.717   4.228   3.374 -0.5075  0.3014  1.4793
 3781SOL     OW22801   3.604   1.351   8.801  0.5123  0.1869  0.3880
 3781SOL    HW122802   3.598   1.315   8.713  0.5186  0.3466  0.3221
 3781SOL    HW222803   3.621   1.440   8.771  1.0566 -0.5107 -1.3439
 3782SOL     OW22804   1.161   1.685   2.295  0.2494  0.0598 -0.1620
 3782SOL    HW122805   1.120   1.742   2.229 -2.0083  1.5650  2.5534
 3782SOL    HW222806   1.248   1.724   2.299  0.5796 -0.4140 -2.7476
 3783SOL     OW22807   4.167   3.091   7.626  0.9004 -0.1215 -0.2922
 3783SOL    HW122808   4.179   3.162   7.689  0.4502 -1.8879  1.7948
 3783SOL    HW222809   4.146   3.148   7.553 -0.1873 -3.3001 -2.4442
 3784SOL     OW22810   4.272   1.222   7.857 -0.4093 -0.2284 -0.0665
 3784SOL    HW122811   4.225   1.143   7.886  1.2138 -0.4336  2.0027
 3784SOL    HW222812   4.249   1.286   7.924  1.8495 -2.5543  2.8994
 3785SOL     OW22813   1.756   4.298  15.193  0.7281 -0.2175 -0.6089
 3785SOL    HW122814   1.721   4.374  15.147 -1.4766 -1.4609 -1.0396
 3785SOL    HW222815   1.831   4.328  15.244  0.7482 -1.8720  0.3451
 3786SOL     OW22816   4.001   4.455   8.971 -0.8400  0.4466 -1.0858
 3786SOL    HW122817   3.993   4.540   9.015 -0.2544 -1.0000  1.8124
 3786SOL    HW222818   3.936   4.407   9.023 -0.0512  1.2776  0.6292
 3787SOL     OW22819   4.425   4.103   7.551 -0.2901 -1.1954 -0.2633
 3787SOL    HW122820   4.482   4.130   7.623 -1.0401  0.8472 -0.4417
 3787SOL    HW222821   4.400   4.020   7.591 -0.6969 -0.2318  1.4897
 3788SOL     OW22822   4.407   4.099   0.941 -0.4279  0.2533 -0.2170
 3788SOL    HW122823   4.348   4.029   0.912 -0.0613  0.4516 -1.4506
 3788SOL    HW222824   4.484   4.051   0.973 -0.5891 -0.0905 -0.3486
 3789SOL     OW22825   2.365   4.680   3.863  0.0801  0.3527 -0.0130
 3789SOL    HW122826   2.342   0.048   3.850 -0.0131  0.7114  2.6883
 3789SOL    HW222827   2.371   4.648   3.773  1.8214  1.7607 -0.4024
 3790SOL     OW22828   2.164   0.395   7.639 -0.4237  0.2639 -0.0705
 3790SOL    HW122829   2.151   0.379   7.546  0.7432  1.4011 -0.4278
 3790SOL    HW222830   2.258   0.386   7.657 -0.5045 -1.2196 -0.3967
 3791SOL     OW22831   2.509   1.813   3.669  0.0104 -0.2212  0.2914
 3791SOL    HW122832   2.474   1.850   3.750 -1.1453  0.7632 -0.6472
 3791SOL    HW222833   2.431   1.768   3.635 -2.4148  2.3651  2.3865
 3792SOL     OW22834   0.422   1.635   4.826 -0.2564  0.3067 -0.8525
 3792SOL    HW122835   0.477   1.650   4.903 -3.1799 -1.4004  1.5832
 3792SOL    HW222836   0.473   1.565   4.785  0.7498  0.0642  0.8168
 3793SOL     OW22837   3.945   0.992   3.603 -0.4879  0.2621 -0.3148
 3793SOL    HW122838   3.984   0.957   3.683 -3.3352 -2.0861  0.0290
 3793SOL    HW222839   3.873   1.041   3.644 -1.7962 -0.7139 -1.4429
 3794SOL     OW22840   1.919   2.901  15.309 -0.2518  0.8132 -0.0129
 3794SOL    HW122841   1.995   2.896  15.251  0.4737 -0.3014  1.0316
 3794SOL    HW222842   1.873   2.817  15.303  1.0915  0.1641 -1.3503
 3795SOL     OW22843   0.588   0.466  12.928  0.1555 -0.0217 -0.1071
 3795SOL    HW122844   0.587   0.376  12.960 -0.9494  0.8590  2.3707
 3795SOL    HW222845   0.511   0.499  12.974  0.9327  1.0665  0.4175
 3796SOL     OW22846   4.343   1.021   7.590  0.2813  1.0183 -0.4742
 3796SOL    HW122847   4.251   1.007   7.615  0.4995 -1.2240 -0.9391
 3796SOL    HW222848   4.343   1.116   7.577 -0.0975  0.8628 -1.6324
 3797SOL     OW22849   1.897   2.736  16.598  0.6919  0.4382 -0.2480
 3797SOL    HW122850   1.966   2.738  16.531  0.2092 -1.3440 -0.7882
 3797SOL    HW222851   1.823   2.782  16.558  1.8208  0.7314 -2.0097
 3798SOL     OW22852   1.189   1.320  10.886 -0.3513  0.3705 -0.1335
 3798SOL    HW122853   1.119   1.256  10.899  0.0908 -0.5199 -2.1812
 3798SOL    HW222854   1.262   1.258  10.890 -0.6113  0.0643 -0.0935
 3799SOL     OW22855   0.367   0.235   6.016  0.2160 -0.0995  0.6271
 3799SOL    HW122856   0.295   0.249   6.077  0.2802 -1.4927  1.0199
 3799SOL    HW222857   0.386   0.147   6.047 -2.0845 -0.4507  1.0523
 3800SOL     OW22858   0.563   1.820   8.294 -0.0534  0.2059 -0.1097
 3800SOL    HW122859   0.483   1.859   8.327 -1.0610 -3.4872  1.8231
 3800SOL    HW222860   0.589   1.887   8.231 -1.0802  1.3317  0.6881
 3801SOL     OW22861   4.096   0.584  17.647 -0.2857 -0.5185  0.2966
 3801SOL    HW122862   4.112   0.676  17.670  1.9759 -1.0462  0.7908
 3801SOL    HW222863   4.023   0.565   0.009 -0.6096  1.0956  0.4030
 3802SOL     OW22864   1.047   1.643   6.706  0.2573 -0.0853 -0.5600
 3802SOL    HW122865   0.972   1.680   6.660 -0.7964 -2.1003 -0.4514
 3802SOL    HW222866   1.075   1.729   6.739 -0.5672  0.3123 -0.9001
 3803SOL     OW22867   3.520   4.348  13.004  0.3733 -0.5042  0.2414
 3803SOL    HW122868   3.478   4.309  13.080 -1.9791 -0.5458 -1.0794
 3803SOL    HW222869   3.550   4.428  13.047  0.2739 -0.2804 -0.1001
 3804SOL     OW22870   2.991   4.372   0.799 -0.0534 -0.2132 -0.2717
 3804SOL    HW122871   2.930   4.319   0.748 -1.0205 -0.5886  1.2804
 3804SOL    HW222872   3.056   4.401   0.735 -0.9775 -0.0689 -1.1416
 3805SOL     OW22873   1.617   1.100   8.123  0.1888  0.0692 -0.0710
 3805SOL    HW122874   1.709   1.110   8.098  0.1870 -0.6151 -0.3566
 3805SOL    HW222875   1.624   1.019   8.174 -1.2581 -1.2975 -2.0378
 3806SOL     OW22876   3.708   3.676   9.948 -0.5720  0.2872  0.0266
 3806SOL    HW122877   3.691   3.683  10.042  0.2901  1.7200  0.0653
 3806SOL    HW222878   3.804   3.677   9.948 -0.5785  0.2185  0.8954
 3807SOL     OW22879   3.469   4.590   6.119 -0.3219  0.1942 -0.0435
 3807SOL    HW122880   3.556   4.553   6.136 -0.7604  0.1976  2.1276
 3807SOL    HW222881   3.473   4.615   6.027 -2.2842 -3.2494 -1.0899
 3808SOL     OW22882   2.771   1.219  12.352 -0.0730  0.4045  0.0578
 3808SOL    HW122883   2.702   1.172  12.399 -0.9474 -0.4915 -2.0776
 3808SOL    HW222884   2.711   1.253  12.285 -0.5862 -0.2605  0.1755
 3809SOL     OW22885   0.243   3.733  17.563  0.0558 -0.1102  0.2652
 3809SOL    HW122886   0.254   3.760  17.654 -0.5465  2.0683 -0.3119
 3809SOL    HW222887   0.335   3.748  17.539  0.5841  0.0271  2.4177
 3810SOL     OW22888   3.539   3.682   7.507 -0.1107 -0.3707 -0.0867
 3810SOL    HW122889   3.630   3.691   7.478 -0.5850  1.3740 -1.0357
 3810SOL    HW222890   3.542   3.613   7.573 -1.9767 -1.9859 -1.6758
 3811SOL     OW22891   4.232   3.904   0.943 -0.4517  0.0533  0.0016
 3811SOL    HW122892   4.252   3.820   0.984  1.1071 -0.1284 -1.1116
 3811SOL    HW222893   4.137   3.904   0.945 -0.4876 -1.5898 -0.8778
 3812SOL     OW22894   0.931   3.038   3.512 -0.1173  0.1082 -0.2346
 3812SOL    HW122895   0.894   3.102   3.573  2.6554  0.3421  1.2046
 3812SOL    HW222896   0.920   3.075   3.425 -0.3077  1.9506  0.5736
 3813SOL     OW22897   1.997   3.566  11.955 -0.2551  0.3025  0.6637
 3813SOL    HW122898   2.086   3.595  11.972 -0.3574  0.8398  0.2929
 3813SOL    HW222899   1.971   3.556  12.046 -0.3168  0.5564  0.6745
 3814SOL     OW22900   2.920   2.743   6.332 -0.3302  0.0862 -0.3236
 3814SOL    HW122901   2.865   2.791   6.394  0.2705 -1.4816  1.4248
 3814SOL    HW222902   3.008   2.748   6.370 -0.6098  1.1778  0.1826
 3815SOL     OW22903   0.772   0.716   7.556 -0.8554 -0.0118  0.0640
 3815SOL    HW122904   0.846   0.661   7.532  0.1600  1.6484 -0.5480
 3815SOL    HW222905   0.708   0.691   7.489  0.0684  1.6834 -1.4343
 3816SOL     OW22906   0.355   3.880   5.328  0.4466  0.3555 -0.4585
 3816SOL    HW122907   0.296   3.939   5.281 -1.6734  0.8570  2.8058
 3816SOL    HW222908   0.397   3.941   5.388  0.3918  1.0259 -1.1000
 3817SOL     OW22909   3.184   0.266  14.765 -0.6148 -0.2551 -0.8302
 3817SOL    HW122910   3.169   0.283  14.858 -1.3166  0.6123 -1.0985
 3817SOL    HW222911   3.171   0.172  14.766  1.2052 -0.5306 -1.9532
 3818SOL     OW22912   3.063   0.136  16.895  0.2556 -0.1854  0.3474
 3818SOL    HW122913   3.086   0.228  16.913 -1.8209  0.4651 -0.3297
 3818SOL    HW222914   3.129   0.117  16.828 -0.5707  1.1226 -0.8358
 3819SOL     OW22915   1.283   2.382   1.721 -0.3235 -0.6301  0.0005
 3819SOL    HW122916   1.329   2.460   1.689 -0.9594  0.1854  1.0717
 3819SOL    HW222917   1.222   2.424   1.782  0.3916  0.4772 -0.0548
 3820SOL     OW22918   1.156   4.225   0.752 -0.1179  0.4025  0.7709
 3820SOL    HW122919   1.234   4.192   0.795  1.7115  2.9233 -0.6556
 3820SOL    HW222920   1.150   4.318   0.775 -0.9125  1.0331 -1.9324
 3821SOL     OW22921   2.377   4.610  16.755 -0.6368  0.6114  0.0256
 3821SOL    HW122922   2.466   4.636  16.732 -0.2203 -0.7844  0.0124
 3821SOL    HW222923   2.373   4.514  16.750 -2.2240  0.7398 -1.3469
 3822SOL     OW22924   3.077   2.454   8.170  0.2361 -0.6984  0.1354
 3822SOL    HW122925   3.121   2.395   8.109  0.7698 -0.9702  0.7817
 3822SOL    HW222926   3.020   2.503   8.112  0.8882 -1.5888 -1.2514
 3823SOL     OW22927   0.862   4.188   3.338 -0.0648  0.3053 -0.1211
 3823SOL    HW122928   0.866   4.104   3.294 -0.1273  0.3699 -0.2512
 3823SOL    HW222929   0.954   4.216   3.341 -0.8284  2.9702 -1.3298
 3824SOL     OW22930   0.342   1.210  11.034 -0.0411  0.2582  0.5878
 3824SOL    HW122931   0.399   1.253  11.097  1.3511 -2.1397  0.9838
 3824SOL    HW222932   0.331   1.275  10.964  0.5214 -1.7638 -1.3964
 3825SOL     OW22933   3.234   2.280   0.995 -0.0043  0.0014 -0.1223
 3825SOL    HW122934   3.251   2.372   0.973 -0.3987 -0.0581 -0.6433
 3825SOL    HW222935   3.287   2.236   0.928 -1.3210  0.1582 -1.2558
 3826SOL     OW22936   2.239   0.517   5.030  0.3450  0.0157 -0.3560
 3826SOL    HW122937   2.303   0.550   5.093 -0.5544 -0.3152  0.7211
 3826SOL    HW222938   2.282   0.457   4.969  1.3168  0.9809 -0.6238
 3827SOL     OW22939   3.656   0.566  15.835 -0.1000  0.6130  1.0434
 3827SOL    HW122940   3.587   0.516  15.793 -1.1313  0.8592  2.4608
 3827SOL    HW222941   3.643   0.656  15.803 -0.9552 -0.0414 -0.4220
 3828SOL     OW22942   3.069   2.968   4.402  0.9320 -0.2109 -0.7661
 3828SOL    HW122943   3.094   3.060   4.388 -2.7328  1.1533  1.8284
 3828SOL    HW222944   3.009   2.983   4.475  0.8318 -0.3752 -0.8145
 3829SOL     OW22945   2.423   2.651   7.746 -0.7631 -0.4139 -0.1387
 3829SOL    HW122946   2.450   2.644   7.654  0.2418  1.9107 -0.0164
 3829SOL    HW222947   2.454   2.577   7.798  0.5590  0.2760  0.0652
 3830SOL     OW22948   0.712   3.158   5.024 -0.0430 -0.2681  0.1858
 3830SOL    HW122949   0.770   3.231   5.045 -0.3097  0.2245 -0.7824
 3830SOL    HW222950   0.638   3.171   5.083  0.9508 -0.2526  1.4349
 3831SOL     OW22951   0.586   2.425  12.044 -0.0503  0.2833  0.1305
 3831SOL    HW122952   0.620   2.465  12.123  1.8956 -0.7754 -0.1695
 3831SOL    HW222953   0.497   2.399  12.070 -0.5510  1.5624 -0.2800
 3832SOL     OW22954   1.966   3.007  10.987 -0.2168 -0.1709 -0.6543
 3832SOL    HW122955   2.031   2.992  10.920 -0.4695 -3.4919 -0.1886
 3832SOL    HW222956   2.003   3.077  11.041  1.0303 -0.1046 -1.5961
 3833SOL     OW22957   3.393   1.924   8.356 -0.2260  0.4308 -0.0708
 3833SOL    HW122958   3.466   1.897   8.411 -1.5743 -0.1063  1.4668
 3833SOL    HW222959   3.316   1.877   8.389 -0.8235  0.1592 -1.8310
 3834SOL     OW22960   1.901   4.312  14.901 -0.2913 -0.2332  0.3884
 3834SOL    HW122961   1.961   4.381  14.930 -2.6000  2.1742 -0.5236
 3834SOL    HW222962   1.924   4.306  14.808  1.5693  3.7265  0.6236
 3835SOL     OW22963   3.080   1.477  12.483 -0.3071  0.0972  0.4380
 3835SOL    HW122964   3.123   1.560  12.460 -1.1233  0.1581 -0.8687
 3835SOL    HW222965   3.058   1.488  12.576  0.7261  1.8474  0.4829
 3836SOL     OW22966   3.336   2.649  13.799 -0.0532  0.7865 -0.1809
 3836SOL    HW122967   3.402   2.596  13.754  0.8734  0.8684  1.0872
 3836SOL    HW222968   3.363   2.643  13.890 -0.4839  0.6254 -0.0648
 3837SOL     OW22969   4.526   1.854   1.960  0.3299  0.0876 -0.5874
 3837SOL    HW122970   4.492   1.882   1.875 -2.0104  1.9360  0.9464
 3837SOL    HW222971   4.499   1.763   1.961 -0.6093  0.3925  1.3806
 3838SOL     OW22972   3.416   4.543  11.376  0.2347  0.0442  0.6824
 3838SOL    HW122973   3.504   4.514  11.351 -0.2467 -1.3314  0.5892
 3838SOL    HW222974   3.365   4.530  11.296  1.2578 -0.3795  0.0890
 3839SOL     OW22975   0.725   3.449   7.983 -0.5900 -0.2703 -0.5430
 3839SOL    HW122976   0.763   3.369   8.021 -0.1110  0.7719  1.1600
 3839SOL    HW222977   0.688   3.477   8.067 -1.0335 -2.2428 -0.0731
 3840SOL     OW22978   0.586   1.320   2.557 -0.6021  0.1911  0.7985
 3840SOL    HW122979   0.601   1.296   2.465 -0.2279 -0.2581  0.9764
 3840SOL    HW222980   0.643   1.396   2.556  2.4103 -2.0783 -0.5814
 3841SOL     OW22981   0.557   1.841   1.547  0.4050 -0.2327 -0.2914
 3841SOL    HW122982   0.578   1.927   1.584 -2.1449 -0.4761  1.7148
 3841SOL    HW222983   0.565   1.783   1.622  2.8977  0.1391 -0.2740
 3842SOL     OW22984   1.933   1.711   0.827 -0.4831 -1.0190 -0.1629
 3842SOL    HW122985   1.928   1.668   0.912 -2.3416  0.3485  0.4255
 3842SOL    HW222986   2.011   1.766   0.831 -1.3631  0.2954 -1.0536
 3843SOL     OW22987   4.050   2.335   4.958 -0.5000  0.4149 -0.0640
 3843SOL    HW122988   3.987   2.320   5.028 -0.8512  2.6455  0.0866
 3843SOL    HW222989   4.015   2.266   4.901  0.5482  0.8867 -1.2582
 3844SOL     OW22990   1.993   3.435   5.881 -0.1704  0.4157  0.1427
 3844SOL    HW122991   1.952   3.395   5.804 -3.3520  1.7422  1.1300
 3844SOL    HW222992   1.912   3.476   5.912 -0.9736 -0.0980 -1.2717
 3845SOL     OW22993   1.679   4.227   5.093  0.1772 -0.4387 -0.3617
 3845SOL    HW122994   1.634   4.269   5.020  1.3482  1.7244  0.1735
 3845SOL    HW222995   1.648   4.138   5.076  1.2648 -0.6692 -1.1212
 3846SOL     OW22996   0.618   1.039  14.841  0.0218 -0.4773 -0.0797
 3846SOL    HW122997   0.544   1.080  14.886 -1.8059 -2.4183 -1.3145
 3846SOL    HW222998   0.606   1.081  14.756 -0.6854 -1.0424 -0.2546
 3847SOL     OW22999   3.665   3.625   5.089  0.3647  0.3124 -0.2284
 3847SOL    HW123000   3.708   3.555   5.039 -0.1019  1.8257 -2.7394
 3847SOL    HW223001   3.732   3.693   5.087  0.5258  0.1939  1.2336
 3848SOL     OW23002   3.450   0.556   3.617 -0.2938 -0.0326  0.4770
 3848SOL    HW123003   3.464   0.565   3.711 -1.7263  3.1051  0.3850
 3848SOL    HW223004   3.537   0.536   3.582 -0.5424  0.1955 -0.2626
 3849SOL     OW23005   2.138   1.025   3.742  0.6605 -0.1901  0.3791
 3849SOL    HW123006   2.047   1.030   3.715  1.6559 -1.1506 -3.1434
 3849SOL    HW223007   2.158   1.116   3.719  0.6012  0.0906  1.4339
 3850SOL     OW23008   4.471   3.592   4.335  0.5565 -0.2075 -0.4587
 3850SOL    HW123009   4.410   3.665   4.332 -0.1661 -0.8927 -2.2512
 3850SOL    HW223010   4.436   3.533   4.268  0.3003  1.0844 -1.4579
 3851SOL     OW23011   2.045   1.637   5.623 -0.7816 -0.3157  0.4180
 3851SOL    HW123012   1.949   1.641   5.626 -0.7250 -0.3137  2.1822
 3851SOL    HW223013   2.059   1.579   5.698 -1.3297 -1.1106 -0.0911
 3852SOL     OW23014   4.313   3.179   3.648 -0.1147 -0.0081  0.0326
 3852SOL    HW123015   4.285   3.133   3.569 -0.4997 -1.7763  1.1863
 3852SOL    HW223016   4.243   3.243   3.660 -2.5251 -2.6599  0.1652
 3853SOL     OW23017   1.975   1.059   2.264  0.7065  0.0483 -0.4039
 3853SOL    HW123018   1.909   1.108   2.313 -1.2700 -1.6558 -1.3410
 3853SOL    HW223019   2.021   1.136   2.232  0.4912 -0.4942 -1.9966
 3854SOL     OW23020   3.738   3.015   6.065 -0.2027  0.6341  0.1413
 3854SOL    HW123021   3.730   2.954   5.992  1.7068 -0.8939  1.1911
 3854SOL    HW223022   3.652   3.006   6.104 -0.4023  0.8212 -0.2583
 3855SOL     OW23023   1.832   2.934   5.553 -0.1538 -0.3332  0.6006
 3855SOL    HW123024   1.865   2.844   5.559  2.1273  0.4255 -0.7478
 3855SOL    HW223025   1.914   2.969   5.588  1.3992 -1.7044 -1.7218
 3856SOL     OW23026   1.119   2.490   6.860 -0.6968  0.0306  0.2218
 3856SOL    HW123027   1.093   2.572   6.817 -0.6296 -0.6935 -1.1819
 3856SOL    HW223028   1.137   2.516   6.951 -1.3308  2.3796 -0.3071
 3857SOL     OW23029   1.344   2.889  11.292  0.3876  0.4432 -0.3603
 3857SOL    HW123030   1.387   2.910  11.209  0.0041 -2.5981 -1.3231
 3857SOL    HW223031   1.343   2.795  11.274  1.3662  1.1376 -3.9832
 3858SOL     OW23032   2.387   3.697   7.850  0.2477  0.5111 -0.1995
 3858SOL    HW123033   2.434   3.615   7.869  1.4954  1.4689  0.8269
 3858SOL    HW223034   2.427   3.734   7.772 -0.6118  2.5932  0.3561
 3859SOL     OW23035   4.058   4.025   4.061  0.4472  0.3320 -0.4193
 3859SOL    HW123036   4.112   3.946   4.062  0.0494  0.0298 -1.7106
 3859SOL    HW223037   3.982   3.999   4.008  0.2371 -0.2361  0.1707
 3860SOL     OW23038   1.133   0.032   3.719 -1.0841  0.3677 -0.1331
 3860SOL    HW123039   1.189   4.714   3.784 -0.0628 -0.0207 -1.2701
 3860SOL    HW223040   1.054   4.709   3.744 -0.7401 -0.2650 -0.2297
 3861SOL     OW23041   0.148   1.848   4.333 -0.2396 -0.3050  0.0798
 3861SOL    HW123042   0.238   1.862   4.362 -0.2468 -0.7520  0.3254
 3861SOL    HW223043   0.108   1.935   4.339  0.4599  0.0399 -0.3235
 3862SOL     OW23044   3.215   1.066  13.142  0.3321  0.1320 -0.4980
 3862SOL    HW123045   3.205   1.148  13.190  1.4374 -0.2462  0.4041
 3862SOL    HW223046   3.303   1.073  13.105  0.5893 -3.2606 -0.5924
 3863SOL     OW23047   4.148   1.511  13.027  0.5064 -0.1444  0.5277
 3863SOL    HW123048   4.195   1.592  13.043 -0.2551  0.8495 -2.3245
 3863SOL    HW223049   4.092   1.533  12.953  0.6095 -0.5265  0.3329
 3864SOL     OW23050   0.672   4.164   6.295  0.1074 -0.1865 -0.1926
 3864SOL    HW123051   0.760   4.174   6.259 -0.2346 -1.2946 -1.3618
 3864SOL    HW223052   0.659   4.242   6.348 -2.4176 -1.5075  1.1352
 3865SOL     OW23053   4.185   2.356   8.939  0.0262  0.5151  0.1252
 3865SOL    HW123054   4.152   2.286   8.883 -0.1622  0.7749 -0.0875
 3865SOL    HW223055   4.116   2.422   8.939  1.6053  2.1757 -0.0151
 3866SOL     OW23056   4.498   0.564   4.804  0.2117 -0.0432 -0.5081
 3866SOL    HW123057   4.426   0.622   4.778  0.6533  1.3836  1.4828
 3866SOL    HW223058   4.521   0.603   4.888  2.1678  0.1466 -1.1383
 3867SOL     OW23059   2.780   3.880   3.931 -0.0918 -0.2019  0.6066
 3867SOL    HW123060   2.714   3.813   3.914 -1.3695  0.5249  2.7110
 3867SOL    HW223061   2.779   3.885   4.027 -1.4966 -0.3437  0.5953
 3868SOL     OW23062   2.756   3.932  14.702  0.0628  0.7291 -0.1273
 3868SOL    HW123063   2.796   3.997  14.760 -1.1495  1.2608  0.1153
 3868SOL    HW223064   2.815   3.940  14.627 -0.9461  0.1794 -0.9752
 3869SOL     OW23065   3.502   3.513   4.074 -0.5859  0.2664 -0.0197
 3869SOL    HW123066   3.515   3.536   4.166  1.5895 -0.0358 -0.2523
 3869SOL    HW223067   3.412   3.480   4.076 -0.5995  0.2700 -0.5647
 3870SOL     OW23068   3.141   2.679   0.245  0.2125 -0.7898  0.0633
 3870SOL    HW123069   3.231   2.687   0.276 -0.9450  2.3400  2.5063
 3870SOL    HW223070   3.133   2.584   0.242  1.4424 -0.9097  0.3937
 3871SOL     OW23071   4.207   3.317   6.040  0.2911  0.3321  1.0045
 3871SOL    HW123072   4.187   3.407   6.014 -0.1745 -0.0947 -0.1488
 3871SOL    HW223073   4.128   3.272   6.072 -1.3271  0.6115 -2.5003
 3872SOL     OW23074   0.805   3.373   9.515 -0.1191  0.2675  0.8205
 3872SOL    HW123075   0.792   3.353   9.608 -1.6402 -1.4390  0.2391
 3872SOL    HW223076   0.776   3.464   9.522 -1.2358  0.1149 -1.8996
 3873SOL     OW23077   1.772   2.102   0.854  0.1108  0.4685  0.0182
 3873SOL    HW123078   1.831   2.088   0.780 -0.6244  1.4864 -0.7761
 3873SOL    HW223079   1.792   2.019   0.897  1.9570  0.4973 -0.7880
 3874SOL     OW23080   1.090   0.397   1.305  0.1737  0.0898 -0.2292
 3874SOL    HW123081   1.101   0.420   1.213  0.5838  0.4420 -0.0909
 3874SOL    HW223082   1.166   0.433   1.350  0.2517  1.0555 -1.1422
 3875SOL     OW23083   2.230   0.823   6.980  0.1782  0.1881  0.3473
 3875SOL    HW123084   2.186   0.739   6.994  0.2084 -0.1482 -1.6702
 3875SOL    HW223085   2.160   0.877   7.017 -1.6517 -2.4287  0.7613
 3876SOL     OW23086   1.392   3.351  16.982  0.1782 -0.4592 -0.1307
 3876SOL    HW123087   1.317   3.335  17.039  1.3456 -2.4018  0.8756
 3876SOL    HW223088   1.347   3.328  16.901 -1.9115 -0.8203  1.1231
 3877SOL     OW23089   0.012   4.385   7.104 -0.1011 -0.5376 -0.5396
 3877SOL    HW123090   0.035   4.294   7.121  1.1946  0.2390  1.8989
 3877SOL    HW223091   4.689   4.405   7.185  1.1383 -1.6816  0.4658
 3878SOL     OW23092   0.985   1.651   7.885 -0.7402  0.4505 -0.0862
 3878SOL    HW123093   1.075   1.621   7.871 -1.1901 -1.4805  1.2221
 3878SOL    HW223094   0.945   1.594   7.951 -0.3871  0.3825  0.0700
 3879SOL     OW23095   4.662   0.341   3.830 -0.4348  0.3385 -0.4297
 3879SOL    HW123096   4.576   0.379   3.847 -0.2433  1.0416 -1.0227
 3879SOL    HW223097   0.003   0.411   3.837 -0.0022  0.0303 -1.3418
 3880SOL     OW23098   2.250   1.683   4.737 -0.5978  0.5060 -0.1500
 3880SOL    HW123099   2.199   1.619   4.786 -1.1989  1.3351  0.3003
 3880SOL    HW223100   2.238   1.657   4.646 -0.2533 -2.6925  0.7221
 3881SOL     OW23101   0.504   1.788   5.071  0.4872 -0.2728 -0.5715
 3881SOL    HW123102   0.417   1.763   5.105  0.5300  0.3447  0.0003
 3881SOL    HW223103   0.545   1.702   5.078 -0.0970 -0.5166  0.0085
 3882SOL     OW23104   4.278   2.338   1.734 -0.2235  0.3116  0.8187
 3882SOL    HW123105   4.264   2.250   1.699 -2.8273  1.9705 -2.2824
 3882SOL    HW223106   4.317   2.314   1.818  2.8432  0.2801 -0.6259
 3883SOL     OW23107   1.013   1.751   0.041 -0.4863 -0.3278  0.1671
 3883SOL    HW123108   1.090   1.695   0.045  1.4827  2.2922 -0.6918
 3883SOL    HW223109   0.987   1.777   0.129  0.3821 -2.6505  1.1055
 3884SOL     OW23110   0.353   3.596   6.423  0.1673 -0.0997 -0.1869
 3884SOL    HW123111   0.382   3.678   6.384 -1.7752 -0.0622 -1.5331
 3884SOL    HW223112   0.385   3.535   6.356  0.1386  1.1232 -1.3252
 3885SOL     OW23113   0.383   1.153  14.963 -0.4891  0.5190 -0.0433
 3885SOL    HW123114   0.329   1.120  15.036 -1.4097  2.4511  0.1469
 3885SOL    HW223115   0.313   1.188  14.908 -1.4155 -0.7967  0.2798
 3886SOL     OW23116   0.337   1.231   0.691 -0.0270 -0.1179 -0.0401
 3886SOL    HW123117   0.419   1.184   0.679 -0.1651 -0.5484  0.6843
 3886SOL    HW223118   0.365   1.289   0.761 -0.8482  0.6845 -0.3702
 3887SOL     OW23119   1.322   4.098   6.227 -0.0219 -0.4873  0.8462
 3887SOL    HW123120   1.328   4.178   6.176  0.5379  0.6153  2.6378
 3887SOL    HW223121   1.289   4.138   6.307  0.8295  0.8049  0.5464
 3888SOL     OW23122   4.221   2.485   1.473 -0.5223  0.4177  0.5711
 3888SOL    HW123123   4.135   2.493   1.512 -0.3665  1.5299  0.7057
 3888SOL    HW223124   4.268   2.434   1.539 -0.6696 -0.2346  0.1648
 3889SOL     OW23125   1.981   1.983  10.566 -0.2075 -0.5218  0.1441
 3889SOL    HW123126   1.946   2.068  10.590  0.8341 -0.3456  1.0581
 3889SOL    HW223127   2.011   1.965  10.656  1.7049 -0.1331 -0.4146
 3890SOL     OW23128   3.173   0.818   8.595  0.0939  0.3339 -0.1375
 3890SOL    HW123129   3.155   0.739   8.543  1.0388 -0.5512  0.8779
 3890SOL    HW223130   3.117   0.815   8.673  0.3316 -1.5897 -0.0262
 3891SOL     OW23131   0.483   4.103   2.989 -0.3709  0.0337  0.0595
 3891SOL    HW123132   0.414   4.079   2.927 -2.2878  1.0121  1.8519
 3891SOL    HW223133   0.464   4.191   3.020 -0.1680  0.2931 -0.5342
 3892SOL     OW23134   1.905   3.959   1.652  0.0312  0.3230  0.2594
 3892SOL    HW123135   1.836   3.913   1.700 -1.2392  0.7718 -1.1227
 3892SOL    HW223136   1.858   3.997   1.578 -0.1752 -0.7671 -0.1714
 3893SOL     OW23137   0.502   2.967   6.394 -0.5463  0.0027 -0.7244
 3893SOL    HW123138   0.424   3.015   6.421  0.6535  0.2524  2.2275
 3893SOL    HW223139   0.505   2.992   6.301  0.0566 -0.9199 -0.9551
 3894SOL     OW23140   2.306   2.780   6.501  0.4282  0.3199 -0.4957
 3894SOL    HW123141   2.357   2.860   6.486  2.1960 -0.6740  0.3376
 3894SOL    HW223142   2.219   2.819   6.493 -0.3164 -1.0745  1.0091
 3895SOL     OW23143   1.280   4.387  12.331 -0.1688  0.1036  0.1268
 3895SOL    HW123144   1.247   4.466  12.375 -1.4153 -0.3405 -0.0071
 3895SOL    HW223145   1.205   4.328  12.342 -0.3658  0.4653  0.7229
 3896SOL     OW23146   2.119   2.985   9.934 -0.3947 -0.5698  0.0489
 3896SOL    HW123147   2.043   2.927   9.927  0.9323 -2.3273  0.1912
 3896SOL    HW223148   2.069   3.066   9.922  0.4907 -0.2636 -1.4626
 3897SOL     OW23149   0.919   0.680   9.034  0.0793 -0.1814 -0.4124
 3897SOL    HW123150   0.923   0.651   8.943 -0.1393 -1.0350 -0.1537
 3897SOL    HW223151   0.846   0.741   9.042 -1.1284 -1.3873 -2.5035
 3898SOL     OW23152   3.618   2.136   2.864  0.0046 -0.6333  0.0602
 3898SOL    HW123153   3.694   2.166   2.816 -1.0265  0.0520 -1.1382
 3898SOL    HW223154   3.599   2.045   2.841  2.2573 -0.7101 -1.4154
 3899SOL     OW23155   3.887   1.059   4.273 -0.1208 -0.6440 -0.0043
 3899SOL    HW123156   3.966   1.075   4.325 -1.1932 -1.0562  1.7532
 3899SOL    HW223157   3.889   0.965   4.257 -0.1681 -1.0665  2.5102
 3900SOL     OW23158   3.773   3.988   4.319  0.6242 -0.5629 -0.3898
 3900SOL    HW123159   3.702   4.023   4.372  0.3818 -0.0387 -1.0622
 3900SOL    HW223160   3.842   3.979   4.384  0.6737  1.0039 -0.2407
 3901SOL     OW23161   4.244   2.005   3.766 -0.1225  0.0827 -0.1157
 3901SOL    HW123162   4.197   1.922   3.771  0.1761 -0.0569  0.4020
 3901SOL    HW223163   4.329   1.978   3.801 -0.0749  0.1429 -0.1832
 3902SOL     OW23164   1.493   3.683  16.850 -0.2389 -0.3056  0.0692
 3902SOL    HW123165   1.444   3.707  16.771  0.7756  3.6821  0.6250
 3902SOL    HW223166   1.545   3.610  16.817  3.1438  1.8239  0.5822
 3903SOL     OW23167   4.259   4.620   8.976  0.2187  1.2422 -0.1758
 3903SOL    HW123168   4.251   4.647   8.885  0.7953 -1.0671 -0.9189
 3903SOL    HW223169   4.260   4.705   9.019  0.2956  2.1924 -2.0732
 3904SOL     OW23170   0.106   2.345   4.267 -0.2117  0.0636  0.3955
 3904SOL    HW123171   0.167   2.419   4.255 -0.0702 -0.4894 -2.3651
 3904SOL    HW223172   0.071   2.332   4.179  1.3717 -1.4589 -0.0126
 3905SOL     OW23173   2.311   1.988   9.465  0.3630 -0.2207  0.1406
 3905SOL    HW123174   2.390   2.032   9.497 -1.1842  2.8558 -0.2997
 3905SOL    HW223175   2.270   1.964   9.548  1.9978  0.3699  1.1259
 3906SOL     OW23176   3.761   1.099   8.139 -0.0243  0.0066 -0.0853
 3906SOL    HW123177   3.685   1.110   8.082 -0.4460  0.2460  0.5268
 3906SOL    HW223178   3.805   1.020   8.108 -2.2233 -0.6540 -1.4796
 3907SOL     OW23179   3.624   2.516   3.218 -0.1676  0.1721  0.2347
 3907SOL    HW123180   3.586   2.556   3.139 -2.6001  1.2289  1.9675
 3907SOL    HW223181   3.579   2.432   3.213  2.3080 -1.1487  0.0971
 3908SOL     OW23182   1.727   3.915  15.098  0.3744  0.2617 -0.0270
 3908SOL    HW123183   1.707   3.854  15.027 -0.7077  0.0242  0.4885
 3908SOL    HW223184   1.688   3.871  15.173  2.1591  0.3862  0.9633
 3909SOL     OW23185   2.518   3.539   0.360  0.0285  0.2061 -0.2658
 3909SOL    HW123186   2.424   3.531   0.342  0.2359 -0.2272 -1.1608
 3909SOL    HW223187   2.528   3.611   0.423  1.0072  0.1984 -0.4045
 3910SOL     OW23188   3.689   2.859   5.845  0.1481  0.3968  0.2378
 3910SOL    HW123189   3.620   2.843   5.780  0.2144 -1.2184  0.5676
 3910SOL    HW223190   3.749   2.911   5.791  1.4666 -3.2170 -1.7507
 3911SOL     OW23191   4.571   1.817  16.835 -0.2655  0.5728  0.0903
 3911SOL    HW123192   4.647   1.842  16.888  0.7144  0.4364 -1.2645
 3911SOL    HW223193   4.527   1.747  16.883  2.0997  0.1398  1.6009
 3912SOL     OW23194   4.150   0.465  16.220  0.2324  0.1247  0.1219
 3912SOL    HW123195   4.068   0.511  16.202  0.6634  0.5260 -0.8062
 3912SOL    HW223196   4.152   0.394  16.156 -1.5478  1.1783 -1.0926
 3913SOL     OW23197   0.835   3.206   8.099  0.7000  0.0792 -0.2227
 3913SOL    HW123198   0.795   3.141   8.158 -0.7599  0.1605 -1.1235
 3913SOL    HW223199   0.856   3.140   8.033 -1.6612 -1.0393  0.1318
 3914SOL     OW23200   1.630   2.323  15.757 -0.2658  0.2639  0.3241
 3914SOL    HW123201   1.650   2.356  15.844  0.2015 -0.0021  0.3191
 3914SOL    HW223202   1.537   2.309  15.774 -0.8379  2.5175 -0.9928
 3915SOL     OW23203   4.296   1.015  11.756 -0.0716  0.1853 -0.5445
 3915SOL    HW123204   4.320   1.085  11.816  1.7126 -1.3188  0.4887
 3915SOL    HW223205   4.303   0.948  11.824  0.2899 -0.1461 -0.9060
 3916SOL     OW23206   3.101   4.553   0.202 -0.0109 -0.5346  0.2301
 3916SOL    HW123207   3.178   4.521   0.251  1.0454  1.3107 -0.2399
 3916SOL    HW223208   3.145   4.625   0.158  0.7837 -0.7560  0.6473
 3917SOL     OW23209   4.227   4.057   6.565  0.1018 -0.3912  0.1407
 3917SOL    HW123210   4.148   4.084   6.518 -0.1968 -1.5147 -0.0213
 3917SOL    HW223211   4.244   4.123   6.631  1.6240 -2.1898  1.5477
 3918SOL     OW23212   0.564   3.437   5.320  0.5421 -0.1304 -0.9108
 3918SOL    HW123213   0.482   3.467   5.282 -0.0543 -2.9552 -1.8536
 3918SOL    HW223214   0.536   3.366   5.378 -2.0116  1.8639  0.2469
 3919SOL     OW23215   4.067   4.611   5.223 -0.2019 -0.2077 -0.5436
 3919SOL    HW123216   3.977   4.589   5.246  0.6244 -0.3790  2.5104
 3919SOL    HW223217   4.048   4.662   5.144 -1.4104 -1.3366 -0.9620
 3920SOL     OW23218   1.526   4.236  14.407  0.6079  0.3404  0.1155
 3920SOL    HW123219   1.600   4.206  14.354  2.8044  2.9837  1.6599
 3920SOL    HW223220   1.485   4.300  14.348 -1.3636  0.1302  1.2813
 3921SOL     OW23221   2.656   0.680  11.081  0.2775 -0.5487  0.4705
 3921SOL    HW123222   2.683   0.729  11.158  1.0148  1.9603 -1.4062
 3921SOL    HW223223   2.569   0.645  11.100  0.3291 -0.5538  0.6908
 3922SOL     OW23224   0.627   3.478   5.809  0.2015  0.3399  0.0591
 3922SOL    HW123225   0.536   3.489   5.783  0.2182 -0.6220 -0.3913
 3922SOL    HW223226   0.638   3.383   5.808 -0.8193  0.1803  3.5098
 3923SOL     OW23227   2.215   1.875   9.049  0.5552  0.2225 -0.1830
 3923SOL    HW123228   2.248   1.940   9.111 -0.7281  1.6971 -1.0523
 3923SOL    HW223229   2.298   1.867   9.001  1.8176  0.1953  1.9790
 3924SOL     OW23230   3.577   3.549   5.883 -0.4152  0.1421 -0.1688
 3924SOL    HW123231   3.595   3.506   5.966  0.8104  0.7041 -0.1499
 3924SOL    HW223232   3.558   3.640   5.906  1.7437  0.4049  0.5682
 3925SOL     OW23233   3.440   3.003  16.478  0.5401 -0.7334 -0.5540
 3925SOL    HW123234   3.367   2.985  16.538  1.2451 -0.9134  0.2528
 3925SOL    HW223235   3.489   3.068  16.529  0.0225 -1.6390  1.0924
 3926SOL     OW23236   0.464   0.371  14.990 -0.2613  0.1352 -0.1671
 3926SOL    HW123237   0.425   0.433  14.928 -0.3069 -0.8260 -1.1103
 3926SOL    HW223238   0.447   0.289  14.942  1.0014 -1.0488  1.4181
 3927SOL     OW23239   0.778   4.307   9.296 -0.7595  0.5741 -0.3654
 3927SOL    HW123240   0.791   4.384   9.240 -0.1354 -0.9428 -2.3008
 3927SOL    HW223241   0.862   4.264   9.282  0.6182  2.8611  0.8610
 3928SOL     OW23242   4.498   1.570   8.231  0.2714 -0.2790  0.1294
 3928SOL    HW123243   4.432   1.604   8.291 -1.1080 -0.6521 -1.1679
 3928SOL    HW223244   4.450   1.499   8.189 -2.4727  1.5874  0.1120
 3929SOL     OW23245   3.815   1.570  10.149 -0.2633  0.0182 -0.4688
 3929SOL    HW123246   3.877   1.596  10.081  0.5459  3.3024  1.5477
 3929SOL    HW223247   3.733   1.554  10.102 -1.6469  1.4940  1.4325
 3930SOL     OW23248   2.724   1.647   6.677 -0.1619  0.4596  0.0944
 3930SOL    HW123249   2.684   1.567   6.644  0.9307 -0.6355  1.3942
 3930SOL    HW223250   2.650   1.696   6.713 -0.7078 -1.1893  1.2217
 3931SOL     OW23251   4.188   2.818   9.756 -0.0135  0.4059  0.5726
 3931SOL    HW123252   4.127   2.779   9.693 -2.2617  3.8925  0.5699
 3931SOL    HW223253   4.134   2.819   9.835  1.6059  0.7593  1.6750
 3932SOL     OW23254   0.574   3.871   6.320 -0.1842  0.3994  0.0911
 3932SOL    HW123255   0.588   3.959   6.285  1.5199  1.1997  2.8003
 3932SOL    HW223256   0.631   3.823   6.260 -0.0618  0.8420 -0.1457
 3933SOL     OW23257   1.784   2.503   3.208 -0.4423  0.0843 -0.0182
 3933SOL    HW123258   1.722   2.576   3.215 -0.3386  0.3122 -1.3878
 3933SOL    HW223259   1.717   2.436   3.195  1.5341 -2.1077  1.1554
 3934SOL     OW23260   0.130   1.345  14.894  0.4188 -0.1198 -0.5610
 3934SOL    HW123261   0.086   1.416  14.848 -1.8830  0.0124  1.8738
 3934SOL    HW223262   0.049   1.298  14.914  0.6773 -0.8021 -1.1221
 3935SOL     OW23263   1.570   1.245   3.780  0.0008  0.4424 -0.5940
 3935SOL    HW123264   1.596   1.314   3.840  0.6016 -0.2210 -0.0905
 3935SOL    HW223265   1.635   1.251   3.710  0.5672 -0.9568 -0.1960
 3936SOL     OW23266   3.300   1.632   9.681  0.3590 -1.3544  0.0834
 3936SOL    HW123267   3.332   1.580   9.755 -0.2288  0.0209  1.3172
 3936SOL    HW223268   3.217   1.667   9.714 -0.2181 -2.1203 -0.5562
 3937SOL     OW23269   0.981   1.596   2.483  0.3691 -0.4360 -0.0604
 3937SOL    HW123270   1.033   1.638   2.414 -2.5162  0.2469 -1.8179
 3937SOL    HW223271   1.026   1.511   2.487  2.0542  0.3471 -2.0567
 3938SOL     OW23272   3.084   0.415  16.651  0.0183 -0.1118 -0.0387
 3938SOL    HW123273   3.172   0.380  16.662 -0.5997 -1.1262  1.7178
 3938SOL    HW223274   3.071   0.438  16.743  2.9282  2.4046 -0.2733
 3939SOL     OW23275   3.908   1.726   9.959  0.2085 -0.2514 -0.1512
 3939SOL    HW123276   3.981   1.752   9.904  1.0021 -3.3123 -0.5247
 3939SOL    HW223277   3.882   1.815   9.985  2.1812  0.1169  0.5118
 3940SOL     OW23278   4.384   1.752  12.065  0.6705  0.5722  0.3236
 3940SOL    HW123279   4.451   1.685  12.050  0.5726  0.5815 -0.1732
 3940SOL    HW223280   4.407   1.831  12.016  2.6956 -0.2614 -0.0735
 3941SOL     OW23281   2.807   1.303   1.921  0.5264 -0.0397  0.4275
 3941SOL    HW123282   2.736   1.322   1.983 -1.3361 -0.9859 -1.4143
 3941SOL    HW223283   2.795   1.362   1.846 -1.0027 -0.5433  0.2671
 3942SOL     OW23284   1.580   2.982  14.629 -0.7536  0.4880  0.0523
 3942SOL    HW123285   1.563   2.888  14.615 -3.7761  0.6494  2.8606
 3942SOL    HW223286   1.608   2.991  14.721  0.2423  0.3598 -0.2309
 3943SOL     OW23287   2.818   3.827   5.744  0.0745 -0.2192 -0.3479
 3943SOL    HW123288   2.847   3.913   5.773  0.3618 -0.8525  1.2545
 3943SOL    HW223289   2.853   3.824   5.655 -1.0697 -1.2025 -0.7698
 3944SOL     OW23290   1.588   3.392   6.643 -0.0527 -0.5037  0.6748
 3944SOL    HW123291   1.676   3.355   6.646  0.9180  1.7650  0.4895
 3944SOL    HW223292   1.599   3.485   6.620  1.1197  0.3672  4.7804
 3945SOL     OW23293   0.239   2.592   7.796 -0.2301 -0.3347  0.0981
 3945SOL    HW123294   0.227   2.542   7.715  0.1825 -0.2129 -0.0349
 3945SOL    HW223295   0.273   2.521   7.850  1.2617  1.0662  0.9989
 3946SOL     OW23296   3.024   2.344  17.568  0.2374  0.3698 -0.0160
 3946SOL    HW123297   2.966   2.268  17.557  0.0351  0.7389 -1.5375
 3946SOL    HW223298   2.960   2.407  17.535 -1.0517 -1.8690 -1.8235
 3947SOL     OW23299   3.079   0.181  13.439 -0.5787  0.0238  0.3507
 3947SOL    HW123300   3.159   0.186  13.387 -0.2776  1.0866  0.9138
 3947SOL    HW223301   3.110   0.200  13.528 -0.0994  1.1470 -0.0577
 3948SOL     OW23302   3.057   0.012   9.460 -0.3150  0.0047  0.5345
 3948SOL    HW123303   3.142   0.051   9.436  0.8355 -2.1534  1.1226
 3948SOL    HW223304   3.014   0.091   9.493  2.8148  2.3382 -0.8658
 3949SOL     OW23305   2.826   4.191   7.142  0.3146  0.0822  0.5446
 3949SOL    HW123306   2.756   4.126   7.137 -0.8475  1.5384 -2.3716
 3949SOL    HW223307   2.804   4.214   7.233  2.3413  1.7909  0.5959
 3950SOL     OW23308   4.709   4.671  11.556  0.1627 -0.1907 -0.1510
 3950SOL    HW123309   4.670   4.724  11.625 -0.2233 -0.1976 -0.3626
 3950SOL    HW223310   0.061   4.633  11.600  1.1572  1.8073 -0.1866
 3951SOL     OW23311   2.010   0.885  16.274  0.0205 -0.0954  0.0496
 3951SOL    HW123312   1.927   0.901  16.229  1.7136  2.9873 -1.9739
 3951SOL    HW223313   2.067   0.957  16.244  0.4196  0.7000  2.7326
 3952SOL     OW23314   0.633   2.580  12.706 -0.8204  0.0110 -0.2705
 3952SOL    HW123315   0.708   2.595  12.649  0.2231 -0.9733  0.8390
 3952SOL    HW223316   0.569   2.636  12.662 -0.6761  0.8030  0.5407
 3953SOL     OW23317   1.337   3.888  13.883  0.0212  0.0710 -0.1984
 3953SOL    HW123318   1.418   3.839  13.895 -0.5811 -0.4294  1.8114
 3953SOL    HW223319   1.371   3.976  13.869  0.8579 -0.1298  0.5766
 3954SOL     OW23320   1.603   2.754  13.851 -0.0467  0.4284 -0.7675
 3954SOL    HW123321   1.602   2.658  13.855 -1.3055  0.5423  1.9627
 3954SOL    HW223322   1.516   2.760  13.810 -0.7045 -2.1087  0.2116
 3955SOL     OW23323   3.142   1.845   6.868 -0.0709 -0.1754 -0.2355
 3955SOL    HW123324   3.131   1.763   6.820  0.2745  0.6240 -1.6731
 3955SOL    HW223325   3.061   1.889   6.841 -0.0939 -1.0612 -1.5610
 3956SOL     OW23326   2.432   2.490   2.477 -0.2230 -0.7909  0.4727
 3956SOL    HW123327   2.361   2.526   2.424  0.1884  0.0231  0.4806
 3956SOL    HW223328   2.412   2.518   2.567  0.4034 -1.1397  0.7256
 3957SOL     OW23329   0.292   3.459  16.680 -0.3995  0.1234  0.3550
 3957SOL    HW123330   0.238   3.382  16.695 -1.2572  1.0685  2.1015
 3957SOL    HW223331   0.336   3.481  16.762  1.0262  0.8658 -0.6121
 3958SOL     OW23332   4.632   4.032   6.969  0.0670 -0.4660  0.2410
 3958SOL    HW123333   4.613   4.119   6.935 -0.5285 -0.2563  1.1091
 3958SOL    HW223334   4.655   3.984   6.890  1.2639 -1.4883  1.2031
 3959SOL     OW23335   2.084   3.493   1.758 -0.4761 -0.7462 -0.3563
 3959SOL    HW123336   2.107   3.407   1.723  1.1036 -0.8976  1.0706
 3959SOL    HW223337   2.170   3.531   1.772 -0.0484 -1.5606 -0.7631
 3960SOL     OW23338   1.479   2.417   1.364 -0.2650 -0.0932 -0.3416
 3960SOL    HW123339   1.561   2.367   1.370 -0.1163  0.3702  1.5483
 3960SOL    HW223340   1.467   2.462   1.448 -1.5659  0.4210 -0.8042
 3961SOL     OW23341   2.249   0.968  12.373 -0.1595  0.5456 -0.1805
 3961SOL    HW123342   2.177   0.925  12.420  0.3907 -1.8808 -1.5673
 3961SOL    HW223343   2.200   1.050  12.359  0.3218  0.2803 -3.3709
 3962SOL     OW23344   1.664   1.529   5.859  0.0150 -0.3398  0.0023
 3962SOL    HW123345   1.727   1.459   5.878  1.8755  1.0676 -0.8921
 3962SOL    HW223346   1.655   1.572   5.944  1.0519 -0.3543  0.1293
 3963SOL     OW23347   4.487   0.183   9.050 -0.2018  0.4468  0.1833
 3963SOL    HW123348   4.489   0.133   9.131  0.9404  1.7419  0.9636
 3963SOL    HW223349   4.507   0.118   8.983 -0.0704  1.6546 -0.9607
 3964SOL     OW23350   1.144   3.000   4.872  0.2109  0.2301 -0.1490
 3964SOL    HW123351   1.078   2.932   4.887  2.9094 -2.1041  1.1859
 3964SOL    HW223352   1.122   3.040   4.788 -0.0755 -1.3167 -0.8128
 3965SOL     OW23353   4.667   1.612   3.260  0.5438  0.2471  0.2679
 3965SOL    HW123354   4.572   1.625   3.258  0.3479 -1.3506 -0.1160
 3965SOL    HW223355   4.698   1.683   3.203  0.9360 -0.8081 -0.8159
 3966SOL     OW23356   1.154   2.745  16.612  0.2879 -0.4776  0.0179
 3966SOL    HW123357   1.149   2.762  16.518  0.6841 -0.8340 -0.0688
 3966SOL    HW223358   1.230   2.801  16.629  1.4216 -1.8163 -0.7173
 3967SOL     OW23359   0.459   2.847  14.473 -0.4514 -0.7491 -0.0662
 3967SOL    HW123360   0.430   2.771  14.423  0.2894 -0.9037 -0.2562
 3967SOL    HW223361   0.546   2.866  14.437  0.1826  0.3650  2.0687
 3968SOL     OW23362   3.886   1.625  12.919  0.0745  0.1746  0.1169
 3968SOL    HW123363   3.857   1.572  12.846  0.8492 -1.4128  0.9743
 3968SOL    HW223364   3.802   1.633  12.964 -0.7903 -0.4501 -1.4041
 3969SOL     OW23365   3.808   4.253   7.304  0.0011 -0.3328  0.4226
 3969SOL    HW123366   3.799   4.264   7.399 -0.2068 -3.1079  0.7284
 3969SOL    HW223367   3.895   4.285   7.281 -0.7638  0.7085 -1.0759
 3970SOL     OW23368   0.309   2.379   6.754  0.1086 -0.2955 -0.3460
 3970SOL    HW123369   0.283   2.329   6.677  1.0752 -0.4603 -0.5651
 3970SOL    HW223370   0.292   2.470   6.729  0.2645 -0.1437  0.1029
 3971SOL     OW23371   2.593   0.831   5.074  0.4790 -0.5344 -0.6503
 3971SOL    HW123372   2.559   0.911   5.035 -1.1646 -0.3211  1.1922
 3971SOL    HW223373   2.665   0.868   5.124 -0.1020  0.5275 -0.6061
 3972SOL     OW23374   4.559   1.519   9.082  0.1162 -0.0389 -0.5236
 3972SOL    HW123375   4.539   1.451   9.147 -1.4394 -0.8255 -1.8564
 3972SOL    HW223376   4.478   1.561   9.054 -0.7308 -0.3711  1.4345
 3973SOL     OW23377   1.142   2.440   6.393  0.7599 -0.2841  0.1090
 3973SOL    HW123378   1.059   2.393   6.393  0.7534 -0.2961 -1.1707
 3973SOL    HW223379   1.200   2.377   6.435 -1.1081  0.6543  4.0369
 3974SOL     OW23380   0.053   4.325   4.586  0.6587  0.1393  0.4821
 3974SOL    HW123381   0.058   4.247   4.531  2.4640  1.2078 -0.8727
 3974SOL    HW223382   0.122   4.303   4.649  0.3676  0.3193  0.8643
 3975SOL     OW23383   3.809   2.513   4.714  0.7033  0.3342 -0.0141
 3975SOL    HW123384   3.767   2.481   4.794  0.0777 -0.2308 -0.5657
 3975SOL    HW223385   3.796   2.448   4.645 -0.9484  1.0962 -0.4298
 3976SOL     OW23386   2.260   3.481   5.837  0.6612  0.5161  0.1756
 3976SOL    HW123387   2.268   3.454   5.746  1.4371  1.4023 -0.0160
 3976SOL    HW223388   2.171   3.449   5.852 -0.3980  1.6499 -3.8918
 3977SOL     OW23389   1.246   4.190  11.187 -0.1865 -0.1004  0.8229
 3977SOL    HW123390   1.194   4.118  11.149 -1.4270  0.6038  1.1843
 3977SOL    HW223391   1.256   4.250  11.113 -2.8745  0.8456  1.2272
 3978SOL     OW23392   4.626   3.650   8.736 -0.4780  0.0770  0.0422
 3978SOL    HW123393   4.623   3.738   8.701  0.9228 -0.0605 -0.4266
 3978SOL    HW223394   4.707   3.651   8.787  1.0136  2.6290 -2.3817
 3979SOL     OW23395   3.487   4.667   5.860 -0.0908 -0.5617 -0.4086
 3979SOL    HW123396   3.410   4.617   5.834 -1.1305  0.5670  0.4719
 3979SOL    HW223397   3.522   4.692   5.774 -2.6534 -0.7137 -1.4905
 3980SOL     OW23398   0.979   2.439   9.652  0.3347  0.1622 -0.4511
 3980SOL    HW123399   0.964   2.474   9.564 -0.7842 -0.2785 -0.4430
 3980SOL    HW223400   0.970   2.527   9.688 -1.0947  0.1578 -0.8153
 3981SOL     OW23401   2.808   0.316   5.154  0.4118  0.3138  0.0738
 3981SOL    HW123402   2.894   0.279   5.174  0.6912  0.6841 -0.4519
 3981SOL    HW223403   2.828   0.374   5.081 -1.2403  1.2321  0.3561
 3982SOL     OW23404   3.452   2.736   8.914  0.3475 -0.0111 -0.2943
 3982SOL    HW123405   3.423   2.728   8.823 -2.8960  0.8703  0.6447
 3982SOL    HW223406   3.492   2.823   8.915  1.0523 -0.3058 -1.8401
 3983SOL     OW23407   3.464   2.238   6.072 -0.2653  0.5451  0.7908
 3983SOL    HW123408   3.556   2.212   6.072 -0.2610  0.5722  0.0175
 3983SOL    HW223409   3.421   2.158   6.101  1.1490 -0.7216 -0.5989
 3984SOL     OW23410   2.760   3.293  14.864 -0.9980  0.4831 -0.2296
 3984SOL    HW123411   2.770   3.250  14.949  1.0273 -1.6770 -1.5943
 3984SOL    HW223412   2.733   3.222  14.807  0.4442 -0.7355  0.6134
 3985SOL     OW23413   0.879   3.869   3.571  0.3301  0.4564  0.9096
 3985SOL    HW123414   0.881   3.840   3.480 -0.7159  1.1544  0.6611
 3985SOL    HW223415   0.810   3.934   3.584 -0.0346  0.3682 -0.6043
 3986SOL     OW23416   1.331   0.412  16.973 -0.1149 -0.0760 -0.7960
 3986SOL    HW123417   1.303   0.396  17.064  1.9299 -0.0058 -0.1585
 3986SOL    HW223418   1.427   0.408  16.974 -0.0701  1.2023  0.8575
 3987SOL     OW23419   2.829   1.369  12.024 -0.0080 -0.8964  0.1771
 3987SOL    HW123420   2.745   1.363  12.071 -0.8460  0.3646 -1.1695
 3987SOL    HW223421   2.880   1.431  12.075  1.4900 -0.8734 -1.3361
 3988SOL     OW23422   3.639   1.089   6.843  0.3272  0.1622 -0.4182
 3988SOL    HW123423   3.730   1.094   6.814  1.0647 -1.8500  1.5032
 3988SOL    HW223424   3.613   1.181   6.839  0.8923  0.3694  0.6469
 3989SOL     OW23425   1.777   2.406   5.823 -0.1240 -0.3517 -0.7438
 3989SOL    HW123426   1.854   2.396   5.767 -1.2493  1.2332 -2.5526
 3989SOL    HW223427   1.733   2.467   5.764 -1.3906 -0.2714  0.2687
 3990SOL     OW23428   2.069   0.882   5.605 -0.3313  0.0932 -0.7636
 3990SOL    HW123429   2.066   0.848   5.515 -1.2452 -1.1445 -0.2721
 3990SOL    HW223430   2.147   0.937   5.605 -0.9763  1.0092 -0.2950
 3991SOL     OW23431   3.368   1.424   3.566 -1.0170 -0.0241 -0.6432
 3991SOL    HW123432   3.442   1.477   3.539 -1.8097  1.6166  0.4251
 3991SOL    HW223433   3.371   1.363   3.493  0.6884  0.0331 -0.6142
 3992SOL     OW23434   3.347   0.015   9.672 -0.0334 -0.3201 -0.2028
 3992SOL    HW123435   3.345   0.082   9.603  1.8170  0.0926  0.1345
 3992SOL    HW223436   3.289   0.051   9.739  1.3618  1.8342 -0.1406
 3993SOL     OW23437   0.749   0.124   7.775 -0.2581 -0.0073 -0.0937
 3993SOL    HW123438   0.704   0.206   7.754  0.9857  0.3594 -1.3561
 3993SOL    HW223439   0.752   0.073   7.694  0.0757  1.5111 -1.0291
 3994SOL     OW23440   2.465   0.936   8.324  0.2610 -0.3135 -0.6756
 3994SOL    HW123441   2.384   0.896   8.356  2.5572 -3.1974  1.4777
 3994SOL    HW223442   2.505   0.958   8.408  0.5118 -2.0036 -0.3586
 3995SOL     OW23443   2.222   0.915   3.992 -0.1542  0.0236  0.1135
 3995SOL    HW123444   2.138   0.898   4.035  0.9353 -0.8144  1.9031
 3995SOL    HW223445   2.183   0.934   3.907  1.4856 -0.4931 -0.7532
 3996SOL     OW23446   1.801   3.956   4.135 -0.2235  0.0805 -0.2170
 3996SOL    HW123447   1.726   4.014   4.119 -1.7049 -2.0058 -0.8226
 3996SOL    HW223448   1.762   3.869   4.131 -1.3191  0.5364  0.5015
 3997SOL     OW23449   2.400   0.656   3.060  0.4323  0.3487 -0.0455
 3997SOL    HW123450   2.463   0.644   2.988  0.3127  1.4028 -0.3306
 3997SOL    HW223451   2.361   0.741   3.040  2.2722  1.0545 -0.6782
 3998SOL     OW23452   0.777   3.045   3.034 -0.3203 -0.3123  0.8570
 3998SOL    HW123453   0.686   3.023   3.016  0.1416 -2.2379  0.8625
 3998SOL    HW223454   0.827   2.969   3.004  0.0545  0.6824 -1.0630
 3999SOL     OW23455   2.800   0.357  14.681  0.8135 -0.1448 -0.0996
 3999SOL    HW123456   2.782   0.331  14.771  0.1773  0.5156 -0.0312
 3999SOL    HW223457   2.849   0.439  14.694 -1.0255  0.9071  0.2137
 4000SOL     OW23458   1.878   3.230   7.122  0.3342  0.4616 -0.2372
 4000SOL    HW123459   1.857   3.322   7.138  0.1297  0.2163  0.8624
 4000SOL    HW223460   1.840   3.197   7.203 -0.7221 -0.4864 -1.1115
 4001SOL     OW23461   2.086   1.963   8.756 -0.2673  0.4180  1.0969
 4001SOL    HW123462   2.021   1.971   8.826 -2.1891  0.8754 -0.7460
 4001SOL    HW223463   2.167   1.956   8.807 -1.2293 -0.5437  2.4927
 4002SOL     OW23464   2.197   2.744  13.138 -0.6958 -0.1876 -0.0584
 4002SOL    HW123465   2.105   2.757  13.163 -0.8833  0.2308 -0.9725
 4002SOL    HW223466   2.212   2.650  13.129  0.1962  0.1358 -1.7745
 4003SOL     OW23467   1.882   4.614  11.087 -0.3378  0.0051 -0.3632
 4003SOL    HW123468   1.884   4.602  11.182  2.3369  3.3080 -0.0075
 4003SOL    HW223469   1.907   4.528  11.054  0.9259  0.6225 -1.0254
 4004SOL     OW23470   2.501   3.978  17.526 -0.5054 -0.1301  0.2441
 4004SOL    HW123471   2.524   3.887  17.546  1.3567  0.6409  1.6622
 4004SOL    HW223472   2.406   3.979  17.530 -0.5550 -0.9373 -0.8218
 4005SOL     OW23473   4.523   1.370   5.033  0.7601  0.4580  0.3623
 4005SOL    HW123474   4.462   1.435   5.000  1.8504  1.4612  0.3355
 4005SOL    HW223475   4.608   1.414   5.030 -0.4179  2.7245  0.3076
 4006SOL     OW23476   1.272   1.554   4.430 -0.0423  0.4507  0.4863
 4006SOL    HW123477   1.239   1.523   4.514  0.2914 -2.2945 -0.4094
 4006SOL    HW223478   1.219   1.634   4.426  0.8437  0.9077 -2.1319
 4007SOL     OW23479   3.201   3.734   2.555 -0.5670 -0.0933  0.6084
 4007SOL    HW123480   3.252   3.803   2.597  0.3889 -0.4864  0.1022
 4007SOL    HW223481   3.207   3.763   2.464 -3.7875  3.1489  1.4355
 4008SOL     OW23482   2.277   4.279   0.218  0.1804  0.1195 -0.2165
 4008SOL    HW123483   2.193   4.258   0.257 -0.2446  0.1478 -1.1226
 4008SOL    HW223484   2.287   4.210   0.153  0.2687 -0.7900  0.7640
 4009SOL     OW23485   3.252   1.808   9.999  0.1351  0.0703 -0.4975
 4009SOL    HW123486   3.293   1.894  10.012 -2.8079  1.4580 -0.4273
 4009SOL    HW223487   3.233   1.811   9.905 -0.7154  0.0830 -0.3266
 4010SOL     OW23488   1.415   4.028   1.941  0.2443  0.1866 -0.1273
 4010SOL    HW123489   1.410   4.057   2.032  0.8346  0.2379 -0.1164
 4010SOL    HW223490   1.440   3.938   1.962 -2.2356 -1.0452 -2.2800
 4011SOL     OW23491   0.592   4.345  14.292 -0.3104 -0.6315  0.0577
 4011SOL    HW123492   0.496   4.345  14.288 -0.2052 -1.1723 -2.2307
 4011SOL    HW223493   0.617   4.278  14.356  1.9436 -1.0633 -1.2860
 4012SOL     OW23494   0.613   1.170   4.100 -0.0939  1.0255  0.4182
 4012SOL    HW123495   0.630   1.259   4.071  0.5877  0.3704 -1.2564
 4012SOL    HW223496   0.634   1.171   4.193 -1.2788  0.5791  0.6846
 4013SOL     OW23497   4.251   2.643   7.597 -0.2042 -0.1165 -0.2366
 4013SOL    HW123498   4.228   2.670   7.686 -2.1940 -1.2347 -0.4268
 4013SOL    HW223499   4.311   2.708   7.559 -0.2538  0.1565  0.1626
 4014SOL     OW23500   2.321   3.099   7.821  0.3188 -0.2823  0.6913
 4014SOL    HW123501   2.265   3.052   7.883 -2.2714  0.5284 -1.0300
 4014SOL    HW223502   2.336   3.032   7.754 -0.5859 -1.6371  1.8480
 4015SOL     OW23503   0.612   3.608  13.387 -0.0593 -0.2330 -0.3401
 4015SOL    HW123504   0.523   3.634  13.363 -0.0055  0.8780  0.6291
 4015SOL    HW223505   0.596   3.629  13.480  2.0812  0.2071 -0.0817
 4016SOL     OW23506   2.491   2.915   6.868 -0.0060 -0.1667  0.6643
 4016SOL    HW123507   2.518   3.007   6.873  1.9556 -0.7114  0.2191
 4016SOL    HW223508   2.399   2.923   6.890 -0.3066  0.0079 -0.6247
 4017SOL     OW23509   1.267   3.256  15.477 -0.5676 -0.5356  0.7004
 4017SOL    HW123510   1.195   3.250  15.414 -0.7910 -0.3475  0.9354
 4017SOL    HW223511   1.297   3.346  15.463 -1.3087 -0.1463  1.5663
 4018SOL     OW23512   0.178   4.630   7.831 -0.0438  0.0088 -0.2141
 4018SOL    HW123513   0.090   4.650   7.863 -1.3653 -2.1734 -2.4869
 4018SOL    HW223514   0.220   4.716   7.834 -0.1853  0.0827 -0.3112
 4019SOL     OW23515   2.922   0.499   9.666 -0.0917 -0.1773  0.1687
 4019SOL    HW123516   2.837   0.465   9.693 -0.7110  2.1631  1.1835
 4019SOL    HW223517   2.889   0.533   9.583  2.4546  1.5603 -0.1555
 4020SOL     OW23518   3.178   0.602  16.997 -0.0495  0.1632 -0.0083
 4020SOL    HW123519   3.242   0.604  17.068  0.4012 -2.7478 -0.3407
 4020SOL    HW223520   3.092   0.597  17.038  0.1769  0.5177  0.5091
 4021SOL     OW23521   3.188   3.581  10.099 -0.5705  0.2377  0.4870
 4021SOL    HW123522   3.252   3.547  10.163 -1.6643  1.6418  2.3290
 4021SOL    HW223523   3.115   3.520  10.108 -0.5296  0.2195  0.7165
 4022SOL     OW23524   4.690   1.564  10.896  1.2060  0.3084 -0.5980
 4022SOL    HW123525   4.677   1.625  10.968  3.8451 -1.1546  1.1329
 4022SOL    HW223526   4.609   1.512  10.894  0.2572  1.6793  5.0167
 4023SOL     OW23527   2.356   1.199   4.630 -0.0367  0.2788  0.3725
 4023SOL    HW123528   2.331   1.270   4.571 -1.3613 -1.2367 -0.8766
 4023SOL    HW223529   2.425   1.237   4.684  0.3896  0.5745 -0.3838
 4024SOL     OW23530   0.819   0.975   7.616 -0.1709  0.6277 -0.6274
 4024SOL    HW123531   0.860   0.988   7.531 -0.4787 -0.0439 -0.8797
 4024SOL    HW223532   0.812   0.879   7.621 -0.3943  0.6742 -0.0540
 4025SOL     OW23533   0.789   2.688   2.324  0.1746 -0.1584  0.3574
 4025SOL    HW123534   0.782   2.593   2.330 -0.6778 -0.0649  0.8440
 4025SOL    HW223535   0.736   2.706   2.402  0.6878 -0.7448  0.8422
 4026SOL     OW23536   3.625   0.716  12.411 -0.5488  0.1947  0.4098
 4026SOL    HW123537   3.688   0.767  12.359  1.8568 -2.1809  1.0359
 4026SOL    HW223538   3.558   0.777  12.442 -2.0387 -0.6867 -1.1022
 4027SOL     OW23539   2.000   4.671   3.740  0.0554 -0.2137  0.0870
 4027SOL    HW123540   2.007   0.001   3.661  0.5306  1.7039  1.4404
 4027SOL    HW223541   1.937   0.006   3.783  2.8253  0.0831  3.7444
 4028SOL     OW23542   1.993   3.410  15.324  0.4067 -0.4463  0.1752
 4028SOL    HW123543   1.960   3.327  15.359  1.4130 -0.1892  1.7068
 4028SOL    HW223544   2.003   3.388  15.232 -1.1806 -2.2912  0.4279
 4029SOL     OW23545   2.303   3.559   3.971  0.1035 -0.5690  0.0840
 4029SOL    HW123546   2.233   3.581   4.033  0.7102 -1.0719  0.9627
 4029SOL    HW223547   2.260   3.570   3.887 -1.1188 -1.5739  0.5741
 4030SOL     OW23548   0.786   2.507   2.894 -0.2445  0.1037  0.6575
 4030SOL    HW123549   0.790   2.493   2.988 -0.4056 -2.4285  0.2849
 4030SOL    HW223550   0.863   2.559   2.872 -1.5384  1.9226  0.3530
 4031SOL     OW23551   1.791   1.333   5.222 -0.1064 -0.0360 -0.4967
 4031SOL    HW123552   1.735   1.262   5.191 -0.1600  0.1189 -0.7500
 4031SOL    HW223553   1.873   1.302   5.185  0.4658  1.4454 -0.4606
 4032SOL     OW23554   3.774   0.713  14.637 -0.1732  0.0438  0.2270
 4032SOL    HW123555   3.756   0.651  14.708  0.9710 -1.3396 -0.6906
 4032SOL    HW223556   3.814   0.789  14.681  0.4431  0.9263 -1.8641
 4033SOL     OW23557   2.449   0.024   5.742 -0.1472 -0.1055 -0.3459
 4033SOL    HW123558   2.524   0.072   5.777  0.0779 -1.8493  1.5612
 4033SOL    HW223559   2.383   0.090   5.765 -1.4883 -2.2386  1.9353
 4034SOL     OW23560   3.789   3.722   7.412 -0.4438 -0.4858 -0.5113
 4034SOL    HW123561   3.758   3.807   7.380  0.4927 -0.1996 -0.6730
 4034SOL    HW223562   3.882   3.742   7.407 -0.6146  0.4364 -0.0429
 4035SOL     OW23563   2.250   4.710   8.784 -0.0358  0.3759 -0.1792
 4035SOL    HW123564   2.212   4.705   8.696  2.6983  0.7002 -1.3741
 4035SOL    HW223565   2.230   4.620   8.811 -0.2205  0.4202 -0.1680
 4036SOL     OW23566   3.311   2.151   5.453 -0.0033 -0.2914 -0.2499
 4036SOL    HW123567   3.377   2.087   5.478 -0.1669 -0.9054 -1.4388
 4036SOL    HW223568   3.329   2.229   5.506  3.4871 -0.9247 -0.5130
 4037SOL     OW23569   2.052   0.181   2.688 -0.1434  0.8301 -0.1572
 4037SOL    HW123570   2.033   0.204   2.597  2.9789  1.5020 -0.6550
 4037SOL    HW223571   2.113   0.108   2.677 -1.0930  0.0718 -0.3372
 4038SOL     OW23572   0.921   2.757   1.868 -0.0152  0.3444 -0.5276
 4038SOL    HW123573   0.846   2.708   1.903  0.4516  0.5751  0.7971
 4038SOL    HW223574   0.903   2.847   1.893  0.4572  0.1342  0.5875
 4039SOL     OW23575   3.701   3.466   6.433  0.2288  0.2028  0.1843
 4039SOL    HW123576   3.615   3.507   6.444 -0.3402 -0.9126 -0.0197
 4039SOL    HW223577   3.681   3.377   6.463  0.0841  0.3519  0.5265
 4040SOL     OW23578   3.661   0.055   0.077  0.1666  0.6421  0.4348
 4040SOL    HW123579   3.650   0.121   0.145  1.0021  2.2347 -0.9889
 4040SOL    HW223580   3.598   0.081   0.010 -1.7086  0.2939  2.0498
 4041SOL     OW23581   2.433   0.546  16.792  0.2534 -0.5479  0.1602
 4041SOL    HW123582   2.428   0.599  16.713  0.1603  0.1620  0.6349
 4041SOL    HW223583   2.495   0.591  16.850  1.9660  0.3492 -2.3865
 4042SOL     OW23584   2.847   0.442   2.322 -0.5746  0.3810 -0.3186
 4042SOL    HW123585   2.865   0.420   2.414  0.3026  1.0422 -0.3382
 4042SOL    HW223586   2.899   0.522   2.315 -1.4826  0.9409 -0.6951
 4043SOL     OW23587   3.145   3.791   4.838  0.3413  0.0543  0.7633
 4043SOL    HW123588   3.171   3.881   4.856 -0.4975 -0.1694  3.0600
 4043SOL    HW223589   3.057   3.811   4.807 -0.4550  0.0441  3.0390
 4044SOL     OW23590   2.295   3.819  16.142 -0.2682 -0.3639 -0.0838
 4044SOL    HW123591   2.238   3.757  16.096  2.3902 -0.8154 -2.7567
 4044SOL    HW223592   2.363   3.837  16.078  1.3720 -1.5769  1.3190
 4045SOL     OW23593   2.653   3.720   7.073 -0.5842  0.0333 -0.7795
 4045SOL    HW123594   2.609   3.663   7.010 -1.7375 -0.5682  0.5835
 4045SOL    HW223595   2.725   3.661   7.097 -0.1867  0.3049 -1.2959
 4046SOL     OW23596   1.533   3.151  12.036 -0.0881  0.3055  0.0255
 4046SOL    HW123597   1.552   3.214  11.966  1.1242  1.7575  1.6857
 4046SOL    HW223598   1.452   3.200  12.055  0.1244  0.7108 -0.1029
 4047SOL     OW23599   2.975   2.230   0.171  0.0596 -0.1156  0.5951
 4047SOL    HW123600   2.945   2.261   0.085  1.2969  0.7866  0.4812
 4047SOL    HW223601   2.930   2.146   0.180  0.2351 -0.5121 -2.1324
 4048SOL     OW23602   4.712   4.057   5.547 -0.9719 -0.4859  0.0092
 4048SOL    HW123603   4.682   3.978   5.502 -1.2688  0.3631 -1.3084
 4048SOL    HW223604   4.630   4.107   5.549  0.1209  1.3277 -0.1018
 4049SOL     OW23605   2.633   4.460   5.206  0.1686  0.5873  0.2305
 4049SOL    HW123606   2.684   4.526   5.253 -0.4782  0.0339  1.6836
 4049SOL    HW223607   2.678   4.376   5.211 -0.6807  0.1237 -0.0733
 4050SOL     OW23608   2.206   1.804   0.193 -0.0106  0.0691 -0.3211
 4050SOL    HW123609   2.227   1.871   0.128 -0.6599 -0.5393 -1.1446
 4050SOL    HW223610   2.295   1.773   0.210  0.2660  1.9505  1.5886
 4051SOL     OW23611   2.696   1.228  11.247  0.0513 -0.2273 -1.0306
 4051SOL    HW123612   2.789   1.248  11.250 -0.0721 -0.1207  1.5186
 4051SOL    HW223613   2.681   1.218  11.153 -1.0825  2.5753 -1.1590
 4052SOL     OW23614   2.971   0.286   3.249 -0.1210 -0.5148 -0.1234
 4052SOL    HW123615   2.918   0.223   3.202 -1.4824  0.7631 -0.2768
 4052SOL    HW223616   2.917   0.302   3.327  1.6864 -0.6842  1.1794
 4053SOL     OW23617   2.648   2.096  14.657  0.2570 -0.0230  1.0584
 4053SOL    HW123618   2.710   2.083  14.585 -0.0345 -1.3035  1.0341
 4053SOL    HW223619   2.569   2.121  14.609  0.5907 -2.3560 -0.7122
 4054SOL     OW23620   0.441   2.785   7.030  0.4219 -0.3577  0.0359
 4054SOL    HW123621   0.395   2.865   7.002  0.4245 -0.2178  0.4309
 4054SOL    HW223622   0.504   2.818   7.094 -0.2732  2.1470 -0.5542
 4055SOL     OW23623   1.662   3.014   0.955 -0.4280  0.0038 -0.8925
 4055SOL    HW123624   1.710   3.031   1.037 -0.0514  1.2781 -1.3803
 4055SOL    HW223625   1.714   3.064   0.892 -0.8522  2.1561  0.4445
 4056SOL     OW23626   0.705   3.759   2.486 -0.1304 -0.2458 -0.2692
 4056SOL    HW123627   0.692   3.843   2.528  0.2467 -0.1397 -0.3594
 4056SOL    HW223628   0.626   3.706   2.499 -0.5705  1.4625  3.8837
 4057SOL     OW23629   2.752   4.034   1.556  0.3062  0.7888  1.2688
 4057SOL    HW123630   2.663   4.068   1.552  0.1241  0.2297  0.4815
 4057SOL    HW223631   2.795   4.103   1.506 -0.5844  1.2445  1.1278
 4058SOL     OW23632   2.293   3.818   3.265  0.6072  0.2315  0.1726
 4058SOL    HW123633   2.281   3.794   3.173 -0.4425  0.4032  0.2721
 4058SOL    HW223634   2.341   3.740   3.296  0.2745  0.4867  1.3575
 4059SOL     OW23635   3.151   2.926   6.132 -0.3219  0.4420 -0.3892
 4059SOL    HW123636   3.100   3.007   6.137 -1.3625 -0.2251 -0.2287
 4059SOL    HW223637   3.133   2.888   6.218  1.2904  1.7826  0.5358
 4060SOL     OW23638   2.140   3.312   3.822  0.1411 -0.6887  0.1713
 4060SOL    HW123639   2.208   3.377   3.841  1.5398 -1.8213 -0.9502
 4060SOL    HW223640   2.179   3.247   3.763  0.0397 -0.9820  0.4276
 4061SOL     OW23641   0.084   0.432  17.206 -0.2271  0.2968  0.3848
 4061SOL    HW123642   0.107   0.472  17.290  0.1085 -2.4909  1.6135
 4061SOL    HW223643   0.119   0.495  17.143 -1.5028  2.3615  1.7875
 4062SOL     OW23644   0.712   0.018  11.943  0.3023  0.1601  0.0340
 4062SOL    HW123645   0.789   0.064  11.978 -0.8417  2.8093 -0.9333
 4062SOL    HW223646   0.752   4.691  11.872 -0.5710 -1.5361  0.7551
 4063SOL     OW23647   0.434   2.344   3.868  0.5532  0.1432 -0.3611
 4063SOL    HW123648   0.457   2.357   3.776  0.4139  0.0047 -0.4150
 4063SOL    HW223649   0.393   2.258   3.862  0.3438  0.3982 -2.4539
 4064SOL     OW23650   1.410   2.476  10.476 -0.1325  0.0083 -0.1712
 4064SOL    HW123651   1.462   2.496  10.398  0.0441 -0.4034 -0.1614
 4064SOL    HW223652   1.446   2.398  10.518  2.3477  0.6758 -1.0510
 4065SOL     OW23653   2.592   3.784   0.468 -0.3280 -0.0684 -0.3074
 4065SOL    HW123654   2.651   3.795   0.543  1.1110  0.7328 -1.5589
 4065SOL    HW223655   2.647   3.798   0.390 -1.2656  0.8059 -0.8036
 4066SOL     OW23656   4.608   3.763   3.182 -0.3472  0.5320 -0.1023
 4066SOL    HW123657   4.625   3.827   3.251 -0.6233 -0.6015  1.0082
 4066SOL    HW223658   4.532   3.720   3.223 -0.9189  0.0921 -1.6212
 4067SOL     OW23659   1.972   2.231  10.659  0.0608  0.0700  0.1798
 4067SOL    HW123660   1.891   2.263  10.700 -1.8751 -2.4381 -1.6474
 4067SOL    HW223661   2.023   2.213  10.738  0.5548  1.2911  0.1444
 4068SOL     OW23662   1.365   3.447  10.344  0.0950 -0.4811 -0.5091
 4068SOL    HW123663   1.448   3.407  10.366  0.4607  0.3823 -0.3250
 4068SOL    HW223664   1.379   3.540  10.363  2.4009 -1.4431  2.3732
 4069SOL     OW23665   2.515   0.536   3.440 -0.0627 -0.2174  0.6136
 4069SOL    HW123666   2.585   0.574   3.388  0.2240 -1.6090 -0.0250
 4069SOL    HW223667   2.443   0.597   3.424 -1.2375 -2.2391 -1.7418
 4070SOL     OW23668   3.682   1.259  13.409 -0.2077 -0.6224 -0.3732
 4070SOL    HW123669   3.720   1.206  13.340  0.9275  0.5475 -0.6487
 4070SOL    HW223670   3.642   1.186  13.456 -0.5803 -0.0223  0.2456
 4071SOL     OW23671   4.681   0.857   5.790  0.2449 -0.2090 -0.5484
 4071SOL    HW123672   4.602   0.903   5.817  0.7087 -0.9609  2.1517
 4071SOL    HW223673   0.031   0.917   5.800  0.8250 -0.8660 -0.9149
 4072SOL     OW23674   0.927   3.551   6.136  1.0780  0.2048 -0.0327
 4072SOL    HW123675   0.958   3.481   6.078  1.7807  0.6416 -0.1735
 4072SOL    HW223676   1.003   3.553   6.194  1.3553 -3.8685 -0.1882
 4073SOL     OW23677   3.013   4.690   6.597 -0.0557 -0.4247 -0.2776
 4073SOL    HW123678   3.085   4.627   6.592 -0.7287 -1.2406  0.2161
 4073SOL    HW223679   2.997   4.709   6.505  0.2552 -1.5614 -0.5745
 4074SOL     OW23680   3.023   1.288   8.691  0.1557  0.2669 -0.0593
 4074SOL    HW123681   3.036   1.239   8.771  0.0606 -0.1390 -0.2940
 4074SOL    HW223682   3.107   1.329   8.669  1.1405 -1.3103  0.8207
 4075SOL     OW23683   3.854   3.752   4.891  0.6865  0.3247 -0.1481
 4075SOL    HW123684   3.899   3.836   4.900 -1.5943  1.7150 -1.6672
 4075SOL    HW223685   3.809   3.764   4.808 -0.3018 -1.0629  0.1894
 4076SOL     OW23686   2.122   3.656   7.371  1.1134  0.6510  0.4098
 4076SOL    HW123687   2.203   3.627   7.330  1.7338 -0.0792  2.1562
 4076SOL    HW223688   2.116   3.742   7.329 -1.2818  0.6320  0.6715
 4077SOL     OW23689   1.005   2.707  10.892  0.7447 -0.2930  0.7559
 4077SOL    HW123690   1.013   2.750  10.977  0.8465  2.1010 -0.4696
 4077SOL    HW223691   0.948   2.632  10.908  2.2282 -1.8146 -1.0815
 4078SOL     OW23692   1.677   4.334   1.851 -0.1900 -0.1240  0.2067
 4078SOL    HW123693   1.733   4.298   1.782 -0.8843 -1.5341  0.3853
 4078SOL    HW223694   1.737   4.348   1.924 -0.3446  1.0501  0.1051
 4079SOL     OW23695   2.151   4.258  12.438 -0.4270 -0.1446 -0.8511
 4079SOL    HW123696   2.229   4.208  12.415  0.0183  2.0303 -4.0949
 4079SOL    HW223697   2.188   4.315  12.506  0.6163 -0.0659 -1.4924
 4080SOL     OW23698   2.517   1.053   4.930  0.2857  0.1717 -0.2802
 4080SOL    HW123699   2.534   1.061   4.836 -0.6542  0.9972 -0.3721
 4080SOL    HW223700   2.484   1.140   4.952  1.1497  0.6660 -0.9162
 4081SOL     OW23701   3.695   4.514  17.234 -0.2446 -0.2837 -0.0551
 4081SOL    HW123702   3.659   4.507  17.146  0.2205  1.2410 -0.3557
 4081SOL    HW223703   3.777   4.465  17.226  0.1136  0.8148 -3.0542
 4082SOL     OW23704   2.125   2.552   8.170  0.1751  0.7914  0.2797
 4082SOL    HW123705   2.168   2.561   8.255  2.5325 -0.4328 -0.7567
 4082SOL    HW223706   2.104   2.643   8.151 -2.3516  0.4541  1.5293
 4083SOL     OW23707   2.298   3.749   0.104  0.1535  0.5846  0.0123
 4083SOL    HW123708   2.271   3.679   0.164  0.4054  0.7788  0.3510
 4083SOL    HW223709   2.214   3.775   0.067 -0.1931 -2.8344 -1.6251
 4084SOL     OW23710   0.404   3.906   5.951 -0.4331  0.1753 -0.2992
 4084SOL    HW123711   0.358   3.960   6.016  1.1375  0.4810  0.5584
 4084SOL    HW223712   0.492   3.936   5.973 -1.0275  1.3772  0.4582
 4085SOL     OW23713   2.394   1.525  14.041 -0.0831  0.4643  0.3055
 4085SOL    HW123714   2.357   1.450  13.996 -0.3189  0.6824  0.1334
 4085SOL    HW223715   2.470   1.550  13.989 -0.2330  1.7633  0.6859
 4086SOL     OW23716   4.358   1.187   5.740 -0.4979  0.4328  0.5004
 4086SOL    HW123717   4.398   1.268   5.774 -0.0016  1.0729 -1.5846
 4086SOL    HW223718   4.328   1.210   5.652 -3.6172 -2.6106  0.7809
 4087SOL     OW23719   3.963   0.529   4.133  0.6209 -0.1268  0.0890
 4087SOL    HW123720   4.005   0.514   4.218 -1.8908 -0.8887  1.2078
 4087SOL    HW223721   3.941   0.440   4.106 -1.7644  0.4468  0.1829
 4088SOL     OW23722   2.321   3.818  16.822  0.6572  0.2870  0.5936
 4088SOL    HW123723   2.385   3.795  16.889 -1.2355  0.6962  2.5717
 4088SOL    HW223724   2.379   3.822  16.747 -0.3572 -1.3709 -0.2890
 4089SOL     OW23725   2.992   4.542   1.500 -0.1265 -0.3758  0.1365
 4089SOL    HW123726   2.955   4.622   1.538 -2.1973 -1.9133  1.3105
 4089SOL    HW223727   3.062   4.576   1.445 -0.4440  1.4198  0.8313
 4090SOL     OW23728   2.021   2.513  10.756 -0.5830  0.5054  0.1493
 4090SOL    HW123729   1.990   2.500  10.667  1.0739 -0.9478 -0.2323
 4090SOL    HW223730   2.082   2.439  10.759  1.9640  2.7290  2.7918
 4091SOL     OW23731   2.200   1.885  15.750 -0.0565 -0.1744  0.2720
 4091SOL    HW123732   2.185   1.873  15.657  2.0808  1.2827 -0.2546
 4091SOL    HW223733   2.294   1.904  15.746 -0.1429  0.8005  2.5307
 4092SOL     OW23734   4.428   3.222   7.073  0.0232 -0.0432  0.1336
 4092SOL    HW123735   4.464   3.230   6.985 -0.2300 -0.5148 -0.0151
 4092SOL    HW223736   4.372   3.299   7.069 -2.0206 -1.4883  0.9158
 4093SOL     OW23737   2.685   4.632  14.467 -0.3499 -0.0696 -0.1057
 4093SOL    HW123738   2.674   4.724  14.441 -0.8184 -0.0442  0.1784
 4093SOL    HW223739   2.637   4.585  14.399 -1.4651  2.4293 -1.0744
 4094SOL     OW23740   4.204   1.688   3.165 -0.4390  0.0761  0.2696
 4094SOL    HW123741   4.128   1.723   3.211  0.4845  1.7838  0.4754
 4094SOL    HW223742   4.246   1.632   3.231 -2.1265 -0.6414  0.7342
 4095SOL     OW23743   2.343   4.167   3.584 -0.1839 -0.9028 -0.1183
 4095SOL    HW123744   2.272   4.135   3.639  0.3724 -0.6722  0.7373
 4095SOL    HW223745   2.318   4.259   3.583 -0.3775 -0.9292  1.2518
 4096SOL     OW23746   4.708   2.077  11.345 -0.2837 -0.3432 -0.0630
 4096SOL    HW123747   0.036   2.008  11.304 -1.9172 -0.8595 -1.2863
 4096SOL    HW223748   4.703   2.061  11.439 -0.4599  0.9979  0.1630
 4097SOL     OW23749   3.534   3.619   4.317 -0.0767  0.1143 -0.1500
 4097SOL    HW123750   3.606   3.634   4.379 -0.2943  1.0572 -0.1285
 4097SOL    HW223751   3.460   3.648   4.370 -0.3137  0.7379 -0.8299
 4098SOL     OW23752   4.203   2.776   7.857  0.5182 -0.4176 -0.5363
 4098SOL    HW123753   4.108   2.765   7.868  0.3084  1.0215 -0.9583
 4098SOL    HW223754   4.218   2.813   7.944  2.0825 -1.6954 -0.2522
 4099SOL     OW23755   1.257   4.250   7.999 -0.0339 -0.2392 -0.0775
 4099SOL    HW123756   1.280   4.315   8.066 -2.3376  0.0922  0.4203
 4099SOL    HW223757   1.220   4.307   7.932 -3.4785 -1.7769  0.4649
 4100SOL     OW23758   0.460   3.609   6.949 -0.2192 -0.2203  0.1664
 4100SOL    HW123759   0.398   3.619   6.877  0.8708 -1.0791 -0.8672
 4100SOL    HW223760   0.477   3.515   6.942 -0.9389 -0.4177  1.0636
 4101SOL     OW23761   3.083   3.748   5.112  0.0589  0.3229  0.3231
 4101SOL    HW123762   3.172   3.766   5.143  0.6441  0.4416 -1.4208
 4101SOL    HW223763   3.095   3.729   5.019  0.8775 -2.7147  1.0394
 4102SOL     OW23764   0.320   3.708   4.733  0.2295  0.0206  0.0805
 4102SOL    HW123765   0.413   3.727   4.731  0.5354 -1.3399  1.1679
 4102SOL    HW223766   0.320   3.639   4.667  0.2169 -1.2748  1.4472
 4103SOL     OW23767   0.994   1.952   5.548 -0.3235 -0.1546 -0.2577
 4103SOL    HW123768   1.025   2.043   5.553 -0.5298 -0.0244 -1.3425
 4103SOL    HW223769   0.960   1.938   5.636 -2.7768 -0.7783 -1.3098
 4104SOL     OW23770   2.672   1.888  13.843 -0.3059  0.4160 -0.7549
 4104SOL    HW123771   2.757   1.930  13.830 -0.7463  1.5602  0.0502
 4104SOL    HW223772   2.621   1.954  13.796  1.4941  2.1610 -0.2437
 4105SOL     OW23773   2.524   1.740   2.913 -0.1801  0.0020  0.1768
 4105SOL    HW123774   2.585   1.666   2.913  0.0597  0.1923 -1.3563
 4105SOL    HW223775   2.507   1.735   3.007 -0.0660 -0.8933  0.1511
 4106SOL     OW23776   3.236   0.032   5.137 -0.7687  0.4115 -0.0677
 4106SOL    HW123777   3.185   4.697   5.082  2.3844 -0.1726 -2.3560
 4106SOL    HW223778   3.268   4.707   5.213 -0.7831  3.4274  1.9023
 4107SOL     OW23779   0.725   1.195   8.983 -0.1014 -0.1869  0.3406
 4107SOL    HW123780   0.791   1.131   8.956  1.6860  0.7077  2.5765
 4107SOL    HW223781   0.654   1.136   9.008 -0.8093 -0.1174 -1.5335
 4108SOL     OW23782   0.958   2.118   6.690  0.0450  0.0244 -0.3101
 4108SOL    HW123783   0.913   2.103   6.773 -1.0658 -0.1894 -0.9585
 4108SOL    HW223784   1.044   2.151   6.719 -0.6684 -0.0399  1.8918
 4109SOL     OW23785   4.145   3.266   2.896 -0.3356 -0.2247 -0.2485
 4109SOL    HW123786   4.200   3.195   2.863 -1.0010 -1.4681  1.3313
 4109SOL    HW223787   4.170   3.335   2.834 -2.6274  1.8122  1.1019
 4110SOL     OW23788   3.823   3.404   3.603 -0.0236 -0.0340  0.2199
 4110SOL    HW123789   3.830   3.485   3.653  0.1345 -0.9571  1.6809
 4110SOL    HW223790   3.838   3.338   3.670 -1.1782  0.0750  0.5858
 4111SOL     OW23791   0.524   4.247   4.941  0.1142 -0.5026 -0.0753
 4111SOL    HW123792   0.463   4.177   4.964  0.6632 -0.9581  0.0193
 4111SOL    HW223793   0.541   4.284   5.028 -0.2948  0.4929 -0.4192
 4112SOL     OW23794   2.047   1.820  10.347 -0.4164 -0.1756  0.1464
 4112SOL    HW123795   2.108   1.757  10.384 -0.5048 -0.8471 -0.8462
 4112SOL    HW223796   2.031   1.878  10.421 -3.3998 -0.8394 -0.0019
 4113SOL     OW23797   1.741   3.401  14.664  0.7173  0.2444 -0.2121
 4113SOL    HW123798   1.697   3.365  14.741  1.0598  1.0145  0.3512
 4113SOL    HW223799   1.805   3.453  14.714 -3.1470  4.0288  0.7764
 4114SOL     OW23800   0.942   1.215   3.500  0.3940 -0.0488 -0.1962
 4114SOL    HW123801   0.887   1.159   3.444 -1.5598  1.2044  0.4602
 4114SOL    HW223802   1.032   1.191   3.478 -0.1827 -0.0146 -2.6016
 4115SOL     OW23803   2.736   0.179   5.656 -0.2198 -0.0659  0.2176
 4115SOL    HW123804   2.776   0.223   5.581  1.7027 -0.7205  0.8588
 4115SOL    HW223805   2.716   0.255   5.710 -0.4590 -1.6115  2.3164
 4116SOL     OW23806   0.142   4.165   4.090  0.2748  1.1723 -0.5589
 4116SOL    HW123807   0.179   4.151   4.177 -1.0188  0.1227 -0.1754
 4116SOL    HW223808   0.127   4.259   4.096 -0.5968  0.9657  0.4394
 4117SOL     OW23809   0.802   1.830   5.823 -0.3357 -0.3413  0.3753
 4117SOL    HW123810   0.851   1.761   5.867 -1.1014  0.0859  1.9105
 4117SOL    HW223811   0.797   1.896   5.892  1.6595 -1.4932  1.5879
 4118SOL     OW23812   2.677   1.086   9.429  0.1869 -0.7055 -0.2082
 4118SOL    HW123813   2.691   1.178   9.452  1.4266 -0.8695 -0.3095
 4118SOL    HW223814   2.589   1.073   9.464 -0.3105  0.9823 -0.8285
 4119SOL     OW23815   2.813   0.827   2.146  0.3982 -0.0793  0.4626
 4119SOL    HW123816   2.851   0.771   2.079 -1.0590 -3.0505  2.1195
 4119SOL    HW223817   2.729   0.784   2.163  1.4092 -1.4362  2.0306
 4120SOL     OW23818   4.378   4.278  12.023  0.5735  0.5226  0.1320
 4120SOL    HW123819   4.456   4.265  11.970  1.1311  2.1741  0.5469
 4120SOL    HW223820   4.352   4.357  11.975 -1.4079 -0.6219 -0.6803
 4121SOL     OW23821   3.860   1.603  11.269 -0.4114  0.5738 -0.2383
 4121SOL    HW123822   3.875   1.517  11.308  0.4061  0.9219  0.2179
 4121SOL    HW223823   3.796   1.579  11.202 -1.4321 -0.7791  1.2169
 4122SOL     OW23824   0.589   1.380   3.782 -0.2281 -0.6863  0.2206
 4122SOL    HW123825   0.608   1.297   3.738 -2.3114 -0.6499 -0.7227
 4122SOL    HW223826   0.511   1.359   3.833 -0.0407  1.4319  1.3640
 4123SOL     OW23827   0.780   1.449   5.794 -0.3488 -0.3804 -0.2759
 4123SOL    HW123828   0.764   1.361   5.759 -1.4242 -0.8134  1.3135
 4123SOL    HW223829   0.746   1.512   5.730 -1.2093 -1.4895 -0.9270
 4124SOL     OW23830   4.001   3.112   3.897 -0.3606 -0.5824  0.0275
 4124SOL    HW123831   4.095   3.125   3.889 -0.6605  0.7050 -1.5364
 4124SOL    HW223832   3.982   3.033   3.846  0.5915  1.0704 -2.9134
 4125SOL     OW23833   2.636   2.268   0.388 -0.2356  0.5640  0.1797
 4125SOL    HW123834   2.653   2.191   0.443  0.1173  0.0796 -0.6147
 4125SOL    HW223835   2.630   2.219   0.306  2.3897  1.3091 -0.4390
 4126SOL     OW23836   2.214   2.841  16.178 -0.4077 -0.0128  0.2452
 4126SOL    HW123837   2.260   2.912  16.132 -0.4777  1.0385  1.8094
 4126SOL    HW223838   2.190   2.788  16.101 -0.3892 -1.9764  1.6053
 4127SOL     OW23839   1.482   2.641   7.144 -0.5074  0.1279 -0.3794
 4127SOL    HW123840   1.575   2.617   7.146 -0.4687  0.3226  0.3227
 4127SOL    HW223841   1.476   2.672   7.054  1.4861  0.3189 -0.4512
 4128SOL     OW23842   3.149   4.491   1.088 -0.0703 -0.2877 -0.3091
 4128SOL    HW123843   3.234   4.510   1.048  0.3898 -2.4304 -0.3621
 4128SOL    HW223844   3.162   4.402   1.121 -0.3493 -0.5043 -0.7759
 4129SOL     OW23845   0.965   0.318   4.194 -0.1807  0.0173 -0.3994
 4129SOL    HW123846   0.967   0.262   4.272 -0.1807  0.0075 -0.4063
 4129SOL    HW223847   0.935   0.255   4.129  1.5065  1.6251 -2.7215
 4130SOL     OW23848   2.715   0.350   3.188 -0.0188 -0.9991 -0.4071
 4130SOL    HW123849   2.633   0.303   3.175 -0.5649  0.1874 -1.2057
 4130SOL    HW223850   2.694   0.412   3.258  1.8943 -1.4838  0.5864
 4131SOL     OW23851   0.713   2.513   1.530  0.0068 -0.1649 -0.4356
 4131SOL    HW123852   0.788   2.494   1.474 -1.2907  1.2825 -2.6626
 4131SOL    HW223853   0.674   2.426   1.538  1.7572 -0.7027  2.5143
 4132SOL     OW23854   3.273   2.417   7.285 -0.5937  0.2258 -0.3895
 4132SOL    HW123855   3.346   2.367   7.322 -0.2504  1.1855  0.2307
 4132SOL    HW223856   3.197   2.359   7.294 -1.2544  1.4803  2.1710
 4133SOL     OW23857   0.298   0.080   3.987 -0.0837  0.3976 -0.0667
 4133SOL    HW123858   0.357   0.023   4.036  0.6272  0.5655 -0.7315
 4133SOL    HW223859   0.215   0.044   4.019  0.6403 -0.3947  0.9434
 4134SOL     OW23860   1.240   3.282  16.780 -0.1166  0.0741 -0.2187
 4134SOL    HW123861   1.282   3.261  16.697  1.3506  0.5816  0.4016
 4134SOL    HW223862   1.165   3.223  16.774 -0.8818  0.9654  0.5850
 4135SOL     OW23863   1.753   2.895   1.519  0.0169 -0.1099  0.3560
 4135SOL    HW123864   1.818   2.825   1.519  1.2779  1.0791  0.3349
 4135SOL    HW223865   1.795   2.961   1.464 -4.2462  2.1493 -0.1852
 4136SOL     OW23866   0.430   2.770   8.862  0.3762  0.0018 -0.0626
 4136SOL    HW123867   0.418   2.850   8.913  2.4674 -1.9421  3.4315
 4136SOL    HW223868   0.476   2.714   8.924  2.0894 -0.4827 -1.7545
 4137SOL     OW23869   1.402   0.086   4.246 -0.2485  0.1708  0.8540
 4137SOL    HW123870   1.421   0.180   4.245  1.0552 -0.0721  2.8748
 4137SOL    HW223871   1.309   0.082   4.221  0.1403  0.7345 -0.6900
 4138SOL     OW23872   3.828   1.563   8.258  0.3279 -0.2098  0.0063
 4138SOL    HW123873   3.874   1.480   8.274 -1.8188 -1.7859 -1.9848
 4138SOL    HW223874   3.749   1.530   8.215  2.5910 -0.5579 -3.8153
 4139SOL     OW23875   1.319   3.448   6.529 -0.3896 -0.3980 -0.0750
 4139SOL    HW123876   1.399   3.402   6.556 -0.0641 -0.6789 -1.5169
 4139SOL    HW223877   1.282   3.366   6.496 -0.9297 -0.6673  1.1781
 4140SOL     OW23878   2.666   2.184  11.063  0.3301  0.2465 -0.0222
 4140SOL    HW123879   2.754   2.202  11.095  0.1793  0.3617  0.3269
 4140SOL    HW223880   2.692   2.180  10.971 -1.7717 -0.5594 -0.5882
 4141SOL     OW23881   1.623   3.043  10.562  0.0662  0.0701  0.3312
 4141SOL    HW123882   1.644   2.968  10.506 -2.3140 -1.3729  1.3781
 4141SOL    HW223883   1.573   3.001  10.632  2.6827  0.2295  2.3105
 4142SOL     OW23884   0.048   3.077   9.486  0.3864  0.1476 -0.7713
 4142SOL    HW123885   0.098   3.158   9.483  3.6386 -1.8584 -0.8795
 4142SOL    HW223886   0.109   3.022   9.536 -1.4360  0.1659  1.4782
 4143SOL     OW23887   1.569   0.995   4.947  0.5201 -0.4650 -0.6252
 4143SOL    HW123888   1.658   0.962   4.932  0.2624 -0.8558 -1.3238
 4143SOL    HW223889   1.544   0.996   4.855 -0.2880  1.4311 -0.3736
 4144SOL     OW23890   1.367   4.047   1.679  0.2939 -0.6400 -0.0748
 4144SOL    HW123891   1.366   4.143   1.674  0.8002 -0.6661 -0.6291
 4144SOL    HW223892   1.373   4.042   1.774  2.0143 -0.6651 -0.1892
 4145SOL     OW23893   4.141   1.370   0.052  0.0279 -0.0606  0.0182
 4145SOL    HW123894   4.175   1.433   0.115 -0.6982  1.0200 -0.6806
 4145SOL    HW223895   4.192   1.383  17.671  1.1353  0.4013  0.8140
 4146SOL     OW23896   0.953   1.218   2.670  0.3788  0.0171  0.2459
 4146SOL    HW123897   0.917   1.261   2.748 -2.9535 -1.7970 -0.2723
 4146SOL    HW223898   0.908   1.134   2.666 -0.2064  0.4058 -1.2018
 4147SOL     OW23899   0.440   2.064   2.343 -0.5565  0.4811  0.1503
 4147SOL    HW123900   0.476   2.051   2.430 -0.0822  2.1518  0.1971
 4147SOL    HW223901   0.519   2.060   2.290 -1.4971  1.1070 -1.3009
 4148SOL     OW23902   3.965   3.687   5.596  0.8732 -0.7229 -0.3076
 4148SOL    HW123903   3.909   3.729   5.661  3.2017  0.1610  1.1601
 4148SOL    HW223904   3.903   3.623   5.562  0.9255 -1.2941  0.6605
 4149SOL     OW23905   1.342   2.970   2.459  0.4821 -0.1989 -0.0911
 4149SOL    HW123906   1.256   2.991   2.421  0.2555  0.8060  0.9765
 4149SOL    HW223907   1.379   3.056   2.475 -0.9590  0.7125 -1.5688
 4150SOL     OW23908   3.251   4.331   7.202 -0.1324  0.0398 -0.3443
 4150SOL    HW123909   3.308   4.284   7.140  1.5128  1.1156  0.3518
 4150SOL    HW223910   3.213   4.254   7.245  2.8475 -0.5331  1.2793
 4151SOL     OW23911   1.690   2.049   8.840  0.7626  0.4841 -0.1334
 4151SOL    HW123912   1.726   2.128   8.799  0.8559  0.9711  0.8898
 4151SOL    HW223913   1.773   2.016   8.873 -1.3984 -2.4454  2.3880
 4152SOL     OW23914   3.557   1.062   5.240  0.4873 -0.2251  0.2904
 4152SOL    HW123915   3.590   0.974   5.252 -0.4083 -0.8127 -1.5303
 4152SOL    HW223916   3.528   1.055   5.149  0.3853  1.7491  0.1674
 4153SOL     OW23917   2.394   0.762   5.450  0.3012  0.1747  0.1346
 4153SOL    HW123918   2.348   0.846   5.438 -0.1851 -0.2983 -1.3464
 4153SOL    HW223919   2.463   0.794   5.507  0.7440 -0.7634  0.1176
 4154SOL     OW23920   1.000   0.962   3.245  0.0872 -0.4376 -0.2658
 4154SOL    HW123921   0.925   0.905   3.256 -0.2246  0.0455  0.1442
 4154SOL    HW223922   0.957   1.047   3.258 -3.1654 -2.3794  1.7502
 4155SOL     OW23923   4.068   2.349  10.195  0.9472  0.0006 -0.0365
 4155SOL    HW123924   3.976   2.371  10.184  1.4621  1.7736 -0.8861
 4155SOL    HW223925   4.114   2.433  10.192  1.3340 -0.2122 -0.2201
 4156SOL     OW23926   0.940   2.782  10.599  0.1388 -0.0777  0.0041
 4156SOL    HW123927   0.951   2.774  10.693  0.9553 -1.5085 -0.2225
 4156SOL    HW223928   1.005   2.721  10.564 -0.4250 -1.3321  1.1980
 4157SOL     OW23929   0.310   1.210   2.004  0.0127  0.5975 -0.2338
 4157SOL    HW123930   0.338   1.252   1.923 -0.2582  0.1020 -0.5848
 4157SOL    HW223931   0.229   1.167   1.975  1.1094 -1.1957 -0.6227
 4158SOL     OW23932   1.103   0.266   3.113 -0.2462 -0.0519  0.0172
 4158SOL    HW123933   1.163   0.212   3.165 -2.3832  2.1407  4.8222
 4158SOL    HW223934   1.044   0.195   3.086  1.0500 -0.8126 -0.7876
 4159SOL     OW23935   4.511   0.473   1.512 -0.4069  0.1319  0.2540
 4159SOL    HW123936   4.540   0.561   1.489 -2.2456  0.2595 -1.5452
 4159SOL    HW223937   4.493   0.446   1.422  2.7216 -1.2165  0.0516
 4160SOL     OW23938   1.063   0.465  16.947  0.0575  0.2232  0.4683
 4160SOL    HW123939   1.061   0.560  16.930  0.0272 -0.2958 -2.4142
 4160SOL    HW223940   1.159   0.457  16.947 -0.1276 -1.9608 -1.6767
 4161SOL     OW23941   0.435   0.507   2.182 -0.0107  0.0228  0.2865
 4161SOL    HW123942   0.425   0.413   2.166  1.3063 -0.2938  1.3045
 4161SOL    HW223943   0.367   0.545   2.127  0.4325  1.6804  0.8765
 4162SOL     OW23944   4.038   1.087   3.370  0.3370 -0.4076 -0.3079
 4162SOL    HW123945   3.957   1.064   3.324  0.2576  0.2586 -0.5021
 4162SOL    HW223946   4.028   1.055   3.459  0.4221 -0.7134 -0.4082
 4163SOL     OW23947   3.378   1.866   7.509 -0.0718 -0.0877  0.8049
 4163SOL    HW123948   3.373   1.943   7.452 -2.6320 -1.9867 -1.4710
 4163SOL    HW223949   3.405   1.917   7.586 -0.7225 -0.0333  0.9955
 4164SOL     OW23950   1.423   4.356   8.500  0.1857 -0.6491 -0.3451
 4164SOL    HW123951   1.372   4.275   8.506 -0.3315 -0.1513  1.9951
 4164SOL    HW223952   1.362   4.429   8.506  2.3821  1.1107  0.5617
 4165SOL     OW23953   4.535   3.194   2.387  0.1578 -0.6379 -0.6430
 4165SOL    HW123954   4.454   3.228   2.349 -0.9031 -3.2685 -0.7928
 4165SOL    HW223955   4.563   3.271   2.436  1.0194 -0.3946 -1.5112
 4166SOL     OW23956   1.003   1.005   6.492 -0.4068 -0.2868  0.1986
 4166SOL    HW123957   0.909   1.006   6.507 -1.1364  1.1875 -4.5722
 4166SOL    HW223958   1.034   0.916   6.503  3.4326  0.8469 -1.4031
 4167SOL     OW23959   1.634   1.877   2.534 -0.1685 -0.0104  0.0941
 4167SOL    HW123960   1.553   1.826   2.535  0.2666 -0.6219  2.2607
 4167SOL    HW223961   1.607   1.968   2.542  1.1267  0.2434  1.5226
 4168SOL     OW23962   1.607   3.600  11.316  0.0038 -0.1153  0.6260
 4168SOL    HW123963   1.614   3.619  11.409  3.2796 -1.3222  0.6477
 4168SOL    HW223964   1.616   3.686  11.276 -2.0946 -0.5802 -0.8563
 4169SOL     OW23965   1.095   4.323   3.389 -0.3391 -0.1889 -0.4793
 4169SOL    HW123966   1.054   4.384   3.450 -1.1909 -0.0849 -1.1468
 4169SOL    HW223967   1.123   4.387   3.324 -0.9069  1.0801  0.5518
 4170SOL     OW23968   3.748   2.248   8.810 -0.1713  0.5050 -0.3733
 4170SOL    HW123969   3.662   2.206   8.815  1.1852 -2.0585  1.0868
 4170SOL    HW223970   3.762   2.262   8.903 -1.6694 -2.4054  0.2842
 4171SOL     OW23971   3.584   1.361   9.735 -0.3143 -0.0086  0.1514
 4171SOL    HW123972   3.512   1.349   9.797  0.5341 -1.0640  0.9465
 4171SOL    HW223973   3.657   1.382   9.794  0.1855 -1.3895  0.0362
 4172SOL     OW23974   1.564   2.550   0.372 -0.0763 -0.1909  0.2570
 4172SOL    HW123975   1.518   2.561   0.455 -0.3508 -0.8210  0.1909
 4172SOL    HW223976   1.539   2.463   0.340  2.4501 -1.5876  1.9947
 4173SOL     OW23977   1.156   4.036   3.063 -0.5496 -0.0151 -0.4503
 4173SOL    HW123978   1.151   4.063   3.155  1.9650  1.2589 -0.6852
 4173SOL    HW223979   1.077   4.078   3.030 -1.2755 -0.6539  0.4732
 4174SOL     OW23980   2.605   2.978   9.380 -0.7480 -0.6712 -0.1636
 4174SOL    HW123981   2.681   2.956   9.434 -0.8682  1.7430  0.9959
 4174SOL    HW223982   2.652   3.015   9.305  3.1855 -1.7266  1.7712
 4175SOL     OW23983   3.988   0.353   6.409  0.0644 -0.1840  0.7238
 4175SOL    HW123984   3.972   0.284   6.473  0.7798 -0.0969  0.9938
 4175SOL    HW223985   4.048   0.323   6.341 -1.6997 -0.0112 -0.9302
 4176SOL     OW23986   2.209   0.078   1.181 -0.6600 -0.4115  0.5032
 4176SOL    HW123987   2.228   0.126   1.101  0.5041 -0.5319  0.7084
 4176SOL    HW223988   2.221   4.711   1.153  1.7987 -0.0718  0.3913
 4177SOL     OW23989   3.321   3.280  15.750 -0.1428  0.1829 -0.5825
 4177SOL    HW123990   3.265   3.328  15.811 -0.9611 -0.6059 -0.7108
 4177SOL    HW223991   3.330   3.194  15.791 -1.9970 -0.1489 -0.9029
 4178SOL     OW23992   1.499   2.754   4.351 -0.0254  0.4059  0.2868
 4178SOL    HW123993   1.561   2.762   4.423 -0.7304  0.6559  0.8601
 4178SOL    HW223994   1.447   2.834   4.359  1.4264  1.5009 -0.9680
 4179SOL     OW23995   2.343   1.426  12.201  0.4625 -0.5965 -0.6993
 4179SOL    HW123996   2.337   1.457  12.110 -0.3790 -0.2245 -0.5151
 4179SOL    HW223997   2.256   1.396  12.224 -0.3777  3.0350  0.7839
 4180SOL     OW23998   3.035   3.702   5.916  0.1230  0.4992 -0.6226
 4180SOL    HW123999   3.118   3.727   5.876 -0.2309  1.6303 -0.6365
 4180SOL    HW224000   2.975   3.759   5.868 -0.6194  0.2637  0.0275
 4181SOL     OW24001   3.457   3.803   8.806 -0.7619 -0.5164  0.3739
 4181SOL    HW124002   3.459   3.889   8.847  4.0768 -0.6663  0.4875
 4181SOL    HW224003   3.428   3.743   8.875  2.0659  0.6204  2.5414
 4182SOL     OW24004   1.795   3.570   5.175 -0.1375  0.4243 -0.0663
 4182SOL    HW124005   1.860   3.529   5.232  2.3323  1.2473 -2.3228
 4182SOL    HW224006   1.730   3.602   5.238 -0.9620 -2.3483  0.4880
 4183SOL     OW24007   4.539   1.573  12.717 -0.1915  0.1917  0.2929
 4183SOL    HW124008   4.550   1.478  12.713 -0.6686  0.0824  1.5799
 4183SOL    HW224009   4.542   1.611  12.629 -1.5941  2.2985  1.1417
 4184SOL     OW24010   4.102   0.213   1.843 -0.4663  0.2643 -0.1095
 4184SOL    HW124011   4.069   0.295   1.806 -0.1743 -0.2516 -1.5196
 4184SOL    HW224012   4.132   0.162   1.767  0.4528 -0.4802  0.7574
 4185SOL     OW24013   1.865   2.526  10.487 -0.0838 -0.5390  0.0125
 4185SOL    HW124014   1.881   2.609  10.443  1.3169 -0.3435  0.8995
 4185SOL    HW224015   1.771   2.531  10.501  0.3762 -0.8747  3.1309
 4186SOL     OW24016   0.939   3.283  15.320 -0.0972 -0.3720 -0.5212
 4186SOL    HW124017   0.869   3.226  15.289  0.1119 -1.1635  0.4879
 4186SOL    HW224018   0.964   3.241  15.402 -0.2564  1.7864  0.6560
 4187SOL     OW24019   3.291   0.408   6.366  0.1584 -0.2349  0.2477
 4187SOL    HW124020   3.291   0.490   6.416  0.9609  0.0772 -0.2792
 4187SOL    HW224021   3.202   0.375   6.380 -0.0535  0.4825  0.6266
 4188SOL     OW24022   4.368   0.451  15.828  0.1850  0.2819  0.1625
 4188SOL    HW124023   4.281   0.456  15.790 -0.0422  3.0842  1.0302
 4188SOL    HW224024   4.368   0.360  15.859  0.5770  0.5523  0.9797
 4189SOL     OW24025   0.631   4.366   5.489 -0.1879  0.5589 -0.0047
 4189SOL    HW124026   0.689   4.370   5.564  0.8727 -0.8939 -0.7529
 4189SOL    HW224027   0.548   4.399   5.523  0.0455  1.8317 -0.6652
 4190SOL     OW24028   0.486   0.197   1.717  0.1985  0.3112 -0.2381
 4190SOL    HW124029   0.444   0.112   1.698  1.8666 -0.6358  0.2851
 4190SOL    HW224030   0.425   0.255   1.672  1.5775  1.7405 -0.2636
 4191SOL     OW24031   3.419   1.556   2.201 -0.3364  0.6674  0.5061
 4191SOL    HW124032   3.460   1.641   2.184 -1.1461  0.9911  0.1554
 4191SOL    HW224033   3.480   1.497   2.157 -0.9981 -0.2942  0.8766
 4192SOL     OW24034   3.055   2.853  15.828  0.0072 -0.8103 -0.1556
 4192SOL    HW124035   2.990   2.920  15.809  0.9286  0.2826  0.5376
 4192SOL    HW224036   3.113   2.903  15.885 -1.3140  1.2656 -0.6687
 4193SOL     OW24037   3.159   0.198  13.709 -0.1648 -0.2319  0.6567
 4193SOL    HW124038   3.073   0.212  13.747 -0.2332 -1.6481  0.9880
 4193SOL    HW224039   3.213   0.265  13.752  0.7596  0.3573 -1.3958
 4194SOL     OW24040   1.634   3.898  11.619 -0.4973 -0.0551 -0.1372
 4194SOL    HW124041   1.640   3.804  11.604 -1.9276  0.2567 -2.5159
 4194SOL    HW224042   1.690   3.928  11.547  2.5136 -1.8078  1.4591
 4195SOL     OW24043   2.041   0.942   7.118 -0.0078  0.2418 -0.1742
 4195SOL    HW124044   1.954   0.937   7.077  0.4870 -1.4558 -1.0133
 4195SOL    HW224045   2.021   0.967   7.208 -1.7535 -3.8457  0.5904
 4196SOL     OW24046   3.616   0.566   6.251 -0.3322 -0.3403 -0.3377
 4196SOL    HW124047   3.679   0.506   6.211  0.2306 -0.0211  0.0573
 4196SOL    HW224048   3.647   0.571   6.342  1.5015 -1.1615 -0.9137
 4197SOL     OW24049   4.698   3.925   6.747 -0.4154  0.0540 -0.2860
 4197SOL    HW124050   4.635   3.970   6.690 -1.4651 -1.1784 -0.1222
 4197SOL    HW224051   0.049   3.981   6.729 -2.0050  1.5583 -2.3609
 4198SOL     OW24052   1.766   2.370  11.372 -0.1238  0.1786 -0.3849
 4198SOL    HW124053   1.730   2.443  11.422 -1.9647 -2.3114  1.9022
 4198SOL    HW224054   1.791   2.409  11.287  0.2253  1.0918  0.1373
 4199SOL     OW24055   4.370   1.299  12.946  0.2895  0.1038 -0.1921
 4199SOL    HW124056   4.276   1.296  12.932 -0.0039  2.2831  1.2420
 4199SOL    HW224057   4.374   1.391  12.972 -2.7645  0.5845 -1.4838
 4200SOL     OW24058   2.450   4.197   2.849  0.3251  0.0775  0.0310
 4200SOL    HW124059   2.392   4.174   2.776  0.8189  0.2151 -0.4069
 4200SOL    HW224060   2.505   4.120   2.862 -0.6358 -0.5639  0.2731
 4201SOL     OW24061   0.555   4.388   4.029  0.0930  0.0402  0.2965
 4201SOL    HW124062   0.460   4.385   4.022  0.0009  1.4211  0.9075
 4201SOL    HW224063   0.585   4.322   3.966 -1.0116 -0.4297  0.2605
 4202SOL     OW24064   0.343   2.433  13.783 -0.3326  0.1426  0.4186
 4202SOL    HW124065   0.412   2.394  13.836 -0.6501  0.4561  1.0614
 4202SOL    HW224066   0.379   2.521  13.772 -0.6434  0.1490 -0.5797
 4203SOL     OW24067   3.375   1.629  17.013 -0.2797  0.1859  0.2972
 4203SOL    HW124068   3.437   1.690  16.973 -0.5133  0.0926 -0.2048
 4203SOL    HW224069   3.369   1.670  17.100 -0.0930 -1.0599  0.8920
 4204SOL     OW24070   1.394   2.165  11.427 -0.1391  0.0745 -0.2779
 4204SOL    HW124071   1.432   2.078  11.441 -0.1723  0.1864  0.5429
 4204SOL    HW224072   1.410   2.168  11.333  1.5544 -0.8077 -0.0203
 4205SOL     OW24073   4.330   2.357  10.402 -0.0889 -0.0903  0.3618
 4205SOL    HW124074   4.354   2.294  10.333 -1.2081  0.6177 -0.6736
 4205SOL    HW224075   4.266   2.415  10.360 -0.2044  0.9831  2.0439
 4206SOL     OW24076   2.815   2.861   5.445 -0.4400 -0.1611  0.2947
 4206SOL    HW124077   2.791   2.933   5.504  1.4682 -0.4258  1.4188
 4206SOL    HW224078   2.867   2.804   5.502  0.1888 -0.7660 -0.8816
 4207SOL     OW24079   2.626   1.398   3.581 -0.4668 -0.0817  0.2881
 4207SOL    HW124080   2.636   1.404   3.486  2.3272  0.3116  0.6201
 4207SOL    HW224081   2.683   1.471   3.602 -0.0641  0.3972 -2.5032
 4208SOL     OW24082   4.466   1.659   6.631 -0.5363 -0.2330 -0.2839
 4208SOL    HW124083   4.456   1.665   6.726 -2.1594 -1.9139 -0.3442
 4208SOL    HW224084   4.461   1.750   6.600  0.2212 -0.2160 -0.3418
 4209SOL     OW24085   2.163   1.143   9.328  0.7082 -0.2134  0.1735
 4209SOL    HW124086   2.076   1.143   9.367  0.2994 -1.1328 -0.7472
 4209SOL    HW224087   2.185   1.051   9.345 -0.0209 -0.3899  0.1279
 4210SOL     OW24088   4.317   4.368   3.255  0.2577 -0.3300  0.4207
 4210SOL    HW124089   4.399   4.385   3.208  0.6917 -0.2683  1.2014
 4210SOL    HW224090   4.275   4.454   3.252 -0.6003 -0.7044  1.7236
 4211SOL     OW24091   3.426   2.540   8.587  0.5130 -0.0648  0.2281
 4211SOL    HW124092   3.514   2.514   8.614 -0.1151 -2.2997  0.1280
 4211SOL    HW224093   3.441   2.634   8.597  0.5783 -0.2355  1.7081
 4212SOL     OW24094   0.361   0.587   6.412 -0.9074 -0.0106  0.4346
 4212SOL    HW124095   0.381   0.673   6.375 -1.0063  0.3334  1.1852
 4212SOL    HW224096   0.288   0.607   6.470 -0.6794  1.0364  0.3642
 4213SOL     OW24097   0.638   3.354   7.255 -0.3733 -0.7545  0.0183
 4213SOL    HW124098   0.573   3.412   7.295 -0.3654 -2.3884  2.4094
 4213SOL    HW224099   0.713   3.413   7.255 -1.7326  0.9478 -2.2648
 4214SOL     OW24100   1.710   3.173   6.133  0.2769 -0.4612  0.4836
 4214SOL    HW124101   1.682   3.096   6.084  0.8690 -1.0198  1.0121
 4214SOL    HW224102   1.632   3.196   6.182 -0.6802  2.0046 -2.2368
 4215SOL     OW24103   0.102   3.603   8.915  0.0543  0.1879  0.0067
 4215SOL    HW124104   0.047   3.605   8.993 -2.7684 -3.1611 -1.8561
 4215SOL    HW224105   0.186   3.626   8.955 -0.2158 -2.3242  2.0369
 4216SOL     OW24106   4.601   4.615   2.274 -0.3547  0.1429 -0.1212
 4216SOL    HW124107   4.538   4.640   2.341  0.3099  1.9678 -0.1531
 4216SOL    HW224108   4.662   4.564   2.328 -1.2582  0.5830  1.3322
 4217SOL     OW24109   1.337   0.097   4.808 -0.2309  0.1617 -0.7714
 4217SOL    HW124110   1.392   0.145   4.870  0.6157 -1.6013 -0.1698
 4217SOL    HW224111   1.380   0.014   4.789 -0.0821 -0.3745  1.8020
 4218SOL     OW24112   1.998   2.655   5.137  0.4538  0.7507 -0.5683
 4218SOL    HW124113   2.008   2.750   5.143  0.8587  0.6969 -0.3816
 4218SOL    HW224114   1.914   2.650   5.092  0.3365 -0.7487 -0.1784
 4219SOL     OW24115   2.122   0.753   5.371  0.1726 -0.4533  0.0480
 4219SOL    HW124116   2.066   0.692   5.323  2.5660 -1.2608 -1.6968
 4219SOL    HW224117   2.190   0.697   5.407  0.7647  0.6195  0.6227
 4220SOL     OW24118   3.884   4.205   3.460  0.2787  0.0032 -0.1107
 4220SOL    HW124119   3.977   4.226   3.452 -0.9997  4.9406 -1.6548
 4220SOL    HW224120   3.863   4.283   3.510  1.7124  1.4819 -1.8423
 4221SOL     OW24121   1.682   2.985  14.915 -0.6929  0.1814  0.1730
 4221SOL    HW124122   1.602   2.935  14.931  1.4291 -3.2439  0.2316
 4221SOL    HW224123   1.747   2.924  14.951 -0.4374  0.9256  0.9990
 4222SOL     OW24124   1.104   1.970   5.259  0.4202  0.0373  0.3519
 4222SOL    HW124125   1.054   2.046   5.231  1.0890  1.0470  1.8537
 4222SOL    HW224126   1.075   1.970   5.350 -0.5204 -0.5428  0.0558
 4223SOL     OW24127   0.057   3.926   7.580  0.3909  0.2554 -0.2406
 4223SOL    HW124128   4.706   3.945   7.524 -0.6414  0.0895  1.0979
 4223SOL    HW224129   0.101   3.853   7.535  2.0283  0.2248  1.3908
 4224SOL     OW24130   3.023   0.962   5.702  0.0778 -0.1316 -0.0814
 4224SOL    HW124131   3.105   0.956   5.750  0.8747 -1.4279 -1.5915
 4224SOL    HW224132   3.015   1.057   5.691  1.8776 -0.0004 -0.1787
 4225SOL     OW24133   3.916   2.106   0.525 -0.1307  0.0354 -0.3988
 4225SOL    HW124134   3.951   2.018   0.514 -1.8631 -0.9234  1.6847
 4225SOL    HW224135   3.878   2.114   0.438 -2.5074  0.2354  0.6420
 4226SOL     OW24136   3.740   2.442   8.098 -0.7276  0.1743 -0.4275
 4226SOL    HW124137   3.676   2.502   8.136 -0.1939 -0.4931  1.5495
 4226SOL    HW224138   3.792   2.417   8.175 -0.1802  2.3663 -0.0806
 4227SOL     OW24139   2.455   2.585  16.483 -0.5052 -0.5824 -0.3089
 4227SOL    HW124140   2.514   2.600  16.409 -0.5526  0.4782 -0.1237
 4227SOL    HW224141   2.378   2.569  16.429 -0.0425  1.4708 -1.5827
 4228SOL     OW24142   1.522   2.784   1.436  0.0228 -0.1140  0.6623
 4228SOL    HW124143   1.609   2.823   1.433 -0.0580  0.1743  2.1455
 4228SOL    HW224144   1.525   2.736   1.353 -0.8015  1.3938 -0.2398
 4229SOL     OW24145   1.372   3.451  15.040  0.4390 -0.6745 -0.2114
 4229SOL    HW124146   1.314   3.461  14.965  0.5501 -0.6017 -0.2884
 4229SOL    HW224147   1.307   3.430  15.107  0.3279  0.3244  0.0004
 4230SOL     OW24148   2.166   4.166   2.745 -0.4434  0.7334 -0.2185
 4230SOL    HW124149   2.180   4.104   2.673  1.9220  1.2724 -0.2051
 4230SOL    HW224150   2.205   4.247   2.712 -0.9515  1.1279  0.1475
 4231SOL     OW24151   2.120   2.040  13.029 -0.6576  0.1496  0.0135
 4231SOL    HW124152   2.077   2.096  12.965 -1.4643  1.2329  1.4923
 4231SOL    HW224153   2.121   1.964  12.972 -1.7831  0.8324 -0.9055
 4232SOL     OW24154   2.477   3.920   3.850 -0.0350 -0.3240 -0.0979
 4232SOL    HW124155   2.385   3.899   3.862 -0.2468  1.8950  2.1223
 4232SOL    HW224156   2.510   3.854   3.912  0.5324  0.5328  0.5145
 4233SOL     OW24157   4.641   3.880   2.322  0.1477  0.2652  0.4387
 4233SOL    HW124158   4.688   3.938   2.262 -0.9992  1.2584  0.4966
 4233SOL    HW224159   4.569   3.855   2.265  0.3544  0.9547 -0.1186
 4234SOL     OW24160   0.984   1.121   7.863 -0.0981 -0.2774 -0.6679
 4234SOL    HW124161   0.896   1.149   7.888 -0.3678  0.1354 -2.0759
 4234SOL    HW224162   0.976   1.102   7.769  1.2542 -2.2533 -0.3917
 4235SOL     OW24163   3.180   2.844   4.184  0.0174 -0.2662  0.1866
 4235SOL    HW124164   3.272   2.833   4.205  0.2148  0.2901 -0.3826
 4235SOL    HW224165   3.139   2.877   4.265  0.9176 -2.1250  1.3974
 4236SOL     OW24166   1.513   4.224   5.795 -0.0336  0.2815 -0.1695
 4236SOL    HW124167   1.453   4.277   5.742  0.6358  0.9669 -0.2425
 4236SOL    HW224168   1.553   4.176   5.722  0.2073 -0.1895  0.2731
 4237SOL     OW24169   3.228   4.646   8.726 -0.2687 -0.0493 -0.1304
 4237SOL    HW124170   3.235   4.583   8.797 -1.2845  1.1757  1.0504
 4237SOL    HW224171   3.306   4.701   8.729  0.4090 -1.1098  1.3173
 4238SOL     OW24172   1.845   3.476  15.771 -0.6647 -0.1697 -0.0121
 4238SOL    HW124173   1.872   3.407  15.832 -1.6514  0.4100  1.0704
 4238SOL    HW224174   1.930   3.508  15.740  0.3654 -1.1971  1.7067
 4239SOL     OW24175   4.453   3.369  16.552 -0.3429 -0.2666  0.2954
 4239SOL    HW124176   4.397   3.322  16.614  0.1956 -2.1625 -0.6651
 4239SOL    HW224177   4.540   3.329  16.563 -0.3510 -0.4434 -0.2783
 4240SOL     OW24178   3.598   4.359   0.829  0.3110 -0.3504 -0.0886
 4240SOL    HW124179   3.641   4.398   0.752 -2.3160  0.3268 -1.2044
 4240SOL    HW224180   3.659   4.286   0.837  1.0802  0.2234 -0.6352
 4241SOL     OW24181   4.341   0.652   3.575 -0.1480 -0.0582  0.0768
 4241SOL    HW124182   4.354   0.747   3.585 -2.0342  0.2099 -0.0226
 4241SOL    HW224183   4.336   0.630   3.668 -4.0743 -0.1310 -0.1282
 4242SOL     OW24184   3.104   2.505   4.199  0.4470 -0.5929  0.3613
 4242SOL    HW124185   3.164   2.537   4.132  1.7860 -2.2912  0.7776
 4242SOL    HW224186   3.054   2.586   4.214 -0.6342 -0.9376 -1.3770
 4243SOL     OW24187   1.677   1.272   3.097  0.1662  0.3989  0.5607
 4243SOL    HW124188   1.731   1.208   3.052  1.2574  0.8534  1.2275
 4243SOL    HW224189   1.590   1.239   3.073  1.9779 -0.1549 -5.2329
 4244SOL     OW24190   2.368   4.659  13.124  0.7834  0.1339 -0.0307
 4244SOL    HW124191   2.280   4.676  13.090  0.4883  1.6246  1.4879
 4244SOL    HW224192   2.387   4.569  13.098  0.4051 -0.2404  0.9697
 4245SOL     OW24193   2.463   0.152   3.116 -0.2007 -0.2115  0.5706
 4245SOL    HW124194   2.440   0.213   3.046  0.0324 -2.0135 -1.0887
 4245SOL    HW224195   2.500   0.077   3.069 -0.4037  0.0249  0.0268
 4246SOL     OW24196   0.426   4.376  12.186 -0.4833  0.2038  0.0478
 4246SOL    HW124197   0.384   4.457  12.214  0.0311  0.5959 -0.3094
 4246SOL    HW224198   0.471   4.419  12.113 -2.4564  0.4409 -1.0465
 4247SOL     OW24199   0.435   2.630   3.282  0.1377 -0.5088 -0.3452
 4247SOL    HW124200   0.414   2.651   3.192 -0.6563 -0.9625 -0.2746
 4247SOL    HW224201   0.463   2.540   3.265 -0.4142 -0.9810  1.1807
 4248SOL     OW24202   1.231   0.549   1.925 -0.0083  0.1008 -0.1301
 4248SOL    HW124203   1.176   0.522   1.852  1.5873  2.1028 -2.0661
 4248SOL    HW224204   1.313   0.581   1.887  0.2158 -0.2862  0.0242
 4249SOL     OW24205   0.964   4.283   7.149  0.0035 -0.1871  0.2804
 4249SOL    HW124206   0.995   4.309   7.237  2.7966 -0.6244 -0.5687
 4249SOL    HW224207   0.971   4.188   7.153 -1.6233 -0.2170  2.7244
 4250SOL     OW24208   1.552   2.233   4.060 -0.2891 -0.0055 -0.3536
 4250SOL    HW124209   1.506   2.150   4.043  0.0943  0.1794 -2.1986
 4250SOL    HW224210   1.642   2.202   4.060 -1.7597 -4.3187 -1.2680
 4251SOL     OW24211   0.591   2.233   2.901 -0.0930 -0.4347  0.2517
 4251SOL    HW124212   0.630   2.320   2.885 -0.7494 -0.7693 -3.0869
 4251SOL    HW224213   0.513   2.266   2.946 -1.1845 -2.3149 -0.2829
 4252SOL     OW24214   1.790   3.173   4.771  0.2857  0.2020  0.4342
 4252SOL    HW124215   1.714   3.115   4.764 -0.2193  0.6556  2.3928
 4252SOL    HW224216   1.792   3.211   4.683  2.2505  0.1442  0.4340
 4253SOL     OW24217   2.654   3.379   0.152 -0.4807  0.1962  0.2172
 4253SOL    HW124218   2.628   3.460   0.196  0.6493  1.1759 -0.9458
 4253SOL    HW224219   2.745   3.378   0.181 -0.4533  0.4417  0.1396
 4254SOL     OW24220   2.794   3.631   0.951 -0.1175 -0.3380 -0.6414
 4254SOL    HW124221   2.866   3.577   0.982  0.5442  1.4673  0.8954
 4254SOL    HW224222   2.842   3.713   0.944 -0.3514 -0.2681 -1.5255
 4255SOL     OW24223   0.849   4.430   6.225  0.2122 -0.0006  0.0076
 4255SOL    HW124224   0.905   4.431   6.303  0.2995  1.0050 -0.0702
 4255SOL    HW224225   0.874   4.347   6.186 -2.8975 -1.3452  0.8668
 4256SOL     OW24226   3.241   0.608   7.168  0.4302  0.7112 -0.1198
 4256SOL    HW124227   3.222   0.660   7.090 -3.7585 -0.1395  0.3357
 4256SOL    HW224228   3.247   0.523   7.126  0.6474  0.1023  1.1489
 4257SOL     OW24229   2.183   1.878  16.813 -0.4297  0.2380  0.2665
 4257SOL    HW124230   2.158   1.851  16.902 -1.5569 -1.7210 -0.6426
 4257SOL    HW224231   2.105   1.923  16.781  0.3409 -0.0243 -1.9635
 4258SOL     OW24232   1.939   2.496   7.246  0.1679 -0.1105  0.2719
 4258SOL    HW124233   2.025   2.512   7.285  1.0627  0.9023 -2.0520
 4258SOL    HW224234   1.910   2.410   7.275 -0.3827 -0.8904 -2.5628
 4259SOL     OW24235   0.422   3.367   6.242  0.1104 -0.0120  0.1367
 4259SOL    HW124236   0.439   3.286   6.194  0.5404  1.0530 -1.4972
 4259SOL    HW224237   0.353   3.411   6.193 -0.0870  0.3561  0.7451
 4260SOL     OW24238   3.887   1.249   8.893 -0.4987 -0.1460  0.2987
 4260SOL    HW124239   3.924   1.335   8.910  1.0954 -0.5519 -1.0255
 4260SOL    HW224240   3.930   1.211   8.969  2.4921  2.9090  0.1626
 4261SOL     OW24241   4.373   3.644   0.749  0.0135  0.4805 -0.0365
 4261SOL    HW124242   4.407   3.676   0.832 -1.0329  3.1840 -0.6392
 4261SOL    HW224243   4.447   3.586   0.730 -0.1512  0.0427  0.6718
 4262SOL     OW24244   3.472   1.364  17.002 -0.1892  0.3559  0.2435
 4262SOL    HW124245   3.397   1.307  17.018 -0.9947  1.7366  1.4229
 4262SOL    HW224246   3.430   1.450  16.999 -2.3419 -0.6595  1.3850
 4263SOL     OW24247   1.131   2.174  12.072  0.1731 -0.1232  0.0332
 4263SOL    HW124248   1.143   2.267  12.087 -1.4071  0.7110 -3.9933
 4263SOL    HW224249   1.134   2.134  12.159 -0.7595 -0.8717 -0.2813
 4264SOL     OW24250   4.328   3.476   2.661 -0.0962 -0.3275 -0.3884
 4264SOL    HW124251   4.334   3.393   2.613  1.5419 -0.8079  0.6472
 4264SOL    HW224252   4.366   3.464   2.748  0.9449  1.3352 -0.6192
 4265SOL     OW24253   2.019   3.306   3.125  0.3258 -0.2806 -0.2887
 4265SOL    HW124254   2.009   3.397   3.096  0.7949 -0.2571 -0.3826
 4265SOL    HW224255   1.945   3.297   3.185 -0.2377  0.9125 -0.8022
 4266SOL     OW24256   0.579   1.876   0.094 -0.0789 -0.2972 -0.5950
 4266SOL    HW124257   0.605   1.790   0.126  1.6135  0.2050 -0.6616
 4266SOL    HW224258   0.506   1.886   0.155  0.9721 -1.6642  0.8848
 4267SOL     OW24259   0.312   3.775   8.280  0.0050 -0.5580 -0.4907
 4267SOL    HW124260   0.311   3.850   8.221  0.4318  1.6634  2.3579
 4267SOL    HW224261   0.374   3.798   8.349  0.1138  0.7482 -1.0367
 4268SOL     OW24262   0.715   2.504   6.048  0.0302  0.3686  0.2244
 4268SOL    HW124263   0.634   2.555   6.045 -1.4793 -1.9885  0.3640
 4268SOL    HW224264   0.770   2.568   6.092 -0.2475  0.7824 -0.0279
 4269SOL     OW24265   0.298   2.765   5.540  0.0830  0.4171 -0.2899
 4269SOL    HW124266   0.307   2.819   5.619 -2.3992 -2.1081  1.6825
 4269SOL    HW224267   0.350   2.685   5.544  0.2079  0.6013  1.7701
 4270SOL     OW24268   3.330   2.735   5.232  0.3308 -0.1723  0.2057
 4270SOL    HW124269   3.278   2.658   5.206  0.1086 -0.1805  0.6724
 4270SOL    HW224270   3.329   2.733   5.327 -1.9736  1.8903  0.2419
 4271SOL     OW24271   0.730   4.393   2.950  1.0829 -0.2084 -0.1436
 4271SOL    HW124272   0.705   4.477   2.912 -3.0646 -0.5417  1.8922
 4271SOL    HW224273   0.713   4.393   3.044 -0.8368  0.0368 -0.4911
 4272SOL     OW24274   4.531   0.374   1.825 -0.1306  0.1652  0.2257
 4272SOL    HW124275   4.522   0.469   1.810  0.0147 -0.0379 -1.1481
 4272SOL    HW224276   4.473   0.375   1.902 -1.2749  4.2562 -0.6518
 4273SOL     OW24277   1.159   1.543  10.749 -0.3192 -0.3935  0.2076
 4273SOL    HW124278   1.146   1.487  10.673 -0.1626  1.1056 -0.9112
 4273SOL    HW224279   1.173   1.474  10.814 -3.1054 -0.5594  0.6244
 4274SOL     OW24280   2.178   0.090   7.782 -0.6398  0.1369  0.0918
 4274SOL    HW124281   2.110   0.066   7.845 -0.4401 -1.0612 -0.1497
 4274SOL    HW224282   2.228   0.137   7.849  0.9129  1.5539 -2.0921
 4275SOL     OW24283   1.241   3.427   4.395 -0.2189  0.0223  0.4537
 4275SOL    HW124284   1.210   3.423   4.305  0.9390  0.1300  0.0509
 4275SOL    HW224285   1.286   3.511   4.405 -0.3269 -0.0249  1.3202
 4276SOL     OW24286   0.962   1.361   8.606  0.4436  0.2555  0.0745
 4276SOL    HW124287   0.952   1.443   8.655  3.0893  0.1091  0.8612
 4276SOL    HW224288   1.032   1.318   8.654 -1.8065 -1.3850  1.8284
 4277SOL     OW24289   3.602   0.729  10.440 -0.0055  0.2226 -0.0916
 4277SOL    HW124290   3.510   0.752  10.428 -0.4780 -1.7642 -0.2523
 4277SOL    HW224291   3.616   0.748  10.532 -2.4528 -3.4470  1.0308
 4278SOL     OW24292   0.225   1.936  11.510  0.2408  0.5667 -0.6739
 4278SOL    HW124293   0.257   2.021  11.538  0.5394  0.8277 -1.8029
 4278SOL    HW224294   0.230   1.948  11.415 -3.0788  2.1117 -0.6533
 4279SOL     OW24295   2.507   0.457  13.500  0.1659  0.3115 -0.0307
 4279SOL    HW124296   2.418   0.469  13.465  1.2363  4.5381 -1.3828
 4279SOL    HW224297   2.547   0.432  13.416 -2.4488  1.3811 -1.6184
 4280SOL     OW24298   3.055   3.251   7.080  0.2954 -0.2421  0.3869
 4280SOL    HW124299   3.138   3.204   7.082  0.6200  0.3507  0.9367
 4280SOL    HW224300   3.006   3.173   7.108 -1.0266  0.6213  0.4778
 4281SOL     OW24301   0.234   2.203  15.759  0.5384 -0.2601  0.0622
 4281SOL    HW124302   0.295   2.273  15.784  0.9826 -1.4431  2.3345
 4281SOL    HW224303   0.243   2.214  15.664 -0.0974  1.4446  0.1858
 4282SOL     OW24304   0.150   2.289   5.517 -0.1313  0.0539  0.3473
 4282SOL    HW124305   0.095   2.360   5.483  1.4039 -0.7034 -3.7106
 4282SOL    HW224306   0.150   2.230   5.441  0.2692  1.1782 -0.5227
 4283SOL     OW24307   1.017   4.345   6.881 -0.6617 -0.0746  0.1593
 4283SOL    HW124308   0.998   4.326   6.973  1.6725 -1.1547  0.4162
 4283SOL    HW224309   1.041   4.437   6.885 -3.3430  0.5108  2.7127
 4284SOL     OW24310   3.488   0.688  16.079  0.0465  0.2979  0.1491
 4284SOL    HW124311   3.446   0.761  16.033 -1.2501 -0.1061  0.6729
 4284SOL    HW224312   3.508   0.633  16.003 -2.2485  0.8046 -0.8422
 4285SOL     OW24313   1.586   1.714   6.616  0.3876 -0.7055 -0.4149
 4285SOL    HW124314   1.581   1.793   6.563  1.6771 -0.3887 -0.0875
 4285SOL    HW224315   1.623   1.652   6.553  0.9132 -2.2871  1.4408
 4286SOL     OW24316   0.896   2.973   6.055 -0.0163  0.1828 -0.3197
 4286SOL    HW124317   0.907   2.979   5.960 -1.3365  1.9440 -0.3545
 4286SOL    HW224318   0.920   2.882   6.072 -2.5890 -0.5179 -0.4507
 4287SOL     OW24319   0.488   4.645   4.757 -0.0374  0.0432  0.3402
 4287SOL    HW124320   0.507   4.574   4.696 -2.1732 -1.3754  1.3267
 4287SOL    HW224321   0.544   4.710   4.714 -1.1561 -0.3622 -1.7551
 4288SOL     OW24322   4.132   0.979   5.812  0.5724 -0.5646 -0.2797
 4288SOL    HW124323   4.145   0.995   5.906  2.0971  2.3635 -0.9737
 4288SOL    HW224324   4.131   0.884   5.819 -2.1319 -0.5080  0.1721
 4289SOL     OW24325   3.938   2.693  10.311  0.0023 -0.4892 -0.4206
 4289SOL    HW124326   3.963   2.772  10.358 -0.5691 -1.5727  1.6942
 4289SOL    HW224327   4.001   2.629  10.345 -2.1800 -0.9727  2.7143
 4290SOL     OW24328   3.628   2.063  12.164 -0.4052  0.1965 -0.0322
 4290SOL    HW124329   3.617   2.061  12.259  0.9820 -1.4396  0.0974
 4290SOL    HW224330   3.724   2.060  12.161 -0.3063  1.6522  1.7132
 4291SOL     OW24331   1.548   3.142   4.371  0.5514 -0.2071 -0.2955
 4291SOL    HW124332   1.588   3.228   4.360 -0.3509  0.5248  1.9783
 4291SOL    HW224333   1.469   3.167   4.420  0.7632 -0.0603 -0.0298
 4292SOL     OW24334   1.110   3.825  13.750 -0.6956  0.9522 -0.3682
 4292SOL    HW124335   1.173   3.853  13.817 -0.6175  1.3405 -0.6061
 4292SOL    HW224336   1.141   3.878  13.677 -2.0874  0.6507 -1.1760
 4293SOL     OW24337   2.799   2.625  17.050 -0.4554 -0.3915  0.6093
 4293SOL    HW124338   2.827   2.610  16.960 -0.8021 -0.3853  0.5007
 4293SOL    HW224339   2.794   2.721  17.045 -1.0424 -0.3393  1.9964
 4294SOL     OW24340   4.130   3.993  16.250  0.2742  0.0266  0.0305
 4294SOL    HW124341   4.132   3.979  16.155 -0.6369  2.1273 -0.2965
 4294SOL    HW224342   4.211   3.951  16.281 -1.0746  0.2194  3.8120
 4295SOL     OW24343   1.948   1.104   8.460  0.0621  0.6321  0.0139
 4295SOL    HW124344   2.028   1.095   8.511 -0.1954  1.0675  0.4876
 4295SOL    HW224345   1.953   1.193   8.428  0.1824  0.0687 -1.5203
 4296SOL     OW24346   0.208   1.633   4.137  0.0659 -0.1621  0.7342
 4296SOL    HW124347   0.285   1.597   4.181  0.8427 -0.9691 -1.3169
 4296SOL    HW224348   0.175   1.703   4.193 -0.1716  1.6248 -1.6456
 4297SOL     OW24349   1.963   0.504   4.194  0.4010  0.2592  0.1887
 4297SOL    HW124350   2.027   0.433   4.192  1.2453  0.9642  2.3519
 4297SOL    HW224351   1.938   0.509   4.286  0.7572  2.0478  0.1840
 4298SOL     OW24352   1.679   3.243  14.138 -0.2691 -0.7231  0.1173
 4298SOL    HW124353   1.629   3.236  14.220 -0.2730 -0.8661  0.1029
 4298SOL    HW224354   1.628   3.200  14.070  0.3733  0.0677 -0.8672
 4299SOL     OW24355   3.361   1.252  12.902  0.9071  0.2243 -0.0759
 4299SOL    HW124356   3.442   1.302  12.915 -0.2229  2.0651 -0.1444
 4299SOL    HW224357   3.302   1.326  12.915  1.3528  0.7955 -1.3901
 4300SOL     OW24358   4.159   2.236   7.246 -0.7975 -0.3504  0.5504
 4300SOL    HW124359   4.158   2.322   7.204  2.4083 -0.6625 -0.1376
 4300SOL    HW224360   4.162   2.265   7.337  0.4241 -0.9582  0.6929
 4301SOL     OW24361   4.013   3.872  12.606 -0.5476 -0.2430 -0.2463
 4301SOL    HW124362   3.941   3.812  12.629  1.0081 -2.4555 -1.1780
 4301SOL    HW224363   4.076   3.822  12.555 -0.4246  0.0492 -0.3809
 4302SOL     OW24364   0.801   3.770   4.140  0.6888 -0.3099 -0.2487
 4302SOL    HW124365   0.786   3.746   4.049  0.4932  0.5192 -0.4311
 4302SOL    HW224366   0.826   3.862   4.126  0.9250 -0.3000  0.2046
 4303SOL     OW24367   2.757   3.280  13.216 -0.2799 -0.2431  0.4863
 4303SOL    HW124368   2.724   3.344  13.279  2.1742  0.8906  0.5899
 4303SOL    HW224369   2.851   3.293  13.211 -0.2943 -0.5557 -0.5256
 4304SOL     OW24370   0.957   3.126   1.357  0.4574 -0.8144 -0.1148
 4304SOL    HW124371   1.038   3.174   1.337  0.2717 -0.8233 -0.9040
 4304SOL    HW224372   0.884   3.187   1.348 -0.6906 -2.0923  0.7484
 4305SOL     OW24373   0.609   1.976  14.286  0.3277 -0.1063  0.9715
 4305SOL    HW124374   0.693   1.930  14.285 -0.5235 -1.6082 -0.6884
 4305SOL    HW224375   0.553   1.906  14.320 -1.1742  0.4865 -0.2534
 4306SOL     OW24376   4.355   2.293   2.017  0.3344  0.3763 -0.4161
 4306SOL    HW124377   4.397   2.218   2.060 -0.3897 -0.5288 -1.2992
 4306SOL    HW224378   4.269   2.298   2.059  0.0859 -1.8412 -0.6532
 4307SOL     OW24379   3.576   3.712   7.128  0.2705  0.5994  0.7592
 4307SOL    HW124380   3.547   3.797   7.095  0.6802 -0.5644 -2.6057
 4307SOL    HW224381   3.530   3.716   7.212  0.7883 -1.7916  1.1467
 4308SOL     OW24382   3.351   0.218  16.025  0.0524  0.0075  0.2480
 4308SOL    HW124383   3.352   0.258  15.938 -2.0196  2.4865  1.3770
 4308SOL    HW224384   3.262   0.226  16.059 -0.2435  1.4100 -0.8886
 4309SOL     OW24385   0.881   0.339   6.347 -0.1370  0.4298  0.3574
 4309SOL    HW124386   0.955   0.393   6.374  0.5424  0.1058 -0.8595
 4309SOL    HW224387   0.833   0.389   6.281  0.0902  0.3163  0.1047
 4310SOL     OW24388   0.742   4.140  12.311 -0.1386  0.2963 -0.7156
 4310SOL    HW124389   0.761   4.100  12.226  0.7935  0.5998 -0.6563
 4310SOL    HW224390   0.687   4.077  12.357  0.4187  1.1927  1.1858
 4311SOL     OW24391   2.240   0.014   8.206 -0.1108 -0.2386  0.4090
 4311SOL    HW124392   2.254   0.068   8.128  0.8539  0.9295  1.3990
 4311SOL    HW224393   2.317   4.680   8.212 -0.1296 -0.1747  1.2526
 4312SOL     OW24394   2.782   0.078   3.828 -0.0758 -0.3415 -0.0289
 4312SOL    HW124395   2.714   0.069   3.896 -1.7063 -2.9169 -1.9565
 4312SOL    HW224396   2.735   0.063   3.746 -0.8699 -0.3690  0.4279
 4313SOL     OW24397   1.134   0.960   5.579 -0.0096 -0.3793  0.0165
 4313SOL    HW124398   1.208   0.983   5.524 -1.4299  1.5180 -1.1193
 4313SOL    HW224399   1.134   1.032   5.643 -1.4727  0.9337 -1.4378
 4314SOL     OW24400   4.047   1.112   7.412 -0.0568  0.1463 -0.1269
 4314SOL    HW124401   4.093   1.033   7.442  0.3590 -0.7001 -3.0263
 4314SOL    HW224402   3.955   1.090   7.426  0.0461  0.2775  0.7610
 4315SOL     OW24403   3.984   4.690   0.577 -0.3081  0.0096 -0.6580
 4315SOL    HW124404   4.005   4.670   0.486  1.8914  0.9254 -0.3538
 4315SOL    HW224405   3.888   4.692   0.576 -0.3302 -0.1618  0.5941
 4316SOL     OW24406   1.378   0.502   4.510  0.0610  0.0008  0.2057
 4316SOL    HW124407   1.401   0.485   4.419  0.1973 -1.2761  0.4796
 4316SOL    HW224408   1.324   0.426   4.531 -1.5827  0.5011 -2.2589
 4317SOL     OW24409   3.130   4.715   2.463 -0.0232  0.2368  0.2887
 4317SOL    HW124410   3.203   0.048   2.487  0.7324 -0.6385  0.0756
 4317SOL    HW224411   3.183   4.636   2.450  0.0337  0.4729 -0.9684
 4318SOL     OW24412   3.754   2.453   4.979 -0.3338 -0.0511 -0.4167
 4318SOL    HW124413   3.786   2.398   5.050  2.3770 -1.4281 -2.6934
 4318SOL    HW224414   3.780   2.539   5.012 -0.3298 -0.4367  0.5645
 4319SOL     OW24415   4.147   3.714   7.170  0.3251  0.5093  0.1426
 4319SOL    HW124416   4.081   3.770   7.129 -0.8497 -0.5813  0.5328
 4319SOL    HW224417   4.210   3.781   7.195 -1.9064  2.7671 -0.2767
 4320SOL     OW24418   0.310   4.024   7.198 -0.0423 -0.0440 -0.3578
 4320SOL    HW124419   0.325   3.962   7.127 -2.6328  0.4892 -1.3361
 4320SOL    HW224420   0.218   4.047   7.199 -0.4623 -1.7276 -0.4239
 4321SOL     OW24421   1.047   3.942   1.088 -0.3310  0.2244 -0.2620
 4321SOL    HW124422   0.979   3.989   1.040  0.1833  0.3390 -0.8920
 4321SOL    HW224423   0.981   3.906   1.147 -0.9937  0.5608 -0.8004
 4322SOL     OW24424   2.033   3.406   9.346 -0.0521  0.0946 -0.2416
 4322SOL    HW124425   2.116   3.361   9.362 -0.4822  0.5731  3.1859
 4322SOL    HW224426   1.990   3.392   9.430  1.1972  1.9138  0.6886
 4323SOL     OW24427   2.804   0.538   8.293 -0.0880 -0.2291  0.4592
 4323SOL    HW124428   2.759   0.559   8.375  0.6140 -1.5041  1.1746
 4323SOL    HW224429   2.848   0.621   8.275 -0.2273 -0.2094  0.2136
 4324SOL     OW24430   3.073   4.185   6.524  0.0921 -0.0709  0.5249
 4324SOL    HW124431   3.038   4.263   6.565  0.5661  0.2890  0.2468
 4324SOL    HW224432   3.044   4.125   6.592 -0.0296 -0.0581  0.4838
 4325SOL     OW24433   2.936   2.929   2.942 -0.6768 -0.1046 -0.4196
 4325SOL    HW124434   2.966   3.019   2.924 -2.3952  0.4632 -0.4281
 4325SOL    HW224435   2.841   2.938   2.947 -1.0301 -3.5992 -1.1575
 4326SOL     OW24436   4.043   4.195   9.704 -0.2381  0.0715 -0.2815
 4326SOL    HW124437   3.970   4.255   9.689 -0.1971  0.2100  0.0727
 4326SOL    HW224438   4.082   4.236   9.781  0.3539 -0.9104 -0.0695
 4327SOL     OW24439   4.311   0.025   0.083  0.0906 -0.1309 -0.1040
 4327SOL    HW124440   4.350   0.090   0.142  0.9324 -0.0681 -0.7206
 4327SOL    HW224441   4.240   4.710   0.133  1.5968 -1.4214  1.0098
 4328SOL     OW24442   2.710   3.129   0.475 -0.4431 -0.6442  0.0012
 4328SOL    HW124443   2.759   3.190   0.530  0.8257 -1.9319  0.2875
 4328SOL    HW224444   2.779   3.118   0.410 -0.7639 -0.9839 -0.2847
 4329SOL     OW24445   0.295   4.318   6.197  0.4073  0.0193  0.2184
 4329SOL    HW124446   0.331   4.387   6.252  1.0714 -0.8882  0.9094
 4329SOL    HW224447   0.221   4.367   6.159  0.4476  1.5776  2.1478
 4330SOL     OW24448   4.009   3.339  11.029 -0.1958  0.0587 -0.1572
 4330SOL    HW124449   3.974   3.428  11.036 -0.4740  0.0985 -1.9828
 4330SOL    HW224450   3.922   3.309  11.002 -1.3195  2.5311  0.7025
 4331SOL     OW24451   3.704   0.142   5.065  0.5697 -0.1102  0.4051
 4331SOL    HW124452   3.750   0.222   5.092 -2.2197  1.5332  0.3090
 4331SOL    HW224453   3.668   0.161   4.978  2.6206  1.4173 -0.1302
 4332SOL     OW24454   0.192   2.379   5.825 -0.4080  0.0671  0.4713
 4332SOL    HW124455   0.190   2.446   5.757  0.3489 -1.8639 -1.4464
 4332SOL    HW224456   0.124   2.328   5.780  0.2626 -1.0643  0.7405
 4333SOL     OW24457   1.086   0.890   5.095  0.0815  0.2694 -0.1596
 4333SOL    HW124458   1.105   0.964   5.038 -0.5510  1.1070  0.7143
 4333SOL    HW224459   1.038   0.834   5.033  0.7386 -0.4509 -0.0094
 4334SOL     OW24460   3.276   0.692   6.205 -0.0777 -0.6252 -0.1089
 4334SOL    HW124461   3.334   0.618   6.192  1.8229  1.2390 -2.2655
 4334SOL    HW224462   3.350   0.749   6.224 -2.1306  2.2794 -0.7073
 4335SOL     OW24463   1.448   3.616   4.456  0.0533 -0.3859  0.1772
 4335SOL    HW124464   1.498   3.617   4.538 -1.4925 -0.1086  1.1101
 4335SOL    HW224465   1.387   3.682   4.489 -1.0256 -1.3279  0.0524
 4336SOL     OW24466   4.670   4.020   3.944 -0.1355 -0.7632  0.1386
 4336SOL    HW124467   4.722   4.087   3.988  0.5513 -0.8494 -0.5628
 4336SOL    HW224468   4.675   3.942   3.999 -0.5431  0.0307  1.2963
 4337SOL     OW24469   0.810   1.440   3.943  0.2274  0.7390 -0.1466
 4337SOL    HW124470   0.774   1.422   3.856  0.6782  1.6678 -0.5259
 4337SOL    HW224471   0.738   1.489   3.981 -0.3963 -0.1522 -0.1705
 4338SOL     OW24472   2.574   4.170   2.526  0.2132 -0.4261 -0.2154
 4338SOL    HW124473   2.664   4.162   2.493 -0.2308  0.0639 -1.5393
 4338SOL    HW224474   2.577   4.109   2.599  0.9125  1.1251  1.0582
 4339SOL     OW24475   2.735   2.341  17.067  0.3000 -0.2636 -0.1050
 4339SOL    HW124476   2.656   2.336  17.013  0.1093 -1.5232  0.2848
 4339SOL    HW224477   2.749   2.434  17.049  1.6175 -0.3697  0.3929
 4340SOL     OW24478   3.697   2.085   5.973 -0.1131  0.0675  0.0588
 4340SOL    HW124479   3.736   1.999   5.964 -0.1343  0.1683 -1.0948
 4340SOL    HW224480   3.634   2.090   5.900 -0.0879  0.2968  0.0500
 4341SOL     OW24481   4.523   2.771  16.363  0.3566  0.6080 -0.2923
 4341SOL    HW124482   4.582   2.722  16.421 -1.4503  0.7537  1.6517
 4341SOL    HW224483   4.446   2.760  16.418 -0.3822  0.6320 -1.3225
 4342SOL     OW24484   2.381   3.798   7.167  0.5518  0.4617 -0.4762
 4342SOL    HW124485   2.476   3.808   7.168  0.7103 -1.2991  1.6559
 4342SOL    HW224486   2.382   3.707   7.197 -0.0706  0.7962  0.5689
 4343SOL     OW24487   0.850   2.639  16.448 -0.4318 -0.0648  0.1308
 4343SOL    HW124488   0.816   2.699  16.381  1.5203  0.0514 -0.7621
 4343SOL    HW224489   0.922   2.593  16.404 -0.9715 -0.3320 -0.4721
 4344SOL     OW24490   0.102   3.903   8.748 -0.4090 -0.0396  0.2479
 4344SOL    HW124491   0.044   3.964   8.796  1.0051  0.0058  1.8986
 4344SOL    HW224492   0.128   3.845   8.819  1.2534  0.6322  0.1918
 4345SOL     OW24493   1.621   2.322   8.336  0.2946  0.2242 -0.1487
 4345SOL    HW124494   1.646   2.371   8.414 -2.5976 -0.0872  0.9574
 4345SOL    HW224495   1.703   2.274   8.324 -0.5148 -1.0740 -0.4505
 4346SOL     OW24496   4.079   3.023   2.057  0.2898 -0.0194 -0.0099
 4346SOL    HW124497   4.162   3.028   2.010 -0.1648 -1.3940 -0.9480
 4346SOL    HW224498   4.119   3.017   2.144 -0.4249  1.3569  0.4167
 4347SOL     OW24499   3.832   4.315   4.574 -0.8021 -0.0570  0.0575
 4347SOL    HW124500   3.882   4.391   4.604 -1.7805  2.1414 -3.7513
 4347SOL    HW224501   3.883   4.246   4.615  2.1484  1.2863 -1.3421
 4348SOL     OW24502   3.919   2.682   7.023  0.1591  0.7796 -0.0498
 4348SOL    HW124503   3.981   2.712   6.957  0.3830  0.0983 -0.1492
 4348SOL    HW224504   3.901   2.593   6.993  1.7434  0.1876  0.6885
 4349SOL     OW24505   4.328   1.984  12.769  0.0556 -0.1409  0.1355
 4349SOL    HW124506   4.363   2.072  12.755  2.0034 -1.1214 -1.2475
 4349SOL    HW224507   4.359   1.978  12.859  1.5987  0.0213 -0.3733
 4350SOL     OW24508   3.502   1.415   0.486  0.0911  0.2473 -0.1399
 4350SOL    HW124509   3.528   1.506   0.502 -1.1629  0.6766 -0.5038
 4350SOL    HW224510   3.566   1.368   0.540 -0.3989  1.2913  1.3428
 4351SOL     OW24511   1.802   2.079   8.422  0.0188  0.1772 -0.6256
 4351SOL    HW124512   1.868   2.097   8.489 -0.9124  0.5731  0.1927
 4351SOL    HW224513   1.852   2.043   8.349  2.6577  2.8689 -0.1413
 4352SOL     OW24514   4.109   1.778   3.812  0.1831 -0.2181  0.5443
 4352SOL    HW124515   4.176   1.723   3.851  0.8118  1.0561  1.2535
 4352SOL    HW224516   4.031   1.722   3.809  0.5759 -0.9343  4.0360
 4353SOL     OW24517   2.218   0.465   5.468 -1.0602  0.3463 -0.1895
 4353SOL    HW124518   2.296   0.504   5.509  0.4983  0.2623 -3.0361
 4353SOL    HW224519   2.261   0.393   5.422 -1.5967 -0.1166  0.0286
 4354SOL     OW24520   2.842   0.990  12.676 -0.7548  0.3512  0.0264
 4354SOL    HW124521   2.906   0.940  12.625 -1.0561 -0.5924  0.5944
 4354SOL    HW224522   2.887   1.074  12.666 -0.5843  0.0956 -1.4090
 4355SOL     OW24523   1.647   1.007   5.870 -0.3770  0.3894  0.3835
 4355SOL    HW124524   1.588   0.942   5.832  1.4433 -0.1155 -1.6204
 4355SOL    HW224525   1.690   1.037   5.789 -1.7279  0.1570 -0.4163
 4356SOL     OW24526   3.892   2.085   0.243  0.3732  0.1724  0.3067
 4356SOL    HW124527   3.920   2.047   0.160 -0.4903  1.0342 -0.3906
 4356SOL    HW224528   3.851   2.165   0.210  0.0426  0.4364  1.3486
 4357SOL     OW24529   2.116   2.600   7.838  0.3342 -0.3745  0.1973
 4357SOL    HW124530   2.122   2.514   7.879 -1.2771 -1.8297 -2.6032
 4357SOL    HW224531   2.205   2.628   7.815  0.2138  0.0310  0.2291
 4358SOL     OW24532   3.978   4.017   4.961 -0.3648 -0.4503  0.4984
 4358SOL    HW124533   3.988   4.106   4.993  2.1766 -1.4083  2.3488
 4358SOL    HW224534   3.962   3.968   5.042  1.4281 -1.9457 -0.0617
 4359SOL     OW24535   3.577   4.290   3.641 -0.0148 -0.6196 -0.4825
 4359SOL    HW124536   3.649   4.350   3.622  0.0847 -1.0336 -1.4318
 4359SOL    HW224537   3.519   4.288   3.565 -0.5459 -1.6026 -0.0457
 4360SOL     OW24538   2.651   2.891   7.121 -0.1987  0.5274  0.2619
 4360SOL    HW124539   2.579   2.844   7.164 -1.2621  1.2680 -0.7073
 4360SOL    HW224540   2.637   2.875   7.028  0.0822  2.3696 -0.1067
 4361SOL     OW24541   0.514   4.421  13.920 -0.0273  0.1218  0.3436
 4361SOL    HW124542   0.433   4.434  13.869  0.8043  2.1160 -0.4495
 4361SOL    HW224543   0.537   4.332  13.892  2.1855  0.3805  1.4140
 4362SOL     OW24544   0.022   3.943   5.819 -0.5861  0.3144  0.2494
 4362SOL    HW124545   0.020   3.989   5.734  1.2006  1.9660  1.1002
 4362SOL    HW224546   0.065   4.014   5.868  4.0821 -0.9337 -2.0081
 4363SOL     OW24547   2.006   2.146   8.576 -0.3060  0.5161 -0.2432
 4363SOL    HW124548   2.011   2.225   8.631  2.3587 -0.6277  1.1702
 4363SOL    HW224549   2.031   2.078   8.639 -1.3702 -0.5335 -0.9560
 4364SOL     OW24550   2.517   2.650   9.697  0.8019 -0.4651  0.0239
 4364SOL    HW124551   2.553   2.689   9.776 -0.4274 -2.3581  1.5464
 4364SOL    HW224552   2.588   2.657   9.633 -0.8598  0.5887 -1.7393
 4365SOL     OW24553   0.215   2.877  16.556  0.1573 -0.3207 -0.0417
 4365SOL    HW124554   0.289   2.937  16.560 -0.0790  0.1150 -2.3185
 4365SOL    HW224555   0.149   2.945  16.539 -1.2821 -1.5056  0.8709
 4366SOL     OW24556   4.564   4.348  17.504 -0.0129 -0.1255 -0.5269
 4366SOL    HW124557   4.628   4.339  17.434  2.2319  0.4895  1.4274
 4366SOL    HW224558   4.524   4.435  17.501 -1.8881 -1.0124 -1.4850
 4367SOL     OW24559   0.378   3.738   5.725  0.0577  0.0763 -0.7139
 4367SOL    HW124560   0.352   3.816   5.773  0.4482  0.5294 -1.2503
 4367SOL    HW224561   0.473   3.751   5.732  0.1549 -1.0131 -0.0146
 4368SOL     OW24562   4.345   0.177  15.893  0.2882 -0.1519  0.5659
 4368SOL    HW124563   4.433   0.154  15.866  0.5068 -0.3777  1.4921
 4368SOL    HW224564   4.354   0.183  15.988 -3.4626 -0.2377  0.9352
 4369SOL     OW24565   0.944   3.405   6.639  0.6291 -0.4875  1.2230
 4369SOL    HW124566   0.971   3.320   6.604  3.2336  0.4889  0.8731
 4369SOL    HW224567   0.956   3.387   6.732  0.2086  0.5393  1.4839
 4370SOL     OW24568   1.624   3.239  15.329  0.3156 -0.3784  0.3578
 4370SOL    HW124569   1.632   3.147  15.354 -1.3251 -0.7463 -0.4784
 4370SOL    HW224570   1.547   3.247  15.273 -0.5326 -2.3323  1.2484
 4371SOL     OW24571   0.473   2.919   8.108 -0.0084 -0.1217 -0.0293
 4371SOL    HW124572   0.492   2.832   8.145 -0.0784  0.4681  1.4076
 4371SOL    HW224573   0.444   2.901   8.019  0.4183 -0.9686 -0.0005
 4372SOL     OW24574   1.757   0.153  12.778 -0.4767  0.3220  0.4277
 4372SOL    HW124575   1.717   0.110  12.854  2.2471 -2.7607  0.1233
 4372SOL    HW224576   1.802   0.229  12.814  0.1005 -0.1239  0.6346
 4373SOL     OW24577   4.072   0.337   8.359  0.0476  0.0873 -0.2311
 4373SOL    HW124578   4.083   0.345   8.454  2.3987  1.6429 -0.6304
 4373SOL    HW224579   4.059   0.428   8.332  0.5205  0.2795  0.1723
 4374SOL     OW24580   4.189   1.899   6.728 -0.1583  0.1474 -0.1175
 4374SOL    HW124581   4.170   1.911   6.821  1.0833  0.8362  0.0460
 4374SOL    HW224582   4.283   1.909   6.715 -0.2007 -0.6202 -0.9780
 4375SOL     OW24583   4.656   3.235  15.846 -0.3986 -0.7073  0.6165
 4375SOL    HW124584   4.571   3.245  15.889 -0.7323 -0.4318 -0.1146
 4375SOL    HW224585   4.693   3.159  15.891  0.1814 -0.7208  0.1109
 4376SOL     OW24586   0.205   2.277   4.516  0.0856  0.0184 -0.4870
 4376SOL    HW124587   0.207   2.294   4.422 -1.4217 -0.3578 -0.5933
 4376SOL    HW224588   0.110   2.280   4.524  0.3433  2.0674  1.9488
 4377SOL     OW24589   2.324   0.667   8.804  0.6054 -0.0272 -0.7421
 4377SOL    HW124590   2.364   0.660   8.891 -2.6099 -1.2647  0.6626
 4377SOL    HW224591   2.291   0.756   8.806 -1.3566 -0.7973  1.5752
 4378SOL     OW24592   2.889   2.285  14.496 -0.3182  0.1047 -0.4453
 4378SOL    HW124593   2.959   2.305  14.434 -0.2629 -0.0443 -0.4314
 4378SOL    HW224594   2.872   2.194  14.472  1.0875 -0.0160 -0.9657
 4379SOL     OW24595   4.575   0.174  15.742 -0.1025  0.3361 -0.1335
 4379SOL    HW124596   4.641   0.215  15.797  0.9475  0.1940 -1.2793
 4379SOL    HW224597   4.637   0.111  15.705 -0.1262 -0.8809  1.9353
 4380SOL     OW24598   0.254   3.202   3.077  0.6579 -0.0548  0.4128
 4380SOL    HW124599   0.195   3.202   3.152  1.0701  0.7335  0.7398
 4380SOL    HW224600   0.195   3.202   3.002  0.0484 -1.3391  0.8938
 4381SOL     OW24601   3.394   0.210   3.875  0.1282 -0.2698 -0.2135
 4381SOL    HW124602   3.305   0.173   3.866  0.9697 -2.0830 -1.1003
 4381SOL    HW224603   3.374   0.299   3.903  3.6757  0.8306 -1.2766
 4382SOL     OW24604   3.923   4.458   6.678  0.0113  0.1742 -0.0735
 4382SOL    HW124605   3.853   4.407   6.718 -0.3172  2.0142  1.6807
 4382SOL    HW224606   3.993   4.392   6.683 -0.9025 -0.7104  1.0679
 4383SOL     OW24607   1.893   0.700  13.012 -0.1298 -0.4778 -0.0639
 4383SOL    HW124608   1.868   0.683  12.921  0.6232  0.6943 -0.4933
 4383SOL    HW224609   1.894   0.796  13.008 -0.5327 -0.5109 -0.9960
 4384SOL     OW24610   0.901   0.376  10.021  0.4941  0.7364 -0.3480
 4384SOL    HW124611   0.886   0.283  10.038  0.5168  1.0976  1.5695
 4384SOL    HW224612   0.861   0.415  10.098  0.6872 -0.0007  0.1264
 4385SOL     OW24613   3.589   0.215   7.614  0.5074  0.0396  0.0177
 4385SOL    HW124614   3.572   0.169   7.532  3.3716  0.4389 -0.7816
 4385SOL    HW224615   3.677   0.252   7.607  0.7756 -0.1130  2.5131
 4386SOL     OW24616   1.764   1.860   5.151 -0.2495 -0.1856 -0.4382
 4386SOL    HW124617   1.730   1.867   5.061 -1.6442  0.4491  0.1368
 4386SOL    HW224618   1.771   1.955   5.164 -0.1660 -0.3364  0.5943
 4387SOL     OW24619   3.782   4.698  11.668  0.0465  0.5563 -0.1150
 4387SOL    HW124620   3.874   0.002  11.667 -0.0759  0.9744  0.5771
 4387SOL    HW224621   3.783   4.646  11.749  0.9516  1.0650  0.2002
 4388SOL     OW24622   2.054   0.570   2.038  0.1354 -0.2265 -0.4670
 4388SOL    HW124623   2.146   0.598   2.035  0.1331 -0.3884 -2.5708
 4388SOL    HW224624   2.039   0.567   2.132  1.7678  1.6493 -0.1279
 4389SOL     OW24625   0.006   3.072  15.088 -0.1527 -0.1390 -0.0540
 4389SOL    HW124626   0.006   3.065  15.183  1.4554 -3.0944 -0.2624
 4389SOL    HW224627   0.060   2.998  15.062 -0.9048 -0.3327 -1.0858
 4390SOL     OW24628   0.126   2.995   3.714 -0.4581 -0.3319  0.0646
 4390SOL    HW124629   0.054   3.034   3.665 -0.4210 -0.3534 -0.0069
 4390SOL    HW224630   0.154   3.059   3.779  0.9604  0.6057 -1.4787
 4391SOL     OW24631   1.078   3.661   6.695  0.1879  0.1681  0.5129
 4391SOL    HW124632   1.033   3.642   6.778  1.1519  2.2108  1.5054
 4391SOL    HW224633   1.046   3.584   6.647  0.7709  0.7971 -0.8876
 4392SOL     OW24634   0.425   2.706   8.611  0.6226  0.3905  0.1573
 4392SOL    HW124635   0.518   2.703   8.588  0.3312 -0.6083 -0.8583
 4392SOL    HW224636   0.426   2.716   8.707  2.3264 -2.1983  0.4022
 4393SOL     OW24637   2.922   2.092  14.004  0.1258 -0.0570 -0.4265
 4393SOL    HW124638   2.924   2.099  13.908 -0.7183  0.1742 -0.4212
 4393SOL    HW224639   2.947   2.001  14.023  0.0950 -0.1059 -0.6183
 4394SOL     OW24640   3.302   0.694   5.056 -0.5543 -0.6183 -0.2834
 4394SOL    HW124641   3.361   0.665   5.126 -1.0882 -0.6967  0.1373
 4394SOL    HW224642   3.249   0.615   5.046 -1.0404  0.0419 -2.6927
 4395SOL     OW24643   4.625   0.692  13.672 -0.5489  0.0395 -0.6314
 4395SOL    HW124644   4.611   0.785  13.688  2.1765  0.3691 -0.2750
 4395SOL    HW224645   4.612   0.649  13.757 -2.2297 -0.4538 -1.1370
 4396SOL     OW24646   2.646   3.370   3.262  0.5290 -0.0325  0.1683
 4396SOL    HW124647   2.709   3.383   3.333 -2.1650  0.5012  2.4668
 4396SOL    HW224648   2.705   3.320   3.206  1.0358  1.4008 -0.6004
 4397SOL     OW24649   3.571   0.290   1.660  0.9060 -0.2336 -0.0185
 4397SOL    HW124650   3.624   0.217   1.693  0.5329 -0.1253  0.8163
 4397SOL    HW224651   3.524   0.246   1.589 -0.0218 -0.6662  0.8656
 4398SOL     OW24652   3.450   3.231   4.090  0.4942 -0.0083 -0.4247
 4398SOL    HW124653   3.501   3.312   4.085  1.0069 -0.4103 -1.6682
 4398SOL    HW224654   3.465   3.187   4.006 -0.4895 -1.3597  0.1136
 4399SOL     OW24655   3.463   1.480   7.022  0.1263  0.0503 -0.4978
 4399SOL    HW124656   3.379   1.494   7.065  1.2132 -0.2147  1.7310
 4399SOL    HW224657   3.507   1.434   7.094 -1.4540  2.2189  1.8206
 4400SOL     OW24658   0.077   3.142   2.175  0.4093  0.0156  0.1444
 4400SOL    HW124659   0.020   3.176   2.244  0.3086 -0.3821  0.2581
 4400SOL    HW224660   0.157   3.192   2.190  0.3371 -0.5532  2.5156
 4401SOL     OW24661   1.437   0.918   5.700  0.1745  0.3194  0.5604
 4401SOL    HW124662   1.394   0.876   5.775 -2.4733 -0.6742 -1.5048
 4401SOL    HW224663   1.440   0.848   5.635 -1.5698  2.6058 -1.9671
 4402SOL     OW24664   4.598   0.734   1.408  0.0161  0.8204  0.0608
 4402SOL    HW124665   4.585   0.737   1.313 -3.8110 -1.5545  0.5065
 4402SOL    HW224666   4.692   0.744   1.419  0.0666  0.6521 -0.2136
 4403SOL     OW24667   1.907   3.868   7.740  0.1647 -0.4352 -0.3124
 4403SOL    HW124668   1.834   3.861   7.801  0.0980 -0.9052 -0.4423
 4403SOL    HW224669   1.952   3.948   7.769 -0.0558 -0.3911 -0.0946
 4404SOL     OW24670   2.600   2.850   9.945 -0.5061 -0.2800 -0.0756
 4404SOL    HW124671   2.592   2.897  10.028 -2.1222  1.3529 -1.1440
 4404SOL    HW224672   2.509   2.862   9.920 -1.1898  1.0601  2.9957
 4405SOL     OW24673   3.534   1.472   3.860 -0.3603 -0.1163  0.4401
 4405SOL    HW124674   3.572   1.384   3.858  0.6844  0.3257  0.5179
 4405SOL    HW224675   3.502   1.471   3.950  1.7130 -1.0840  1.1833
 4406SOL     OW24676   4.602   4.280  15.402  0.1060 -0.1467 -0.2984
 4406SOL    HW124677   4.524   4.332  15.381  0.3309  0.5435  0.5817
 4406SOL    HW224678   4.571   4.197  15.438 -1.2161  0.2434 -0.5353
 4407SOL     OW24679   0.061   2.414  14.826 -0.3113 -0.1394  0.4062
 4407SOL    HW124680   0.012   2.333  14.818  0.0991 -0.4805  1.3215
 4407SOL    HW224681   0.005   2.465  14.769  1.1633  0.5736 -0.3978
 4408SOL     OW24682   2.523   1.573  10.465  0.0733 -0.4132 -0.4784
 4408SOL    HW124683   2.590   1.627  10.507  2.1297 -2.2634 -1.3242
 4408SOL    HW224684   2.526   1.502  10.529  0.0094 -1.7444 -1.9197
 4409SOL     OW24685   1.270   1.593   6.178 -0.0395  0.1665  0.3060
 4409SOL    HW124686   1.349   1.556   6.218  0.4193  1.0386  0.2067
 4409SOL    HW224687   1.304   1.683   6.176  4.3285 -1.4859 -1.3043
 4410SOL     OW24688   3.167   1.385   6.699 -0.0917  0.6035 -0.3610
 4410SOL    HW124689   3.112   1.407   6.774  0.4796 -0.2157  0.2969
 4410SOL    HW224690   3.096   1.395   6.636 -1.7568  0.0954  1.4398
 4411SOL     OW24691   4.655   0.029  11.846 -0.6738  0.3021  0.5791
 4411SOL    HW124692   4.722   0.050  11.910 -0.3779  1.0232  0.0311
 4411SOL    HW224693   4.661   4.658  11.854  1.0267  0.0017 -3.9281
 4412SOL     OW24694   2.911   3.105   7.733 -0.1234  0.8150 -0.3920
 4412SOL    HW124695   2.879   3.028   7.781 -0.1342  2.4018  2.1393
 4412SOL    HW224696   2.842   3.169   7.746 -0.4619  0.4420 -0.3538
 4413SOL     OW24697   4.662   0.694   8.926  0.0633 -0.1539 -0.5818
 4413SOL    HW124698   4.651   0.789   8.928 -0.6851 -0.2596  0.2525
 4413SOL    HW224699   4.631   0.664   8.840 -1.7685  0.8638 -0.2684
 4414SOL     OW24700   1.026   0.196   2.542  0.5522 -0.3549  0.0613
 4414SOL    HW124701   1.059   0.173   2.455  1.0898 -3.0188  0.9608
 4414SOL    HW224702   1.031   0.290   2.557 -2.1590  0.1384 -2.2572
 4415SOL     OW24703   2.646   2.634   6.461  0.5367  0.1218  0.1248
 4415SOL    HW124704   2.699   2.601   6.388  0.1140  1.0979 -0.6298
 4415SOL    HW224705   2.689   2.716   6.486  0.2837  1.2730 -3.2104
 4416SOL     OW24706   2.576   1.689   2.122  0.5854  0.2542 -0.0775
 4416SOL    HW124707   2.670   1.688   2.143  0.4840 -0.7123  0.3597
 4416SOL    HW224708   2.583   1.702   2.028  0.6643  1.2170  0.0664
 4417SOL     OW24709   4.665   1.720  15.309  0.5245 -0.2387  0.0556
 4417SOL    HW124710   4.698   1.795  15.260 -3.3847  1.8514  0.6702
 4417SOL    HW224711   4.610   1.667  15.253  1.8176 -1.3629 -0.1631
 4418SOL     OW24712   2.949   3.902  16.457 -0.4784  0.2422 -0.0009
 4418SOL    HW124713   2.915   3.943  16.536  1.7944  0.0416  1.0816
 4418SOL    HW224714   2.876   3.920  16.398 -0.6339 -0.2599  0.0411
 4419SOL     OW24715   3.406   3.173   5.939  0.2095  0.1659  0.3206
 4419SOL    HW124716   3.450   3.181   5.855  0.1667 -1.5750  0.1474
 4419SOL    HW224717   3.317   3.208   5.929 -0.8539 -3.1511 -1.4866
 4420SOL     OW24718   0.156   2.155  10.115 -0.3062 -0.3269 -0.1957
 4420SOL    HW124719   0.140   2.246  10.141 -1.2024 -0.1574 -1.2955
 4420SOL    HW224720   0.168   2.176  10.022  2.4943  0.3695  0.2969
 4421SOL     OW24721   1.299   0.514   8.610 -0.3745  0.2356  0.5312
 4421SOL    HW124722   1.350   0.438   8.637  0.9665  1.2025  0.7074
 4421SOL    HW224723   1.357   0.583   8.641  0.3437  0.3188 -0.9678
 4422SOL     OW24724   3.811   4.698  13.138  0.2549 -0.9694 -0.3010
 4422SOL    HW124725   3.755   4.633  13.180  0.6611  0.2278  2.0646
 4422SOL    HW224726   3.825   4.664  13.049  1.1039 -2.0283  0.2355
 4423SOL     OW24727   2.859   1.038   6.309  0.3918  0.1448  0.7316
 4423SOL    HW124728   2.792   0.983   6.269 -1.8363  0.7654  3.5036
 4423SOL    HW224729   2.871   1.112   6.249 -0.8332  0.7783  1.2418
 4424SOL     OW24730   3.296   4.691   5.479  0.3247 -0.5907 -0.2202
 4424SOL    HW124731   3.329   0.055   5.498 -3.7617  0.2400  3.0357
 4424SOL    HW224732   3.212   4.689   5.525 -0.2821  1.7054 -1.2169
 4425SOL     OW24733   1.882   3.897  12.441 -0.7637  0.4635 -0.4939
 4425SOL    HW124734   1.959   3.880  12.387 -0.1786  1.6031 -0.0291
 4425SOL    HW224735   1.930   3.920  12.521 -1.2445  1.6128 -0.5245
 4426SOL     OW24736   1.382   1.831   2.994  0.2522 -0.0347 -0.0749
 4426SOL    HW124737   1.301   1.803   2.952  0.7502 -0.4437 -0.7640
 4426SOL    HW224738   1.427   1.747   2.996 -1.6465 -1.0583 -0.4661
 4427SOL     OW24739   0.298   1.225   2.496 -0.1354  0.5081  0.1350
 4427SOL    HW124740   0.393   1.231   2.490 -0.0111 -0.5875  1.0668
 4427SOL    HW224741   0.276   1.184   2.412 -5.0266  1.7752  0.7716
 4428SOL     OW24742   0.077   0.572   9.119  0.6049  0.0999 -0.4225
 4428SOL    HW124743   0.121   0.648   9.157  0.4497 -0.7424  1.4231
 4428SOL    HW224744   0.007   0.608   9.064  0.7490  0.5083 -0.3441
 4429SOL     OW24745   3.623   0.510   2.705 -0.1664 -0.5490  0.0168
 4429SOL    HW124746   3.588   0.552   2.626  0.9187 -0.1874 -0.2764
 4429SOL    HW224747   3.545   0.466   2.739  0.3511 -0.2313  1.6396
 4430SOL     OW24748   1.108   3.517   3.629  0.2992 -0.4130  0.1185
 4430SOL    HW124749   1.147   3.602   3.650  1.2004 -0.4296 -1.4700
 4430SOL    HW224750   1.019   3.524   3.664  0.5222  1.4631  0.3208
 4431SOL     OW24751   3.384   3.799  10.117 -0.7853  0.1930  0.1719
 4431SOL    HW124752   3.311   3.745  10.086 -1.3860 -0.0213  2.0100
 4431SOL    HW224753   3.351   3.888  10.119 -2.5485 -0.4343 -1.2127
 4432SOL     OW24754   0.977   1.377  11.626 -0.5830  0.7225 -0.1305
 4432SOL    HW124755   1.020   1.311  11.572 -2.4357 -1.0312  0.5393
 4432SOL    HW224756   1.048   1.440  11.641 -1.2479  1.3168  0.5141
 4433SOL     OW24757   2.823   3.998   9.105 -0.1382 -0.0979 -0.2205
 4433SOL    HW124758   2.792   3.908   9.095 -0.4777  0.1377 -1.2704
 4433SOL    HW224759   2.817   4.012   9.200  0.2797 -0.3279 -0.1601
 4434SOL     OW24760   2.516   2.471  16.962 -0.0306  0.1880 -0.7391
 4434SOL    HW124761   2.456   2.447  16.891 -1.5642  0.3650  0.4933
 4434SOL    HW224762   2.493   2.563  16.974 -0.3496  0.2577 -1.8178
 4435SOL     OW24763   0.195   1.590   4.497  0.2015  0.4255 -0.3655
 4435SOL    HW124764   0.162   1.665   4.448 -1.6719  0.3823  0.8289
 4435SOL    HW224765   0.145   1.526   4.446 -2.1118  2.2340 -0.3615
 4436SOL     OW24766   3.206   0.669   3.558 -0.3494 -0.4080 -0.3795
 4436SOL    HW124767   3.203   0.636   3.469 -3.0748 -0.2562 -0.3541
 4436SOL    HW224768   3.300   0.680   3.573 -0.0632  1.6446 -3.8864
 4437SOL     OW24769   0.108   1.398  14.436  0.2812 -0.5762 -0.0294
 4437SOL    HW124770   0.095   1.473  14.379  3.2270  0.2157  0.3511
 4437SOL    HW224771   0.107   1.445  14.519 -0.3477 -0.9547  0.1761
 4438SOL     OW24772   4.034   3.093  10.890 -0.1454  0.0975 -0.0744
 4438SOL    HW124773   3.962   3.154  10.871  0.3672  0.8990  0.5463
 4438SOL    HW224774   4.111   3.133  10.850  0.3714 -1.6282 -0.7910
 4439SOL     OW24775   2.730   0.847   0.811 -0.3684 -0.8561  0.1222
 4439SOL    HW124776   2.819   0.846   0.776 -0.2658 -2.5130  0.4132
 4439SOL    HW224777   2.702   0.763   0.773  0.4966 -0.7164 -0.8307
 4440SOL     OW24778   3.928   3.926  15.947  0.8314  0.8240 -0.2415
 4440SOL    HW124779   4.023   3.922  15.935  0.5756 -0.7836 -1.6090
 4440SOL    HW224780   3.910   3.833  15.942  1.0495  0.7683 -0.0185
 4441SOL     OW24781   2.860   0.921   4.837 -0.6045  0.0743  0.4001
 4441SOL    HW124782   2.903   0.876   4.909  1.6818  0.9219 -0.4290
 4441SOL    HW224783   2.847   1.011   4.867  0.4789  0.9511 -1.7194
 4442SOL     OW24784   4.446   2.745  15.733  0.3010  0.3708  0.3436
 4442SOL    HW124785   4.404   2.791  15.660 -0.3664  0.0166  0.5037
 4442SOL    HW224786   4.490   2.669  15.694  1.0663  0.7714  0.4227
 4443SOL     OW24787   0.813   0.854   8.042  0.3336 -0.0568  0.1815
 4443SOL    HW124788   0.887   0.805   8.005  0.1447 -0.2971  0.1187
 4443SOL    HW224789   0.852   0.882   8.125 -1.2427 -2.9025  1.8877
 4444SOL     OW24790   4.200   4.421   9.239 -0.1229 -0.1076  0.1998
 4444SOL    HW124791   4.177   4.351   9.301 -0.1039 -0.4918 -0.2245
 4444SOL    HW224792   4.189   4.494   9.300  0.0614 -0.3063  0.4710
 4445SOL     OW24793   3.295   3.170   3.169 -0.0269  0.0964 -0.1339
 4445SOL    HW124794   3.300   3.203   3.259  2.8144 -3.5730  0.9941
 4445SOL    HW224795   3.387   3.173   3.143 -0.0519  1.5751 -0.0536
 4446SOL     OW24796   1.892   1.647   4.331 -0.0642 -0.5174  0.3059
 4446SOL    HW124797   1.967   1.611   4.284  1.5949  4.5298 -0.9202
 4446SOL    HW224798   1.871   1.561   4.368  1.0911  0.2293  2.6979
 4447SOL     OW24799   3.614   1.338   7.203 -0.0095 -0.4688  1.1326
 4447SOL    HW124800   3.599   1.246   7.179 -0.2211 -0.3792  0.9243
 4447SOL    HW224801   3.600   1.328   7.297 -0.9568 -0.3801  0.9982
 4448SOL     OW24802   3.794   2.684   5.107  0.5243  0.4371  0.2541
 4448SOL    HW124803   3.717   2.731   5.077 -1.4018 -2.3582  0.7879
 4448SOL    HW224804   3.862   2.750   5.094  1.3280 -0.5602 -0.6770
 4449SOL     OW24805   4.333   4.679   2.218  0.1245  0.0670  0.2311
 4449SOL    HW124806   4.376   4.639   2.142 -0.1405 -0.0259  0.1287
 4449SOL    HW224807   4.296   0.032   2.176  1.5793  0.1564 -0.8958
 4450SOL     OW24808   2.148   0.663   6.562 -0.2658  0.1717  0.3245
 4450SOL    HW124809   2.084   0.615   6.508  1.5065 -1.0326 -0.7111
 4450SOL    HW224810   2.141   0.614   6.644 -1.5830  1.5003  1.0065
 4451SOL     OW24811   3.927   3.815   8.307  0.0059 -0.3705  0.6406
 4451SOL    HW124812   4.012   3.855   8.291 -0.9159  1.3299 -0.0326
 4451SOL    HW224813   3.891   3.883   8.365 -1.4563 -0.5830 -0.0106
 4452SOL     OW24814   0.308   0.809  14.899  0.1702 -0.1976  0.5444
 4452SOL    HW124815   0.253   0.876  14.860  0.3726 -0.1028  0.4192
 4452SOL    HW224816   0.248   0.794  14.972  1.5133  0.6814  1.8273
 4453SOL     OW24817   0.768   4.226   7.983  0.7314 -0.1700 -0.2972
 4453SOL    HW124818   0.679   4.205   8.010  1.1417  0.0485  1.2228
 4453SOL    HW224819   0.746   4.290   7.914  0.6427  0.8006  0.6350
 4454SOL     OW24820   3.681   1.887   8.679  0.4398  0.4509 -0.2654
 4454SOL    HW124821   3.701   1.891   8.773  3.2648 -0.8801 -0.7938
 4454SOL    HW224822   3.626   1.965   8.673  0.9617  0.4888 -4.3409
 4455SOL     OW24823   1.293   2.320  10.960 -0.2496  0.3309  0.6095
 4455SOL    HW124824   1.264   2.322  10.869  0.2311 -0.3306  0.4410
 4455SOL    HW224825   1.267   2.404  10.997 -4.7034 -0.8733  0.1581
 4456SOL     OW24826   0.771   2.019   4.422  0.3131  0.3578 -0.5183
 4456SOL    HW124827   0.849   2.073   4.409  0.8721 -0.0478  1.1825
 4456SOL    HW224828   0.759   2.029   4.516  0.1203  2.8633 -0.8200
 4457SOL     OW24829   4.244   1.214   4.888 -0.7190 -0.2635 -0.3629
 4457SOL    HW124830   4.258   1.191   4.980  0.0123  0.1733 -0.3662
 4457SOL    HW224831   4.212   1.128   4.860 -1.2893  0.9643 -3.4544
 4458SOL     OW24832   1.369   2.715   3.846 -0.4191 -0.4232  0.1996
 4458SOL    HW124833   1.357   2.647   3.912 -0.9307 -0.3755  0.1604
 4458SOL    HW224834   1.448   2.672   3.816 -0.0363  0.1448  0.4012
 4459SOL     OW24835   2.121   4.023   3.690  0.5277  0.3254  0.8025
 4459SOL    HW124836   2.076   4.103   3.718  0.1110 -0.4956  2.5118
 4459SOL    HW224837   2.048   3.961   3.696  0.8118 -0.0192  0.6460
 4460SOL     OW24838   0.209   2.713   8.454  0.2814  0.0635  0.9103
 4460SOL    HW124839   0.289   2.712   8.506 -0.5675 -2.3225  2.1444
 4460SOL    HW224840   0.203   2.622   8.427  0.9025  0.2100  0.2744
 4461SOL     OW24841   1.599   2.991   3.666 -0.1421 -0.0603  0.9684
 4461SOL    HW124842   1.617   2.908   3.708 -1.7975 -0.9641 -0.0994
 4461SOL    HW224843   1.504   2.999   3.664 -0.0228  1.1864  0.1005
 4462SOL     OW24844   2.326   3.251   1.859  0.1592  0.1820 -0.1261
 4462SOL    HW124845   2.313   3.251   1.764  0.5559 -0.2431 -0.1822
 4462SOL    HW224846   2.239   3.217   1.880  0.8635 -1.2210  0.5155
 4463SOL     OW24847   4.690   0.388   4.713  0.4721 -0.2407 -0.0378
 4463SOL    HW124848   4.621   0.453   4.727 -1.7650 -2.7807  0.7711
 4463SOL    HW224849   4.643   0.339   4.645  0.8598  1.2182 -1.3576
 4464SOL     OW24850   4.353   0.313   4.749 -0.8704 -0.3066  0.3219
 4464SOL    HW124851   4.445   0.328   4.771 -0.7626  0.1256 -0.4456
 4464SOL    HW224852   4.311   0.397   4.768  1.4255  1.4060 -2.2933
 4465SOL     OW24853   4.219   4.155   9.068 -0.1048 -0.1494 -0.0294
 4465SOL    HW124854   4.278   4.129   9.139  1.2264  1.6513 -0.4784
 4465SOL    HW224855   4.188   4.065   9.059  0.3986 -0.4085  0.8090
 4466SOL     OW24856   1.218   3.070  14.734  1.0253  0.3100 -0.2258
 4466SOL    HW124857   1.135   3.027  14.718  0.7399 -0.3112  2.8817
 4466SOL    HW224858   1.191   3.160  14.715 -1.5399  0.1873  2.8477
 4467SOL     OW24859   1.071   1.137  10.662  0.2708  0.6840  0.6377
 4467SOL    HW124860   1.151   1.107  10.705  1.8615  4.4186  0.2779
 4467SOL    HW224861   1.006   1.088  10.712  1.6154 -0.8383  0.8758
 4468SOL     OW24862   0.771   4.529  14.399  0.2762 -0.3967  0.5025
 4468SOL    HW124863   0.777   4.486  14.484 -0.9840 -3.7447 -1.0955
 4468SOL    HW224864   0.683   4.508  14.367  0.8793  0.6650 -1.9180
 4469SOL     OW24865   1.855   3.794  16.052 -0.6218 -0.4200 -0.4709
 4469SOL    HW124866   1.788   3.728  16.070 -0.6442 -0.1651  0.3851
 4469SOL    HW224867   1.848   3.807  15.957  1.7043  0.2277 -0.5482
 4470SOL     OW24868   3.456   2.740   3.480  0.3903  0.2669 -0.0947
 4470SOL    HW124869   3.413   2.766   3.562 -0.1884  1.7221 -0.8557
 4470SOL    HW224870   3.380   2.695   3.442  0.0411 -0.1902  1.1433
 4471SOL     OW24871   2.462   0.339   4.028 -0.0597  0.3622 -0.1994
 4471SOL    HW124872   2.479   0.275   3.959  0.5684 -1.2007  1.4058
 4471SOL    HW224873   2.378   0.376   4.001 -1.3417  0.8673  4.5180
 4472SOL     OW24874   1.414   0.976   7.317  0.3934 -0.1159 -0.1689
 4472SOL    HW124875   1.360   1.054   7.311  0.0391 -0.3285  0.2348
 4472SOL    HW224876   1.501   1.013   7.333 -0.2603  0.2791  2.5874
 4473SOL     OW24877   0.595   0.988   6.728  0.2194 -0.0706 -0.7664
 4473SOL    HW124878   0.669   1.039   6.762 -1.2488 -0.0963  2.3609
 4473SOL    HW224879   0.514   1.037   6.741 -0.7931 -2.3431  1.4553
 4474SOL     OW24880   2.016   2.167   1.172 -0.0070 -0.3647 -0.0449
 4474SOL    HW124881   1.953   2.120   1.117 -2.2056 -0.1241  2.2859
 4474SOL    HW224882   2.057   2.227   1.109 -0.8990  0.6185  0.3087
 4475SOL     OW24883   0.980   2.883  15.230 -0.5453 -0.2417 -0.3195
 4475SOL    HW124884   0.982   2.795  15.192 -1.0500 -0.0637 -0.7576
 4475SOL    HW224885   0.987   2.853  15.320  3.6685 -0.4008 -0.6892
 4476SOL     OW24886   1.527   3.792   2.985 -0.1657 -0.0622 -0.1614
 4476SOL    HW124887   1.549   3.800   2.892 -2.2557 -2.2665 -0.8212
 4476SOL    HW224888   1.440   3.753   2.979 -0.5000  0.5445  0.7436
 4477SOL     OW24889   1.258   3.284  16.276 -0.0771  0.0141  0.3550
 4477SOL    HW124890   1.349   3.256  16.262  0.2576  1.1046  0.3938
 4477SOL    HW224891   1.239   3.315  16.187 -0.3492 -0.5189  0.2284
 4478SOL     OW24892   1.891   0.878  10.598 -0.1636  0.1634 -0.1212
 4478SOL    HW124893   1.845   0.825  10.663  2.6764 -2.4142 -0.1994
 4478SOL    HW224894   1.836   0.956  10.604 -1.0252 -0.4949  0.6128
 4479SOL     OW24895   3.498   3.366   6.144 -0.6006 -0.1948 -0.5530
 4479SOL    HW124896   3.492   3.301   6.074 -2.2457 -0.3897 -0.2534
 4479SOL    HW224897   3.433   3.331   6.207 -0.2554  0.3270  0.0903
 4480SOL     OW24898   2.768   3.389   6.723 -0.3809  0.2352  0.1172
 4480SOL    HW124899   2.827   3.329   6.678  1.3438  2.8300 -1.0672
 4480SOL    HW224900   2.795   3.469   6.679 -0.2915 -0.1662 -0.5577
 4481SOL     OW24901   0.873   3.860   6.108 -0.2579 -0.1283  0.5867
 4481SOL    HW124902   0.898   3.910   6.186  0.2538  0.8555 -0.2123
 4481SOL    HW224903   0.956   3.859   6.060 -0.9055 -1.4646 -0.5032
 4482SOL     OW24904   0.324   1.401   7.974  0.6072 -0.6081 -0.7189
 4482SOL    HW124905   0.334   1.324   8.030  1.9706  0.6739  0.8153
 4482SOL    HW224906   0.378   1.471   8.011 -1.9783  0.8533  0.2219
 4483SOL     OW24907   2.349   2.137   6.353 -0.4946 -0.2332 -0.9245
 4483SOL    HW124908   2.258   2.132   6.382 -0.1666  0.9393  0.2990
 4483SOL    HW224909   2.342   2.215   6.299  1.3244  1.4269  1.2343
 4484SOL     OW24910   0.372   2.503   4.330 -0.0619 -0.0631 -0.4603
 4484SOL    HW124911   0.362   2.465   4.418  1.2873  1.8180  0.5096
 4484SOL    HW224912   0.352   2.596   4.345 -0.4319 -0.1199 -0.5930
 4485SOL     OW24913   4.389   0.152   3.590  0.0475 -0.0057  0.5622
 4485SOL    HW124914   4.321   0.184   3.531  1.2372 -0.7004 -1.1713
 4485SOL    HW224915   4.371   0.058   3.595  0.9036 -0.2198 -0.5225
 4486SOL     OW24916   1.143   2.121   3.722 -0.0257  0.3737 -0.6091
 4486SOL    HW124917   1.055   2.149   3.745 -0.2451  0.9208 -2.0866
 4486SOL    HW224918   1.190   2.198   3.754  1.3984 -0.4665 -0.6853
 4487SOL     OW24919   3.147   4.049   8.423  0.5019 -0.3610 -0.0041
 4487SOL    HW124920   3.219   3.991   8.447 -0.4834 -2.1036 -1.3646
 4487SOL    HW224921   3.072   3.990   8.432  0.1739  0.0975  0.2968
 4488SOL     OW24922   3.930   0.307   5.156 -0.7805  0.6430 -0.4677
 4488SOL    HW124923   4.018   0.287   5.121 -0.7730 -1.0296  0.4853
 4488SOL    HW224924   3.939   0.271   5.244  1.8708  0.8044 -0.6712
 4489SOL     OW24925   1.582   0.761   5.127  0.2391 -0.0320 -0.1577
 4489SOL    HW124926   1.506   0.714   5.160  0.0550  0.1189 -0.3614
 4489SOL    HW224927   1.538   0.834   5.083  0.8953 -0.2379 -1.1548
 4490SOL     OW24928   1.772   1.503  12.293 -0.0753 -0.2974  0.5565
 4490SOL    HW124929   1.728   1.545  12.367 -0.8418  1.0013 -0.6303
 4490SOL    HW224930   1.860   1.487  12.326  0.5074 -0.0974 -0.9424
 4491SOL     OW24931   0.951   4.503   7.552 -0.7464  0.2494  0.6840
 4491SOL    HW124932   0.907   4.421   7.532  0.6835 -1.0571  2.8844
 4491SOL    HW224933   1.038   4.491   7.515 -0.4187  0.4523  1.3767
 4492SOL     OW24934   3.028   1.662   6.652 -0.7934  0.3636  0.1499
 4492SOL    HW124935   2.943   1.622   6.632 -1.0150  0.4448  0.9404
 4492SOL    HW224936   3.050   1.715   6.575 -0.7591 -0.5878 -0.4945
 4493SOL     OW24937   1.810   1.138  12.188  0.3294 -0.4931 -0.7819
 4493SOL    HW124938   1.849   1.074  12.129 -1.0581 -0.4683 -1.7228
 4493SOL    HW224939   1.863   1.126  12.267  0.4051  1.0193 -0.6018
 4494SOL     OW24940   0.367   1.217   8.195 -0.0951  0.7408  0.0232
 4494SOL    HW124941   0.298   1.245   8.256  0.6913  2.2454  0.2059
 4494SOL    HW224942   0.440   1.214   8.256 -0.4358 -0.0541  0.3890
 4495SOL     OW24943   1.663   4.323   8.234 -0.1618  0.4374  0.3231
 4495SOL    HW124944   1.651   4.399   8.291 -1.7538  0.4021  0.0278
 4495SOL    HW224945   1.581   4.274   8.244  0.1488  0.3777  2.6505
 4496SOL     OW24946   2.813   0.600   9.452 -0.1515 -0.2380 -0.4240
 4496SOL    HW124947   2.826   0.683   9.407  0.7572 -1.8530 -3.2129
 4496SOL    HW224948   2.801   0.534   9.383  1.0749 -0.4721 -0.4205
 4497SOL     OW24949   4.267   3.754   4.251 -0.1687  0.1806  0.0779
 4497SOL    HW124950   4.219   3.738   4.170  1.0050 -5.4047  0.4720
 4497SOL    HW224951   4.191   3.762   4.308  0.2226  0.0445  0.6149
 4498SOL     OW24952   3.842   3.647  12.219 -0.0577  0.1038  0.5297
 4498SOL    HW124953   3.931   3.622  12.244  0.3040 -1.2901 -2.1335
 4498SOL    HW224954   3.789   3.590  12.275 -1.7242  0.7412 -0.4056
 4499SOL     OW24955   2.842   1.977   4.984  0.4786 -0.1677 -0.1939
 4499SOL    HW124956   2.898   2.052   5.003 -1.2962  0.9529  0.6885
 4499SOL    HW224957   2.767   1.988   5.044  0.6495  0.8536 -0.1684
 4500SOL     OW24958   1.170   3.822   7.541  0.1234 -0.1294  0.7306
 4500SOL    HW124959   1.090   3.865   7.511  1.5610  1.1873 -1.1045
 4500SOL    HW224960   1.186   3.847   7.632 -3.1683  0.1015  1.2373
 4501SOL     OW24961   0.143   3.471  15.347  0.5668  0.0155 -0.1085
 4501SOL    HW124962   0.155   3.378  15.367 -3.7269 -1.1376 -2.9466
 4501SOL    HW224963   0.163   3.480  15.254  1.2230  0.0635  0.0413
 4502SOL     OW24964   3.328   1.083  10.712  0.6225  0.2208  0.3229
 4502SOL    HW124965   3.417   1.105  10.739  1.0960  0.2344 -1.2287
 4502SOL    HW224966   3.323   0.990  10.734 -1.4485  0.6123  1.5165
 4503SOL     OW24967   0.812   1.842   9.088  0.3938  0.5486 -0.1603
 4503SOL    HW124968   0.812   1.907   9.158  1.8325  0.3033  0.0862
 4503SOL    HW224969   0.884   1.868   9.031 -2.0946  0.1983 -3.4248
 4504SOL     OW24970   2.449   4.408  16.289 -0.5960  0.2458  0.5547
 4504SOL    HW124971   2.441   4.455  16.205  1.8142  2.7970  1.7269
 4504SOL    HW224972   2.449   4.482  16.350 -1.5669  0.6154  0.1075
 4505SOL     OW24973   4.063   1.460   7.912  0.4100  0.4768 -0.1019
 4505SOL    HW124974   4.058   1.517   7.835  1.6130  0.9781  0.1951
 4505SOL    HW224975   3.968   1.454   7.926  0.1849  1.0419 -1.3546
 4506SOL     OW24976   3.992   2.022   3.915 -0.4203 -0.1805  0.0916
 4506SOL    HW124977   4.075   2.038   3.870 -0.5951 -0.3493 -0.2972
 4506SOL    HW224978   3.941   2.015   3.834  0.5712 -2.6384 -0.3054
 4507SOL     OW24979   2.648   0.266   4.591 -0.2548  0.4747  0.1126
 4507SOL    HW124980   2.603   0.323   4.529 -1.0795  1.4150  1.5555
 4507SOL    HW224981   2.661   0.323   4.667 -0.4982  1.8362 -0.8732
 4508SOL     OW24982   1.614   0.918  14.875  0.2098 -0.4726  0.6261
 4508SOL    HW124983   1.539   0.978  14.877  0.3771 -0.2897  1.4397
 4508SOL    HW224984   1.679   0.985  14.850 -0.2067 -0.0745  0.6154
 4509SOL     OW24985   1.838   0.144   3.839  0.5970  0.8287 -0.4574
 4509SOL    HW124986   1.845   0.237   3.862  1.2899  0.6082  0.2184
 4509SOL    HW224987   1.827   0.098   3.922 -0.0704  1.4345 -0.2135
 4510SOL     OW24988   3.127   0.437   9.440  0.7506 -0.2832  0.1382
 4510SOL    HW124989   3.180   0.474   9.511 -2.6211  0.0767  2.4490
 4510SOL    HW224990   3.107   0.507   9.378 -0.9358 -0.9997 -0.1290
 4511SOL     OW24991   0.214   1.543   9.010 -0.0406 -0.2778 -0.2232
 4511SOL    HW124992   0.122   1.534   8.985 -0.4031 -0.6001  1.2457
 4511SOL    HW224993   0.217   1.634   8.979 -1.8463  0.3780  1.5492
 4512SOL     OW24994   0.423   1.386   7.705 -0.0843 -0.0778  0.6369
 4512SOL    HW124995   0.377   1.353   7.782 -2.2795  1.1658 -0.1383
 4512SOL    HW224996   0.440   1.300   7.667 -2.1510 -0.2550  0.0755
 4513SOL     OW24997   2.353   3.163  14.566 -0.2267 -0.0048 -0.2445
 4513SOL    HW124998   2.384   3.159  14.656  1.0661 -1.8903 -0.7831
 4513SOL    HW224999   2.269   3.129  14.597 -0.4223  1.1326  0.4755
 4514SOL     OW25000   1.890   0.843  16.738 -0.1120  0.3124  0.0295
 4514SOL    HW125001   1.972   0.864  16.694 -1.4354 -0.2543 -2.7561
 4514SOL    HW225002   1.915   0.839  16.830  3.9060  1.2883 -1.0337
 4515SOL     OW25003   2.943   2.522  15.812 -0.3022 -0.8394 -0.0324
 4515SOL    HW125004   2.908   2.560  15.893 -2.5729 -1.1548 -0.8489
 4515SOL    HW225005   3.020   2.578  15.800  0.1841 -1.0121  2.1432
 4516SOL     OW25006   1.601   1.808  11.219 -0.1465  0.7834  0.7226
 4516SOL    HW125007   1.604   1.833  11.126 -0.3140 -1.7911  0.0347
 4516SOL    HW225008   1.585   1.714  11.218 -2.2305  1.1445  0.7755
 4517SOL     OW25009   3.052   1.180   1.974  0.2059 -0.0307  0.5140
 4517SOL    HW125010   2.977   1.236   1.956  0.1397 -0.5086 -0.6811
 4517SOL    HW225011   3.120   1.246   1.968 -2.5123  2.7797  0.6467
 4518SOL     OW25012   2.162   1.899   0.900 -0.2130 -0.2443 -0.2170
 4518SOL    HW125013   2.214   1.937   0.829  0.6758 -0.1105  0.5113
 4518SOL    HW225014   2.096   1.966   0.919 -1.0101 -0.8106 -0.9435
 4519SOL     OW25015   2.857   0.454   6.116 -0.0614  0.0639  0.4143
 4519SOL    HW125016   2.827   0.538   6.151  0.2967 -0.1986  1.3681
 4519SOL    HW225017   2.931   0.434   6.174 -0.4989 -0.7176  0.6964
 4520SOL     OW25018   1.931   3.420   7.896 -0.2999 -0.0303  0.6893
 4520SOL    HW125019   1.958   3.484   7.962 -1.7683  0.6772  0.6001
 4520SOL    HW225020   1.945   3.468   7.814 -2.0593 -0.6183  0.0503
 4521SOL     OW25021   2.421   1.215  16.147  0.4223 -0.7537 -0.4331
 4521SOL    HW125022   2.439   1.147  16.083  2.8696  1.0839 -1.6591
 4521SOL    HW225023   2.464   1.290  16.106 -0.5172  0.9591  1.6958
 4522SOL     OW25024   1.824   4.512  17.260 -1.0253 -0.0364  0.0884
 4522SOL    HW125025   1.785   4.572  17.323 -2.4575 -1.7668  0.8384
 4522SOL    HW225026   1.753   4.493  17.198  0.4627 -1.0175 -1.3356
 4523SOL     OW25027   1.109   3.965  12.327  0.2410  0.0009 -0.0967
 4523SOL    HW125028   1.128   3.877  12.360  0.2147 -0.8840 -2.3660
 4523SOL    HW225029   1.049   3.941  12.256  0.8208 -0.6160 -0.3960
 4524SOL     OW25030   3.044   4.019   9.375  0.1182 -0.2235  0.2885
 4524SOL    HW125031   2.953   4.007   9.405 -0.0446 -2.0485 -0.9604
 4524SOL    HW225032   3.077   4.061   9.455  0.6051  0.0314 -0.0482
 4525SOL     OW25033   4.301   3.249   6.486 -0.2117 -0.6545  0.4161
 4525SOL    HW125034   4.348   3.267   6.405  2.0848 -0.5889  1.7568
 4525SOL    HW225035   4.306   3.338   6.522 -1.5942 -0.7915  0.9328
 4526SOL     OW25036   0.435   0.069  12.633  0.0939  0.3813 -0.9788
 4526SOL    HW125037   0.385   0.142  12.669  0.7200 -0.5869  1.8225
 4526SOL    HW225038   0.529   0.088  12.643  0.1683 -1.2704  1.3784
 4527SOL     OW25039   1.232   2.637   9.130 -0.1231 -0.1601  0.1663
 4527SOL    HW125040   1.196   2.582   9.200 -2.0425 -0.3103 -0.9497
 4527SOL    HW225041   1.198   2.721   9.159  0.5592 -0.3526  1.5350
 4528SOL     OW25042   4.187   0.140   4.574 -0.2529  0.0430 -0.4223
 4528SOL    HW125043   4.228   0.214   4.619 -0.6642  0.2267 -0.3556
 4528SOL    HW225044   4.266   0.098   4.541 -0.9328 -0.6023 -1.2202
 4529SOL     OW25045   2.245   0.001   4.140 -0.0556  0.1482 -0.3986
 4529SOL    HW125046   2.263   0.030   4.050  2.8850  0.1593  0.1910
 4529SOL    HW225047   2.290   4.641   4.132 -0.9993 -0.2836 -1.1655
 4530SOL     OW25048   2.526   4.237   6.437 -0.1227 -0.0047  0.1269
 4530SOL    HW125049   2.448   4.232   6.493 -0.8934  0.6651 -0.8824
 4530SOL    HW225050   2.485   4.284   6.364  1.1138  2.3369  0.9515
 4531SOL     OW25051   4.144   3.211   5.594  0.1125  0.2493  0.1777
 4531SOL    HW125052   4.230   3.247   5.573  0.2208 -0.3495 -0.4246
 4531SOL    HW225053   4.096   3.273   5.540 -2.1427 -1.5933  0.0605
 4532SOL     OW25054   4.331   0.647   8.377 -0.0770  0.8795  0.3108
 4532SOL    HW125055   4.376   0.674   8.297 -1.2985  1.1260 -0.2950
 4532SOL    HW225056   4.383   0.689   8.446  0.1409  0.5766  0.3327
 4533SOL     OW25057   4.585   0.294  11.885 -0.1873  0.4204 -0.5822
 4533SOL    HW125058   4.602   0.206  11.851  0.7848 -0.6798  2.8352
 4533SOL    HW225059   4.675   0.324  11.890  0.0757 -0.6355  0.8390
 4534SOL     OW25060   1.353   3.986   5.892  0.2369  0.7886  0.1798
 4534SOL    HW125061   1.399   3.940   5.822  0.9864  0.6069  0.7993
 4534SOL    HW225062   1.404   4.067   5.891  0.6027  0.5473 -1.0433
 4535SOL     OW25063   4.127   1.014   2.908 -0.3887 -0.3098 -0.0083
 4535SOL    HW125064   4.100   0.923   2.900 -0.7750 -0.0026 -2.3883
 4535SOL    HW225065   4.221   0.999   2.909 -0.2278  0.4848 -2.1648
 4536SOL     OW25066   4.501   1.943   4.222  0.5947 -0.3492  0.1327
 4536SOL    HW125067   4.478   1.892   4.299  0.6060  0.9360  0.9834
 4536SOL    HW225068   4.584   1.977   4.256  0.4937  0.7429 -0.7192
 4537SOL     OW25069   0.810   3.853   1.649 -0.8411 -0.4068  0.1222
 4537SOL    HW125070   0.873   3.811   1.708  0.5162 -0.9519 -1.7158
 4537SOL    HW225071   0.852   3.939   1.640 -2.9555  0.5054 -0.8851
 4538SOL     OW25072   4.666   2.632   8.397  0.0019  0.2762  0.3339
 4538SOL    HW125073   0.021   2.579   8.406  0.1010  0.5281  0.9212
 4538SOL    HW225074   4.621   2.619   8.481 -0.1142  0.9148  0.3660
 4539SOL     OW25075   0.246   3.754   2.973 -0.2730  0.6152 -0.0371
 4539SOL    HW125076   0.323   3.752   2.915 -1.3454 -0.3561 -1.4364
 4539SOL    HW225077   0.182   3.783   2.908  0.2813  0.3312 -0.7223
 4540SOL     OW25078   4.592   2.951   2.487 -0.0718 -0.3396  0.1940
 4540SOL    HW125079   4.572   3.030   2.436  1.0697  1.2437  2.1718
 4540SOL    HW225080   4.612   2.888   2.417 -0.4891  0.5626 -0.7432
 4541SOL     OW25081   4.586   0.276   8.368  1.0053 -0.3889 -0.1660
 4541SOL    HW125082   4.602   0.200   8.312  1.7137  0.0237 -0.5260
 4541SOL    HW225083   4.677   0.301   8.389  0.5058  3.2002 -2.3311
 4542SOL     OW25084   2.251   2.779   5.858 -0.2136  0.5368  0.1200
 4542SOL    HW125085   2.275   2.760   5.949 -0.5716 -1.1975 -0.1302
 4542SOL    HW225086   2.269   2.872   5.853  1.2050  0.2459 -0.1738
 4543SOL     OW25087   3.196   1.052   2.421 -0.2848  0.5082  0.3784
 4543SOL    HW125088   3.105   1.040   2.448 -0.8955  0.7747 -1.6174
 4543SOL    HW225089   3.246   1.056   2.503  0.5310  1.8132 -0.1824
 4544SOL     OW25090   0.198   0.771   8.375  0.3463  0.0250  0.1980
 4544SOL    HW125091   0.185   0.858   8.413  0.2749 -0.9959  2.4984
 4544SOL    HW225092   0.289   0.751   8.397 -0.3802 -0.7666  2.5161
 4545SOL     OW25093   1.282   4.299   4.603  0.2920  0.4399  0.4550
 4545SOL    HW125094   1.355   4.250   4.565 -0.0390  0.6908 -0.5065
 4545SOL    HW225095   1.217   4.299   4.532 -0.7533  1.2746  1.4195
 4546SOL     OW25096   3.202   0.859   0.500  0.0523  0.6136  0.7754
 4546SOL    HW125097   3.250   0.930   0.544  0.6990 -1.5928  3.6278
 4546SOL    HW225098   3.204   0.904   0.415  0.1350  2.3533  1.6985
 4547SOL     OW25099   1.450   2.589   1.618 -0.2197  0.1300 -0.3522
 4547SOL    HW125100   1.390   2.629   1.681 -0.3318 -0.9858  0.2489
 4547SOL    HW225101   1.476   2.667   1.568 -1.2286 -0.0690 -1.1782
 4548SOL     OW25102   1.470   2.819   4.754 -0.5753 -0.6916 -0.1438
 4548SOL    HW125103   1.516   2.879   4.696 -1.4989 -1.8979 -2.0976
 4548SOL    HW225104   1.472   2.869   4.836  1.7750  0.2413 -0.7793
 4549SOL     OW25105   3.150   1.302  14.548  0.1535 -0.2604 -0.1310
 4549SOL    HW125106   3.168   1.300  14.642 -2.0401 -0.8970  0.2914
 4549SOL    HW225107   3.057   1.327  14.549  0.3239  0.4397 -2.0005
 4550SOL     OW25108   0.740   0.919   5.231 -0.2433 -0.7261 -0.1501
 4550SOL    HW125109   0.811   0.864   5.263  0.5418  1.7319  2.2921
 4550SOL    HW225110   0.669   0.862   5.202 -1.2578  1.6816 -2.3807
 4551SOL     OW25111   3.695   2.893   6.365  0.2139  0.2863 -0.4048
 4551SOL    HW125112   3.743   2.944   6.431  0.3526 -1.4622  0.8202
 4551SOL    HW225113   3.761   2.831   6.334 -0.8914 -0.9328 -0.2569
 4552SOL     OW25114   2.987   3.088   5.399 -0.3118 -0.1147  0.5674
 4552SOL    HW125115   2.945   3.010   5.434  1.0857 -0.8199  0.6591
 4552SOL    HW225116   3.050   3.055   5.335 -2.1284 -1.9303 -0.2688
 4553SOL     OW25117   0.087   4.056   4.910 -0.5155 -0.5550 -0.3143
 4553SOL    HW125118   0.175   4.089   4.889 -0.4871 -0.1983  0.3458
 4553SOL    HW225119   0.104   3.963   4.926 -1.9687 -0.1863  3.3887
 4554SOL     OW25120   3.553   0.412   8.668  0.0033 -0.8235  0.4936
 4554SOL    HW125121   3.620   0.468   8.708  1.1396 -1.4248 -0.5794
 4554SOL    HW225122   3.589   0.410   8.579 -2.1479  1.5313 -0.4237
 4555SOL     OW25123   3.015   3.973   4.387 -0.1096  0.4948 -0.3942
 4555SOL    HW125124   3.077   4.041   4.414 -0.3560  0.0650  1.2845
 4555SOL    HW225125   2.939   4.028   4.409 -0.2771  0.2162 -0.2676
 4556SOL     OW25126   4.684   2.650  13.119 -0.2478  0.3111 -0.1177
 4556SOL    HW125127   0.034   2.644  13.058  1.1674  2.1140  1.4327
 4556SOL    HW225128   4.679   2.745  13.129 -1.3635  0.4678 -2.1506
 4557SOL     OW25129   2.596   1.282  13.189 -0.3417 -0.1200 -0.7490
 4557SOL    HW125130   2.580   1.187  13.183 -1.2147  0.0738 -1.5239
 4557SOL    HW225131   2.679   1.294  13.143 -0.3129  1.3892 -0.2742
 4558SOL     OW25132   4.606   3.319  16.305  0.0311  0.2747  0.3925
 4558SOL    HW125133   4.701   3.334  16.301  0.0503  0.3510  1.0161
 4558SOL    HW225134   4.590   3.224  16.305  0.4638  0.1976 -1.0378
 4559SOL     OW25135   0.731   4.318   4.738  0.1756 -0.1994  0.3983
 4559SOL    HW125136   0.651   4.304   4.789  1.6042 -1.0819  2.4015
 4559SOL    HW225137   0.796   4.345   4.803 -1.5364  1.1207  1.5775
 4560SOL     OW25138   1.870   3.135   1.167  0.2771 -0.4808 -0.2574
 4560SOL    HW125139   1.928   3.207   1.142 -2.8574  0.4999 -4.7193
 4560SOL    HW225140   1.902   3.064   1.110  0.2544  0.9996 -2.1360
 4561SOL     OW25141   4.690   1.030   4.357  0.4070 -0.1538  0.0808
 4561SOL    HW125142   4.705   0.953   4.411 -0.5150 -0.4182 -0.0411
 4561SOL    HW225143   0.024   1.099   4.388 -3.0619  2.4431  0.7187
 4562SOL     OW25144   1.621   2.222   0.469  0.0110  0.6183  0.0431
 4562SOL    HW125145   1.658   2.177   0.394  0.4296  3.1398 -1.2561
 4562SOL    HW225146   1.681   2.293   0.490 -0.6152  1.8840 -2.4902
 4563SOL     OW25147   4.276   1.192   6.262 -0.3189 -0.4000  0.6216
 4563SOL    HW125148   4.305   1.275   6.226 -0.1405 -0.3362  0.9105
 4563SOL    HW225149   4.194   1.219   6.302  0.2147  1.5908  0.3487
 4564SOL     OW25150   1.844   0.179  16.511 -0.2023 -0.0820 -0.1859
 4564SOL    HW125151   1.794   0.147  16.437 -0.5315 -1.0225  0.4385
 4564SOL    HW225152   1.870   0.262  16.472  0.1770  0.8593  2.0274
 4565SOL     OW25153   4.413   3.346   5.544  0.1755  0.7763  0.0838
 4565SOL    HW125154   4.391   3.430   5.584  0.9039  0.8140  0.4012
 4565SOL    HW225155   4.409   3.379   5.454 -0.6655 -0.2394 -0.2605
 4566SOL     OW25156   3.141   2.461   3.482  0.0181  0.1673  0.2310
 4566SOL    HW125157   3.063   2.497   3.439 -1.3266 -0.4445  2.1646
 4566SOL    HW225158   3.192   2.437   3.405  0.2555  1.7456 -0.1039
 4567SOL     OW25159   0.698   0.142   2.964 -0.0450  0.3483 -0.2733
 4567SOL    HW125160   0.666   0.128   3.053 -1.2718 -0.0247 -0.7604
 4567SOL    HW225161   0.668   0.230   2.939  1.8224  0.7652 -1.0332
 4568SOL     OW25162   2.423   1.853  16.667 -0.0435 -0.4868 -0.2198
 4568SOL    HW125163   2.333   1.857  16.700  0.0576  1.2989 -0.1595
 4568SOL    HW225164   2.458   1.940  16.686  0.8792 -0.5866 -1.4358
 4569SOL     OW25165   0.973   0.287   0.365  0.0061  0.2485 -0.4475
 4569SOL    HW125166   0.992   0.335   0.285 -0.7013  1.4160  0.0871
 4569SOL    HW225167   0.882   0.266   0.345 -0.1463  0.7607 -0.2909
 4570SOL     OW25168   0.908   3.134   3.255 -0.3743 -0.0357  0.1544
 4570SOL    HW125169   0.957   3.173   3.183  0.3475 -1.5611 -0.1843
 4570SOL    HW225170   0.829   3.109   3.207 -0.2226 -0.3943  0.0919
 4571SOL     OW25171   2.045   3.242   0.196  0.4399  0.0007 -0.3506
 4571SOL    HW125172   2.128   3.234   0.150  0.4796  0.4394 -0.3572
 4571SOL    HW225173   2.085   3.248   0.283 -1.7150  0.0736  0.6509
 4572SOL     OW25174   0.051   3.572   3.070  0.0752  0.2080 -0.5672
 4572SOL    HW125175   0.127   3.604   3.021  1.6225  1.6839  2.8323
 4572SOL    HW225176   4.720   3.649   3.086 -0.7733 -0.6826  0.7165
 4573SOL     OW25177   0.624   2.913  11.174  0.2877 -0.4490 -0.3421
 4573SOL    HW125178   0.551   2.970  11.149  0.6211  0.9642  1.9582
 4573SOL    HW225179   0.642   2.867  11.092  3.4724  0.0934  0.0478
 4574SOL     OW25180   0.039   4.101   8.320 -0.4522  0.0198 -0.0538
 4574SOL    HW125181   0.082   4.172   8.272  1.4508 -0.6328  0.7128
 4574SOL    HW225182   4.670   4.115   8.303 -0.3032  0.9472 -0.1350
 4575SOL     OW25183   1.919   4.480   2.318 -0.5470  0.2499  0.1466
 4575SOL    HW125184   1.926   4.552   2.380 -0.0951  0.2167  0.1359
 4575SOL    HW225185   1.898   4.412   2.383 -0.8553  1.2580  1.1021
 4576SOL     OW25186   1.387   3.509   0.722  0.3491  1.0033  0.1088
 4576SOL    HW125187   1.340   3.591   0.731 -0.9746 -0.0046  2.3991
 4576SOL    HW225188   1.420   3.522   0.633 -0.6699 -0.7770 -0.5361
 4577SOL     OW25189   2.471   3.006   8.366  0.6966  0.6538 -0.2503
 4577SOL    HW125190   2.458   3.088   8.318  0.2275  0.7512  0.0351
 4577SOL    HW225191   2.514   3.046   8.442  2.2970 -0.2638 -0.6915
 4578SOL     OW25192   2.214   1.308   5.673  0.0831 -0.0073  0.8636
 4578SOL    HW125193   2.188   1.290   5.764  0.9901  1.3146  1.3742
 4578SOL    HW225194   2.242   1.399   5.683  1.3239 -0.2427 -0.5339
 4579SOL     OW25195   1.957   1.586   3.422 -0.5372 -0.7397  0.4019
 4579SOL    HW125196   1.979   1.648   3.491  1.1947  0.6752 -1.4155
 4579SOL    HW225197   1.874   1.623   3.392  0.8758  3.0862  1.2182
 4580SOL     OW25198   2.036   2.606   6.161  0.7344  0.0756  0.3176
 4580SOL    HW125199   2.044   2.605   6.066  0.6549  0.6894  0.3069
 4580SOL    HW225200   2.112   2.654   6.195 -0.0719  0.8512  1.0147
 4581SOL     OW25201   4.004   1.679   6.275  0.0733 -0.1149 -0.1253
 4581SOL    HW125202   4.024   1.693   6.368  1.7830  1.2533 -0.7182
 4581SOL    HW225203   3.939   1.608   6.274 -0.7042  0.5646  1.1893
 4582SOL     OW25204   2.001   3.577   7.654  0.4164  0.2375 -0.1300
 4582SOL    HW125205   2.028   3.620   7.573 -0.2730 -2.4318 -1.7431
 4582SOL    HW225206   1.972   3.650   7.709 -0.7489 -1.6013  1.6771
 4583SOL     OW25207   3.360   4.026   1.240  0.9048 -0.1420 -0.2524
 4583SOL    HW125208   3.358   4.097   1.304  0.7903 -1.4139  1.1617
 4583SOL    HW225209   3.341   3.944   1.286  0.7192  0.4658  0.7369
 4584SOL     OW25210   2.005   2.766   0.788 -0.6538  0.0391 -0.4850
 4584SOL    HW125211   2.063   2.780   0.713  2.5377 -2.5126  1.4931
 4584SOL    HW225212   2.029   2.679   0.821 -1.9267  0.0145  0.3670
 4585SOL     OW25213   2.518   0.436   4.439  0.4224 -0.2761 -0.6655
 4585SOL    HW125214   2.581   0.508   4.436  0.6611 -0.3917  1.5709
 4585SOL    HW225215   2.441   0.487   4.465 -0.9094 -2.1169 -0.9838
 4586SOL     OW25216   1.672   3.441  15.494  0.3566 -0.1407 -0.3948
 4586SOL    HW125217   1.659   3.358  15.449 -0.8219  0.3059 -0.8635
 4586SOL    HW225218   1.764   3.431  15.520  0.1117  1.3006  1.0234
 4587SOL     OW25219   0.805   0.318   4.828 -0.5221  0.0315 -0.1609
 4587SOL    HW125220   0.732   0.330   4.767 -0.7401  0.3048  0.1550
 4587SOL    HW225221   0.823   0.224   4.816 -0.3754  0.1468 -0.8253
 4588SOL     OW25222   0.951   2.495   1.389  0.1759 -0.5927 -0.0499
 4588SOL    HW125223   1.001   2.563   1.434  0.0102 -0.5175  0.0194
 4588SOL    HW225224   0.986   2.410   1.416  1.9639  0.5378  1.1670
 4589SOL     OW25225   0.846   1.841  14.232  0.0486  0.2073 -0.1819
 4589SOL    HW125226   0.808   1.789  14.162 -0.4453  1.9400 -1.2104
 4589SOL    HW225227   0.901   1.774  14.272 -0.8150 -0.6111 -0.3545
 4590SOL     OW25228   3.225   0.824   5.488  0.3101  0.2340  0.7302
 4590SOL    HW125229   3.162   0.770   5.536  2.4109 -2.1548  0.7452
 4590SOL    HW225230   3.265   0.876   5.558  0.8891 -1.0656  1.3513
 4591SOL     OW25231   3.521   2.232   4.537  0.2059 -0.1652  1.0602
 4591SOL    HW125232   3.443   2.287   4.542 -0.8360 -1.5570  0.2775
 4591SOL    HW225233   3.485   2.151   4.575 -1.6942 -1.4735 -3.5187
 4592SOL     OW25234   3.859   2.519   5.918 -0.7685  1.2538 -0.6084
 4592SOL    HW125235   3.832   2.504   6.009 -1.6218  0.2287 -1.0338
 4592SOL    HW225236   3.872   2.614   5.923  2.3154  0.8544 -1.2372
 4593SOL     OW25237   0.820   4.313   8.669  0.2422  0.1941 -0.0642
 4593SOL    HW125238   0.728   4.291   8.674  0.0655  0.7990 -0.6521
 4593SOL    HW225239   0.819   4.342   8.578 -3.8404 -0.7988 -0.3288
 4594SOL     OW25240   0.979   4.044   1.714  0.1003  0.0080 -0.3677
 4594SOL    HW125241   0.962   4.038   1.808  2.5523  1.4843  0.1688
 4594SOL    HW225242   1.003   4.135   1.697  1.7457 -0.4175 -0.3491
 4595SOL     OW25243   0.074   4.609  13.547  0.3525 -0.2572 -0.2232
 4595SOL    HW125244   4.704   4.624  13.553  0.4059 -0.3589  0.7963
 4595SOL    HW225245   0.101   4.655  13.467  1.6189  2.4824  1.7530
 4596SOL     OW25246   1.704   0.976   3.068  0.0045 -0.2092  0.4069
 4596SOL    HW125247   1.747   1.021   2.996  0.4920 -3.5094 -1.3607
 4596SOL    HW225248   1.627   0.932   3.032  0.8130 -0.4042 -1.0902
 4597SOL     OW25249   2.299   1.809   7.173 -0.1249 -0.0264  0.0544
 4597SOL    HW125250   2.347   1.788   7.253 -0.3599  0.4387  0.3214
 4597SOL    HW225251   2.283   1.721   7.140  3.1755  0.2015 -2.1064
 4598SOL     OW25252   1.066   2.613   7.903 -0.6849 -0.3913  0.2359
 4598SOL    HW125253   1.000   2.639   7.968 -1.9649  1.7903 -1.9548
 4598SOL    HW225254   1.029   2.650   7.823 -2.3091  1.4405  1.8360
 4599SOL     OW25255   1.468   4.072   7.949  0.0369 -0.0317  0.0127
 4599SOL    HW125256   1.457   4.014   8.024  1.0976  1.9024  1.6511
 4599SOL    HW225257   1.402   4.141   7.955 -0.6194 -0.7106  0.5750
 4600SOL     OW25258   0.163   0.678   4.243 -0.1535 -0.5543  0.1061
 4600SOL    HW125259   0.213   0.753   4.210 -0.2824 -0.7278 -0.4939
 4600SOL    HW225260   0.186   0.672   4.335 -2.7921 -0.0865  0.7831
 4601SOL     OW25261   0.999   1.633  14.312  0.0779 -0.0202 -0.3593
 4601SOL    HW125262   1.041   1.569  14.256  0.1651 -1.6509  1.5730
 4601SOL    HW225263   1.068   1.636  14.379 -0.4246 -0.4652  0.1842
 4602SOL     OW25264   4.302   2.397   4.888 -1.0046 -0.2481 -0.2134
 4602SOL    HW125265   4.334   2.469   4.944 -0.9569 -0.8338  0.5090
 4602SOL    HW225266   4.218   2.371   4.926 -0.4202  0.0699  1.3133
 4603SOL     OW25267   3.116   0.846   1.466  0.3881 -0.0016 -0.0274
 4603SOL    HW125268   3.127   0.907   1.393  1.8627  0.6031  0.6896
 4603SOL    HW225269   3.109   0.759   1.427 -1.4235  0.6623 -1.1530
 4604SOL     OW25270   2.802   2.672   9.922 -0.4029 -0.5350  0.4508
 4604SOL    HW125271   2.866   2.710   9.863  0.0804 -2.7966 -0.5000
 4604SOL    HW225272   2.726   2.730   9.921  0.3358  0.4156  0.5677
 4605SOL     OW25273   3.736   1.683  11.602  0.1733 -0.0836  0.3897
 4605SOL    HW125274   3.797   1.618  11.566  0.1800  0.5442 -0.7362
 4605SOL    HW225275   3.675   1.627  11.649 -0.5615  0.8855  0.5877
 4606SOL     OW25276   2.532   4.150   7.820 -0.0950 -0.1521 -0.4127
 4606SOL    HW125277   2.473   4.079   7.846  0.8900 -1.3413 -1.4462
 4606SOL    HW225278   2.619   4.110   7.816  0.9740  1.8100  2.9976
 4607SOL     OW25279   2.901   1.146   1.275  0.0898  0.0972 -0.3741
 4607SOL    HW125280   2.850   1.076   1.234 -3.7667  3.3259 -1.1127
 4607SOL    HW225281   2.988   1.110   1.258  0.7664  1.1378  0.9252
 4608SOL     OW25282   3.355   0.909   9.539 -0.6411  0.0608 -0.6655
 4608SOL    HW125283   3.260   0.901   9.534 -0.5878 -1.6683  0.9377
 4608SOL    HW225284   3.373   0.841   9.475 -0.0437 -1.9283  1.6080
 4609SOL     OW25285   0.390   2.139   1.329  0.1169  0.1769 -0.4109
 4609SOL    HW125286   0.301   2.107   1.313  0.0987 -0.6355  1.3231
 4609SOL    HW225287   0.372   2.214   1.385  1.7809 -0.0372  0.3857
 4610SOL     OW25288   1.096   1.777   4.461  0.7512  0.0230 -0.2781
 4610SOL    HW125289   1.022   1.809   4.409 -0.1081  1.1469  1.6627
 4610SOL    HW225290   1.134   1.860   4.489  0.7811 -0.7078  1.7898
 4611SOL     OW25291   4.439   4.394  13.670 -0.3302  0.6618 -0.1048
 4611SOL    HW125292   4.387   4.391  13.590 -1.1972  2.0873  0.4139
 4611SOL    HW225293   4.480   4.307  13.670 -0.2676  0.7007 -3.2716
 4612SOL     OW25294   0.624   1.545  13.300 -1.1202  0.0631 -0.5678
 4612SOL    HW125295   0.660   1.571  13.216 -0.0077 -0.0824 -0.1369
 4612SOL    HW225296   0.570   1.473  13.266 -0.8220 -0.3572 -0.1624
 4613SOL     OW25297   1.185   0.144   8.122 -0.2883 -1.0888  0.6996
 4613SOL    HW125298   1.164   0.062   8.078 -2.6169 -0.3338  0.3969
 4613SOL    HW225299   1.204   0.199   8.047 -1.7582 -1.7822 -0.1861
 4614SOL     OW25300   4.379   2.910   6.337 -0.5199 -0.6340  0.7454
 4614SOL    HW125301   4.292   2.949   6.344  0.1670  0.6919  1.9640
 4614SOL    HW225302   4.435   2.975   6.381  0.3489 -0.8221 -0.0784
 4615SOL     OW25303   4.575   3.213  12.821 -0.3201 -0.4801  0.1594
 4615SOL    HW125304   4.612   3.236  12.735 -0.6661  0.0156  0.1408
 4615SOL    HW225305   4.654   3.174  12.858 -0.6239 -2.7471 -1.5961
 4616SOL     OW25306   2.902   4.616   5.292  0.0989  0.4417 -0.2318
 4616SOL    HW125307   2.954   4.621   5.211  0.5904  0.3033  0.0721
 4616SOL    HW225308   2.943   4.687   5.340 -1.2526  0.2241  1.2272
 4617SOL     OW25309   0.638   0.180  16.087  0.2131 -0.1312 -0.7140
 4617SOL    HW125310   0.726   0.174  16.123  0.4023  0.4739 -1.0846
 4617SOL    HW225311   0.649   0.224  16.003 -0.0480  0.4712 -0.4363
 4618SOL     OW25312   2.480   3.411   3.030 -0.4071  0.1121 -0.3480
 4618SOL    HW125313   2.461   3.318   3.026 -0.7328  0.0761  2.0726
 4618SOL    HW225314   2.571   3.409   3.061 -0.6727  0.5011  0.4732
 4619SOL     OW25315   3.566   0.019   1.552  0.2137 -0.3918 -0.5550
 4619SOL    HW125316   3.549   4.657   1.591  3.3530  0.3176  2.3877
 4619SOL    HW225317   3.488   0.028   1.497  0.0396  0.2324 -0.2011
 4620SOL     OW25318   2.395   4.078  12.218  0.6037 -0.3798 -0.9785
 4620SOL    HW125319   2.482   4.039  12.224 -0.2742 -2.2134 -0.3042
 4620SOL    HW225320   2.349   4.023  12.281 -1.3900  1.0269 -1.1929
 4621SOL     OW25321   2.971   4.255  17.034 -0.2371 -0.1742 -0.8635
 4621SOL    HW125322   2.929   4.341  17.031 -0.5504 -0.2629  1.5136
 4621SOL    HW225323   2.930   4.211  17.108  3.5874 -2.9837 -0.4007
 4622SOL     OW25324   4.151   2.203   3.388 -0.0097 -0.1144  0.4234
 4622SOL    HW125325   4.114   2.232   3.472 -0.4980 -0.8931  0.4807
 4622SOL    HW225326   4.071   2.167   3.348  0.1858  1.7160 -1.6073
 4623SOL     OW25327   2.068   4.251   6.701 -0.1629  0.4028 -0.5359
 4623SOL    HW125328   1.980   4.268   6.734  0.7054 -0.2552  2.1045
 4623SOL    HW225329   2.110   4.198   6.769 -1.3702 -0.3749 -0.3820
 4624SOL     OW25330   0.159   4.167  15.789  0.2556 -0.8661  0.0580
 4624SOL    HW125331   0.220   4.218  15.736 -1.2772 -0.1603 -1.0139
 4624SOL    HW225332   0.200   4.188  15.873 -0.6696  1.1902  0.0075
 4625SOL     OW25333   3.315   1.270   2.240 -0.0929 -0.1177  0.3586
 4625SOL    HW125334   3.279   1.326   2.308  0.2312 -0.7361  1.0377
 4625SOL    HW225335   3.294   1.184   2.275 -0.1854 -0.4020 -0.3848
 4626SOL     OW25336   4.548   0.623   2.930 -0.0094 -0.3479  0.5081
 4626SOL    HW125337   4.632   0.577   2.938  0.3641 -0.0479 -1.6447
 4626SOL    HW225338   4.498   0.555   2.884 -0.0527 -0.6235  0.9651
 4627SOL     OW25339   3.508   3.164   3.842  0.4179  0.2192  0.6055
 4627SOL    HW125340   3.517   3.104   3.768  1.3515  0.9384  0.1336
 4627SOL    HW225341   3.593   3.205   3.825 -0.2479  1.1035 -0.6101
 4628SOL     OW25342   3.825   3.724  11.554 -0.3138  0.1837  0.1992
 4628SOL    HW125343   3.877   3.803  11.568  0.7190 -0.4952  0.1947
 4628SOL    HW225344   3.883   3.668  11.502  0.4460  0.7149  0.4772
 4629SOL     OW25345   2.163   0.218  11.107  1.0299  0.6064 -0.0061
 4629SOL    HW125346   2.230   0.265  11.156  1.6258  1.5875 -1.7201
 4629SOL    HW225347   2.217   0.147  11.072 -0.2909  0.1184 -1.0423
 4630SOL     OW25348   2.140   1.859  12.837  0.1166 -0.3680  0.3387
 4630SOL    HW125349   2.218   1.810  12.810 -0.0382 -0.3141 -0.1973
 4630SOL    HW225350   2.098   1.879  12.753  0.6793 -0.5815  0.0092
 4631SOL     OW25351   3.025   4.578   5.025 -0.0761 -0.4447  0.1095
 4631SOL    HW125352   3.095   4.543   4.970 -1.0701 -0.4153 -1.1648
 4631SOL    HW225353   2.976   4.628   4.960  2.7746 -0.5552 -2.0910
 4632SOL     OW25354   1.771   3.147  10.852 -0.1309 -0.5748 -0.3030
 4632SOL    HW125355   1.792   3.123  10.761 -0.3046  0.2835 -0.5686
 4632SOL    HW225356   1.833   3.099  10.907  0.5869  1.5167  0.7258
 4633SOL     OW25357   1.951   1.314   5.551  0.0992  0.3427  0.3706
 4633SOL    HW125358   1.931   1.344   5.640 -2.1941 -0.1723  0.0487
 4633SOL    HW225359   2.026   1.264   5.583  0.6926  0.7908 -0.3289
 4634SOL     OW25360   1.852   3.406   0.111 -0.0381 -0.8825  0.1480
 4634SOL    HW125361   1.843   3.445   0.197 -0.1910 -0.6011  0.0042
 4634SOL    HW225362   1.907   3.337   0.148 -1.6376 -2.0611  0.3550
 4635SOL     OW25363   1.884   1.095   8.001  0.7943 -0.1249 -0.4389
 4635SOL    HW125364   1.915   1.022   8.055 -2.4438 -0.8123  0.4485
 4635SOL    HW225365   1.867   1.048   7.919  1.4376  1.0063 -1.2194
 4636SOL     OW25366   1.766   2.663   7.133  0.3402 -0.1599  0.4410
 4636SOL    HW125367   1.843   2.720   7.129  1.0685 -1.1338  0.4520
 4636SOL    HW225368   1.808   2.582   7.162  0.5887 -0.5510 -1.0289
 4637SOL     OW25369   2.434   0.513   7.393 -0.2668 -0.0530  0.2734
 4637SOL    HW125370   2.370   0.449   7.362 -1.5782  1.3702  0.0766
 4637SOL    HW225371   2.456   0.467   7.474  0.1066 -0.3610 -0.0010
 4638SOL     OW25372   3.445   0.027   8.111 -0.0384  0.2310 -0.7744
 4638SOL    HW125373   3.532   0.059   8.088 -0.5694 -0.2098 -3.4521
 4638SOL    HW225374   3.401   0.091   8.166  1.9274  2.1560 -1.4542
 4639SOL     OW25375   0.350   1.961   2.867  0.0626 -0.4551  0.9847
 4639SOL    HW125376   0.294   2.032   2.835 -0.7061 -0.5015  2.2105
 4639SOL    HW225377   0.329   1.891   2.806 -0.2461  0.1218  0.4329
 4640SOL     OW25378   2.583   4.467   1.379  0.0730  0.0175  0.3690
 4640SOL    HW125379   2.603   4.503   1.293 -1.4850 -1.0715 -0.4390
 4640SOL    HW225380   2.587   4.375   1.354 -0.8604 -0.0331  0.4009
 4641SOL     OW25381   1.402   2.409   8.062  0.1804  0.7594  0.2481
 4641SOL    HW125382   1.378   2.447   7.977 -1.0621  0.3065  0.3915
 4641SOL    HW225383   1.410   2.490   8.113  1.9945 -0.7362  2.3101
 4642SOL     OW25384   0.679   1.988   6.602  0.3994  0.8596  0.6232
 4642SOL    HW125385   0.592   2.026   6.609  1.1221  1.9921  3.6938
 4642SOL    HW225386   0.742   2.044   6.649 -0.1462  1.6066  0.4520
 4643SOL     OW25387   2.055   3.842   1.429  0.5200 -0.5139  0.3936
 4643SOL    HW125388   2.034   3.877   1.515  0.6997  0.0719  0.1966
 4643SOL    HW225389   2.129   3.785   1.450  0.2060 -1.2089 -0.3675
 4644SOL     OW25390   1.535   2.476   5.103  0.0762  0.1899  0.0536
 4644SOL    HW125391   1.543   2.412   5.173  1.5232  0.4497  0.1254
 4644SOL    HW225392   1.614   2.443   5.060  0.5088  1.0952  0.1667
 4645SOL     OW25393   4.402   3.522  12.162 -0.7436 -0.8583 -0.3040
 4645SOL    HW125394   4.365   3.448  12.114 -0.4332 -0.9435 -0.4091
 4645SOL    HW225395   4.461   3.562  12.097 -0.1190  0.8816  1.3266
 4646SOL     OW25396   2.015   1.232  17.622  0.0099 -0.2595  0.4705
 4646SOL    HW125397   1.963   1.312  17.628 -1.3782 -1.0150 -1.3693
 4646SOL    HW225398   2.071   1.262  17.551 -2.8966 -0.7586 -2.0234
 4647SOL     OW25399   4.091   1.050   8.019 -0.3347  0.2240  0.2551
 4647SOL    HW125400   4.038   0.971   8.006 -1.3843  1.0405 -0.4531
 4647SOL    HW225401   4.026   1.111   7.982 -0.9086 -0.0746  0.7683
 4648SOL     OW25402   0.727   4.073   5.102 -0.5118  0.4715  0.6209
 4648SOL    HW125403   0.665   4.001   5.087  0.4639 -0.1226 -0.5192
 4648SOL    HW225404   0.697   4.101   5.188  0.1322  1.8448  0.3946
 4649SOL     OW25405   1.578   0.308  11.523 -0.3013 -0.3570 -0.0770
 4649SOL    HW125406   1.623   0.228  11.495 -1.0760 -1.1613  0.9695
 4649SOL    HW225407   1.508   0.299  11.458  1.1199  1.8714 -1.9507
 4650SOL     OW25408   0.130   0.762   1.487 -0.5015 -0.2844 -0.3187
 4650SOL    HW125409   0.200   0.744   1.424  0.5440 -1.1469  1.0964
 4650SOL    HW225410   0.181   0.749   1.567  1.2249  1.4252 -1.1612
 4651SOL     OW25411   1.551   0.811   2.897  0.0311  0.3416  0.1762
 4651SOL    HW125412   1.466   0.846   2.869 -0.9035 -0.8533  1.5410
 4651SOL    HW225413   1.548   0.723   2.859 -2.2016  0.8627 -0.8514
 4652SOL     OW25414   1.743   1.382  12.059 -0.1438  0.6501 -0.4648
 4652SOL    HW125415   1.775   1.316  12.121  2.1959  1.9321 -0.3035
 4652SOL    HW225416   1.742   1.454  12.122  0.8188  0.1147  0.1606
 4653SOL     OW25417   3.257   3.254   2.781  0.1089  0.0321 -0.1802
 4653SOL    HW125418   3.348   3.249   2.812  1.1981  2.7518 -2.9155
 4653SOL    HW225419   3.244   3.318   2.711  0.1494  1.2294  0.9309
 4654SOL     OW25420   2.373   2.981   2.437  0.0748  0.2754  0.1642
 4654SOL    HW125421   2.317   3.055   2.461 -0.6144 -0.8557  2.0724
 4654SOL    HW225422   2.454   3.007   2.480  0.9700 -2.0765 -0.0947
 4655SOL     OW25423   0.263   2.511   3.616  0.5069  0.4070  0.4119
 4655SOL    HW125424   0.290   2.596   3.582 -0.7674 -0.0482 -1.7127
 4655SOL    HW225425   0.348   2.473   3.638 -0.6098 -1.5668  1.3252
 4656SOL     OW25426   2.678   3.316   1.451  0.2663  0.3662 -0.7639
 4656SOL    HW125427   2.724   3.395   1.421 -0.2603  0.8219 -0.3769
 4656SOL    HW225428   2.749   3.254   1.468 -0.1676  0.3421  1.0096
 4657SOL     OW25429   0.624   4.072   4.162  0.5315 -0.0572 -0.0041
 4657SOL    HW125430   0.559   4.022   4.211 -0.4453  1.1793 -0.0275
 4657SOL    HW225431   0.578   4.055   4.079  0.5175  1.5274 -0.3257
 4658SOL     OW25432   4.336   2.917  15.545  0.2751  0.5283 -0.6935
 4658SOL    HW125433   4.352   3.002  15.587 -0.0449  0.1041  0.2736
 4658SOL    HW225434   4.377   2.930  15.459  1.9278 -2.4784 -0.3524
 4659SOL     OW25435   4.698   4.462   8.908  0.3086 -0.6757 -0.2667
 4659SOL    HW125436   0.017   4.425   8.831  2.1485  0.3617  0.2690
 4659SOL    HW225437   0.049   4.494   8.958 -0.0398  0.2758 -0.3548
 4660SOL     OW25438   3.076   0.393   1.106  0.3219 -0.1183 -0.6655
 4660SOL    HW125439   3.003   0.370   1.164  1.3246 -1.1071  0.2026
 4660SOL    HW225440   3.105   0.476   1.144 -0.5592 -0.4011  0.6138
 4661SOL     OW25441   3.128   2.142   2.184  0.0677 -0.6376 -0.1538
 4661SOL    HW125442   3.177   2.160   2.265 -0.8145 -3.6729  1.0415
 4661SOL    HW225443   3.154   2.227   2.147  0.8696 -0.8651 -0.1031
 4662SOL     OW25444   4.635   2.106   8.313 -0.5597 -0.7263  0.9130
 4662SOL    HW125445   4.615   2.091   8.221 -1.3732 -0.4953  1.0546
 4662SOL    HW225446   4.565   2.065   8.364 -0.4524  0.8909  2.3993
 4663SOL     OW25447   2.362   1.831  15.060 -0.3729 -0.0693 -0.2498
 4663SOL    HW125448   2.309   1.901  15.099 -1.5371  0.2069 -2.3408
 4663SOL    HW225449   2.419   1.886  15.005  0.5708 -2.1934 -1.3847
 4664SOL     OW25450   4.299   1.503   4.422  0.3195 -0.2769  0.1688
 4664SOL    HW125451   4.290   1.577   4.481  1.5264 -0.3267  0.4206
 4664SOL    HW225452   4.278   1.440   4.491 -1.5808  0.0064 -0.1736
 4665SOL     OW25453   2.376   1.401   4.057  0.3596  0.3307 -0.2687
 4665SOL    HW125454   2.321   1.436   3.987  3.1026  1.5372 -1.7971
 4665SOL    HW225455   2.461   1.440   4.036  1.1961 -1.0575  0.5096
 4666SOL     OW25456   2.502   2.738   4.985 -0.3792 -0.1176  0.3338
 4666SOL    HW125457   2.508   2.711   4.893 -0.1951 -0.3205  0.4051
 4666SOL    HW225458   2.407   2.723   4.987 -0.5840  1.1369 -0.1465
 4667SOL     OW25459   3.875   0.539  10.527  0.3692 -0.6873 -0.1600
 4667SOL    HW125460   3.780   0.552  10.520  0.3619  0.0909  1.2174
 4667SOL    HW225461   3.903   0.545  10.436  0.9067 -1.9637 -0.0740
 4668SOL     OW25462   3.305   3.813   4.423 -0.0820 -0.2720 -0.0537
 4668SOL    HW125463   3.327   3.878   4.489 -1.4642  0.8556 -0.7065
 4668SOL    HW225464   3.306   3.731   4.472  1.6155 -0.7854 -0.9592
 4669SOL     OW25465   3.026   3.312   2.086 -0.1218 -0.0533  0.7182
 4669SOL    HW125466   3.080   3.390   2.079 -0.6534  0.2489 -0.0503
 4669SOL    HW225467   2.940   3.351   2.074 -0.4311 -1.0142 -0.2638
 4670SOL     OW25468   3.285   4.677   4.242 -0.3775 -0.3615 -0.2598
 4670SOL    HW125469   3.269   4.690   4.148  0.2421  1.6906 -0.0998
 4670SOL    HW225470   3.196   4.652   4.264 -0.1810  0.1072  1.0742
 4671SOL     OW25471   0.230   3.755  14.963 -0.0909  0.6172  0.1531
 4671SOL    HW125472   0.313   3.782  15.002  0.0214 -1.5577  1.3994
 4671SOL    HW225473   0.257   3.700  14.890  1.2833  1.1103  0.2926
 4672SOL     OW25474   3.886   0.973   9.132 -0.2660  0.1132  0.4177
 4672SOL    HW125475   3.897   1.010   9.220 -1.0341  0.4846  0.3552
 4672SOL    HW225476   3.825   0.903   9.155 -0.5517 -0.3402 -1.7315
 4673SOL     OW25477   0.567   0.563   8.204  0.3809 -0.4090 -0.0468
 4673SOL    HW125478   0.644   0.522   8.244 -0.5082 -0.1335  1.9906
 4673SOL    HW225479   0.499   0.532   8.264  2.7322 -0.6025  2.5227
 4674SOL     OW25480   0.667   1.620   0.128 -0.2135  0.1764 -0.0112
 4674SOL    HW125481   0.732   1.557   0.159  0.9436  1.0748 -0.6014
 4674SOL    HW225482   0.584   1.576   0.145  0.0539 -1.6687 -3.5811
 4675SOL     OW25483   2.458   3.030   6.558  0.4629 -0.2770  0.5036
 4675SOL    HW125484   2.487   3.027   6.649  0.4269  0.4317  0.5336
 4675SOL    HW225485   2.381   3.087   6.563  0.6211  0.2267 -2.3393
 4676SOL     OW25486   2.744   2.322  15.427  0.1740 -0.3148  0.0120
 4676SOL    HW125487   2.674   2.385  15.443  0.6027  0.7150 -2.1989
 4676SOL    HW225488   2.809   2.355  15.489 -0.9038  1.2845  0.2787
 4677SOL     OW25489   3.447   2.880   7.441 -0.1790  0.0293  0.1172
 4677SOL    HW125490   3.380   2.870   7.509 -0.6238 -1.6882 -0.5757
 4677SOL    HW225491   3.495   2.803   7.474 -0.6605 -0.0573  0.6260
 4678SOL     OW25492   1.754   3.056  14.347  0.7881 -0.4499  0.3814
 4678SOL    HW125493   1.706   2.973  14.344 -0.6183  0.4338 -1.1100
 4678SOL    HW225494   1.776   3.073  14.255  3.2041 -0.3279  0.9677
 4679SOL     OW25495   2.362   0.921  12.924  0.1474  0.3513 -0.2480
 4679SOL    HW125496   2.319   0.846  12.884  0.3526 -1.1436  2.3338
 4679SOL    HW225497   2.338   0.929  13.017  0.8636  1.5760 -0.1589
 4680SOL     OW25498   1.692   2.105  16.152  0.5132  0.4092 -0.1277
 4680SOL    HW125499   1.682   2.032  16.213  1.7084 -0.9532 -1.5443
 4680SOL    HW225500   1.627   2.167  16.185  0.2130  0.6171 -1.0991
 4681SOL     OW25501   1.428   0.496   5.999 -0.1271  0.7502 -0.2433
 4681SOL    HW125502   1.350   0.549   6.015  1.0603  2.9359 -1.7384
 4681SOL    HW225503   1.403   0.406   6.022  0.7536  0.4076 -0.6085
 4682SOL     OW25504   4.458   2.672  11.151 -0.2774 -0.0553  0.2797
 4682SOL    HW125505   4.414   2.622  11.082  0.6876 -1.7962  0.9119
 4682SOL    HW225506   4.463   2.759  11.114  1.0247 -0.9074 -1.5422
 4683SOL     OW25507   2.850   1.614   1.323  0.3445  0.0298 -0.1120
 4683SOL    HW125508   2.847   1.706   1.300 -3.2879  0.2117  1.1201
 4683SOL    HW225509   2.755   1.610   1.333  0.1088  4.4330 -0.6128
 4684SOL     OW25510   2.647   0.358  13.289 -0.3161 -0.4796 -0.0474
 4684SOL    HW125511   2.631   0.352  13.195 -0.9821 -1.4066  0.1245
 4684SOL    HW225512   2.741   0.340  13.286 -0.0150  1.3982 -1.4528
 4685SOL     OW25513   1.778   3.306   8.246 -0.0931 -0.2156  0.0529
 4685SOL    HW125514   1.796   3.261   8.328 -0.6282  1.5796  1.1625
 4685SOL    HW225515   1.762   3.237   8.182  1.0101 -2.4761  2.1812
 4686SOL     OW25516   4.112   4.210   0.160 -0.2722 -0.0574  0.6964
 4686SOL    HW125517   4.099   4.295   0.119  1.0993 -0.5308 -0.7421
 4686SOL    HW225518   4.203   4.216   0.189 -0.1716  3.7061 -0.4859
 4687SOL     OW25519   0.306   2.643   0.969 -0.1787  0.1032 -0.5294
 4687SOL    HW125520   0.252   2.677   0.897 -2.9110 -0.4184  1.2758
 4687SOL    HW225521   0.302   2.551   0.942  4.0243  0.2806 -1.7072
 4688SOL     OW25522   1.344   2.652   3.356  0.3443  0.9262  1.4027
 4688SOL    HW125523   1.391   2.591   3.298  0.1306  1.4132  0.7246
 4688SOL    HW225524   1.322   2.727   3.302  0.4616  0.2137  0.3680
 4689SOL     OW25525   2.123   3.824  15.650 -0.1401  0.1563  0.3177
 4689SOL    HW125526   2.183   3.883  15.697  0.5539 -1.1315  1.0667
 4689SOL    HW225527   2.037   3.856  15.676  0.5385  0.3743  2.3300
 4690SOL     OW25528   0.892   1.297   7.576 -0.6816  0.6849 -0.0703
 4690SOL    HW125529   0.858   1.383   7.602  0.0133  0.7503  0.6005
 4690SOL    HW225530   0.876   1.303   7.482  2.2113 -0.4303 -0.6143
 4691SOL     OW25531   1.962   3.694   5.624  0.1367 -0.4859 -0.1293
 4691SOL    HW125532   1.898   3.738   5.568  0.6292 -0.3524 -0.5865
 4691SOL    HW225533   1.961   3.602   5.595 -0.1116  0.3567 -2.7579
 4692SOL     OW25534   1.763   4.574   5.039  0.5236  0.2102 -0.2516
 4692SOL    HW125535   1.725   4.648   4.992  0.4864 -1.0871 -2.3089
 4692SOL    HW225536   1.711   4.574   5.119 -0.5764 -0.8061 -0.9455
 4693SOL     OW25537   4.372   0.665   2.355  0.3432 -0.5956 -0.2586
 4693SOL    HW125538   4.358   0.753   2.320  0.6887  0.0293  1.1837
 4693SOL    HW225539   4.284   0.626   2.355 -0.5620  1.4470  2.0014
 4694SOL     OW25540   0.946   2.653   1.618 -0.0695 -0.7069 -0.4876
 4694SOL    HW125541   0.933   2.686   1.707 -0.4943 -1.9856 -0.0705
 4694SOL    HW225542   0.860   2.624   1.590  0.1351  1.1169 -2.9934
 4695SOL     OW25543   1.663   3.613   1.140  0.0974 -0.3476 -0.3289
 4695SOL    HW125544   1.655   3.568   1.224  0.3024  0.6351  0.2178
 4695SOL    HW225545   1.633   3.700   1.166  1.9056 -0.6966  2.9871
 4696SOL     OW25546   4.699   2.665   7.867 -0.2603 -0.0685 -0.6060
 4696SOL    HW125547   4.675   2.575   7.844 -0.1935 -0.5624  1.2876
 4696SOL    HW225548   0.068   2.660   7.845 -0.5928  1.9940 -2.5109
 4697SOL     OW25549   2.300   0.902  15.297 -0.0720  0.3125 -0.1982
 4697SOL    HW125550   2.277   0.986  15.258  0.2421  0.8110  0.7038
 4697SOL    HW225551   2.237   0.841  15.257  0.3777 -0.1728 -0.1590
 4698SOL     OW25552   2.623   1.733   1.855  0.1485 -0.0998 -0.0484
 4698SOL    HW125553   2.619   1.753   1.762 -0.9433 -0.0603  0.0070
 4698SOL    HW225554   2.705   1.684   1.862 -0.8948 -1.9626 -0.8605
 4699SOL     OW25555   1.348   0.867   5.938 -0.4079 -0.1731  0.0596
 4699SOL    HW125556   1.299   0.942   5.971  1.4519  0.0079  2.4336
 4699SOL    HW225557   1.302   0.788   5.967  0.0027 -0.9841 -1.4958
 4700SOL     OW25558   2.509   1.019   5.743  0.0051 -0.4455  0.4326
 4700SOL    HW125559   2.434   1.013   5.684 -0.8117  3.1691  1.1227
 4700SOL    HW225560   2.561   0.952   5.699  1.1650  1.4024 -0.9923
 4701SOL     OW25561   1.824   1.822  11.695 -0.3518  0.2955  0.3593
 4701SOL    HW125562   1.872   1.884  11.750  0.3214 -0.4008  0.5421
 4701SOL    HW225563   1.746   1.878  11.686 -0.4860  0.1851  0.8534
 4702SOL     OW25564   4.088   0.949  11.547  0.5838 -0.0738  0.4964
 4702SOL    HW125565   4.104   1.016  11.481  0.2950  0.2514  0.7541
 4702SOL    HW225566   4.167   0.947  11.600  0.4244 -1.0053  0.7048
 4703SOL     OW25567   2.339   4.301   4.393 -0.4363  0.1788  0.2928
 4703SOL    HW125568   2.382   4.348   4.464  1.6185  0.7913 -1.3401
 4703SOL    HW225569   2.260   4.354   4.385  0.0339  0.7637 -0.5258
 4704SOL     OW25570   3.513   2.198   6.710  0.3483  0.4752 -0.2883
 4704SOL    HW125571   3.461   2.128   6.748  0.6019  0.7456  0.5531
 4704SOL    HW225572   3.562   2.145   6.647 -0.1001  0.3418 -0.5246
 4705SOL     OW25573   0.449   0.779   4.598 -0.1256 -0.3290 -0.6318
 4705SOL    HW125574   0.511   0.851   4.585 -0.7291 -0.0155 -1.7189
 4705SOL    HW225575   0.462   0.756   4.691  0.5923  3.2844  0.1446
 4706SOL     OW25576   2.727   3.117  16.127  0.3071  0.3929  0.6786
 4706SOL    HW125577   2.754   3.206  16.150 -1.1446  0.6524  1.4077
 4706SOL    HW225578   2.654   3.130  16.065  1.6460 -0.8786 -1.1605
 4707SOL     OW25579   0.351   4.703   7.412 -0.2498  0.3529 -0.1070
 4707SOL    HW125580   0.378   4.646   7.340  0.2794  1.4935 -0.8092
 4707SOL    HW225581   0.328   4.643   7.483  1.5671 -0.7351 -0.4256
 4708SOL     OW25582   2.844   1.611   3.182  0.0137 -0.4652  0.3368
 4708SOL    HW125583   2.859   1.705   3.191 -0.4059 -0.4116  0.4602
 4708SOL    HW225584   2.920   1.581   3.232  0.0847  0.5390  0.8168
 4709SOL     OW25585   2.013   1.847   9.876  0.5851 -0.6237  0.0684
 4709SOL    HW125586   1.921   1.863   9.855  0.2017 -1.4033  1.1332
 4709SOL    HW225587   2.002   1.850   9.971 -0.1991 -0.5133 -0.0217
 4710SOL     OW25588   1.446   0.175  16.793  0.1574  0.0094  0.0938
 4710SOL    HW125589   1.466   0.205  16.882  2.4838 -1.4159  0.0469
 4710SOL    HW225590   1.402   0.091  16.803 -0.4429  0.4056  0.7916
 4711SOL     OW25591   3.723   0.214  15.903 -0.0359  0.0505  0.1673
 4711SOL    HW125592   3.720   0.252  15.991  0.7782  1.5811 -0.4760
 4711SOL    HW225593   3.816   0.227  15.886  0.0597 -0.5069  0.2628
 4712SOL     OW25594   2.136   0.887  14.062  0.3908 -0.1421  0.7695
 4712SOL    HW125595   2.177   0.810  14.101 -0.4471 -0.0960  1.7357
 4712SOL    HW225596   2.078   0.844  13.999  2.2744 -0.6137 -0.6418
 4713SOL     OW25597   0.321   0.826   7.414 -0.1773  0.1932  0.1772
 4713SOL    HW125598   0.327   0.905   7.360  1.2765  0.8326  1.2910
 4713SOL    HW225599   0.407   0.822   7.455 -0.5024  1.6393  0.9911
 4714SOL     OW25600   0.341   3.154  11.572 -0.0564 -0.0935 -0.4000
 4714SOL    HW125601   0.411   3.136  11.508  0.6554 -1.8659  0.8655
 4714SOL    HW225602   0.329   3.061  11.591 -0.6461  0.4459  1.8850
 4715SOL     OW25603   1.410   1.456   5.782 -0.0077  0.1437 -0.4848
 4715SOL    HW125604   1.498   1.474   5.815  0.7846 -2.6887 -1.0237
 4715SOL    HW225605   1.431   1.387   5.719  1.9301 -0.6138  1.0169
 4716SOL     OW25606   2.578   2.240  13.167 -0.2411  0.3097 -0.0375
 4716SOL    HW125607   2.632   2.173  13.126 -0.6281 -0.4286  0.6796
 4716SOL    HW225608   2.490   2.207  13.152 -0.0619 -0.0191 -0.3550
 4717SOL     OW25609   3.586   4.328   4.522  0.5442 -0.3982 -1.1716
 4717SOL    HW125610   3.680   4.325   4.541  0.1698  0.2463  0.8120
 4717SOL    HW225611   3.587   4.378   4.441 -1.6630 -0.5100 -1.2559
 4718SOL     OW25612   2.435   3.569   3.291  0.5488 -0.5052  0.2357
 4718SOL    HW125613   2.507   3.511   3.317  0.9060 -0.1001  0.1494
 4718SOL    HW225614   2.425   3.532   3.204 -0.1034  0.2412 -0.0045
 4719SOL     OW25615   0.721   4.303  16.365 -0.2528  0.2029 -0.0695
 4719SOL    HW125616   0.661   4.229  16.353  0.7990 -0.3767 -1.6925
 4719SOL    HW225617   0.678   4.348  16.437  0.3685  0.4171  0.1660
 4720SOL     OW25618   4.136   1.419   6.157 -0.7111 -0.0203  0.2187
 4720SOL    HW125619   4.134   1.422   6.061  0.3101  0.1095  0.2052
 4720SOL    HW225620   4.100   1.501   6.191  1.3223  1.4749 -1.2236
 4721SOL     OW25621   3.717   3.731   3.624  0.2368  0.0051 -0.5634
 4721SOL    HW125622   3.667   3.670   3.678 -0.0654  1.7646  1.1365
 4721SOL    HW225623   3.649   3.795   3.602  0.8026  1.5312  2.1932
 4722SOL     OW25624   2.976   3.566  14.360  0.1342 -0.0353  0.0641
 4722SOL    HW125625   2.990   3.552  14.454  0.4186  0.6829  0.1261
 4722SOL    HW225626   2.966   3.478  14.324  0.6867 -0.6610  1.4206
 4723SOL     OW25627   0.586   0.394   0.797  0.2963 -0.1224 -0.3921
 4723SOL    HW125628   0.597   0.335   0.872 -2.0242 -0.8055 -0.5953
 4723SOL    HW225629   0.670   0.380   0.753 -1.3134 -1.5083 -2.9789
 4724SOL     OW25630   1.740   1.490   6.536 -0.2564  0.1431 -0.1706
 4724SOL    HW125631   1.750   1.507   6.442  2.5545 -0.9724 -0.0720
 4724SOL    HW225632   1.751   1.395   6.540 -0.7207  0.0234 -1.8716
 4725SOL     OW25633   4.505   3.533   4.980  0.1342 -0.7769  0.0183
 4725SOL    HW125634   4.461   3.531   4.895 -0.0352  0.1794  0.0757
 4725SOL    HW225635   4.589   3.576   4.961 -1.1025  2.1840  1.2292
 4726SOL     OW25636   3.901   1.260  14.748 -0.4802 -0.3963  0.2546
 4726SOL    HW125637   3.831   1.296  14.693  0.9865  1.5995 -0.3043
 4726SOL    HW225638   3.860   1.262  14.834 -1.9503  0.6640 -0.4765
 4727SOL     OW25639   2.948   3.233   8.473 -0.2167  0.1500  0.5549
 4727SOL    HW125640   2.936   3.326   8.453 -2.5228 -0.3377 -0.3644
 4727SOL    HW225641   3.037   3.223   8.438 -0.5037  0.0033 -0.1380
 4728SOL     OW25642   1.388   2.569   2.589 -0.3912 -0.2349 -0.9210
 4728SOL    HW125643   1.444   2.599   2.517  0.0405  0.5814 -0.2462
 4728SOL    HW225644   1.330   2.506   2.545  0.6767 -0.4236 -2.0634
 4729SOL     OW25645   0.022   3.594   4.863  0.4127 -0.2289  0.5470
 4729SOL    HW125646   0.035   3.531   4.792 -1.5068  0.6710 -0.5877
 4729SOL    HW225647   0.106   3.639   4.856 -0.3469  1.6164  3.4147
 4730SOL     OW25648   0.902   4.446   2.636  0.1439 -0.2846 -0.0795
 4730SOL    HW125649   0.880   4.445   2.543  0.6598 -4.1733 -0.1537
 4730SOL    HW225650   0.813   4.457   2.670  0.4758  1.5645  0.2084
 4731SOL     OW25651   3.782   3.460   4.010 -0.1180 -0.8514 -0.1144
 4731SOL    HW125652   3.694   3.493   4.030  0.2166 -0.1002  0.1005
 4731SOL    HW225653   3.815   3.457   4.099  1.0783 -3.6331 -0.6473
 4732SOL     OW25654   2.330   4.103  17.209  0.2137  0.0931  0.4557
 4732SOL    HW125655   2.313   4.163  17.282 -0.5821 -0.8203  1.0113
 4732SOL    HW225656   2.425   4.094  17.215  0.2994 -0.7463 -2.1679
 4733SOL     OW25657   1.805   3.033   7.402 -0.4283 -0.0018 -0.1900
 4733SOL    HW125658   1.776   3.052   7.491 -0.0113 -2.0412  0.3606
 4733SOL    HW225659   1.897   3.055   7.410 -0.7965  0.3807  3.0742
 4734SOL     OW25660   3.336   0.542  15.729 -0.0250 -0.2097 -0.3115
 4734SOL    HW125661   3.316   0.543  15.635  0.6714  1.5221 -0.4525
 4734SOL    HW225662   3.384   0.625  15.726 -1.5610  0.6177 -2.1671
 4735SOL     OW25663   2.230   0.729   0.001 -0.4125  0.8816 -0.0941
 4735SOL    HW125664   2.205   0.821   0.001 -3.4723  0.0257  0.0649
 4735SOL    HW225665   2.321   0.737  17.669  0.0430  0.7068  1.2099
 4736SOL     OW25666   2.564   0.656   7.197  0.3454 -1.1712  0.3051
 4736SOL    HW125667   2.503   0.730   7.205 -1.3213 -2.4790 -0.4286
 4736SOL    HW225668   2.531   0.606   7.271 -3.6032 -0.6820 -1.1466
 4737SOL     OW25669   4.339   0.777  11.104 -0.0228 -0.3179  0.1698
 4737SOL    HW125670   4.365   0.859  11.146  0.1228  0.4731 -1.4514
 4737SOL    HW225671   4.309   0.818  11.023 -0.0984  1.1416  0.9481
 4738SOL     OW25672   2.274   3.798  14.572  0.1287 -0.0920 -0.3662
 4738SOL    HW125673   2.231   3.717  14.599 -0.0725  0.0153 -0.3670
 4738SOL    HW225674   2.196   3.843  14.541 -0.5799 -0.1631  1.3196
 4739SOL     OW25675   0.541   0.953   7.498 -0.0456 -0.0367  0.2399
 4739SOL    HW125676   0.587   0.898   7.561  1.0019  1.0938  0.4653
 4739SOL    HW225677   0.526   1.031   7.552 -0.0869  0.1523 -0.0449
 4740SOL     OW25678   0.242   1.771   5.125  0.0148 -0.2367  0.2707
 4740SOL    HW125679   0.201   1.784   5.039 -0.8659  1.0212  0.8835
 4740SOL    HW225680   0.185   1.706   5.166 -0.3063  0.8776  1.5916
 4741SOL     OW25681   2.156   3.160   9.445  0.1090 -0.1658 -0.4800
 4741SOL    HW125682   2.218   3.096   9.409  0.8250  0.3338 -0.1339
 4741SOL    HW225683   2.076   3.108   9.435  0.3935 -1.0384  1.9020
 4742SOL     OW25684   0.312   1.434   5.782 -0.0704  0.0560 -0.6791
 4742SOL    HW125685   0.365   1.509   5.809 -1.4543  1.2790 -1.3545
 4742SOL    HW225686   0.277   1.461   5.697 -0.7305 -0.7265 -0.6617
 4743SOL     OW25687   4.318   1.101   0.946  0.2382  0.2272  0.3027
 4743SOL    HW125688   4.287   1.190   0.961  0.2100  0.3080 -0.2521
 4743SOL    HW225689   4.370   1.111   0.867 -0.1281  3.3843  0.4927
 4744SOL     OW25690   2.440   1.927   5.859  0.3755 -0.5185 -0.0682
 4744SOL    HW125691   2.421   1.889   5.773 -1.5713 -0.0362  0.1724
 4744SOL    HW225692   2.379   1.999   5.848  0.0088 -0.7444  0.5210
 4745SOL     OW25693   1.897   4.448   3.997  0.1072 -0.1674 -0.0084
 4745SOL    HW125694   1.886   4.411   3.909  1.9110 -1.3748  0.2601
 4745SOL    HW225695   1.805   4.446   4.023  0.0820  1.6571  0.0480
 4746SOL     OW25696   3.699   2.041  13.140 -0.5826  0.1112 -0.6773
 4746SOL    HW125697   3.766   2.020  13.206 -1.4527  1.7521  0.7261
 4746SOL    HW225698   3.626   2.013  13.196 -0.5681  3.1615  0.8468
 4747SOL     OW25699   4.467   4.407   3.510  0.0260 -0.4872 -0.5597
 4747SOL    HW125700   4.494   4.325   3.468 -0.2197 -0.8183 -0.0817
 4747SOL    HW225701   4.540   4.430   3.567  0.0379 -0.9216 -0.3985
 4748SOL     OW25702   3.862   4.222   9.440 -0.1274  0.2104 -0.2345
 4748SOL    HW125703   3.848   4.251   9.350  1.3247 -0.0633 -0.5323
 4748SOL    HW225704   3.955   4.201   9.435 -0.4180 -0.8191 -1.1145
 4749SOL     OW25705   4.567   0.659   4.311  0.0889  0.1618  0.1639
 4749SOL    HW125706   4.609   0.729   4.361 -0.2598  1.0869 -0.8184
 4749SOL    HW225707   4.646   0.638   4.260 -1.1030 -0.5181 -1.4179
 4750SOL     OW25708   4.126   3.809  12.933 -0.2072 -0.4102 -0.6482
 4750SOL    HW125709   4.052   3.755  12.961 -0.5961  0.6950  0.4075
 4750SOL    HW225710   4.105   3.833  12.842 -0.3097 -0.7821 -0.7209
 4751SOL     OW25711   4.596   1.214   6.283  0.4621  0.0924  0.1520
 4751SOL    HW125712   4.504   1.232   6.304  0.9436  3.3696 -0.5904
 4751SOL    HW225713   4.599   1.224   6.188 -0.2560 -2.7658 -0.1734
 4752SOL     OW25714   3.664   4.416  11.556 -0.1391  0.0212 -0.2184
 4752SOL    HW125715   3.746   4.453  11.590 -0.2993  1.0708 -0.9707
 4752SOL    HW225716   3.606   4.416  11.632 -1.1112  0.7858 -0.9647
 4753SOL     OW25717   2.944   2.649   6.615  0.0008  0.4416 -0.0672
 4753SOL    HW125718   2.874   2.686   6.561 -0.8889  1.4025  1.7217
 4753SOL    HW225719   2.909   2.560   6.615  0.5743  0.2147 -1.2378
 4754SOL     OW25720   1.106   2.655   2.309  0.8238 -0.4910  0.0217
 4754SOL    HW125721   1.115   2.565   2.339  0.5962 -0.6614 -0.4107
 4754SOL    HW225722   1.036   2.692   2.363 -0.1997  0.7412 -2.0901
 4755SOL     OW25723   1.359   1.831   6.205 -0.0219 -0.1835 -0.3983
 4755SOL    HW125724   1.275   1.876   6.199  1.1214  1.7445 -1.8661
 4755SOL    HW225725   1.359   1.844   6.300  2.8649  1.5001 -0.6389
 4756SOL     OW25726   2.905   0.828   5.281 -0.3269 -0.2013 -0.0535
 4756SOL    HW125727   2.991   0.862   5.255 -1.4125  3.4247  1.1095
 4756SOL    HW225728   2.847   0.900   5.255  1.7372  0.6035 -2.4841
 4757SOL     OW25729   0.458   1.376  14.455 -0.0703  0.4869  0.0157
 4757SOL    HW125730   0.429   1.446  14.513  1.5305  0.1972  1.1647
 4757SOL    HW225731   0.544   1.403  14.424 -0.5585  1.3317 -0.6110
 4758SOL     OW25732   0.597   1.625  11.106  0.2654 -0.0533 -0.4649
 4758SOL    HW125733   0.601   1.645  11.199  1.5926  1.2244 -0.7996
 4758SOL    HW225734   0.683   1.661  11.085  0.4789 -0.1603  0.2312
 4759SOL     OW25735   0.337   4.723   5.454  0.4227 -0.7048 -0.4637
 4759SOL    HW125736   0.321   0.093   5.441 -0.5935 -0.8098  0.0613
 4759SOL    HW225737   0.260   4.676   5.421  0.8107 -0.2845 -1.9965
 4760SOL     OW25738   0.272   3.184  15.943 -0.1577  0.0982  0.3701
 4760SOL    HW125739   0.187   3.175  15.988 -1.1785  0.9316 -1.4171
 4760SOL    HW225740   0.247   3.139  15.862  0.7314  0.6882 -0.2272
 4761SOL     OW25741   0.681   0.423   7.146  0.1655  0.4867  0.5652
 4761SOL    HW125742   0.687   0.381   7.060  1.0042 -1.6612  1.6479
 4761SOL    HW225743   0.630   0.350   7.181 -0.9923  1.1860  0.2948
 4762SOL     OW25744   2.660   1.143   6.945 -0.0068  0.4720 -0.1878
 4762SOL    HW125745   2.704   1.203   7.006  1.0545  0.9695 -1.4509
 4762SOL    HW225746   2.571   1.178   6.945  0.2517  1.1312  0.8295
 4763SOL     OW25747   0.033   1.228   6.764 -0.2182  0.5425 -0.0056
 4763SOL    HW125748   4.665   1.237   6.737  0.2502 -2.3637 -2.5214
 4763SOL    HW225749   0.032   1.194   6.854 -0.1740 -1.6663 -0.8632
 4764SOL     OW25750   3.340   3.852   7.642 -0.0063  0.4954 -0.0071
 4764SOL    HW125751   3.354   3.810   7.727 -1.7693  2.1116  1.0977
 4764SOL    HW225752   3.412   3.822   7.587 -0.9222 -1.3492 -0.1767
 4765SOL     OW25753   0.615   0.547   5.410 -0.2340 -0.3996 -0.5336
 4765SOL    HW125754   0.622   0.480   5.342  0.4771 -0.9052  0.0430
 4765SOL    HW225755   0.686   0.529   5.472  0.0628 -0.1522 -0.8059
 4766SOL     OW25756   4.468   1.845   5.756  0.0175  0.7393  0.1764
 4766SOL    HW125757   4.445   1.876   5.669 -0.8514  0.7049  0.3947
 4766SOL    HW225758   4.494   1.926   5.799 -0.8088  0.4373  1.2492
 4767SOL     OW25759   1.216   2.858  12.933  0.0091  0.1304 -0.7266
 4767SOL    HW125760   1.231   2.903  12.850 -1.4301  0.4961 -0.7926
 4767SOL    HW225761   1.221   2.766  12.904  1.0644 -0.7307  2.2592
 4768SOL     OW25762   4.317   0.930   7.247 -0.5608 -0.5096  0.6472
 4768SOL    HW125763   4.336   1.022   7.263 -1.1300 -0.1753 -0.6088
 4768SOL    HW225764   4.344   0.899   7.333  2.9609  0.5049 -0.1003
 4769SOL     OW25765   2.755   1.459  16.744 -0.0425 -0.6703 -0.7533
 4769SOL    HW125766   2.813   1.534  16.759 -1.6043  0.5529 -0.8753
 4769SOL    HW225767   2.820   1.390  16.758  1.6770  1.3607  1.2648
 4770SOL     OW25768   1.204   3.290   8.174 -0.1222 -0.4302  0.5277
 4770SOL    HW125769   1.294   3.283   8.205  0.6047  0.7926 -1.3382
 4770SOL    HW225770   1.191   3.197   8.156  0.2314 -0.5659  0.9621
 4771SOL     OW25771   1.690   3.920   2.504 -0.4231 -0.2413 -0.7433
 4771SOL    HW125772   1.664   3.979   2.433 -3.7855 -1.2816 -0.3992
 4771SOL    HW225773   1.712   3.982   2.573 -1.3862 -1.6285  0.8123
 4772SOL     OW25774   4.035   0.703   1.925  0.0308 -0.3819  0.1719
 4772SOL    HW125775   4.126   0.697   1.952 -0.3772 -1.2412  1.3390
 4772SOL    HW225776   4.023   0.626   1.870 -1.6803  0.1454 -0.2108
 4773SOL     OW25777   0.978   3.003   0.401  0.6512 -0.6895  0.4103
 4773SOL    HW125778   1.029   3.059   0.342 -0.4493  1.9153  1.9204
 4773SOL    HW225779   0.998   2.914   0.373  2.4077 -0.5414  1.1764
 4774SOL     OW25780   2.988   0.813   1.052  0.2474  0.2790 -0.1658
 4774SOL    HW125781   3.048   0.883   1.028 -1.1757  1.3308 -0.6211
 4774SOL    HW225782   2.916   0.858   1.096 -0.5694 -0.1130 -1.0875
 4775SOL     OW25783   3.923   3.585   3.808 -0.0811  0.3169  0.0185
 4775SOL    HW125784   3.869   3.555   3.881  1.5867 -1.3111  0.5966
 4775SOL    HW225785   3.857   3.634   3.759  0.1001  0.8071  0.2704
 4776SOL     OW25786   0.600   2.767  12.359  0.1331 -0.3790  0.0632
 4776SOL    HW125787   0.534   2.792  12.422 -0.1482 -2.4025  0.5747
 4776SOL    HW225788   0.679   2.815  12.384 -0.7925  0.6543  0.9774
 4777SOL     OW25789   0.694   2.077   2.150 -0.3090 -0.3678  0.1545
 4777SOL    HW125790   0.764   2.066   2.214 -1.0091 -0.5825  0.8683
 4777SOL    HW225791   0.746   2.065   2.070 -0.3162 -2.2890  0.4517
 4778SOL     OW25792   2.103   1.885   6.386  0.0783 -0.6472  0.3329
 4778SOL    HW125793   2.095   1.980   6.386  1.9186 -0.4872 -0.8736
 4778SOL    HW225794   2.092   1.856   6.476  0.4859  0.6016  0.7851
 4779SOL     OW25795   3.966   4.053   8.460 -0.6504 -0.3582  0.1167
 4779SOL    HW125796   4.048   4.058   8.410  0.4135  1.3657  2.0634
 4779SOL    HW225797   3.968   4.135   8.508  1.1752 -1.3018  1.6459
 4780SOL     OW25798   4.199   1.498   5.566  0.0674  0.5812 -0.1734
 4780SOL    HW125799   4.130   1.512   5.501 -1.6846 -1.3799  1.2864
 4780SOL    HW225800   4.209   1.402   5.567  2.6491  0.8310 -1.0422
 4781SOL     OW25801   3.606   2.462   6.773  0.0782  0.9681  0.0906
 4781SOL    HW125802   3.700   2.466   6.758  0.2735  0.5064  1.1536
 4781SOL    HW225803   3.576   2.371   6.766 -1.7085  1.4084  2.0055
 4782SOL     OW25804   1.414   3.725   6.930  0.5235  0.3504 -0.0957
 4782SOL    HW125805   1.391   3.709   6.839 -3.5470  1.0777  0.8235
 4782SOL    HW225806   1.460   3.643   6.947 -1.3285 -0.9512 -1.4205
 4783SOL     OW25807   3.070   1.673   0.233  0.1819  0.2456 -0.3052
 4783SOL    HW125808   3.166   1.683   0.239  0.3085 -2.2605  1.7528
 4783SOL    HW225809   3.038   1.759   0.261 -0.3801  0.3598 -1.3036
 4784SOL     OW25810   2.663   2.089   4.179  0.8437  0.0999 -0.0760
 4784SOL    HW125811   2.725   2.155   4.148  1.4670 -1.1774 -1.5101
 4784SOL    HW225812   2.710   2.031   4.239  1.2529  1.5133  0.9996
 4785SOL     OW25813   4.331   1.995   3.424  0.2078  0.4017  0.4527
 4785SOL    HW125814   4.283   2.076   3.405  0.6303  0.0824 -1.9550
 4785SOL    HW225815   4.271   1.955   3.486  1.5448  1.4079  2.3984
 4786SOL     OW25816   4.096   2.379   8.054 -0.4613 -0.1258  0.0151
 4786SOL    HW125817   4.186   2.376   8.020 -0.4318 -1.4440  0.2206
 4786SOL    HW225818   4.099   2.317   8.127  0.1399  0.1491  0.2251
 4787SOL     OW25819   0.027   1.206   5.505 -0.2978 -0.3046  0.4080
 4787SOL    HW125820   0.073   1.171   5.582 -2.2065 -1.7880  0.8996
 4787SOL    HW225821   4.693   1.132   5.485  0.5319 -0.3433 -1.8691
 4788SOL     OW25822   0.073   0.585   1.055 -0.5324  0.2138 -0.0663
 4788SOL    HW125823   0.127   0.506   1.059 -0.7194 -0.0322 -2.4744
 4788SOL    HW225824   0.023   0.573   0.975  1.3560  0.7248 -1.3473
 4789SOL     OW25825   0.954   3.611   6.937 -0.4331  0.1433 -0.0753
 4789SOL    HW125826   0.863   3.640   6.924 -0.1159  0.5090 -1.3906
 4789SOL    HW225827   0.984   3.671   7.006 -0.0360 -0.9856  0.7231
 4790SOL     OW25828   1.274   3.780   0.697  0.4329  0.1293  0.0927
 4790SOL    HW125829   1.253   3.858   0.646  0.0203  1.8136  2.8256
 4790SOL    HW225830   1.252   3.813   0.784  0.8166  1.9539 -0.5127
 4791SOL     OW25831   1.839   4.635   4.694 -0.4617  0.2982  0.4599
 4791SOL    HW125832   1.775   4.687   4.645 -0.9974 -1.8400 -1.0711
 4791SOL    HW225833   1.832   4.655   4.788 -1.0080  0.5127  0.3738
 4792SOL     OW25834   1.286   0.184  11.933  0.3683 -0.1548  0.5509
 4792SOL    HW125835   1.247   0.199  11.847 -0.7151 -0.8159  0.9263
 4792SOL    HW225836   1.377   0.178  11.905  0.1558  1.9238 -0.5381
 4793SOL     OW25837   1.197   3.581  14.644 -0.3275 -0.5577  0.4259
 4793SOL    HW125838   1.127   3.575  14.578 -3.2312  1.4509  3.3195
 4793SOL    HW225839   1.141   3.558  14.718  1.7961 -4.2108  0.8967
 4794SOL     OW25840   1.727   1.889   9.831 -0.5262  0.3169  0.4677
 4794SOL    HW125841   1.700   1.975   9.863  0.3860  1.1253 -0.8925
 4794SOL    HW225842   1.673   1.833   9.887  0.8528  0.1265  1.6288
 4795SOL     OW25843   0.731   0.140   3.579 -0.4364 -0.2663 -0.3588
 4795SOL    HW125844   0.651   0.179   3.614 -0.1529 -0.3461  0.3753
 4795SOL    HW225845   0.747   0.217   3.524  0.1688 -1.4230 -1.8034
 4796SOL     OW25846   1.014   2.064   4.797 -0.2024 -0.9346  0.2702
 4796SOL    HW125847   1.051   1.983   4.762 -0.5297 -0.3422 -1.4199
 4796SOL    HW225848   1.027   2.124   4.724 -2.4652  0.9927  1.4946
 4797SOL     OW25849   2.313   2.150   3.507 -0.0692  0.0816 -0.5022
 4797SOL    HW125850   2.389   2.140   3.565 -1.0517  0.2203  0.8233
 4797SOL    HW225851   2.242   2.188   3.559 -0.5067 -1.2792 -0.0927
 4798SOL     OW25852   0.396   1.130  16.815 -0.0387 -0.1197 -0.7146
 4798SOL    HW125853   0.363   1.197  16.874  1.2492 -1.4210  1.4945
 4798SOL    HW225854   0.332   1.133  16.744 -0.1314 -1.6416 -0.6995
 4799SOL     OW25855   2.831   3.011   8.362  0.6050  0.3052  0.1979
 4799SOL    HW125856   2.846   2.955   8.438 -0.2156  0.6692  0.6247
 4799SOL    HW225857   2.869   3.092   8.397  5.6955 -2.3928  0.8805
 4800SOL     OW25858   3.098   0.298  15.020 -0.0242 -0.1221 -0.0774
 4800SOL    HW125859   3.097   0.250  15.103 -0.4330 -0.0264 -0.0263
 4800SOL    HW225860   3.042   0.374  15.034 -0.4773 -1.0299  3.1423
 4801SOL     OW25861   4.001   2.310   4.374  0.4756 -0.3511 -0.5103
 4801SOL    HW125862   3.942   2.326   4.301  3.0793  1.6979 -2.1519
 4801SOL    HW225863   4.063   2.383   4.377 -0.8883  0.8335 -1.6988
 4802SOL     OW25864   3.931   2.560   9.061 -0.1069  0.3849  0.3798
 4802SOL    HW125865   3.912   2.533   9.151  3.4498 -1.3566  0.6225
 4802SOL    HW225866   4.018   2.598   9.075  0.6297  0.0659 -3.2707
 4803SOL     OW25867   4.350   2.509   7.916 -0.4318 -0.2760  0.0007
 4803SOL    HW125868   4.314   2.595   7.898 -0.2817 -0.0062  1.0118
 4803SOL    HW225869   4.430   2.530   7.964 -0.4910  1.2525 -0.5881
 4804SOL     OW25870   3.947   0.424   3.020  0.1986 -0.4732  0.5209
 4804SOL    HW125871   3.885   0.415   3.093  0.1426  0.8947  0.6483
 4804SOL    HW225872   3.897   0.409   2.940 -0.1994  0.8061  0.5330
 4805SOL     OW25873   2.069   2.299   2.955 -0.2000  0.0418 -0.3276
 4805SOL    HW125874   2.081   2.214   2.912  1.7105 -0.1872  0.6361
 4805SOL    HW225875   2.023   2.353   2.891  1.0479  0.7327 -0.6493
 4806SOL     OW25876   0.704   1.375   0.271  0.1710 -0.1834  0.4349
 4806SOL    HW125877   0.627   1.401   0.321 -0.0505 -2.2494  1.1778
 4806SOL    HW225878   0.674   1.333   0.190 -1.0510  1.5562 -0.0259
 4807SOL     OW25879   3.162   3.133   5.603 -0.0655 -0.6947  0.1382
 4807SOL    HW125880   3.172   3.054   5.657 -0.4088 -0.4123  0.6123
 4807SOL    HW225881   3.082   3.123   5.551 -0.5231  2.5808  0.2578
 4808SOL     OW25882   0.016   0.548   7.158  0.0588  0.3463  0.2424
 4808SOL    HW125883   4.675   0.492   7.200 -0.0963  0.6450  0.4061
 4808SOL    HW225884   0.076   0.559   7.232 -1.2342  0.4825  1.2669
 4809SOL     OW25885   1.521   1.626  10.204 -0.8678  0.4431  1.1336
 4809SOL    HW125886   1.521   1.615  10.109  0.2562 -0.1341  1.2060
 4809SOL    HW225887   1.501   1.536  10.230  0.0592 -1.0845 -3.3033
 4810SOL     OW25888   4.703   4.247   1.802  0.3989 -0.1544  0.2811
 4810SOL    HW125889   4.648   4.250   1.724  0.1767 -0.0568  0.4429
 4810SOL    HW225890   4.705   4.342   1.815 -0.8597 -0.0209 -0.5161
 4811SOL     OW25891   4.092   0.935   3.853  0.0239  0.8084 -0.6628
 4811SOL    HW125892   4.125   0.846   3.843 -3.3686 -0.5093 -0.1029
 4811SOL    HW225893   4.129   0.963   3.937 -0.2741 -0.4391 -0.1033
 4812SOL     OW25894   2.813   1.455   7.442  0.4132  0.0914 -0.1253
 4812SOL    HW125895   2.755   1.411   7.380  1.1674  0.8681 -1.3826
 4812SOL    HW225896   2.841   1.523   7.381  0.9727  0.0300  0.0596
 4813SOL     OW25897   0.754   3.652   1.481 -0.7129  0.2365 -0.0837
 4813SOL    HW125898   0.798   3.714   1.539 -0.5172  1.3047 -1.3562
 4813SOL    HW225899   0.797   3.568   1.496  2.4441  1.4662 -2.3909
 4814SOL     OW25900   2.435   2.046   5.343 -0.1529  0.1641  0.7732
 4814SOL    HW125901   2.454   2.114   5.407 -0.5218  1.3198 -0.3506
 4814SOL    HW225902   2.340   2.035   5.342 -0.1412  0.2867 -1.6642
 4815SOL     OW25903   0.640   2.033   4.021 -0.2467 -0.0345  0.1556
 4815SOL    HW125904   0.572   2.049   3.955  1.5787 -2.9160 -2.4566
 4815SOL    HW225905   0.713   2.012   3.963 -0.1853  2.9432 -0.8520
 4816SOL     OW25906   3.562   0.886  16.489 -0.2088  0.1270  0.0435
 4816SOL    HW125907   3.564   0.930  16.573  0.8169 -1.9475  1.1161
 4816SOL    HW225908   3.474   0.849  16.486  0.6995 -2.0707  0.1939
 4817SOL     OW25909   4.573   0.169   1.283 -0.0753  0.2660 -0.6053
 4817SOL    HW125910   4.529   0.251   1.258 -0.4297  0.4538  0.6283
 4817SOL    HW225911   4.539   0.111   1.215 -1.9435  2.4415 -1.5701
 4818SOL     OW25912   4.332   1.110   3.390  0.2406 -0.4917  0.3350
 4818SOL    HW125913   4.237   1.119   3.384  0.0746 -2.0191  0.7906
 4818SOL    HW225914   4.358   1.177   3.454  0.4728 -1.1591  0.9477
 4819SOL     OW25915   3.236   2.278   4.800 -0.0470  0.2392  0.1511
 4819SOL    HW125916   3.214   2.362   4.760 -0.6893  1.1806  2.4279
 4819SOL    HW225917   3.263   2.218   4.731  0.8849  2.2600 -1.2465
 4820SOL     OW25918   3.583   0.239  16.148 -0.2090 -0.6328 -0.5646
 4820SOL    HW125919   3.559   0.171  16.210  1.5132  0.1030  0.9022
 4820SOL    HW225920   3.500   0.247  16.101 -0.5442  1.7285  0.4520
 4821SOL     OW25921   1.563   1.498   0.428  0.1766  0.3277 -0.0003
 4821SOL    HW125922   1.647   1.542   0.420 -0.5315  1.0364 -3.8895
 4821SOL    HW225923   1.593   1.418   0.470 -0.9488 -0.3798 -0.5365
 4822SOL     OW25924   4.109   1.172  11.364  0.0265  0.2331 -0.1428
 4822SOL    HW125925   4.190   1.158  11.315 -0.3229  1.7038 -1.1131
 4822SOL    HW225926   4.039   1.208  11.310 -0.4569  1.0891  1.0691
 4823SOL     OW25927   1.375   3.462   1.221  0.1927 -0.3662 -0.0135
 4823SOL    HW125928   1.323   3.382   1.216  0.1194 -0.2794 -0.6634
 4823SOL    HW225929   1.452   3.429   1.173  0.9982  1.0319  0.3100
 4824SOL     OW25930   3.419   3.156   1.613 -0.1926  0.5403  0.6032
 4824SOL    HW125931   3.349   3.115   1.664 -0.4396 -2.5788 -2.2296
 4824SOL    HW225932   3.498   3.137   1.663 -0.7810 -0.4747  1.1488
 4825SOL     OW25933   3.613   0.785  14.154  0.3671  0.6528 -0.5968
 4825SOL    HW125934   3.691   0.767  14.102  0.9177 -0.0679  0.4858
 4825SOL    HW225935   3.560   0.844  14.100  0.0309 -0.4366 -1.4619
 4826SOL     OW25936   3.775   0.725   3.549 -0.1487 -0.5396  0.1346
 4826SOL    HW125937   3.693   0.745   3.504 -0.8542 -1.8761  0.8568
 4826SOL    HW225938   3.834   0.790   3.510 -0.8147  0.5356  0.9064
 4827SOL     OW25939   0.247   0.819   5.230 -0.8574 -0.4196 -0.3048
 4827SOL    HW125940   0.301   0.893   5.256  0.9957 -0.9594 -2.6221
 4827SOL    HW225941   0.157   0.852   5.226 -0.3480  1.1686  1.3999
 4828SOL     OW25942   4.666   4.630   3.238 -0.4797 -0.1813  0.4999
 4828SOL    HW125943   4.679   4.647   3.332  0.5000  0.0762  0.3166
 4828SOL    HW225944   4.612   4.708   3.222 -2.1020 -1.3600  0.1660
 4829SOL     OW25945   3.644   3.889   7.858  0.6050 -0.3908  0.1806
 4829SOL    HW125946   3.689   3.898   7.942  0.4909  1.7170  0.0205
 4829SOL    HW225947   3.554   3.883   7.891  0.0900 -2.4956 -1.6401
 4830SOL     OW25948   4.243   0.841  11.978  0.1307 -0.6034 -0.1726
 4830SOL    HW125949   4.207   0.830  12.066 -0.9113  0.9911 -0.4001
 4830SOL    HW225950   4.167   0.806  11.931  1.2406 -1.3566 -1.4080
 4831SOL     OW25951   0.634   2.391   5.061 -0.2767  0.1388  0.2784
 4831SOL    HW125952   0.546   2.408   5.028  0.4654 -0.5534 -2.0197
 4831SOL    HW225953   0.606   2.372   5.151  1.7022  1.9987  1.2827
 4832SOL     OW25954   1.040   2.060   8.332 -0.0727  0.3109 -0.2221
 4832SOL    HW125955   1.091   2.088   8.256 -0.1698 -1.0004 -0.7716
 4832SOL    HW225956   1.086   2.090   8.411  0.9260 -2.3863  0.2176
 4833SOL     OW25957   1.407   0.308  12.357 -0.0769 -0.2705 -0.1053
 4833SOL    HW125958   1.449   0.361  12.425  1.2832 -0.8113 -0.5088
 4833SOL    HW225959   1.327   0.284  12.404 -0.0475 -0.0812  0.0426
 4834SOL     OW25960   4.339   2.165  13.095  0.5839 -0.1840  0.1143
 4834SOL    HW125961   4.395   2.224  13.044 -0.2947 -1.8291 -2.7953
 4834SOL    HW225962   4.388   2.084  13.076 -0.1916 -0.7280  0.4283
 4835SOL     OW25963   2.812   1.693  16.922 -0.3785 -0.9136 -0.6403
 4835SOL    HW125964   2.852   1.750  16.988 -0.2974  0.5962 -1.9784
 4835SOL    HW225965   2.841   1.731  16.839 -0.5989  0.1354 -0.2381
 4836SOL     OW25966   0.611   3.784   8.934 -0.5299  0.1225 -0.1340
 4836SOL    HW125967   0.562   3.796   8.853 -0.2273 -2.1285 -0.6570
 4836SOL    HW225968   0.674   3.856   8.923 -1.7884  1.3301  0.6451
 4837SOL     OW25969   4.064   1.054   8.695  0.3976  0.3572 -0.0810
 4837SOL    HW125970   4.130   0.985   8.699  1.6389  1.5403  0.1704
 4837SOL    HW225971   4.082   1.088   8.783  0.7770  0.7851 -0.3195
 4838SOL     OW25972   4.468   0.693   0.584  0.1780 -0.1409 -0.0105
 4838SOL    HW125973   4.548   0.730   0.622 -0.3193 -0.2853  1.1813
 4838SOL    HW225974   4.423   0.771   0.554 -1.1912 -1.0769 -0.4051
 4839SOL     OW25975   1.840   4.094   4.778 -0.3034 -0.4633 -0.6035
 4839SOL    HW125976   1.843   4.183   4.814  1.1024 -0.6336 -0.3208
 4839SOL    HW225977   1.901   4.103   4.705 -1.2075 -1.0381 -1.4456
 4840SOL     OW25978   4.049   1.718  12.597 -0.3820  0.5230 -0.0466
 4840SOL    HW125979   4.125   1.700  12.654 -0.7457 -1.7654 -0.2862
 4840SOL    HW225980   4.033   1.803  12.638  0.5560  0.2599  0.8806
 4841SOL     OW25981   3.196   1.312  14.834 -0.0627 -0.3832  0.3575
 4841SOL    HW125982   3.232   1.245  14.892 -0.6277 -1.4308 -0.4887
 4841SOL    HW225983   3.199   1.381  14.900  0.0502  0.1018 -0.1567
 4842SOL     OW25984   1.115   3.066  10.725 -0.3103 -0.1709  0.3161
 4842SOL    HW125985   1.022   3.041  10.717 -1.1020  2.4557  1.2180
 4842SOL    HW225986   1.088   3.156  10.744 -0.3022 -0.1927  0.4288
 4843SOL     OW25987   0.426   1.396   0.894  0.0832  0.0730  0.7213
 4843SOL    HW125988   0.453   1.488   0.901 -0.7577  0.4477 -1.0411
 4843SOL    HW225989   0.361   1.393   0.964 -2.1837 -1.2281 -1.4609
 4844SOL     OW25990   3.688   0.777   4.491  0.4097 -0.3740 -0.1625
 4844SOL    HW125991   3.746   0.752   4.419 -2.4806 -0.1758 -2.5652
 4844SOL    HW225992   3.722   0.866   4.499 -3.2906  0.9932  0.6262
 4845SOL     OW25993   3.262   1.167  10.968  0.3957  0.2601  0.3753
 4845SOL    HW125994   3.289   1.124  10.887 -3.2008  0.9528 -1.1634
 4845SOL    HW225995   3.170   1.187  10.951  0.0852 -0.7878  0.7973
 4846SOL     OW25996   2.959   4.321   8.016 -0.2861  0.0056 -0.1800
 4846SOL    HW125997   2.864   4.332   8.015 -0.5867 -2.2316  1.9168
 4846SOL    HW225998   2.989   4.405   7.984  0.2018  0.4080  1.3169
 4847SOL     OW25999   2.915   1.055   7.962  0.0088 -0.3692  0.5548
 4847SOL    HW126000   2.842   1.031   8.019 -0.9963  1.4720  0.0445
 4847SOL    HW226001   2.918   1.149   7.984 -1.1413 -0.0447 -0.6416
 4848SOL     OW26002   3.399   1.081   6.172 -0.3134  0.1485  0.6454
 4848SOL    HW126003   3.415   0.994   6.137 -0.8256  0.0949  0.5524
 4848SOL    HW226004   3.483   1.084   6.218  0.4526 -0.4986 -0.7383
 4849SOL     OW26005   3.312   0.129   6.066 -0.2981 -0.5085  0.0182
 4849SOL    HW126006   3.362   0.157   6.143  1.0962  0.1601 -1.1267
 4849SOL    HW226007   3.373   0.063   6.033  1.5544  1.1121  0.2011
 4850SOL     OW26008   4.267   3.084  17.249  0.1819  0.0777  0.2205
 4850SOL    HW126009   4.265   3.173  17.283 -0.1625 -0.2000  0.9419
 4850SOL    HW226010   4.173   3.069  17.241  0.0381  0.4292  1.2361
 4851SOL     OW26011   2.644   3.029   6.345  0.2527 -0.0910 -0.5013
 4851SOL    HW126012   2.581   3.034   6.273 -0.8306  0.2709  0.4567
 4851SOL    HW226013   2.579   3.041   6.415  2.6024  1.9869  1.3548
 4852SOL     OW26014   3.867   3.523   1.093  1.1273 -0.0675  0.0215
 4852SOL    HW126015   3.890   3.616   1.099  3.1389 -0.5612 -0.0076
 4852SOL    HW226016   3.886   3.504   1.001  3.5821 -2.3907  0.9982
 4853SOL     OW26017   1.370   2.557   2.062  0.2458 -0.5123  0.1461
 4853SOL    HW126018   1.420   2.611   2.001  0.0654  0.6654  1.0255
 4853SOL    HW226019   1.279   2.578   2.040 -0.7035 -4.0616  0.6980
 4854SOL     OW26020   2.845   2.011  14.430  0.1341  0.1505  0.1210
 4854SOL    HW126021   2.921   1.955  14.451  0.8270  0.5754 -1.2946
 4854SOL    HW226022   2.823   1.986  14.340  0.1791  1.1636 -0.1670
 4855SOL     OW26023   2.541   4.239  11.254 -0.4006  0.1094 -1.0099
 4855SOL    HW126024   2.517   4.259  11.345  1.1095 -0.1694 -0.5444
 4855SOL    HW226025   2.636   4.242  11.264 -0.2854 -3.0442 -1.2012
 4856SOL     OW26026   4.473   4.537   2.004  0.0619  0.0793  0.2679
 4856SOL    HW126027   4.516   4.535   2.090  0.4574  1.6684  0.1001
 4856SOL    HW226028   4.556   4.542   1.958 -1.3330 -0.8369 -2.3609
 4857SOL     OW26029   1.946   3.290   4.074  0.1879 -0.3321  0.0300
 4857SOL    HW126030   2.006   3.270   4.002 -1.3822 -2.4541 -0.7168
 4857SOL    HW226031   1.872   3.238   4.042  0.9284 -0.8410 -0.8554
 4858SOL     OW26032   1.691   0.513   2.360 -0.2873 -0.2256 -0.2710
 4858SOL    HW126033   1.770   0.555   2.325  0.3767 -0.4225  0.9889
 4858SOL    HW226034   1.627   0.558   2.304  0.9933 -0.4319 -1.9021
 4859SOL     OW26035   2.990   2.617   1.617 -0.1964 -0.2350  0.1468
 4859SOL    HW126036   3.074   2.593   1.657 -0.7197  0.5293  1.7079
 4859SOL    HW226037   2.979   2.552   1.547 -0.8765 -0.8646  0.8467
 4860SOL     OW26038   0.239   2.771   5.894  0.5478 -0.5316  0.0384
 4860SOL    HW126039   0.185   2.700   5.929  0.4697 -0.1052  0.7845
 4860SOL    HW226040   0.297   2.717   5.841 -1.8985 -1.7007 -1.4292
 4861SOL     OW26041   4.662   2.985  12.297  0.8799  0.3110 -0.9323
 4861SOL    HW126042   4.599   3.008  12.229  1.3181 -0.4449 -1.6083
 4861SOL    HW226043   4.640   2.893  12.311  0.1075  1.0536  2.6985
 4862SOL     OW26044   3.071   3.114  14.315 -0.2019 -0.0144 -0.0853
 4862SOL    HW126045   3.092   3.084  14.404  2.0995  0.6168 -0.4143
 4862SOL    HW226046   3.159   3.117  14.276  0.6356  0.8978  1.8669
 4863SOL     OW26047   3.223   3.056   6.967  0.1130 -0.2193 -0.5249
 4863SOL    HW126048   3.223   2.971   7.011  0.2465  2.3097  4.4245
 4863SOL    HW226049   3.310   3.094   6.979  0.1707 -0.7978  0.9452
 4864SOL     OW26050   0.274   4.690  14.121 -0.1108  0.1116  0.2287
 4864SOL    HW126051   0.346   4.723  14.066  1.8283 -4.1411  0.2218
 4864SOL    HW226052   0.329   4.643  14.184 -1.9759  0.0894  1.8082
 4865SOL     OW26053   1.797   3.857   7.472 -0.4210  0.1855  0.0278
 4865SOL    HW126054   1.708   3.842   7.502 -0.8412 -0.5972 -1.6362
 4865SOL    HW226055   1.845   3.840   7.553  2.3265  0.2914 -1.5707
 4866SOL     OW26056   2.852   0.653   6.479 -0.6018 -0.5208  0.2335
 4866SOL    HW126057   2.903   0.606   6.545  0.0426  0.1116  0.1884
 4866SOL    HW226058   2.889   0.739   6.498 -0.5331 -0.1779 -1.4887
 4867SOL     OW26059   2.690   1.960   8.746 -0.3231 -0.0176  0.2233
 4867SOL    HW126060   2.764   1.973   8.687  0.3826  1.2089  1.3834
 4867SOL    HW226061   2.633   1.899   8.699  3.2618 -3.1157 -0.0640
 4868SOL     OW26062   1.573   2.278   5.277 -0.1040 -0.2144 -0.2871
 4868SOL    HW126063   1.502   2.215   5.286 -0.4675  0.0374 -1.4812
 4868SOL    HW226064   1.643   2.217   5.254 -1.1951 -0.8015 -1.9833
 4869SOL     OW26065   0.090   1.876   9.149  0.4921  0.2767 -0.3972
 4869SOL    HW126066   0.185   1.868   9.146  0.4452 -0.0716 -0.9684
 4869SOL    HW226067   0.073   1.951   9.206  1.4723  0.1465  0.0546
 4870SOL     OW26068   0.316   1.324   7.093 -0.1936  0.4716  0.4237
 4870SOL    HW126069   0.354   1.336   7.180  1.4496  3.3232 -0.7048
 4870SOL    HW226070   0.385   1.265   7.061 -2.1701 -0.9622 -1.2082
 4871SOL     OW26071   4.272   4.586   1.309 -0.2009 -0.0266  0.2500
 4871SOL    HW126072   4.200   4.539   1.267  2.1102 -1.5786 -2.0374
 4871SOL    HW226073   4.233   4.672   1.323  1.0829  0.8119 -1.2913
 4872SOL     OW26074   4.327   0.107  11.524 -0.0638  0.4894 -0.3907
 4872SOL    HW126075   4.388   0.121  11.451  1.2480 -0.1435  0.5697
 4872SOL    HW226076   4.246   0.130  11.478 -0.5663 -2.0665 -0.7783
 4873SOL     OW26077   2.098   1.825   5.341  0.0724  0.0481 -0.3102
 4873SOL    HW126078   2.091   1.896   5.404 -3.3103 -0.2264 -0.3480
 4873SOL    HW226079   2.008   1.793   5.346  0.4075 -0.4212  2.9162
 4874SOL     OW26080   1.660   4.551   0.989  0.3300  0.2416  0.6244
 4874SOL    HW126081   1.712   4.612   0.938  1.5805  0.7235  2.4624
 4874SOL    HW226082   1.573   4.553   0.948  0.9469  0.7262 -0.6398
 4875SOL     OW26083   3.753   2.891   3.186  0.0929 -0.1346  0.3404
 4875SOL    HW126084   3.791   2.898   3.099 -3.1620  2.2078 -0.9083
 4875SOL    HW226085   3.825   2.853   3.236  1.0841  3.0729  1.3294
 4876SOL     OW26086   2.985   4.405   2.303  0.0633 -0.7290  0.6578
 4876SOL    HW126087   3.073   4.406   2.340  0.5899  1.0962 -0.6133
 4876SOL    HW226088   2.985   4.332   2.242  1.7662  1.2636 -1.6961
 4877SOL     OW26089   1.260   2.243   6.109 -0.0288  0.2882 -0.0703
 4877SOL    HW126090   1.209   2.313   6.068  1.4944  1.6223  0.2986
 4877SOL    HW226091   1.193   2.177   6.123  1.0894 -0.5786  1.2120
 4878SOL     OW26092   3.062   3.122   4.025  0.2031 -0.0941 -0.3913
 4878SOL    HW126093   3.035   3.177   4.099  0.2921 -2.2000  1.2255
 4878SOL    HW226094   2.984   3.119   3.971 -0.7412 -0.8001  1.0054
 4879SOL     OW26095   0.360   3.889   9.769  0.1874 -0.6252  0.1208
 4879SOL    HW126096   0.345   3.934   9.851 -1.0570 -0.2190 -0.3336
 4879SOL    HW226097   0.451   3.908   9.746 -0.4198  2.1468  0.0406
 4880SOL     OW26098   1.229   1.803   7.907 -0.0124  0.1335 -0.1257
 4880SOL    HW126099   1.224   1.884   7.959 -0.1063 -1.2955  2.1027
 4880SOL    HW226100   1.275   1.749   7.971  0.5847  2.1370  1.1353
 4881SOL     OW26101   2.009   3.829  14.978 -0.0846  0.3658 -0.2350
 4881SOL    HW126102   1.971   3.917  14.964 -1.6106  0.0413  1.8173
 4881SOL    HW226103   2.096   3.837  14.940  0.6987  1.2085  1.7585
 4882SOL     OW26104   4.543   0.906   4.779  0.2804  0.2418  0.2699
 4882SOL    HW126105   4.565   0.989   4.821 -1.1352  1.3862 -1.2720
 4882SOL    HW226106   4.610   0.842   4.804 -0.9653 -0.4671  1.8155
 4883SOL     OW26107   1.234   2.027  10.687 -0.0303  0.2261  0.0636
 4883SOL    HW126108   1.191   1.974  10.754  1.1575 -0.3434  0.3671
 4883SOL    HW226109   1.246   1.952  10.629 -0.1322  2.5231 -2.9541
 4884SOL     OW26110   0.242   4.393  11.660  0.8483 -0.4848 -0.3894
 4884SOL    HW126111   0.295   4.463  11.697 -0.2552  0.4434 -0.5725
 4884SOL    HW226112   0.309   4.352  11.605 -0.7030  2.1086 -4.2313
 4885SOL     OW26113   4.329   3.551  11.019 -0.4264  0.6708 -0.8739
 4885SOL    HW126114   4.313   3.637  11.057  0.0122 -0.0564  0.9412
 4885SOL    HW226115   4.423   3.552  11.001 -0.4820 -0.4185 -1.2579
 4886SOL     OW26116   3.399   3.037   4.712  0.4432 -0.2774 -0.0334
 4886SOL    HW126117   3.437   3.017   4.626 -0.5549 -2.5339  0.0409
 4886SOL    HW226118   3.432   2.966   4.768 -2.5813 -1.9584 -0.3915
 4887SOL     OW26119   4.311   3.663   2.918  0.5178 -0.0438 -0.2089
 4887SOL    HW126120   4.247   3.642   2.986  1.2991 -1.3119  0.1402
 4887SOL    HW226121   4.370   3.587   2.919  0.1276 -0.3213  1.3580
 4888SOL     OW26122   0.013   4.035   4.641  0.0697  0.0058  0.4331
 4888SOL    HW126123   4.653   4.067   4.610  0.6943  2.1862  0.9840
 4888SOL    HW226124   0.015   4.044   4.736 -1.8027 -0.0213  0.4637
 4889SOL     OW26125   3.338   2.396   6.263  0.1006  0.0470 -0.7987
 4889SOL    HW126126   3.302   2.344   6.334  2.0606  0.9703  0.8700
 4889SOL    HW226127   3.390   2.334   6.211  0.2659 -1.3410  1.0255
 4890SOL     OW26128   0.187   1.738  12.613  0.2127  0.3325  0.2699
 4890SOL    HW126129   0.264   1.697  12.653 -0.1314 -0.4251  0.1514
 4890SOL    HW226130   0.224   1.816  12.574 -0.4278  2.0172  2.9961
 4891SOL     OW26131   2.870   1.178   4.897 -0.1424  0.2045  0.1621
 4891SOL    HW126132   2.959   1.201   4.870 -0.4982  0.6324 -0.6582
 4891SOL    HW226133   2.829   1.263   4.913 -0.3124  0.2821 -0.6970
 4892SOL     OW26134   1.817   3.088   0.455 -0.6533 -0.6143 -0.1611
 4892SOL    HW126135   1.818   3.171   0.406  0.4315 -1.0268 -0.8439
 4892SOL    HW226136   1.764   3.025   0.406 -1.0126 -0.2854 -0.1953
 4893SOL     OW26137   3.594   4.020   4.539 -0.3341 -0.5267 -0.1398
 4893SOL    HW126138   3.581   4.115   4.541 -1.2270 -0.6358 -0.4053
 4893SOL    HW226139   3.536   3.989   4.608  0.0124  0.9744  0.8210
 4894SOL     OW26140   3.289   1.974  14.520 -0.2691  0.8121  0.6474
 4894SOL    HW126141   3.285   2.039  14.450  0.3263 -0.3179 -0.4488
 4894SOL    HW226142   3.221   1.917  14.485  0.6454 -0.7659  1.4449
 4895SOL     OW26143   4.449   1.824  12.602  0.2163  0.3736 -0.1723
 4895SOL    HW126144   4.406   1.790  12.524 -0.2886  0.6591 -0.0176
 4895SOL    HW226145   4.380   1.881  12.637  0.7925  0.6665  0.4952
 4896SOL     OW26146   1.237   3.208   6.935 -0.1545 -0.9388 -0.2301
 4896SOL    HW126147   1.269   3.166   6.855 -0.2822  0.2382 -0.9135
 4896SOL    HW226148   1.284   3.146   6.991  0.2829  0.0310  0.4670
 4897SOL     OW26149   1.378   1.427   7.945  0.2835 -0.0914 -0.4993
 4897SOL    HW126150   1.285   1.415   7.923  0.3885  0.4058 -1.2136
 4897SOL    HW226151   1.374   1.501   8.006  3.1911 -0.1586 -0.2232
 4898SOL     OW26152   1.775   1.511   3.188 -0.1953 -0.8743  0.2464
 4898SOL    HW126153   1.721   1.436   3.162  0.4991 -1.6214  0.9429
 4898SOL    HW226154   1.844   1.513   3.122 -0.2440  0.8851  0.2388
 4899SOL     OW26155   0.475   1.781  17.536 -0.2559 -0.6057 -0.2073
 4899SOL    HW126156   0.516   1.820  17.614  0.2566  0.8143 -1.1941
 4899SOL    HW226157   0.402   1.840  17.518  0.7022  0.7795  0.4473
 4900SOL     OW26158   4.679   2.495   6.540 -0.0486  0.2825 -0.1710
 4900SOL    HW126159   4.601   2.440   6.546 -0.2195  0.5469  0.0046
 4900SOL    HW226160   4.710   2.476   6.451 -3.2138  1.2240 -1.4958
 4901SOL     OW26161   1.162   3.651   4.750 -0.2698 -0.1056  0.2039
 4901SOL    HW126162   1.119   3.583   4.803 -0.7959  0.1341  0.0803
 4901SOL    HW226163   1.084   3.671   4.698 -0.0724  1.1609  0.3961
 4902SOL     OW26164   3.973   1.112   6.161  0.3643 -0.2688  0.1455
 4902SOL    HW126165   4.042   1.083   6.221  1.4385 -0.3821 -1.1395
 4902SOL    HW226166   4.004   1.062   6.085  1.3570 -0.4119  0.6503
 4903SOL     OW26167   2.917   3.005   7.134 -0.4089 -0.4847  0.0208
 4903SOL    HW126168   2.826   2.978   7.151 -1.2524  1.8819 -0.6648
 4903SOL    HW226169   2.954   2.920   7.112 -0.3014  0.0819 -1.9627
 4904SOL     OW26170   3.558   1.438  12.922  0.1843 -0.6503  0.0040
 4904SOL    HW126171   3.610   1.474  12.850  1.7593  0.3411  1.6354
 4904SOL    HW226172   3.624   1.407  12.983  0.2068  0.9703  0.8044
 4905SOL     OW26173   0.517   0.621  12.088  0.1377 -0.0574  0.0664
 4905SOL    HW126174   0.475   0.694  12.042 -2.4111 -0.9932  0.9278
 4905SOL    HW226175   0.602   0.602  12.047  1.0136 -0.8168  2.2258
 4906SOL     OW26176   2.789   0.035   4.904  0.0334  0.3952  0.3371
 4906SOL    HW126177   2.838   0.099   4.853  1.2154 -0.8034 -0.0267
 4906SOL    HW226178   2.720   0.014   4.840  0.0475  0.6625  0.2342
 4907SOL     OW26179   4.560   0.852   1.663  0.4059 -0.1114 -0.0258
 4907SOL    HW126180   4.623   0.924   1.669 -1.9951  1.8817  1.2585
 4907SOL    HW226181   4.575   0.831   1.571 -0.2116 -0.9701  0.0710
 4908SOL     OW26182   2.924   1.727   1.750 -0.4094  0.5213 -0.6736
 4908SOL    HW126183   3.017   1.703   1.751 -0.0904  1.8283  1.3688
 4908SOL    HW226184   2.887   1.653   1.701 -1.0281 -0.5211  1.3628
 4909SOL     OW26185   1.044   4.367   7.818 -0.6182 -0.0754 -0.1968
 4909SOL    HW126186   1.061   4.298   7.754  1.8332 -0.0082  0.4083
 4909SOL    HW226187   1.020   4.441   7.762  1.0607 -0.0931 -0.9479
 4910SOL     OW26188   2.660   2.329  14.341  0.0597  0.0278 -0.2548
 4910SOL    HW126189   2.657   2.243  14.383  0.6120  0.8898  1.5476
 4910SOL    HW226190   2.738   2.372  14.374 -0.5059  1.1559 -0.3917
 4911SOL     OW26191   4.226   3.717   9.493  0.2665  0.3559 -0.1945
 4911SOL    HW126192   4.194   3.732   9.582  1.3627 -1.4870  0.5076
 4911SOL    HW226193   4.298   3.780   9.485  0.7897 -0.1865  0.2550
 4912SOL     OW26194   4.488   1.648   3.515  0.3548  0.2923 -0.1591
 4912SOL    HW126195   4.577   1.616   3.530  0.6930  0.5717 -1.6043
 4912SOL    HW226196   4.499   1.743   3.513 -0.2277  0.3474 -0.8526
 4913SOL     OW26197   0.502   2.387  12.473  0.2597  0.3028  0.4029
 4913SOL    HW126198   0.467   2.471  12.501 -1.8698 -0.7584  0.8887
 4913SOL    HW226199   0.567   2.416  12.409 -0.9450 -1.2908 -1.5462
 4914SOL     OW26200   0.122   3.056   4.057  0.2206 -0.3794  0.3039
 4914SOL    HW126201   0.118   2.972   4.104  2.5962 -1.1273 -0.8555
 4914SOL    HW226202   0.174   3.039   3.979  0.0591 -0.9859  0.3319
 4915SOL     OW26203   0.374   3.652   6.098  0.1425 -0.0580  0.4243
 4915SOL    HW126204   0.366   3.733   6.047  0.2893 -0.5770 -0.4255
 4915SOL    HW226205   0.469   3.641   6.091 -0.1943 -1.1754 -2.2277
 4916SOL     OW26206   4.508   3.040   6.057 -0.3469 -0.2212 -0.0162
 4916SOL    HW126207   4.601   3.023   6.044  0.1528  0.2577  2.8998
 4916SOL    HW226208   4.469   2.953   6.071 -0.5393 -0.4761 -2.0931
 4917SOL     OW26209   4.714   1.282   1.146 -0.3696  0.0288 -0.1100
 4917SOL    HW126210   0.057   1.231   1.191 -1.3282 -1.1135  0.0470
 4917SOL    HW226211   0.035   1.330   1.077  1.1259  1.3568  1.7906
 4918SOL     OW26212   1.050   2.868  11.100 -0.3125  0.9287 -0.1759
 4918SOL    HW126213   1.118   2.902  11.157 -0.4967 -0.0066  0.6106
 4918SOL    HW226214   1.044   2.938  11.035 -1.7973  1.2319  0.2796
 4919SOL     OW26215   1.495   1.969   2.772 -0.1950 -0.1884 -0.6175
 4919SOL    HW126216   1.432   1.929   2.713 -0.2910 -1.9875  0.7193
 4919SOL    HW226217   1.475   1.933   2.859  0.6147  1.2957  0.2019
 4920SOL     OW26218   3.778   1.041   7.470  0.0763  0.2151 -0.1398
 4920SOL    HW126219   3.760   1.047   7.564  0.5341 -0.9462  0.0288
 4920SOL    HW226220   3.722   0.964   7.456  0.7278 -0.1293 -0.8464
 4921SOL     OW26221   2.334   0.181  17.696 -0.2880 -0.0596 -0.4635
 4921SOL    HW126222   2.427   0.195  17.674 -0.0831 -3.2987 -1.6446
 4921SOL    HW226223   2.308   0.146  17.610 -1.4919  2.3860 -1.0964
 4922SOL     OW26224   3.401   4.010   3.441 -0.5305  0.1354 -0.0732
 4922SOL    HW126225   3.358   3.984   3.359  1.6597 -1.4818 -0.6912
 4922SOL    HW226226   3.355   4.088   3.473  1.1805  0.4341  1.6345
 4923SOL     OW26227   0.058   1.042   7.951 -0.6295  0.4176  0.5029
 4923SOL    HW126228   0.030   0.994   7.874  0.2347 -1.0738  1.1071
 4923SOL    HW226229   0.154   1.043   7.961 -0.6555 -2.6072  1.0454
 4924SOL     OW26230   3.579   3.815  12.059 -0.4954  0.2855 -0.8457
 4924SOL    HW126231   3.530   3.774  12.131  1.2895 -0.5474 -0.0999
 4924SOL    HW226232   3.633   3.739  12.036 -2.3795 -0.6877 -2.0170
 4925SOL     OW26233   2.353   3.438  16.710 -0.4620 -0.4584  0.3692
 4925SOL    HW126234   2.365   3.344  16.696 -0.4643 -0.3539 -0.3237
 4925SOL    HW226235   2.269   3.441  16.665 -0.2010 -4.0146 -0.4066
 4926SOL     OW26236   3.397   0.876  15.906 -0.4223  0.2478 -0.1246
 4926SOL    HW126237   3.388   0.969  15.887  1.7373  0.7480  1.1660
 4926SOL    HW226238   3.406   0.832  15.822 -1.4147 -0.1888  0.0068
 4927SOL     OW26239   3.988   2.978   8.754 -0.0312 -0.4121  0.2766
 4927SOL    HW126240   3.970   2.889   8.723 -2.9438  1.0604 -2.2577
 4927SOL    HW226241   3.904   3.009   8.788  0.8673  1.7157  0.5545
 4928SOL     OW26242   4.400   1.702   1.334  0.2472  0.4811 -0.0297
 4928SOL    HW126243   4.371   1.611   1.338  0.8989  0.3513  1.7646
 4928SOL    HW226244   4.489   1.683   1.365  0.2780  2.3977  1.0221
 4929SOL     OW26245   0.281   2.654  13.277  0.0936 -0.0440  0.2836
 4929SOL    HW126246   0.263   2.747  13.286  1.8512  0.5129 -1.8450
 4929SOL    HW226247   0.206   2.633  13.332 -0.0080 -1.7349 -0.4806
 4930SOL     OW26248   1.101   1.658  13.218  0.3153 -0.0992  0.0975
 4930SOL    HW126249   1.141   1.597  13.281  2.3440  1.1746  0.0516
 4930SOL    HW226250   1.125   1.735  13.269 -1.3346  0.9201 -0.6729
 4931SOL     OW26251   0.835   0.441   1.838  0.5347 -0.1796  0.3678
 4931SOL    HW126252   0.766   0.501   1.810 -0.8621 -1.3310  1.3093
 4931SOL    HW226253   0.838   0.455   1.933  0.9857 -1.6895  0.5799
 4932SOL     OW26254   4.327   2.501   2.658 -0.0091  0.2849  0.2063
 4932SOL    HW126255   4.265   2.511   2.586  1.0766 -0.1236 -0.7774
 4932SOL    HW226256   4.358   2.586   2.689 -0.1190 -0.8328  3.4014
 4933SOL     OW26257   3.725   0.301   3.880  0.3530 -0.5815 -0.1879
 4933SOL    HW126258   3.820   0.313   3.886  0.2900 -1.5996  2.9869
 4933SOL    HW226259   3.716   0.208   3.902  1.7992 -0.8309 -0.6283
 4934SOL     OW26260   2.508   0.573   6.839 -0.4536 -0.6173  0.1164
 4934SOL    HW126261   2.421   0.609   6.825 -0.5386 -0.2063  1.6651
 4934SOL    HW226262   2.563   0.651   6.848 -0.8579 -0.2640 -0.4831
 4935SOL     OW26263   0.109   3.518   2.019 -0.1473 -0.2686 -0.4019
 4935SOL    HW126264   0.115   3.499   2.113 -0.4371 -0.0555 -0.3397
 4935SOL    HW226265   0.041   3.585   2.022  0.1149 -0.0866  1.6476
 4936SOL     OW26266   0.912   1.006   6.878 -0.5195  0.9793  0.0468
 4936SOL    HW126267   0.903   1.070   6.807 -0.3762  0.6508 -0.2720
 4936SOL    HW226268   0.900   0.920   6.839  1.8907  0.0871  1.2686
 4937SOL     OW26269   0.261   2.214  11.312 -0.0162  0.9985 -0.1508
 4937SOL    HW126270   0.299   2.189  11.396 -3.3106 -0.5333  0.9092
 4937SOL    HW226271   0.236   2.301  11.343  0.1924  0.0223  2.7779
 4938SOL     OW26272   0.413   1.386   7.366 -0.1324  0.2912  0.2979
 4938SOL    HW126273   0.367   1.319   7.416 -0.2372  0.8085  0.8903
 4938SOL    HW226274   0.358   1.461   7.388 -0.0349 -0.5000  3.2243
 4939SOL     OW26275   0.425   3.121  14.613  0.2671  0.2474  0.1884
 4939SOL    HW126276   0.374   3.139  14.692 -0.2597  0.0898 -0.1128
 4939SOL    HW226277   0.414   3.027  14.598  1.9658 -0.3941  2.9398
 4940SOL     OW26278   1.209   1.170   2.013 -0.1426  0.1332 -0.0366
 4940SOL    HW126279   1.186   1.150   2.104 -2.2786 -1.6564 -0.9829
 4940SOL    HW226280   1.243   1.083   1.990  2.9920  0.6334  2.5896
 4941SOL     OW26281   3.536   0.567   9.503 -0.4139  0.1211  0.5579
 4941SOL    HW126282   3.527   0.478   9.468 -0.6487 -0.1153  1.2034
 4941SOL    HW226283   3.447   0.579   9.537 -0.2706  3.1947 -0.1669
 4942SOL     OW26284   2.305   3.659   1.773  0.2578  0.2767 -0.5186
 4942SOL    HW126285   2.364   3.692   1.706  1.0414 -0.4509 -0.1784
 4942SOL    HW226286   2.349   3.687   1.853  0.4024  1.0442 -0.8680
 4943SOL     OW26287   2.696   2.702   3.018 -0.2908  0.0804  0.3488
 4943SOL    HW126288   2.704   2.642   3.092 -0.4700  1.1463  1.2220
 4943SOL    HW226289   2.612   2.745   3.034  0.6404  0.8778  3.1204
 4944SOL     OW26290   1.737   2.290   1.420 -1.1402 -0.2681 -0.0738
 4944SOL    HW126291   1.831   2.302   1.431 -1.0632 -0.5000 -0.5092
 4944SOL    HW226292   1.731   2.203   1.382  0.0817 -1.0932  1.6088
 4945SOL     OW26293   0.891   4.671  14.211 -0.2897 -0.3623 -0.1116
 4945SOL    HW126294   0.850   4.661  14.125 -0.1699  0.9810 -0.3342
 4945SOL    HW226295   0.827   4.611  14.250  0.3611  0.3855  2.1007
 4946SOL     OW26296   1.930   3.240   5.220 -0.1059  0.2855 -0.3483
 4946SOL    HW126297   1.870   3.258   5.147 -0.7544  0.2200  0.1698
 4946SOL    HW226298   2.005   3.294   5.195 -1.9482  3.7177  1.5997
 4947SOL     OW26299   1.351   3.228  13.502  0.3048  0.2495 -0.1144
 4947SOL    HW126300   1.311   3.313  13.519  1.2726  0.5535  0.6654
 4947SOL    HW226301   1.344   3.217  13.407  0.4084 -1.3908  0.0588
 4948SOL     OW26302   3.203   1.258   5.218  0.2083  0.2804  0.4407
 4948SOL    HW126303   3.208   1.290   5.128  0.2619  0.3863  0.4818
 4948SOL    HW226304   3.249   1.330   5.262 -0.8280  1.3481 -0.2186
 4949SOL     OW26305   4.634   0.989   6.934  0.0301  0.0637 -0.2185
 4949SOL    HW126306   4.689   1.057   6.971 -2.2728  1.2660  1.0417
 4949SOL    HW226307   4.681   0.911   6.963  0.6649 -0.1366 -1.7896
 4950SOL     OW26308   3.354   0.042   6.729 -0.0556 -0.2307  0.3513
 4950SOL    HW126309   3.377   0.117   6.674 -1.0681  0.2461  0.5720
 4950SOL    HW226310   3.273   0.076   6.767 -1.0572 -0.7945 -1.2995
 4951SOL     OW26311   2.585   2.373   6.096  0.2689 -0.0752 -0.1564
 4951SOL    HW126312   2.591   2.400   6.005 -1.1445  0.7788  0.0045
 4951SOL    HW226313   2.666   2.404   6.135  0.1750  0.1474 -0.1366
 4952SOL     OW26314   2.576   4.432  17.437  0.0064 -0.1855 -0.4213
 4952SOL    HW126315   2.531   4.354  17.405 -1.7870  1.1662 -1.2066
 4952SOL    HW226316   2.551   4.423  17.529  2.5941  2.9589  0.5931
 4953SOL     OW26317   4.236   2.151  12.416 -0.1282 -0.2153  0.0719
 4953SOL    HW126318   4.147   2.141  12.450  0.8728 -3.7256  1.7170
 4953SOL    HW226319   4.254   2.057  12.409  0.3548 -0.0229 -1.2478
 4954SOL     OW26320   0.239   2.690  15.791 -0.1764 -0.1756  0.0363
 4954SOL    HW126321   0.166   2.725  15.740  0.5877  0.3366 -0.6981
 4954SOL    HW226322   0.194   2.687  15.876  1.1077  1.2472  0.7631
 4955SOL     OW26323   4.007   3.128  17.207 -0.0887 -0.2910 -0.1321
 4955SOL    HW126324   3.936   3.176  17.250  0.5936  0.8865 -0.3149
 4955SOL    HW226325   3.958   3.056  17.167  0.2586  0.9340 -2.7451
 4956SOL     OW26326   3.604   1.866   9.913  0.3981  0.2463  0.0325
 4956SOL    HW126327   3.676   1.904   9.963  1.1755  0.3916 -1.2145
 4956SOL    HW226328   3.565   1.800   9.971 -1.6687  2.5369  1.2549
 4957SOL     OW26329   4.203   4.404   6.689 -0.3942 -0.0979 -0.4565
 4957SOL    HW126330   4.197   4.426   6.781 -0.6235 -0.2137 -0.4418
 4957SOL    HW226331   4.276   4.345   6.672  0.4589  0.6236  0.7742
 4958SOL     OW26332   1.511   0.822   6.720 -0.6014  0.0183  0.3513
 4958SOL    HW126333   1.466   0.742   6.747 -0.4623 -0.4455 -0.7958
 4958SOL    HW226334   1.438   0.884   6.714  0.0885  0.8710  0.8628
 4959SOL     OW26335   2.422   1.371   9.668 -0.2852 -0.3501  0.1611
 4959SOL    HW126336   2.416   1.466   9.658  0.8948 -0.3217 -0.2167
 4959SOL    HW226337   2.332   1.352   9.695 -1.0429  3.0758  0.0379
 4960SOL     OW26338   0.669   3.288   2.890 -0.1579  0.1450  0.5183
 4960SOL    HW126339   0.667   3.230   2.966 -1.9478  0.1228  0.4331
 4960SOL    HW226340   0.724   3.357   2.927  1.7830  0.1424 -2.3955
 4961SOL     OW26341   3.018   2.393   6.270 -0.6143 -0.3765  0.3105
 4961SOL    HW126342   3.039   2.445   6.347 -3.9671  1.9697 -0.3505
 4961SOL    HW226343   3.100   2.403   6.221 -0.4820 -0.6540  0.4814
 4962SOL     OW26344   1.311   4.243   2.497  0.0629 -0.2423 -0.4546
 4962SOL    HW126345   1.216   4.245   2.501  0.0874 -0.3291  0.1088
 4962SOL    HW226346   1.323   4.334   2.527 -0.0369 -0.0925 -0.8621
 4963SOL     OW26347   3.714   0.264   0.250  0.6199  0.3742  0.2355
 4963SOL    HW126348   3.688   0.353   0.271 -1.0923 -0.3336  1.1327
 4963SOL    HW226349   3.683   0.223   0.331 -2.9234 -0.0348 -1.3266
 4964SOL     OW26350   2.523   1.631  16.771  0.0639 -0.0200 -0.7171
 4964SOL    HW126351   2.493   1.711  16.728 -0.6878 -1.1574 -2.3071
 4964SOL    HW226352   2.613   1.615  16.742  0.8250  1.2357  0.9792
 4965SOL     OW26353   1.181   1.500   5.928 -0.6718 -1.0465  0.0485
 4965SOL    HW126354   1.216   1.518   6.015  1.1375  0.1242 -0.9283
 4965SOL    HW226355   1.262   1.477   5.883  0.2141  2.3517 -0.0668
 4966SOL     OW26356   0.758   4.697  15.665  0.2300  0.9959  0.0300
 4966SOL    HW126357   0.714   4.670  15.745  0.8464  2.4531  0.8519
 4966SOL    HW226358   0.835   0.007  15.711  1.9352 -0.1821 -1.9343
 4967SOL     OW26359   2.861   2.385   6.649 -0.4651 -0.3371  0.1335
 4967SOL    HW126360   2.940   2.374   6.702  0.4944  2.0650 -0.8036
 4967SOL    HW226361   2.848   2.298   6.610 -1.1034  0.1441 -0.7295
 4968SOL     OW26362   0.928   2.616  12.952 -0.2747  0.1511 -1.0529
 4968SOL    HW126363   1.012   2.606  12.908 -0.6198 -2.9159 -1.0310
 4968SOL    HW226364   0.878   2.535  12.942  1.6338 -1.1987  0.2622
 4969SOL     OW26365   2.914   3.332   2.579 -0.3837 -0.1479  0.0111
 4969SOL    HW126366   2.980   3.400   2.589 -1.0060  0.2028  1.7374
 4969SOL    HW226367   2.880   3.331   2.489  0.6114  1.2075 -0.3695
 4970SOL     OW26368   4.386   3.592  13.140 -0.4008 -0.1956  0.0811
 4970SOL    HW126369   4.303   3.618  13.179 -0.8755 -2.1238  0.3131
 4970SOL    HW226370   4.417   3.670  13.094  1.8233 -2.0621 -1.5675
 4971SOL     OW26371   1.203   4.181   8.349  0.6342  0.1353 -0.0548
 4971SOL    HW126372   1.154   4.261   8.366  0.3946 -0.0139 -0.0503
 4971SOL    HW226373   1.136   4.119   8.319  1.6301 -0.4920 -1.0110
 4972SOL     OW26374   1.180   0.260  12.513 -0.0665 -0.2609  0.0407
 4972SOL    HW126375   1.208   0.225  12.598  0.3416 -1.2354 -0.5020
 4972SOL    HW226376   1.168   0.349  12.548 -1.3727 -0.0666 -0.8933
 4973SOL     OW26377   2.709   1.227   8.763 -0.5366  0.0745 -0.0261
 4973SOL    HW126378   2.741   1.316   8.778 -0.2827  0.5006 -3.1407
 4973SOL    HW226379   2.689   1.233   8.669 -0.2283 -0.5257 -0.1268
 4974SOL     OW26380   1.639   2.964   4.605  0.0130  0.3166 -0.4358
 4974SOL    HW126381   1.693   2.893   4.571 -0.8068  0.6537 -2.4039
 4974SOL    HW226382   1.612   3.010   4.526 -1.1090 -2.7769 -1.8073
 4975SOL     OW26383   4.717   2.523   5.416 -0.2718  0.0219 -0.5249
 4975SOL    HW126384   4.723   2.577   5.337 -0.0697 -0.0161 -0.5360
 4975SOL    HW226385   4.628   2.489   5.412 -0.1282 -0.4661  0.4260
 4976SOL     OW26386   2.179   0.438  12.283 -0.6668  0.1058 -0.3989
 4976SOL    HW126387   2.260   0.485  12.266  0.1657 -0.6151  1.5251
 4976SOL    HW226388   2.156   0.397  12.200  0.6341 -0.7155 -0.3515
 4977SOL     OW26389   3.122   0.596   9.213 -0.1479 -0.0866 -0.0689
 4977SOL    HW126390   3.200   0.614   9.162  1.2330 -1.8253  1.4385
 4977SOL    HW226391   3.075   0.542   9.150 -0.4350  0.0146  0.0538
 4978SOL     OW26392   3.762   1.025   4.522  0.1690  0.0179  0.2879
 4978SOL    HW126393   3.778   1.085   4.449 -1.1469  0.4264  0.3258
 4978SOL    HW226394   3.766   1.089   4.593 -3.3045  1.0592 -0.4523
 4979SOL     OW26395   2.503   0.189  15.386 -0.0718  0.0710 -0.3684
 4979SOL    HW126396   2.436   0.211  15.322  1.6369  1.6215 -1.6274
 4979SOL    HW226397   2.560   0.126  15.342  2.0717  2.3165 -0.8330
 4980SOL     OW26398   3.956   4.325   3.819  0.0698  0.5503 -0.1682
 4980SOL    HW126399   3.913   4.353   3.738 -1.6494 -0.9658  0.2181
 4980SOL    HW226400   3.885   4.324   3.883 -0.0937 -0.5610 -0.3784
 4981SOL     OW26401   0.540   1.917   7.609 -0.2384 -0.4719  0.3018
 4981SOL    HW126402   0.604   1.975   7.651 -2.4732  0.8184  1.9432
 4981SOL    HW226403   0.590   1.842   7.577 -0.7432 -1.7339  2.4528
 4982SOL     OW26404   4.248   0.707  13.212 -0.6310 -0.2974  0.4978
 4982SOL    HW126405   4.302   0.762  13.269 -0.0699  0.7093 -0.9932
 4982SOL    HW226406   4.329   0.663  13.186 -0.6288  0.0971 -0.1705
 4983SOL     OW26407   4.480   3.542   4.691 -0.2928  0.3185 -0.0547
 4983SOL    HW126408   4.517   3.545   4.603 -1.2097  2.0453 -0.3746
 4983SOL    HW226409   4.403   3.598   4.682 -1.5806 -1.3172  0.7067
 4984SOL     OW26410   0.072   2.200  12.594 -0.1017 -0.4930 -0.2474
 4984SOL    HW126411   0.101   2.119  12.636  1.2863 -1.1103 -2.3982
 4984SOL    HW226412   0.007   2.161  12.536 -1.0209 -1.2529  1.2948
 4985SOL     OW26413   3.869   1.384   3.026 -0.0546 -0.0826  0.6543
 4985SOL    HW126414   3.949   1.332   3.015  0.4803  0.7611  0.5005
 4985SOL    HW226415   3.840   1.343   3.108  1.7718 -0.6450  1.0415
 4986SOL     OW26416   0.588   3.756   4.754 -0.0776 -0.3618  0.1249
 4986SOL    HW126417   0.661   3.737   4.695 -0.4130 -0.6807 -0.1854
 4986SOL    HW226418   0.597   3.851   4.765  0.1636 -0.5712  1.6642
 4987SOL     OW26419   4.512   1.832   9.476  0.2818 -0.4803 -0.0292
 4987SOL    HW126420   4.558   1.794   9.402 -2.0396 -0.2065 -1.6167
 4987SOL    HW226421   4.559   1.783   9.543 -1.3672 -0.6157  1.0425
 4988SOL     OW26422   2.560   2.534   2.792 -0.0563  0.5063  0.2831
 4988SOL    HW126423   2.468   2.558   2.797 -1.0432 -3.1602 -0.0401
 4988SOL    HW226424   2.602   2.592   2.856  1.4526  0.2769 -0.5055
 4989SOL     OW26425   4.304   1.863  10.897 -0.5693 -0.1604 -0.0388
 4989SOL    HW126426   4.358   1.785  10.898  0.6597  0.5953 -4.1060
 4989SOL    HW226427   4.247   1.847  10.972 -0.1134  2.1946  0.8209
 4990SOL     OW26428   1.544   1.312   4.692  0.5852  0.3804 -0.2214
 4990SOL    HW126429   1.461   1.268   4.714 -0.0174  1.1822 -0.8749
 4990SOL    HW226430   1.512   1.402   4.695 -1.1666 -0.2329 -0.2471
 4991SOL     OW26431   1.690   2.859   6.472  0.4623 -0.1953  0.3410
 4991SOL    HW126432   1.728   2.836   6.387 -1.8167 -1.2962 -0.3859
 4991SOL    HW226433   1.745   2.933   6.498 -1.5136  1.3129  0.1598
 4992SOL     OW26434   1.088   4.344  10.055 -0.1090  0.2001  0.0613
 4992SOL    HW126435   0.995   4.328  10.040 -0.2148  1.3724 -0.5898
 4992SOL    HW226436   1.124   4.311   9.972  0.2928 -1.0415  0.7329
 4993SOL     OW26437   0.832   1.568   0.513  0.7248  0.1207  0.3784
 4993SOL    HW126438   0.876   1.616   0.583 -0.1109  1.6280 -0.1371
 4993SOL    HW226439   0.744   1.559   0.549  0.0211  0.1545 -1.3012
 4994SOL     OW26440   2.173   2.062   6.095 -0.0834 -0.5598 -0.0664
 4994SOL    HW126441   2.107   2.068   6.026 -1.3934  1.3615  1.3480
 4994SOL    HW226442   2.133   2.121   6.159  0.8319 -0.3055  0.2677
 4995SOL     OW26443   3.818   3.948   1.081 -0.0734  0.3614  0.4642
 4995SOL    HW126444   3.879   3.914   1.146  0.9073  0.2522 -0.5256
 4995SOL    HW226445   3.848   3.908   0.999  0.0717 -1.4977  1.4313
 4996SOL     OW26446   4.306   2.804   3.555  0.1144 -0.2910  0.0404
 4996SOL    HW126447   4.339   2.858   3.483 -2.6308 -1.4817 -2.1201
 4996SOL    HW226448   4.261   2.739   3.500  0.6924 -1.3763  0.8648
 4997SOL     OW26449   2.805   1.651  16.380 -0.6303 -0.0880  0.6168
 4997SOL    HW126450   2.829   1.658  16.287  0.6072 -3.5268  0.6692
 4997SOL    HW226451   2.824   1.557  16.389 -0.2092  0.2124  2.8844
 4998SOL     OW26452   3.861   1.534   7.422  0.1746  0.2530  0.3585
 4998SOL    HW126453   3.932   1.598   7.425 -0.2742  0.8575 -2.0375
 4998SOL    HW226454   3.883   1.479   7.347 -1.0985  0.1743  0.0471
 4999SOL     OW26455   0.742   3.259   1.248 -0.3596  0.7574  0.1641
 4999SOL    HW126456   0.692   3.177   1.254  0.6094  0.2509  1.3911
 4999SOL    HW226457   0.765   3.257   1.155 -1.2088 -2.4187  0.0044
 5000SOL     OW26458   1.454   0.258   8.111 -0.0836  0.2362  0.6759
 5000SOL    HW126459   1.361   0.236   8.109  0.3871 -1.6716 -0.2096
 5000SOL    HW226460   1.464   0.320   8.183  1.2975  0.3142  0.4253
 5001SOL     OW26461   0.418   3.528   5.085 -0.0369  0.8300 -0.0880
 5001SOL    HW126462   0.451   3.456   5.031  1.0440  1.1580  0.1429
 5001SOL    HW226463   0.342   3.490   5.131  0.1148  0.7509  0.0952
 5002SOL     OW26464   0.516   0.974   7.070 -0.0240  0.0934 -0.3828
 5002SOL    HW126465   0.576   0.963   7.143 -0.5590 -1.2518 -0.1489
 5002SOL    HW226466   0.575   1.015   7.006  0.8008 -0.6152 -0.0731
 5003SOL     OW26467   2.538   0.593   6.018  0.3806  1.3810  0.0377
 5003SOL    HW126468   2.592   0.566   6.093  0.3158 -1.5354 -0.9643
 5003SOL    HW226469   2.472   0.648   6.061 -2.6792 -1.6161 -0.7443
 5004SOL     OW26470   3.200   0.261  15.291  0.2604  0.0460 -0.0963
 5004SOL    HW126471   3.201   0.257  15.386  0.8894  1.9196 -0.0160
 5004SOL    HW226472   3.273   0.201  15.274 -0.7774 -1.3048  0.2511
 5005SOL     OW26473   3.074   3.332   7.407  0.1724  0.0959  0.4073
 5005SOL    HW126474   3.168   3.312   7.406  0.2210  0.3923 -0.8329
 5005SOL    HW226475   3.078   3.379   7.490 -1.5278 -0.5549  0.8490
 5006SOL     OW26476   2.072   3.164   7.384  0.9689 -0.4995 -0.4801
 5006SOL    HW126477   2.154   3.164   7.434 -1.0586 -0.5888  2.8752
 5006SOL    HW226478   2.110   3.126   7.305  1.4330 -1.1483  0.0601
 5007SOL     OW26479   1.163   1.526   8.284  0.1613  0.1195  0.3682
 5007SOL    HW126480   1.077   1.486   8.277  0.4175 -0.1950 -1.0325
 5007SOL    HW226481   1.198   1.482   8.362  1.7211 -1.3359 -1.1250
 5008SOL     OW26482   2.906   1.676  12.754 -0.1477 -0.2251 -0.1497
 5008SOL    HW126483   3.000   1.694  12.759 -0.5514  2.1452 -0.9976
 5008SOL    HW226484   2.903   1.712  12.665  1.1185 -1.3120 -0.6449
 5009SOL     OW26485   0.316   1.862   6.826  0.3023  0.5637  0.7760
 5009SOL    HW126486   0.225   1.877   6.849 -0.1872  0.2090 -0.9676
 5009SOL    HW226487   0.318   1.773   6.859  0.7682  0.9318  1.7353
 5010SOL     OW26488   4.636   2.123  11.102  0.2207  0.5631 -0.3047
 5010SOL    HW126489   4.558   2.071  11.123  1.1345 -1.4464 -1.9135
 5010SOL    HW226490   4.664   2.137  11.193  1.3977 -0.9209 -0.4589
 5011SOL     OW26491   0.166   0.216   3.428  0.1323 -0.4281 -0.0972
 5011SOL    HW126492   0.155   0.301   3.471  1.1121  0.1013 -0.8830
 5011SOL    HW226493   0.178   0.240   3.336 -0.1635 -1.9145 -0.5315
 5012SOL     OW26494   1.394   1.557   4.169 -0.6537 -0.1973  0.0611
 5012SOL    HW126495   1.340   1.626   4.131 -0.4381  0.6243  1.2255
 5012SOL    HW226496   1.347   1.552   4.252 -1.2449 -0.0591 -0.2677
 5013SOL     OW26497   3.396   4.019   4.298  0.1917 -0.3982  0.6358
 5013SOL    HW126498   3.342   4.089   4.335 -0.6855  0.3028 -1.9283
 5013SOL    HW226499   3.363   3.942   4.344  0.2604 -0.7587  0.0817
 5014SOL     OW26500   0.471   2.166   3.328 -0.0513 -0.2253 -0.0986
 5014SOL    HW126501   0.450   2.096   3.390 -1.3289  0.5788  0.3832
 5014SOL    HW226502   0.467   2.106   3.254  1.2184  2.6626 -2.4976
 5015SOL     OW26503   1.266   1.604   2.701 -0.2355  0.2888 -0.0847
 5015SOL    HW126504   1.315   1.684   2.680 -0.7201  1.0694  1.7486
 5015SOL    HW226505   1.192   1.634   2.753  0.0152  0.3025  0.2631
 5016SOL     OW26506   4.479   2.378   8.953 -0.0064  0.1497 -0.0170
 5016SOL    HW126507   4.476   2.406   9.044  1.0144  3.6041 -1.0130
 5016SOL    HW226508   4.387   2.387   8.928 -0.4268  2.3003  2.3283
 5017SOL     OW26509   2.570   3.546   6.834  0.0681  0.1273 -0.7801
 5017SOL    HW126510   2.639   3.494   6.794  0.9654  1.1591 -0.5695
 5017SOL    HW226511   2.540   3.589   6.753 -0.6817 -0.1738 -0.6654
 5018SOL     OW26512   4.698   2.507   1.212 -0.0006  0.0347  0.3002
 5018SOL    HW126513   0.059   2.492   1.173 -0.3149  0.0428 -0.3887
 5018SOL    HW226514   4.671   2.419   1.239 -0.3055  0.0381  0.0039
 5019SOL     OW26515   2.843   0.182   9.168  0.2928 -0.0254  0.0570
 5019SOL    HW126516   2.905   0.110   9.155  2.0677  1.4639  0.1412
 5019SOL    HW226517   2.766   0.145   9.126  1.1872 -1.9326  0.0756
 5020SOL     OW26518   3.767   3.311   3.216  0.2830  0.0514 -0.6851
 5020SOL    HW126519   3.848   3.345   3.179  1.0268 -0.9116  0.0456
 5020SOL    HW226520   3.736   3.388   3.263  0.9388 -0.3100  0.3440
 5021SOL     OW26521   4.386   0.985  11.245 -0.4971  0.2134 -0.1861
 5021SOL    HW126522   4.373   0.997  11.339  0.5241 -1.3327  0.1539
 5021SOL    HW226523   4.445   1.059  11.231  0.3683 -0.1717  1.4754
 5022SOL     OW26524   1.155   4.709   5.165 -0.0549  0.1620 -0.3338
 5022SOL    HW126525   1.082   4.711   5.103  0.2138 -2.2911 -0.7085
 5022SOL    HW226526   1.190   0.074   5.158  0.0541  0.1423 -0.0646
 5023SOL     OW26527   0.046   3.952   6.157  0.3227  0.2552 -0.2857
 5023SOL    HW126528   4.677   3.965   6.172  0.4851 -0.6724  1.5061
 5023SOL    HW226529   0.057   3.859   6.174  0.0599  0.5829  1.5824
 5024SOL     OW26530   2.332   3.967   7.882  0.5956 -0.0217 -0.4299
 5024SOL    HW126531   2.253   3.997   7.838  0.0351  0.6650  1.0412
 5024SOL    HW226532   2.332   3.871   7.873  3.1583 -0.1712  1.0196
 5025SOL     OW26533   4.021   3.840   3.019  0.1038  0.6919 -0.5798
 5025SOL    HW126534   4.060   3.853   3.106 -1.5662 -0.1180  0.2889
 5025SOL    HW226535   3.932   3.813   3.041  1.7182 -1.9110  2.7254
 5026SOL     OW26536   3.112   0.943   3.862 -0.8237  0.2572  0.4539
 5026SOL    HW126537   3.129   0.942   3.768 -0.4786  3.1066  0.4715
 5026SOL    HW226538   3.027   0.988   3.860 -0.5464  0.8046  1.0665
 5027SOL     OW26539   1.613   0.281   2.583 -0.1275  0.1513 -0.1293
 5027SOL    HW126540   1.665   0.343   2.533  1.8486 -2.1400 -0.9556
 5027SOL    HW226541   1.524   0.308   2.561  0.0761  1.0220  0.1157
 5028SOL     OW26542   2.143   3.129   2.956 -0.2601 -0.0927 -0.4681
 5028SOL    HW126543   2.149   3.199   2.892  3.0084  0.7768  0.8014
 5028SOL    HW226544   2.095   3.162   3.032 -1.1658  1.0883 -1.5407
 5029SOL     OW26545   2.523   4.349   8.019 -0.0828  0.2063 -0.2125
 5029SOL    HW126546   2.507   4.289   7.947  1.6574  0.7414 -1.0446
 5029SOL    HW226547   2.476   4.309   8.092  0.3001 -0.9230 -0.5926
 5030SOL     OW26548   2.826   4.412  11.925 -0.4727 -0.0920  0.1441
 5030SOL    HW126549   2.889   4.455  11.867  1.0797 -1.2210  1.0014
 5030SOL    HW226550   2.858   4.434  12.012 -0.1336  2.3839 -0.6047
 5031SOL     OW26551   2.283   0.030  17.448  0.3094  0.2374 -0.7127
 5031SOL    HW126552   2.250   4.677  17.494 -0.4853  1.8607  1.4877
 5031SOL    HW226553   2.205   0.057  17.400  0.5543  0.8134 -0.7829
 5032SOL     OW26554   1.787   1.557  11.316  0.6901  0.6666  0.6291
 5032SOL    HW126555   1.787   1.516  11.229 -2.7875  1.7106  0.1603
 5032SOL    HW226556   1.822   1.641  11.287  1.3602  0.1236 -0.1598
 5033SOL     OW26557   0.305   3.673   5.469 -0.0834  0.1564  0.3936
 5033SOL    HW126558   0.335   3.750   5.420 -0.7740 -0.3202 -0.7737
 5033SOL    HW226559   0.337   3.700   5.555  0.7909  0.6513 -0.0828
 5034SOL     OW26560   0.646   3.447  14.798 -0.5002 -0.0465 -0.1987
 5034SOL    HW126561   0.638   3.360  14.839  3.3350  1.1233  3.0645
 5034SOL    HW226562   0.622   3.505  14.870 -0.5095 -0.4465  0.1266
 5035SOL     OW26563   4.099   2.561   4.735 -0.3930 -0.3030 -0.1116
 5035SOL    HW126564   4.006   2.543   4.730 -0.2674 -0.8209 -0.6097
 5035SOL    HW226565   4.135   2.496   4.796  1.3257 -0.7563 -1.5993
 5036SOL     OW26566   3.432   1.431   5.346 -0.2096 -0.1919 -0.1921
 5036SOL    HW126567   3.398   1.496   5.408  0.8165 -1.0611  1.2788
 5036SOL    HW226568   3.525   1.451   5.357 -0.1560  1.1449 -3.2286
 5037SOL     OW26569   0.142   0.852   3.847  0.3995  0.0024  0.3750
 5037SOL    HW126570   0.060   0.902   3.841  0.8352  0.9069  1.9802
 5037SOL    HW226571   0.178   0.882   3.763 -0.2911 -0.3250 -0.0469
 5038SOL     OW26572   2.184   4.480   3.748  0.2709  0.4006 -0.2029
 5038SOL    HW126573   2.224   4.497   3.833  0.8936 -2.3354  0.0447
 5038SOL    HW226574   2.122   4.553   3.743 -0.1413  0.1612  1.4794
 5039SOL     OW26575   1.680   2.845   8.048 -0.2201  0.4457 -0.1198
 5039SOL    HW126576   1.709   2.810   7.964 -1.1854  0.2496 -0.3614
 5039SOL    HW226577   1.659   2.763   8.092 -1.9759 -0.1817 -2.1438
 5040SOL     OW26578   2.396   3.394   1.419 -0.0728 -0.3344  0.1386
 5040SOL    HW126579   2.404   3.364   1.328 -1.5230 -1.4034  0.3630
 5040SOL    HW226580   2.483   3.362   1.444 -0.7344 -1.2022  1.2958
 5041SOL     OW26581   4.502   2.602   7.034 -0.1149 -0.0676 -0.4044
 5041SOL    HW126582   4.521   2.519   7.078  0.0720  0.2679  0.1467
 5041SOL    HW226583   4.471   2.566   6.951  0.1240 -0.0381 -0.5057
 5042SOL     OW26584   0.312   3.964   4.629  0.2892  0.0318  0.5201
 5042SOL    HW126585   0.303   3.873   4.600 -0.4379  0.3057 -0.0844
 5042SOL    HW226586   0.224   3.998   4.616  0.8486  1.6166  0.9519
 5043SOL     OW26587   3.773   0.888  12.223  0.1639  0.3220 -0.3586
 5043SOL    HW126588   3.746   0.938  12.146 -0.3248 -0.7396 -0.8647
 5043SOL    HW226589   3.868   0.889  12.208  0.1363 -0.2756 -0.5776
 5044SOL     OW26590   2.532   2.187   8.889 -0.4218 -0.3083 -0.4599
 5044SOL    HW126591   2.443   2.221   8.876  0.3749  1.6201 -0.9705
 5044SOL    HW226592   2.528   2.093   8.904 -1.1317  0.2974  3.0133
 5045SOL     OW26593   4.227   4.068   8.399  0.0933  0.0274 -0.1371
 5045SOL    HW126594   4.300   4.080   8.337  0.5707 -1.0402  0.2108
 5045SOL    HW226595   4.245   3.984   8.442 -1.1499  1.0462  2.3783
 5046SOL     OW26596   3.851   0.651   2.758  0.1827 -0.7926 -0.0707
 5046SOL    HW126597   3.784   0.588   2.734  0.9514 -0.6643 -2.4739
 5046SOL    HW226598   3.800   0.720   2.801  1.2364  1.7427 -2.9792
 5047SOL     OW26599   4.557   1.586  12.399 -0.2151 -0.0844 -0.3523
 5047SOL    HW126600   4.468   1.554  12.385 -0.2773  0.2821 -0.8101
 5047SOL    HW226601   4.568   1.638  12.319  0.0845 -0.1373 -0.3442
 5048SOL     OW26602   2.502   3.976  11.916 -0.0887  0.4076  0.0008
 5048SOL    HW126603   2.589   4.007  11.942 -0.6394  0.2039  2.1343
 5048SOL    HW226604   2.444   4.049  11.936 -0.3672  0.1455  0.1646
 5049SOL     OW26605   2.403   2.671  17.405 -0.3067  0.4511  0.2380
 5049SOL    HW126606   2.405   2.582  17.441 -4.0644 -0.1462 -0.9860
 5049SOL    HW226607   2.480   2.667  17.347 -1.2770 -2.2689 -0.8629
 5050SOL     OW26608   0.746   2.021   7.811  0.2768  0.1795 -0.2650
 5050SOL    HW126609   0.818   2.045   7.869 -0.7239 -0.0163  1.0642
 5050SOL    HW226610   0.681   1.978   7.866 -0.1578  2.3721  0.9422
 5051SOL     OW26611   2.353   2.678   0.449  0.0351  0.2536 -0.4242
 5051SOL    HW126612   2.329   2.686   0.357 -2.3046 -0.8381  0.0892
 5051SOL    HW226613   2.354   2.582   0.452 -1.3404  0.2435 -0.5040
 5052SOL     OW26614   2.602   2.885   5.732  0.3344  0.6067  0.2767
 5052SOL    HW126615   2.606   2.835   5.813  1.5151  0.5434  0.1911
 5052SOL    HW226616   2.688   2.929   5.733 -0.2244  1.7239 -0.2628
 5053SOL     OW26617   4.376   3.670   3.309 -0.8084 -0.1578 -0.0817
 5053SOL    HW126618   4.333   3.710   3.385  1.1823  0.6738  0.6174
 5053SOL    HW226619   4.315   3.603   3.279 -1.6862  0.4289  0.4072
 5054SOL     OW26620   3.849   0.535   0.667 -0.0188  0.1469  0.0323
 5054SOL    HW126621   3.762   0.548   0.629 -0.2245  0.2523  0.5427
 5054SOL    HW226622   3.853   0.615   0.718 -1.9396  0.8467 -0.9418
 5055SOL     OW26623   2.926   1.619  10.234 -0.5596 -0.0804 -0.5513
 5055SOL    HW126624   2.965   1.541  10.194 -1.1386 -0.2333 -0.8254
 5055SOL    HW226625   2.928   1.680  10.160  0.4075 -0.9328 -1.2209
 5056SOL     OW26626   0.312   4.568   8.617  0.5175 -0.0147  0.3026
 5056SOL    HW126627   0.345   4.586   8.705  0.1060 -0.2966  0.5167
 5056SOL    HW226628   0.325   4.653   8.576  0.9449 -0.2461 -0.0359
 5057SOL     OW26629   0.460   0.723   1.470  0.0035 -0.4170  0.1224
 5057SOL    HW126630   0.458   0.726   1.566  1.0751  0.8311  0.1124
 5057SOL    HW226631   0.462   0.815   1.443 -1.2530 -0.6249 -0.6436
 5058SOL     OW26632   3.177   1.402   4.080 -0.5099  1.0920 -0.4151
 5058SOL    HW126633   3.150   1.428   3.992  2.7419 -1.6536 -2.2358
 5058SOL    HW226634   3.186   1.307   4.071  3.1948  1.6744 -3.0376
 5059SOL     OW26635   4.668   3.485   6.607  0.9826 -0.2133 -0.7168
 5059SOL    HW126636   4.604   3.541   6.651  1.3486 -1.0316  0.8773
 5059SOL    HW226637   0.007   3.551   6.576  1.1416  1.8527  4.0026
 5060SOL     OW26638   3.535   2.599   2.048  0.2888  0.3897  0.5130
 5060SOL    HW126639   3.459   2.644   2.010 -1.6543 -2.0003  1.5927
 5060SOL    HW226640   3.599   2.671   2.050  0.8983 -0.1852  1.5777
 5061SOL     OW26641   0.181   4.179  14.547  0.0400  0.3407 -0.0697
 5061SOL    HW126642   0.152   4.147  14.461  0.8393  2.3353 -1.0975
 5061SOL    HW226643   0.267   4.136  14.553  2.7277  5.4122 -1.9299
 5062SOL     OW26644   3.038   2.118   9.779  0.1841  0.1455 -0.4383
 5062SOL    HW126645   2.981   2.055   9.735  0.5082  1.1808 -2.3470
 5062SOL    HW226646   3.040   2.187   9.712 -2.4005  2.0282  1.4464
 5063SOL     OW26647   4.149   3.931  10.117  0.2158 -0.3549  0.6377
 5063SOL    HW126648   4.093   3.905  10.043 -1.6341  1.9768  1.1965
 5063SOL    HW226649   4.238   3.909  10.092 -0.4602 -1.4407 -0.8358
 5064SOL     OW26650   0.139   3.446   2.298  0.1301 -0.1193 -0.2803
 5064SOL    HW126651   0.069   3.465   2.360  1.1141 -1.8600  1.3454
 5064SOL    HW226652   0.216   3.487   2.338  0.0491  0.0768 -0.3226
 5065SOL     OW26653   1.352   3.673   6.670 -0.2664 -0.5194  0.7382
 5065SOL    HW126654   1.345   3.579   6.651 -0.1926 -0.1653 -1.0674
 5065SOL    HW226655   1.260   3.695   6.684 -0.8934 -1.6367 -1.5236
 5066SOL     OW26656   2.722   1.756   4.760 -0.4075 -0.4516  0.0733
 5066SOL    HW126657   2.723   1.820   4.832  1.1157  1.5383 -1.7303
 5066SOL    HW226658   2.639   1.778   4.718 -0.9548  1.1164  1.9651
 5067SOL     OW26659   0.102   3.135  16.524  0.1749  0.0049 -0.3133
 5067SOL    HW126660   0.110   3.204  16.590  0.6649 -1.5791  1.3020
 5067SOL    HW226661   0.019   3.099  16.553  0.0940 -1.4554 -2.3682
 5068SOL     OW26662   1.827   0.710   2.737 -0.6013  0.0264  0.0738
 5068SOL    HW126663   1.759   0.657   2.778 -1.0596  1.6257  1.3459
 5068SOL    HW226664   1.871   0.754   2.810  0.7326 -1.3506  0.1140
 5069SOL     OW26665   0.614   3.125  10.549  0.0117 -0.4857 -0.4648
 5069SOL    HW126666   0.630   3.037  10.517  1.1792 -0.7497  0.8319
 5069SOL    HW226667   0.660   3.112  10.632  0.3645 -1.6495 -0.8577
 5070SOL     OW26668   2.927   3.332  14.199 -0.0720 -0.0129 -0.3360
 5070SOL    HW126669   2.845   3.295  14.168  0.1319 -0.4163 -0.3847
 5070SOL    HW226670   2.968   3.254  14.236  0.0686  0.1274 -0.1898
 5071SOL     OW26671   0.001   2.069   4.327 -0.1976  0.2519 -0.0555
 5071SOL    HW126672   4.682   2.113   4.401  0.0820  0.0495  0.2263
 5071SOL    HW226673   0.023   2.152   4.286  0.9130  0.2262  0.4962
 5072SOL     OW26674   1.515   0.755   3.234 -0.2814 -0.2726 -0.1707
 5072SOL    HW126675   1.501   0.767   3.328  0.0755  2.2469 -0.4366
 5072SOL    HW226676   1.434   0.797   3.205  0.9658  0.9188 -1.8719
 5073SOL     OW26677   2.434   0.746  13.316  0.3005 -0.0106  0.6743
 5073SOL    HW126678   2.483   0.700  13.248  1.1444 -0.0652  1.3187
 5073SOL    HW226679   2.346   0.756  13.281 -0.1727  0.3090  1.9644
 5074SOL     OW26680   1.211   1.773  10.860 -0.4070 -0.0570  0.2371
 5074SOL    HW126681   1.267   1.727  10.922 -1.8177 -1.0786  0.7392
 5074SOL    HW226682   1.171   1.701  10.812  2.6598 -0.1084 -2.2604
 5075SOL     OW26683   4.319   1.214   7.309 -0.2945  0.1893  0.0980
 5075SOL    HW126684   4.284   1.259   7.233  3.0646  1.1150 -0.8955
 5075SOL    HW226685   4.240   1.215   7.364 -1.7991 -0.4889 -2.0458
 5076SOL     OW26686   4.661   4.283   6.866  0.0386  0.2469 -0.0246
 5076SOL    HW126687   4.655   4.341   6.942 -0.5024 -0.9810  0.8680
 5076SOL    HW226688   4.706   4.343   6.807 -2.2583  0.5674 -1.4457
 5077SOL     OW26689   2.793   3.020   9.155 -0.3767 -0.5303  0.6053
 5077SOL    HW126690   2.851   3.006   9.080 -0.5359  0.2080  0.3408
 5077SOL    HW226691   2.749   2.935   9.156 -1.2807 -0.0714  0.2886
 5078SOL     OW26692   1.439   3.853   5.658 -0.4655  0.1242 -0.9149
 5078SOL    HW126693   1.445   3.908   5.580  0.3857 -0.2694 -1.1283
 5078SOL    HW226694   1.369   3.790   5.636 -0.4264 -0.4633  0.6028
 5079SOL     OW26695   2.177   2.143   2.716 -0.0687 -0.6228  0.2883
 5079SOL    HW126696   2.249   2.097   2.759 -1.7683 -2.6096  1.0344
 5079SOL    HW226697   2.193   2.153   2.622 -0.7565 -1.7039  0.0557
 5080SOL     OW26698   0.290   3.985   8.113  0.4704  0.4545  0.4975
 5080SOL    HW126699   0.225   4.035   8.163 -1.8946 -2.1299  0.0421
 5080SOL    HW226700   0.245   3.974   8.029  0.8431  0.3164  0.3164
 5081SOL     OW26701   3.916   2.376   6.289  0.0520 -0.5127 -0.2107
 5081SOL    HW126702   3.839   2.433   6.287 -0.2487 -0.9134  0.1237
 5081SOL    HW226703   3.895   2.295   6.244 -1.2695  0.6275 -1.6234
 5082SOL     OW26704   3.689   1.154   3.034  0.4029 -0.2085  0.2533
 5082SOL    HW126705   3.594   1.162   3.025  0.6033  2.4752  0.6680
 5082SOL    HW226706   3.715   1.109   2.953 -1.5266 -2.2061  0.7409
 5083SOL     OW26707   1.016   3.366   5.463  0.0527  0.3328 -0.5789
 5083SOL    HW126708   1.102   3.407   5.455  0.9132 -1.3484  0.0721
 5083SOL    HW226709   0.956   3.440   5.453 -0.8007 -0.3928 -0.8074
 5084SOL     OW26710   2.743   1.905   2.886 -0.1634  0.5298 -0.5970
 5084SOL    HW126711   2.676   1.837   2.883 -0.9591  1.3503 -1.7303
 5084SOL    HW226712   2.821   1.850   2.885 -0.3487  0.2846 -1.4898
 5085SOL     OW26713   3.515   0.671   5.842 -0.1647  0.6236  0.0719
 5085SOL    HW126714   3.586   0.652   5.782 -0.5263  0.9699 -0.4652
 5085SOL    HW226715   3.557   0.736   5.899 -0.3582  0.0070  0.9177
 5086SOL     OW26716   4.173   1.965   5.021 -0.1203  0.3857  0.3940
 5086SOL    HW126717   4.148   1.958   4.929  0.1617  1.6004  0.2347
 5086SOL    HW226718   4.229   2.043   5.020 -1.0168  1.0242  1.1357
 5087SOL     OW26719   1.945   2.440   7.609 -0.3888 -0.6102 -0.2502
 5087SOL    HW126720   1.949   2.383   7.533  0.0762 -0.6651 -0.1852
 5087SOL    HW226721   1.944   2.528   7.571 -1.2846 -0.6802 -0.3816
 5088SOL     OW26722   4.523   0.178  16.665 -0.3468 -0.2827  0.2193
 5088SOL    HW126723   4.588   0.116  16.699  1.4229  1.4529 -0.0170
 5088SOL    HW226724   4.459   0.117  16.628  0.1904 -1.4736  1.2470
 5089SOL     OW26725   1.925   2.918   1.007 -0.9377 -0.0325 -0.2735
 5089SOL    HW126726   1.896   2.856   1.074 -0.6150  0.8448  0.6816
 5089SOL    HW226727   1.920   2.861   0.931  1.2718 -1.7543  0.8752
 5090SOL     OW26728   2.020   0.160   6.236  0.0558 -0.2912  0.1028
 5090SOL    HW126729   2.052   0.246   6.210 -1.2566 -0.5429 -2.3161
 5090SOL    HW226730   1.943   0.170   6.292 -1.1273  0.4238 -1.6625
 5091SOL     OW26731   0.234   0.892  15.594 -0.0121  0.0884 -0.2530
 5091SOL    HW126732   0.268   0.804  15.578  0.3488  0.1741  0.0333
 5091SOL    HW226733   0.230   0.894  15.689 -2.0643  3.7004 -0.4241
 5092SOL     OW26734   3.232   3.163   7.724 -1.0837 -0.9905 -0.5007
 5092SOL    HW126735   3.205   3.116   7.802  0.9970 -1.6533 -0.1760
 5092SOL    HW226736   3.148   3.172   7.678 -0.4541 -2.3535 -1.9347
 5093SOL     OW26737   1.782   4.196   2.235  0.0063  0.0273 -0.0266
 5093SOL    HW126738   1.778   4.272   2.177 -2.7516  0.0157  0.1596
 5093SOL    HW226739   1.732   4.228   2.310  1.0421  1.5430  0.0015
 5094SOL     OW26740   2.359   1.181   8.192  0.1205  0.8219  0.2678
 5094SOL    HW126741   2.278   1.226   8.171 -0.3055 -0.1271 -0.1030
 5094SOL    HW226742   2.373   1.208   8.283  1.1919 -0.4748  0.4957
 5095SOL     OW26743   1.068   2.199   9.120  0.4339  0.1181 -0.3251
 5095SOL    HW126744   1.113   2.190   9.204 -1.2053 -2.9726  0.2362
 5095SOL    HW226745   0.998   2.253   9.157  1.5268  1.5090 -0.2720
 5096SOL     OW26746   3.293   1.034   5.655  0.6517 -1.0080  0.2784
 5096SOL    HW126747   3.278   1.114   5.705 -2.2311 -0.0521 -2.1661
 5096SOL    HW226748   3.340   1.067   5.578  0.6306 -1.2900  0.1439
 5097SOL     OW26749   4.511   1.772   2.363 -0.0292  0.0299 -0.2350
 5097SOL    HW126750   4.488   1.862   2.385 -0.1341 -0.5830  2.0946
 5097SOL    HW226751   4.451   1.761   2.289  0.4688  0.5259 -0.7090
 5098SOL     OW26752   2.409   2.130   6.933 -0.2167  0.1594 -0.1630
 5098SOL    HW126753   2.464   2.057   6.958 -0.3166 -0.1439 -0.8326
 5098SOL    HW226754   2.468   2.201   6.957  0.3926 -1.2049  2.3439
 5099SOL     OW26755   3.907   2.718  13.114  0.4278  0.2473 -0.1861
 5099SOL    HW126756   3.991   2.673  13.104  0.6867  0.4701  1.0344
 5099SOL    HW226757   3.914   2.758  13.201 -1.5611  1.1027 -0.4165
 5100SOL     OW26758   4.288   3.944   7.243 -0.3247  0.6721  0.3188
 5100SOL    HW126759   4.346   3.952   7.168 -0.3766  1.1482  0.3289
 5100SOL    HW226760   4.302   4.031   7.280  1.0906  0.0032  1.3539
 5101SOL     OW26761   0.846   2.860   6.373 -0.0044 -0.0655 -0.0596
 5101SOL    HW126762   0.763   2.846   6.419 -0.5676 -1.3512 -1.4772
 5101SOL    HW226763   0.859   2.954   6.387 -2.4821  0.2016  0.3907
 5102SOL     OW26764   2.919   4.241  14.770  0.8795 -0.4349 -0.4053
 5102SOL    HW126765   2.876   4.311  14.720 -2.2706 -1.6786  0.5859
 5102SOL    HW226766   2.980   4.210  14.703 -1.2129 -1.7876 -1.7178
 5103SOL     OW26767   4.344   2.869  14.349  0.0025  0.2993  0.6743
 5103SOL    HW126768   4.316   2.855  14.440  1.2919  0.1388  1.0552
 5103SOL    HW226769   4.304   2.954  14.332  2.6349  1.3261 -0.3462
 5104SOL     OW26770   3.702   4.715   8.450  0.3964 -0.1763 -0.1892
 5104SOL    HW126771   3.739   0.071   8.412 -1.6398  1.4394  1.2162
 5104SOL    HW226772   3.773   4.652   8.459  0.7625  0.4962  1.7578
 5105SOL     OW26773   1.377   1.259   4.169  0.9236  0.0540  0.6798
 5105SOL    HW126774   1.404   1.349   4.181 -0.3482  0.6781 -1.2243
 5105SOL    HW226775   1.338   1.256   4.257 -0.3961 -0.4467  0.0825
 5106SOL     OW26776   0.058   2.639   1.438  0.6752  0.0482 -0.0837
 5106SOL    HW126777   0.106   2.716   1.409  0.1596  0.8095  1.1022
 5106SOL    HW226778   0.029   2.604   1.354  0.4748  0.4929 -0.1991
 5107SOL     OW26779   2.898   1.521   3.838  0.0087 -0.9902  0.3074
 5107SOL    HW126780   2.888   1.528   3.743 -0.7325  0.2293  0.4722
 5107SOL    HW226781   2.981   1.567   3.851 -0.2971 -0.3467 -0.0266
 5108SOL     OW26782   1.753   3.510   5.995  0.0330 -0.3362  0.3428
 5108SOL    HW126783   1.719   3.455   6.066 -0.7054 -0.5212 -0.1547
 5108SOL    HW226784   1.699   3.588   6.003 -1.5848 -1.4147  0.1336
 5109SOL     OW26785   3.225   3.174   8.821 -0.3511  0.0964 -0.0666
 5109SOL    HW126786   3.298   3.222   8.782 -0.7583 -0.2654 -1.2527
 5109SOL    HW226787   3.222   3.202   8.913  0.6218 -0.1561  0.0435
 5110SOL     OW26788   3.013   4.446  16.058 -0.1043  0.3601  0.1742
 5110SOL    HW126789   3.095   4.408  16.088  0.4235  1.9876  0.7727
 5110SOL    HW226790   2.950   4.389  16.102 -1.7878  2.4656  0.5263
 5111SOL     OW26791   1.347   4.084   2.208 -0.1809  0.2191  0.1465
 5111SOL    HW126792   1.397   4.063   2.287  0.6117 -0.0624 -0.4195
 5111SOL    HW226793   1.337   4.178   2.219  1.6887  0.4346 -0.0046
 5112SOL     OW26794   2.510   1.741  17.690 -0.1734 -0.3621  0.6471
 5112SOL    HW126795   2.442   1.679  17.665 -0.6509  1.0358 -1.4471
 5112SOL    HW226796   2.482   1.763   0.081 -2.6079  3.1726 -0.9736
 5113SOL     OW26797   4.539   2.464   5.900 -0.2306 -0.2049 -0.6430
 5113SOL    HW126798   4.485   2.464   5.979 -2.4695  0.0909 -2.1717
 5113SOL    HW226799   4.613   2.410   5.929  0.9397  1.7861  0.1192
 5114SOL     OW26800   0.533   1.296   5.427  0.2452 -0.0397 -0.7256
 5114SOL    HW126801   0.599   1.246   5.473  0.0552  0.0497 -0.3551
 5114SOL    HW226802   0.501   1.240   5.357  0.9679  1.6698 -2.4232
 5115SOL     OW26803   4.135   3.949   7.649 -0.6576  0.4337  0.2320
 5115SOL    HW126804   4.041   3.948   7.666 -1.2006 -2.3817 -2.9937
 5115SOL    HW226805   4.147   3.867   7.602 -1.0345 -0.0814  1.0491
 5116SOL     OW26806   3.335   2.520  12.590  0.0358 -0.3926 -0.2268
 5116SOL    HW126807   3.414   2.564  12.557  1.1724 -2.9052 -0.9027
 5116SOL    HW226808   3.339   2.430  12.558  0.5545 -1.0072  1.5388
 5117SOL     OW26809   0.924   0.180   5.674  0.0451 -0.1951  0.3054
 5117SOL    HW126810   0.866   0.121   5.722  1.2272 -2.9136 -1.5847
 5117SOL    HW226811   0.875   0.262   5.670  1.3039  0.5524 -0.0379
 5118SOL     OW26812   2.337   4.247  17.451  0.1153 -0.5349 -0.1664
 5118SOL    HW126813   2.308   4.200  17.529 -0.3081 -0.4433 -0.2698
 5118SOL    HW226814   2.282   4.324  17.461  1.8210  0.6889 -0.2256
 5119SOL     OW26815   3.657   4.430   6.337  0.4495 -0.0729  0.5620
 5119SOL    HW126816   3.733   4.488   6.325  0.7363 -0.7811 -1.0278
 5119SOL    HW226817   3.664   4.374   6.260  1.4415 -0.4319  0.9095
 5120SOL     OW26818   1.750   4.395   5.683  0.3404 -0.9084  0.1620
 5120SOL    HW126819   1.759   4.429   5.772 -0.0102 -0.4122  0.0058
 5120SOL    HW226820   1.659   4.416   5.663  0.5598 -0.8553 -0.7920
 5121SOL     OW26821   0.098   3.363   4.703 -0.1541  0.4196  0.3003
 5121SOL    HW126822   0.024   3.302   4.704 -0.1160  0.3517 -0.4663
 5121SOL    HW226823   0.161   3.302   4.664  1.4197  1.5469  1.0950
 5122SOL     OW26824   3.440   3.524   3.536  0.2374 -0.4005 -0.5879
 5122SOL    HW126825   3.406   3.611   3.556  1.6971 -0.5241  2.3702
 5122SOL    HW226826   3.437   3.496   3.627  0.6190  2.5671  0.3094
 5123SOL     OW26827   3.327   1.816   2.353  0.3407  0.3161 -0.2988
 5123SOL    HW126828   3.306   1.728   2.321 -0.0464  1.3591 -2.8700
 5123SOL    HW226829   3.284   1.810   2.438 -2.0710  0.7774 -1.5167
 5124SOL     OW26830   1.516   3.493   4.100 -0.2053 -0.1603 -0.3029
 5124SOL    HW126831   1.476   3.502   4.014  2.1586 -1.7406 -1.5549
 5124SOL    HW226832   1.563   3.413   4.079 -0.6261 -1.1939  2.6212
 5125SOL     OW26833   3.450   0.141   3.063 -0.2181 -0.1178 -0.2394
 5125SOL    HW126834   3.395   0.178   3.133 -1.6773 -0.2518 -1.3051
 5125SOL    HW226835   3.398   0.151   2.983  2.8877 -0.0848 -2.2534
 5126SOL     OW26836   0.075   2.836   6.523 -0.2973  0.1221 -0.7237
 5126SOL    HW126837   0.139   2.772   6.491  0.6606  0.2194  0.9765
 5126SOL    HW226838   0.034   2.867   6.442 -3.2792 -2.1728 -0.1036
 5127SOL     OW26839   1.965   1.314   7.149  0.6182  0.4977  0.0489
 5127SOL    HW126840   2.056   1.318   7.175 -0.3411  2.3954  3.0882
 5127SOL    HW226841   1.922   1.382   7.202 -0.5143  1.8310 -2.5432
 5128SOL     OW26842   2.609   1.320   5.178  0.1088  0.5835 -0.4759
 5128SOL    HW126843   2.521   1.338   5.212  0.8360  0.4404  1.5211
 5128SOL    HW226844   2.604   1.225   5.166  2.4800  0.5695 -1.3776
 5129SOL     OW26845   4.694   0.294   6.441 -0.3911 -0.1537  0.5264
 5129SOL    HW126846   4.710   0.356   6.513  0.1431 -1.2218  1.3262
 5129SOL    HW226847   0.004   0.208   6.466  0.6559 -0.8688 -3.3991
 5130SOL     OW26848   0.596   1.461   4.166 -0.0403  0.6208 -0.8049
 5130SOL    HW126849   0.587   1.395   4.235  4.1908  0.3817 -0.4669
 5130SOL    HW226850   0.534   1.527   4.198 -1.1822 -0.8608  0.0342
 5131SOL     OW26851   0.708   2.329   6.994 -0.8906 -0.3112  1.0533
 5131SOL    HW126852   0.736   2.405   7.046 -1.9850  0.4202  0.5589
 5131SOL    HW226853   0.617   2.353   6.976 -0.8817 -1.7218 -0.7557
 5132SOL     OW26854   0.373   0.722   5.995  0.2278 -0.1321 -0.0590
 5132SOL    HW126855   0.432   0.658   6.036  0.9067  0.9608  0.6651
 5132SOL    HW226856   0.366   0.699   5.902  0.3287  1.1507 -0.3783
 5133SOL     OW26857   2.165   3.636  11.636  0.0749 -0.2293 -0.1343
 5133SOL    HW126858   2.128   3.718  11.603 -0.9230  0.0374  1.6213
 5133SOL    HW226859   2.130   3.562  11.586  2.4448 -1.3774 -0.0993
 5134SOL     OW26860   0.395   2.164  16.575  0.3843 -0.0187  0.2350
 5134SOL    HW126861   0.490   2.169  16.577  0.4606 -0.8911 -1.0729
 5134SOL    HW226862   0.377   2.240  16.519  0.3846 -0.4588 -0.3679
 5135SOL     OW26863   2.859   4.611   2.497  0.2987 -0.0641  1.0199
 5135SOL    HW126864   2.938   4.659   2.472 -2.0426  2.0743 -2.2804
 5135SOL    HW226865   2.873   4.528   2.451 -3.1453 -0.2042  0.2234
 5136SOL     OW26866   1.436   3.513   8.334  0.2792 -0.0048  0.1785
 5136SOL    HW126867   1.409   3.516   8.242 -0.4981  1.8412  0.4653
 5136SOL    HW226868   1.456   3.420   8.349  0.2094 -0.1230 -0.4695
 5137SOL     OW26869   3.594   1.165   0.581 -0.0653  0.1672  0.4528
 5137SOL    HW126870   3.682   1.167   0.619  0.1048 -1.1956  0.1423
 5137SOL    HW226871   3.593   1.073   0.554 -0.0459  0.5868 -0.9788
 5138SOL     OW26872   1.374   3.666   7.792  0.6686  0.0125 -0.0313
 5138SOL    HW126873   1.301   3.621   7.750  2.0995 -0.7341 -1.7017
 5138SOL    HW226874   1.320   3.722   7.848 -3.2640 -1.9102 -1.8754
 5139SOL     OW26875   4.716   2.690  16.555  0.0660 -0.1674 -0.1653
 5139SOL    HW126876   0.079   2.706  16.519 -0.1454 -1.1416 -1.0936
 5139SOL    HW226877   0.010   2.639  16.634  0.9558  0.0756 -0.2123
 5140SOL     OW26878   4.706   0.323   1.642  0.0879  0.6782 -0.4561
 5140SOL    HW126879   4.657   0.346   1.721  0.5034  2.7147 -0.7686
 5140SOL    HW226880   4.641   0.360   1.583 -0.7458  1.4340  0.9189
 5141SOL     OW26881   3.555   2.158  15.285 -0.0291  0.1200  0.4138
 5141SOL    HW126882   3.516   2.070  15.285 -2.4544  1.2034 -1.0807
 5141SOL    HW226883   3.641   2.121  15.265 -0.4037 -0.8620  0.5962
 5142SOL     OW26884   3.686   2.948  12.018  0.2650  0.2423  0.1108
 5142SOL    HW126885   3.620   2.920  11.955  0.9943 -2.7741  0.6675
 5142SOL    HW226886   3.757   2.896  11.980  0.1145 -0.5711  0.9368
 5143SOL     OW26887   2.369   2.731   4.207  0.3547  0.2290  0.0722
 5143SOL    HW126888   2.421   2.655   4.180 -1.0759 -0.9178  0.5459
 5143SOL    HW226889   2.371   2.783   4.126 -1.5658  1.0424  0.5650
 5144SOL     OW26890   3.235   2.741   4.862  0.3500  0.7708  0.0103
 5144SOL    HW126891   3.191   2.813   4.907  0.3726  1.1618 -0.5877
 5144SOL    HW226892   3.166   2.675   4.855 -0.4183  1.6849 -1.0388
 5145SOL     OW26893   2.297   4.018  12.950 -0.7426 -0.5474 -0.1802
 5145SOL    HW126894   2.321   4.041  13.040  2.0783  0.3887 -1.1917
 5145SOL    HW226895   2.381   3.990  12.915 -0.2986 -0.6776  0.9769
 5146SOL     OW26896   1.913   4.449   8.464 -0.6426  0.2020 -0.3223
 5146SOL    HW126897   1.831   4.481   8.426 -0.8417 -0.8933 -0.8154
 5146SOL    HW226898   1.907   4.496   8.547  0.8723  0.0489 -0.1312
 5147SOL     OW26899   0.874   1.530   5.202 -1.0480 -0.0966  0.7676
 5147SOL    HW126900   0.790   1.570   5.226 -1.6450  0.5039 -2.3383
 5147SOL    HW226901   0.843   1.442   5.180 -0.8583 -0.5802  2.4042
 5148SOL     OW26902   4.122   4.634   7.227  0.4005 -0.5231 -0.4232
 5148SOL    HW126903   4.059   4.648   7.298  0.2749  3.2891 -1.2967
 5148SOL    HW226904   4.124   4.724   7.193 -0.7211 -0.3510 -0.0351
 5149SOL     OW26905   4.326   1.814   6.410  0.1450 -0.3108  0.1182
 5149SOL    HW126906   4.357   1.729   6.377 -0.1399  1.1550 -3.8979
 5149SOL    HW226907   4.233   1.794   6.424 -0.0564  0.1940 -0.5250
 5150SOL     OW26908   0.409   4.498   6.376  0.3303 -0.3251 -0.0563
 5150SOL    HW126909   0.450   4.442   6.442 -0.5902 -0.1493  0.6636
 5150SOL    HW226910   0.468   4.574   6.378 -1.5108  1.0922  1.2705
 5151SOL     OW26911   4.331   1.519   3.357  0.4651  0.1167 -0.0391
 5151SOL    HW126912   4.318   1.456   3.429 -0.9973  2.7852  2.0358
 5151SOL    HW226913   4.392   1.576   3.402  0.8832  1.1092 -1.8926
 5152SOL     OW26914   3.783   1.424   7.918 -0.2138 -0.1223  0.1352
 5152SOL    HW126915   3.749   1.466   7.996 -0.2008  0.8161 -0.3575
 5152SOL    HW226916   3.701   1.392   7.881  0.4943 -2.5735  0.6796
 5153SOL     OW26917   1.269   3.647   4.185  0.1139  0.0818  0.1101
 5153SOL    HW126918   1.345   3.602   4.147  0.0783 -0.2294  0.4089
 5153SOL    HW226919   1.315   3.702   4.248  0.5345  1.5273 -1.4422
 5154SOL     OW26920   4.331   1.810  12.334 -0.1751 -0.7643 -0.4607
 5154SOL    HW126921   4.365   1.796  12.246 -0.5160 -1.3505 -0.4963
 5154SOL    HW226922   4.235   1.812  12.328 -0.0954  0.0946 -1.4560
 5155SOL     OW26923   1.293   3.764   9.156 -0.4425 -0.7061 -0.0906
 5155SOL    HW126924   1.325   3.686   9.111  2.1171 -0.1467  0.7571
 5155SOL    HW226925   1.222   3.727   9.207 -0.3658 -0.5344  0.1394
 5156SOL     OW26926   4.140   4.290   3.465  0.9818  0.8616 -0.2743
 5156SOL    HW126927   4.197   4.266   3.538 -0.7074  1.1463  1.1310
 5156SOL    HW226928   4.208   4.311   3.401  0.2467 -0.4795 -1.5049
 5157SOL     OW26929   3.550   1.763   3.793 -0.4419 -0.6179  0.5617
 5157SOL    HW126930   3.512   1.676   3.803 -1.0507 -0.2833  1.1232
 5157SOL    HW226931   3.539   1.802   3.879  0.2673  0.5938  0.1020
 5158SOL     OW26932   0.562   3.869   7.675  0.2985 -0.0420 -0.1217
 5158SOL    HW126933   0.566   3.957   7.711  0.1288 -0.3822  0.7168
 5158SOL    HW226934   0.539   3.894   7.585  1.1630  0.0384 -0.3226
 5159SOL     OW26935   3.746   1.170   0.041  0.0827  0.3274 -0.3622
 5159SOL    HW126936   3.793   1.135   0.117 -1.7135 -1.0123  0.1292
 5159SOL    HW226937   3.678   1.227   0.076 -0.7907 -0.1591 -1.3081
 5160SOL     OW26938   1.457   4.137   3.785 -0.1284  0.0970  0.0213
 5160SOL    HW126939   1.364   4.119   3.798 -0.2843  1.2425  0.5404
 5160SOL    HW226940   1.460   4.232   3.798 -1.1231  0.0631  0.4597
 5161SOL     OW26941   3.708   2.532   5.332  0.1554  0.1154  0.3425
 5161SOL    HW126942   3.748   2.589   5.267 -0.3465 -1.3275 -1.2394
 5161SOL    HW226943   3.782   2.516   5.392  1.0610 -2.2165 -1.3840
 5162SOL     OW26944   3.980   3.440   6.518 -0.0305 -0.2965 -0.1247
 5162SOL    HW126945   3.951   3.352   6.542 -0.9429 -0.3388 -1.3556
 5162SOL    HW226946   3.903   3.484   6.481  0.1192 -1.2758 -1.6090
 5163SOL     OW26947   4.098   2.168   2.204  0.6441 -0.3463 -0.3878
 5163SOL    HW126948   4.122   2.112   2.278  0.1002  0.1164  0.1433
 5163SOL    HW226949   4.052   2.112   2.142  0.2030 -1.7170  1.1620
 5164SOL     OW26950   1.232   0.646   3.350  1.2383  0.0576  1.2276
 5164SOL    HW126951   1.212   0.613   3.263 -1.8428  2.1808  1.1588
 5164SOL    HW226952   1.298   0.580   3.373  1.6906  0.8900  2.3437
 5165SOL     OW26953   2.053   1.485  12.304 -0.1835  0.0373 -0.3328
 5165SOL    HW126954   2.102   1.429  12.364  1.5698  1.3243 -0.5703
 5165SOL    HW226955   2.048   1.435  12.222 -1.8606  0.4585 -0.4901
 5166SOL     OW26956   3.255   2.689   4.600 -0.1100 -0.0096 -0.3120
 5166SOL    HW126957   3.302   2.750   4.544  0.9941  1.1445  1.8833
 5166SOL    HW226958   3.279   2.716   4.689 -1.3233  2.2518 -0.6724
 5167SOL     OW26959   2.262   1.387  13.804  0.2785  0.0017  0.4119
 5167SOL    HW126960   2.213   1.455  13.851  1.1892  1.1510 -0.2734
 5167SOL    HW226961   2.195   1.320  13.799  1.1840 -0.9972  1.6688
 5168SOL     OW26962   3.561   2.007   3.651  0.2280  0.1467  0.3910
 5168SOL    HW126963   3.570   1.922   3.694 -1.4027 -1.0103 -1.5287
 5168SOL    HW226964   3.656   2.018   3.649  0.2866 -0.2397  1.1525
 5169SOL     OW26965   4.673   2.355   8.079  0.2448 -0.3301 -0.0859
 5169SOL    HW126966   0.012   2.329   8.146  1.5896  1.4536 -0.6662
 5169SOL    HW226967   4.651   2.443   8.109  2.1666  0.5568 -1.2920
 5170SOL     OW26968   0.289   3.463  10.508  0.6921 -0.0028  0.3570
 5170SOL    HW126969   0.211   3.439  10.457  0.7391  1.2560 -0.3123
 5170SOL    HW226970   0.283   3.554  10.478 -1.3297 -0.0310  0.6683
 5171SOL     OW26971   1.527   0.713   1.948 -0.2017 -0.3996 -0.5470
 5171SOL    HW126972   1.601   0.769   1.924  0.2722 -1.0658 -0.6109
 5171SOL    HW226973   1.522   0.642   1.884 -0.4070 -0.1338 -0.8326
 5172SOL     OW26974   2.167   2.150   7.002  0.5370  0.3058  0.0875
 5172SOL    HW126975   2.173   2.151   7.098 -0.7384 -0.3100  0.1712
 5172SOL    HW226976   2.260   2.142   6.981  1.0935 -0.6418  2.8175
 5173SOL     OW26977   0.211   1.308  12.634 -0.5249  0.4697  0.1398
 5173SOL    HW126978   0.160   1.372  12.583 -2.0301  0.1283  1.1961
 5173SOL    HW226979   0.245   1.270  12.553 -0.2701  1.5214 -0.2524
 5174SOL     OW26980   3.185   2.982   5.233  0.5878  0.3191 -0.1434
 5174SOL    HW126981   3.270   2.966   5.274  0.9199 -0.3405 -1.0972
 5174SOL    HW226982   3.171   2.899   5.186 -1.0197 -0.3949  1.5898
 5175SOL     OW26983   0.814   2.817   5.795 -0.3482  0.8757 -0.3370
 5175SOL    HW126984   0.760   2.870   5.854  0.2438  2.9334 -1.6322
 5175SOL    HW226985   0.873   2.883   5.757  0.3506  0.5165  0.1179
 5176SOL     OW26986   2.312   0.245  15.230 -0.0013 -0.1016  0.2733
 5176SOL    HW126987   2.272   0.198  15.156 -0.4127 -0.0633  0.4704
 5176SOL    HW226988   2.276   0.333  15.217 -0.3739 -0.3301 -0.2763
 5177SOL     OW26989   3.841   0.189  13.606 -0.2862 -0.3194  0.7531
 5177SOL    HW126990   3.869   0.188  13.514  0.4267  0.5101  0.9607
 5177SOL    HW226991   3.748   0.206  13.594 -0.1209  0.0048 -0.0688
 5178SOL     OW26992   4.616   2.888   5.465 -0.0450 -0.1266  0.5087
 5178SOL    HW126993   4.570   2.968   5.491 -1.0825 -0.8383  0.8750
 5178SOL    HW226994   4.607   2.830   5.540  2.7073  0.4779  1.3001
 5179SOL     OW26995   2.446   4.481   6.564 -0.1352 -0.1541 -0.3751
 5179SOL    HW126996   2.458   4.430   6.644 -0.7023  0.9227  0.4008
 5179SOL    HW226997   2.352   4.498   6.561 -0.2873 -0.5470  1.9965
 5180SOL     OW26998   3.403   3.097   2.353  0.0008  0.2615 -0.1311
 5180SOL    HW126999   3.346   3.167   2.386 -0.9403  1.1342 -3.5995
 5180SOL    HW227000   3.333   3.035   2.335 -0.2300  0.4554  0.0933
 5181SOL     OW27001   1.103   3.296  14.622  0.7350  0.2819 -0.2023
 5181SOL    HW127002   1.020   3.294  14.575  0.1220  2.0260  0.8098
 5181SOL    HW227003   1.156   3.342  14.557 -1.5377  1.3483 -1.3007
 5182SOL     OW27004   0.168   3.677   2.693  0.3653 -0.3290  0.0090
 5182SOL    HW127005   0.073   3.685   2.695  0.1873 -2.1446 -1.1278
 5182SOL    HW227006   0.199   3.747   2.636  0.1195 -1.4699 -1.5028
 5183SOL     OW27007   2.501   4.669   6.948 -0.0956  0.3454 -0.5912
 5183SOL    HW127008   2.551   4.597   6.987 -0.4472 -0.3739 -1.4650
 5183SOL    HW227009   2.536   0.023   6.991 -2.2478  1.8487 -1.5819
 5184SOL     OW27010   0.944   2.322  11.667  0.3755 -0.2327  0.6650
 5184SOL    HW127011   0.863   2.355  11.705 -1.0789 -0.0455 -2.5959
 5184SOL    HW227012   1.007   2.370  11.721 -0.0519  0.9537  0.1175
 5185SOL     OW27013   3.864   3.325   7.270  0.0463 -0.3536  0.0600
 5185SOL    HW127014   3.879   3.240   7.229  0.5329  0.9832 -2.5171
 5185SOL    HW227015   3.845   3.389   7.201  0.8802 -0.1721 -0.0036
 5186SOL     OW27016   0.201   1.521   2.859  0.0397  0.1534 -0.7308
 5186SOL    HW127017   0.142   1.459   2.815 -0.0124  0.4592 -1.0927
 5186SOL    HW227018   0.142   1.548   2.929  2.5284 -0.6003  1.6521
 5187SOL     OW27019   0.303   3.677   3.936 -0.1692  0.6194  0.0867
 5187SOL    HW127020   0.365   3.654   4.005 -0.9698 -0.5590  0.4039
 5187SOL    HW227021   0.358   3.661   3.859 -0.7022  0.1773 -0.1979
 5188SOL     OW27022   4.034   4.077   2.443 -0.1815 -0.2159 -0.0574
 5188SOL    HW127023   3.995   4.147   2.391 -0.1534 -0.3911 -0.3146
 5188SOL    HW227024   4.013   3.995   2.398 -2.6236  0.6200 -0.4664
 5189SOL     OW27025   0.347   0.987   8.679 -0.5549 -0.5177  0.2934
 5189SOL    HW127026   0.299   0.907   8.701  1.9527 -1.8599  0.9296
 5189SOL    HW227027   0.431   0.972   8.723  0.1022 -0.4045 -0.9286
 5190SOL     OW27028   2.873   3.390   5.430 -0.0834  0.4477  0.2868
 5190SOL    HW127029   2.888   3.308   5.384  2.0129 -0.4827  2.6120
 5190SOL    HW227030   2.960   3.402   5.468  0.1716 -0.9608  0.1216
 5191SOL     OW27031   2.041   1.507   4.619  0.1250  0.9350  0.4700
 5191SOL    HW127032   2.020   1.459   4.699  3.3335  0.2494  0.8769
 5191SOL    HW227033   1.971   1.570   4.603 -1.4099 -0.6463  0.9665
 5192SOL     OW27034   3.668   0.099   6.525 -0.6491  0.7410 -0.8905
 5192SOL    HW127035   3.602   0.168   6.518  1.4420  2.8108 -0.4416
 5192SOL    HW227036   3.619   0.035   6.475 -1.7785  1.0097 -0.1088
 5193SOL     OW27037   3.255   4.036  11.782  0.0805 -0.3959  0.5204
 5193SOL    HW127038   3.249   4.130  11.798 -0.1040 -0.2674 -0.3478
 5193SOL    HW227039   3.313   4.012  11.855 -0.5559  1.5914  1.6723
 5194SOL     OW27040   0.082   1.500   7.921 -0.7071  0.0051  0.8114
 5194SOL    HW127041   0.034   1.418   7.926 -1.4897  0.4103 -0.0464
 5194SOL    HW227042   0.166   1.466   7.953  0.2701  1.6617  0.0569
 5195SOL     OW27043   0.122   3.156   6.576  0.2784  0.0291 -0.7333
 5195SOL    HW127044   0.049   3.094   6.567 -0.2640  0.6426 -0.5640
 5195SOL    HW227045   0.114   3.192   6.487 -1.0887 -0.6683 -0.8902
 5196SOL     OW27046   3.415   2.804   8.653 -0.4168  0.0802  0.1254
 5196SOL    HW127047   3.351   2.843   8.593  2.2944 -0.8563 -3.3776
 5196SOL    HW227048   3.469   2.882   8.665 -0.4934 -0.0103  1.0649
 5197SOL     OW27049   4.259   2.510   6.101  0.6338  0.7360 -0.0595
 5197SOL    HW127050   4.323   2.468   6.158 -0.3951 -0.7766 -0.0231
 5197SOL    HW227051   4.218   2.429   6.073 -0.4284  1.2886 -0.1333
 5198SOL     OW27052   3.821   0.371   9.686 -1.2049  0.6307  0.0097
 5198SOL    HW127053   3.910   0.400   9.706 -0.0694 -0.3296 -3.6267
 5198SOL    HW227054   3.809   0.426   9.609 -0.1118  0.1817 -0.4859
 5199SOL     OW27055   3.526   0.801   3.388 -0.8247 -0.1224  0.1736
 5199SOL    HW127056   3.492   0.887   3.364  0.2506 -0.5024 -2.7914
 5199SOL    HW227057   3.449   0.745   3.381 -1.8424  0.9585  2.7608
 5200SOL     OW27058   1.144   4.338   5.970  0.5294  0.8446  0.6089
 5200SOL    HW127059   1.089   4.295   5.904 -1.4788 -0.4031  3.0844
 5200SOL    HW227060   1.084   4.412   5.982 -0.0520  0.5315 -0.3438
 5201SOL     OW27061   3.886   1.632  16.023  0.0522 -0.3168 -0.2008
 5201SOL    HW127062   3.981   1.620  16.017 -0.2181 -1.6436 -1.5712
 5201SOL    HW227063   3.860   1.545  15.993 -2.7990  0.8247 -1.0819
 5202SOL     OW27064   1.827   2.076   3.129 -0.4198  0.4563  0.3525
 5202SOL    HW127065   1.899   2.050   3.186  0.0929  1.3784  0.1206
 5202SOL    HW227066   1.857   2.050   3.041 -0.7141  1.7353 -0.1227
 5203SOL     OW27067   0.377   0.548   0.620 -0.2605 -0.0814  0.0957
 5203SOL    HW127068   0.387   0.641   0.639 -1.5626  0.3605 -1.3888
 5203SOL    HW227069   0.450   0.504   0.665 -1.2293 -0.0611  1.6707
 5204SOL     OW27070   3.676   1.162   3.346  0.2021 -0.4542 -0.0288
 5204SOL    HW127071   3.716   1.081   3.314 -0.5054 -0.6749 -0.3522
 5204SOL    HW227072   3.753   1.218   3.354 -0.1745  0.3358 -2.0387
 5205SOL     OW27073   3.056   0.556   7.604  0.3780  0.0506 -0.7251
 5205SOL    HW127074   3.127   0.498   7.577 -0.4322 -1.1026 -0.3875
 5205SOL    HW227075   3.088   0.582   7.690 -3.6672 -0.4233  0.9018
 5206SOL     OW27076   1.937   3.277   2.476 -0.1505 -0.4818  0.0506
 5206SOL    HW127077   1.922   3.210   2.543 -0.2145 -1.0256 -0.5071
 5206SOL    HW227078   1.886   3.346   2.518 -2.4395 -2.5398  0.6826
 5207SOL     OW27079   0.594   0.764   5.038  0.4225 -0.1561  0.1706
 5207SOL    HW127080   0.534   0.724   4.976 -0.1257  1.8324 -0.5516
 5207SOL    HW227081   0.630   0.835   4.985 -0.4330  0.0842 -0.0852
 5208SOL     OW27082   3.646   4.607   5.033 -0.4307 -0.0874 -0.0800
 5208SOL    HW127083   3.557   4.642   5.039 -0.2182  0.3535  0.4575
 5208SOL    HW227084   3.694   4.686   5.056 -0.2339 -0.2027 -0.0879
 5209SOL     OW27085   3.180   3.558   7.930 -0.3369 -0.5325 -0.0290
 5209SOL    HW127086   3.198   3.636   7.878  0.0492 -0.7791 -0.2594
 5209SOL    HW227087   3.266   3.555   7.970 -0.4831 -0.6915  0.2744
 5210SOL     OW27088   1.054   1.892  10.333  0.3592  0.9464 -0.2350
 5210SOL    HW127089   0.996   1.923  10.264 -0.8017  2.7251  1.5526
 5210SOL    HW227090   1.085   1.803  10.311 -1.3956  0.6739 -1.6493
 5211SOL     OW27091   3.820   0.702   0.951 -0.4378 -0.0289 -0.0437
 5211SOL    HW127092   3.879   0.734   0.883 -0.7829 -0.4916 -0.5660
 5211SOL    HW227093   3.880   0.727   1.021  0.2028  1.0491 -0.9823
 5212SOL     OW27094   1.788   4.616  12.414  0.3934 -0.2574  0.2213
 5212SOL    HW127095   1.705   4.579  12.383  1.7099 -1.9330 -1.3132
 5212SOL    HW227096   1.850   4.543  12.410  0.0460 -0.4762 -1.1626
 5213SOL     OW27097   2.031   0.836   5.874  0.4835  0.1644 -0.2851
 5213SOL    HW127098   1.959   0.775   5.858 -0.0463  0.9454 -0.9014
 5213SOL    HW227099   2.086   0.830   5.796 -0.5598  0.9410 -1.0982
 5214SOL     OW27100   2.477   2.286  13.426  0.0549 -0.0710 -0.3363
 5214SOL    HW127101   2.382   2.270  13.419 -0.1038  0.5932  0.2874
 5214SOL    HW227102   2.518   2.276  13.340 -0.8121  1.8114 -0.9882
 5215SOL     OW27103   4.268   1.521   1.815 -0.1806  0.2293 -0.0708
 5215SOL    HW127104   4.190   1.469   1.833 -0.3044  0.3823 -0.1628
 5215SOL    HW227105   4.223   1.593   1.771 -2.8090 -1.8080 -0.7044
 5216SOL     OW27106   3.844   3.344  13.042 -0.0459  0.3902 -0.0455
 5216SOL    HW127107   3.761   3.382  13.012 -0.1592  1.6919  1.8751
 5216SOL    HW227108   3.864   3.281  12.973 -0.0321 -2.5137  2.6269
 5217SOL     OW27109   2.926   4.117  12.342 -0.1688 -0.2782  0.2137
 5217SOL    HW127110   2.849   4.128  12.398 -0.3583 -0.5486  0.0096
 5217SOL    HW227111   2.990   4.079  12.402  1.0131  2.9225  0.9723
 5218SOL     OW27112   1.069   4.254   5.257  0.1836 -0.1331 -0.0891
 5218SOL    HW127113   1.135   4.317   5.227 -0.0227 -0.3893 -1.0895
 5218SOL    HW227114   1.030   4.234   5.171 -1.2585 -0.9841  0.7641
 5219SOL     OW27115   1.315   2.345   7.289  0.2945 -0.1436 -0.2498
 5219SOL    HW127116   1.264   2.333   7.209 -0.2051  1.1180 -0.1303
 5219SOL    HW227117   1.380   2.275   7.283  0.5308 -0.0771  1.3463
 5220SOL     OW27118   4.046   1.657  11.730  0.4071  0.8021  0.3813
 5220SOL    HW127119   3.992   1.668  11.808 -0.1262  0.1430  0.1039
 5220SOL    HW227120   4.008   1.727  11.677  0.8734  0.2666 -0.6630
 5221SOL     OW27121   0.206   0.337   7.007 -0.9368 -0.9521  0.0459
 5221SOL    HW127122   0.293   0.378   7.001 -1.3668 -0.4989 -2.8670
 5221SOL    HW227123   0.153   0.397   7.059 -1.1522 -0.9912 -0.1325
 5222SOL     OW27124   2.959   3.493   7.641  0.5869  0.5911 -0.4566
 5222SOL    HW127125   2.873   3.460   7.670 -0.4348  2.5688 -1.2709
 5222SOL    HW227126   2.979   3.563   7.702 -0.2123  0.9959 -0.6622
 5223SOL     OW27127   4.295   0.901  16.310 -0.5428  0.1234  0.1591
 5223SOL    HW127128   4.211   0.869  16.278  0.4782 -0.9856 -1.4440
 5223SOL    HW227129   4.359   0.873  16.245  1.0376 -2.0402  2.6815
 5224SOL     OW27130   0.089   3.668   6.486  0.2274  0.0609  0.1322
 5224SOL    HW127131   0.168   3.649   6.436  0.8983 -0.1007  1.2739
 5224SOL    HW227132   0.102   3.762   6.496  1.3644 -0.3457  2.5157
 5225SOL     OW27133   3.061   1.809   4.983  0.2569  0.2308 -0.0492
 5225SOL    HW127134   3.124   1.825   4.913 -0.4062 -1.7330 -1.0845
 5225SOL    HW227135   2.993   1.870   4.953 -1.3932 -1.2905  0.6191
 5226SOL     OW27136   1.494   2.612   3.593 -0.4639  0.4498 -0.2685
 5226SOL    HW127137   1.449   2.637   3.513 -1.3676  0.3998  0.2180
 5226SOL    HW227138   1.462   2.524   3.614 -1.6424  1.0470  0.4737
 5227SOL     OW27139   3.115   1.552   3.527  0.4766  0.4187 -0.2010
 5227SOL    HW127140   3.168   1.479   3.560  1.8770  1.3595 -0.4103
 5227SOL    HW227141   3.184   1.612   3.498 -0.1832  0.4012 -1.8114
 5228SOL     OW27142   0.290   1.298  14.247 -0.2160 -0.1643 -0.0250
 5228SOL    HW127143   0.219   1.309  14.310 -0.2507 -1.4901  0.1635
 5228SOL    HW227144   0.361   1.319  14.308 -0.3954 -2.9506  1.1420
 5229SOL     OW27145   0.955   3.534   4.061  0.0436  0.3968 -0.6200
 5229SOL    HW127146   0.892   3.547   4.132  0.3768 -0.8634 -0.0912
 5229SOL    HW227147   0.992   3.620   4.043  1.3579  0.1943  1.0855
 5230SOL     OW27148   2.998   3.374  13.039  0.1608  0.1217  0.1375
 5230SOL    HW127149   3.004   3.412  13.127  0.0342  1.1631 -0.3064
 5230SOL    HW227150   2.970   3.453  12.992 -1.4277 -0.8567 -0.5684
 5231SOL     OW27151   1.695   2.681   9.122  0.0904 -0.5270  0.5623
 5231SOL    HW127152   1.632   2.614   9.149  0.8027 -0.2384  2.9821
 5231SOL    HW227153   1.646   2.763   9.123  2.2160  0.7396  0.2099
 5232SOL     OW27154   2.817   3.611   3.082  0.1283  0.5536  0.3871
 5232SOL    HW127155   2.873   3.636   3.155  0.7640  0.9855 -0.2530
 5232SOL    HW227156   2.735   3.621   3.130 -0.7709 -2.1152 -0.5763
 5233SOL     OW27157   0.894   2.673   1.205  0.8686  0.0805  0.2234
 5233SOL    HW127158   0.902   2.596   1.262 -2.5575  0.2700  0.9797
 5233SOL    HW227159   0.811   2.714   1.230  0.8854  0.9107 -1.0683
 5234SOL     OW27160   2.398   3.980  16.315 -0.0210  0.1950  0.4288
 5234SOL    HW127161   2.470   3.924  16.342 -0.5312 -0.0813  1.2356
 5234SOL    HW227162   2.354   3.924  16.252 -3.6163  1.7411  1.5068
 5235SOL     OW27163   4.060   1.184  13.920 -0.4817  0.7029 -0.4508
 5235SOL    HW127164   4.135   1.204  13.863  0.9827 -0.9359  0.9025
 5235SOL    HW227165   4.047   1.262  13.973 -0.6644  0.7695 -0.5925
 5236SOL     OW27166   2.740   1.541   2.494  0.0665  0.2564 -0.0876
 5236SOL    HW127167   2.731   1.476   2.564 -1.2730 -0.6927 -1.1318
 5236SOL    HW227168   2.722   1.483   2.420  1.8561  2.7437 -2.4601
 5237SOL     OW27169   3.609   4.508   6.650 -0.0785  0.4695 -0.2024
 5237SOL    HW127170   3.648   4.569   6.713  4.2097  0.1207 -2.5322
 5237SOL    HW227171   3.664   4.431   6.661 -1.2344 -0.3797 -0.4022
 5238SOL     OW27172   4.660   2.180   6.639  0.1093 -0.0694 -0.2439
 5238SOL    HW127173   4.578   2.215   6.605 -0.1808  1.7215  2.2719
 5238SOL    HW227174   4.688   2.115   6.574 -1.1242  0.0551 -0.8860
 5239SOL     OW27175   1.394   1.835   2.292  0.7972 -0.1609  0.4304
 5239SOL    HW127176   1.380   1.929   2.281  0.4788 -0.4273 -1.4951
 5239SOL    HW227177   1.483   1.815   2.262  1.0509  2.2569 -0.3781
 5240SOL     OW27178   0.750   0.690  11.929 -0.1732 -0.4449 -0.5460
 5240SOL    HW127179   0.674   0.692  11.871  1.9890  2.1428 -3.2311
 5240SOL    HW227180   0.816   0.707  11.862 -0.8644 -1.1609 -1.4224
 5241SOL     OW27181   1.359   0.691   7.251 -0.2880 -0.2683 -0.3912
 5241SOL    HW127182   1.423   0.637   7.205  0.2584 -0.1521  0.2297
 5241SOL    HW227183   1.414   0.767   7.272  0.5433 -0.5708 -1.5289
 5242SOL     OW27184   1.542   3.804   7.568  0.5086 -0.3225  0.1007
 5242SOL    HW127185   1.488   3.867   7.614 -1.7353 -0.9859 -1.5821
 5242SOL    HW227186   1.530   3.731   7.629 -0.3062 -0.7082 -0.5158
 5243SOL     OW27187   1.007   3.996   6.355  0.2742  0.1640  0.2103
 5243SOL    HW127188   1.026   3.969   6.445 -1.8227  0.6812  0.8141
 5243SOL    HW227189   1.072   3.943   6.309 -1.6546 -1.0444 -1.1297
 5244SOL     OW27190   4.201   0.343   0.064  0.1720  0.9072 -0.1884
 5244SOL    HW127191   4.186   0.390   0.146 -3.0137  0.5614 -0.6053
 5244SOL    HW227192   4.180   0.417   0.008  0.1544  0.6133 -0.5708
 5245SOL     OW27193   1.838   2.740   7.817 -0.2736  0.4642 -0.7993
 5245SOL    HW127194   1.799   2.655   7.797 -0.2594  0.1023  0.7528
 5245SOL    HW227195   1.930   2.713   7.824 -1.0546 -2.0415 -0.4351
 5246SOL     OW27196   3.188   1.418   2.028 -0.2101  0.5140  0.5798
 5246SOL    HW127197   3.239   1.497   2.008 -1.3788  1.0913 -0.1606
 5246SOL    HW227198   3.256   1.365   2.068 -1.3063 -1.3257 -0.0086
 5247SOL     OW27199   0.757   1.984   6.039 -0.7039  0.1828 -0.6120
 5247SOL    HW127200   0.739   1.941   6.123  2.5158 -2.2848 -1.1757
 5247SOL    HW227201   0.720   2.069   6.061 -0.6744 -0.0119  0.1948
 5248SOL     OW27202   1.136   2.676   2.037 -0.0557 -0.0814  0.6015
 5248SOL    HW127203   1.122   2.663   2.131  0.2781 -0.9578  0.5284
 5248SOL    HW227204   1.053   2.716   2.010  1.2406  1.6180 -0.8898
 5249SOL     OW27205   1.238   0.808   1.694 -0.3651 -0.0858  0.5331
 5249SOL    HW127206   1.331   0.805   1.676 -0.6452  1.3970 -1.1746
 5249SOL    HW227207   1.199   0.759   1.622 -2.3960  0.7599  1.0454
 5250SOL     OW27208   0.416   1.661   4.307  0.0625  0.3092  0.0509
 5250SOL    HW127209   0.431   1.677   4.400 -0.2267  0.2911  0.1012
 5250SOL    HW227210   0.455   1.741   4.271 -0.2211  1.5241  2.4128
 5251SOL     OW27211   4.228   3.497   7.475 -0.3772  0.0232 -0.1606
 5251SOL    HW127212   4.236   3.482   7.380  0.2067 -1.9210  0.1951
 5251SOL    HW227213   4.174   3.421   7.496 -0.5449 -0.7817 -3.4792
 5252SOL     OW27214   2.938   2.811  15.246  0.5210 -0.3942  0.2016
 5252SOL    HW127215   3.024   2.832  15.283  1.1404 -1.7110 -0.4830
 5252SOL    HW227216   2.941   2.717  15.227  2.1784 -0.3228  0.1091
 5253SOL     OW27217   4.195   2.900   3.135  0.8503 -0.4962  0.0911
 5253SOL    HW127218   4.185   2.871   3.045 -1.6279  0.5688  0.0075
 5253SOL    HW227219   4.128   2.849   3.181  1.6993 -0.7207  1.0728
 5254SOL     OW27220   2.020   4.368  14.120  0.2074 -0.5038 -0.0910
 5254SOL    HW127221   1.959   4.303  14.086  0.0323 -0.6449  0.4919
 5254SOL    HW227222   1.978   4.391  14.203  1.4083 -1.2920  0.7345
 5255SOL     OW27223   2.501   3.215   5.677 -0.1703  0.7349  0.0924
 5255SOL    HW127224   2.516   3.215   5.771  1.8574  1.0075 -0.2402
 5255SOL    HW227225   2.510   3.307   5.653  0.8709  0.2573 -1.3353
 5256SOL     OW27226   2.319   3.845   2.980 -0.1073  0.7196  0.2644
 5256SOL    HW127227   2.243   3.903   2.986 -0.7399 -0.1875  0.9023
 5256SOL    HW227228   2.317   3.823   2.886  3.0520 -0.1522  0.4106
 5257SOL     OW27229   0.060   0.755   6.995 -0.1852 -0.0321  0.0828
 5257SOL    HW127230   0.105   0.714   6.921  1.1612 -0.6266  1.2474
 5257SOL    HW227231   0.038   0.680   7.049 -0.3882  0.9665  1.3980
 5258SOL     OW27232   2.290   4.372  14.187 -0.0103  0.0894  1.0248
 5258SOL    HW127233   2.196   4.381  14.175  0.3331  0.1920 -1.6704
 5258SOL    HW227234   2.299   4.290  14.236  0.0755  0.1930  1.1825
 5259SOL     OW27235   3.250   0.599  10.146 -0.4128 -0.2236  0.3328
 5259SOL    HW127236   3.222   0.526  10.201  1.4450 -1.4069 -0.3028
 5259SOL    HW227237   3.341   0.581  10.122  0.0963  1.6933  0.8105
 5260SOL     OW27238   1.015   4.183   4.959 -0.0794  0.8473 -0.4691
 5260SOL    HW127239   1.012   4.142   4.873  1.0320 -0.6580  0.1858
 5260SOL    HW227240   1.068   4.259   4.935 -0.4151  1.3441  0.3568
 5261SOL     OW27241   4.573   1.264   7.243  0.5934  0.0394 -0.2928
 5261SOL    HW127242   4.618   1.199   7.297 -1.9167  0.4222  2.2270
 5261SOL    HW227243   4.486   1.235   7.269  1.8300 -1.7725  1.9106
 5262SOL     OW27244   3.470   1.850   9.015  0.3552  0.0466 -0.3909
 5262SOL    HW127245   3.398   1.798   8.978  0.6392  1.1854 -2.5288
 5262SOL    HW227246   3.440   1.939   8.996 -0.1888 -0.1333 -0.3730
 5263SOL     OW27247   0.970   2.382  17.478  0.3889 -0.3364 -0.4186
 5263SOL    HW127248   0.973   2.308  17.417 -1.4062  1.1427 -2.3213
 5263SOL    HW227249   1.044   2.435  17.449  1.1132 -0.5677  0.9815
 5264SOL     OW27250   4.044   4.366   7.242  0.3437 -0.0722  0.4843
 5264SOL    HW127251   4.121   4.309   7.235  0.1872 -0.1741 -0.4223
 5264SOL    HW227252   4.085   4.453   7.248 -0.2627  0.2994 -0.9166
 5265SOL     OW27253   4.547   3.222  16.871 -0.3935 -0.3446 -0.3372
 5265SOL    HW127254   4.545   3.234  16.966  0.8156 -1.6448 -0.1538
 5265SOL    HW227255   4.455   3.213  16.846  0.2251  0.6362 -2.9384
 5266SOL     OW27256   3.579   3.490  10.488 -0.1046 -0.1569 -0.4722
 5266SOL    HW127257   3.509   3.548  10.458  0.0760  1.2991  1.8842
 5266SOL    HW227258   3.654   3.518  10.436  1.9438 -1.4193  1.7592
 5267SOL     OW27259   3.607   1.969  11.907  0.0942 -0.3475  0.4835
 5267SOL    HW127260   3.511   1.971  11.910  0.1206  0.5129  0.5879
 5267SOL    HW227261   3.626   1.982  12.000 -0.7874 -1.8734  0.8871
 5268SOL     OW27262   1.215   2.202   6.762 -0.4877  0.6587 -0.1281
 5268SOL    HW127263   1.294   2.149   6.755 -1.0178 -0.3491  1.4616
 5268SOL    HW227264   1.256   2.285   6.737 -0.1347  0.8433  1.0738
 5269SOL     OW27265   1.753   3.905   0.207  0.1142 -0.0611  0.8920
 5269SOL    HW127266   1.688   3.869   0.147  0.5236  0.5374  0.0962
 5269SOL    HW227267   1.732   3.855   0.286 -0.0745  0.2129  1.0138
 5270SOL     OW27268   0.231   2.236  15.504  0.0000  0.1413  0.3444
 5270SOL    HW127269   0.271   2.304  15.450 -0.9661 -1.6970 -2.6822
 5270SOL    HW227270   0.230   2.156  15.450 -0.0310 -0.3357  1.0442
 5271SOL     OW27271   1.351   3.429   7.022 -0.6312  0.1038 -0.1929
 5271SOL    HW127272   1.306   3.450   7.104 -0.1990  0.0724  0.0515
 5271SOL    HW227273   1.304   3.352   6.989  0.1749 -0.8568  0.8854
 5272SOL     OW27274   3.214   3.521   6.568  1.1041 -0.5510 -0.3473
 5272SOL    HW127275   3.135   3.531   6.621 -0.2534  0.3812 -2.5520
 5272SOL    HW227276   3.192   3.563   6.485 -0.8890  0.3017  0.6372
 5273SOL     OW27277   1.108   1.382  10.551  0.3861 -0.4551  0.2263
 5273SOL    HW127278   1.035   1.356  10.496 -0.2685  0.2293  0.7705
 5273SOL    HW227279   1.102   1.308  10.611 -0.6274 -1.1251 -0.7175
 5274SOL     OW27280   2.728   4.634   1.597  0.2740 -0.3201  0.6619
 5274SOL    HW127281   2.804   4.692   1.602  1.0921 -1.2068 -1.0698
 5274SOL    HW227282   2.732   4.611   1.504  0.0995  1.1460  0.3033
 5275SOL     OW27283   3.139   3.274   6.068 -0.1650 -0.2672  0.0747
 5275SOL    HW127284   3.103   3.231   5.991 -0.7298 -1.2134  0.8622
 5275SOL    HW227285   3.083   3.351   6.074  0.2804  0.2321 -2.1260
 5276SOL     OW27286   3.204   4.075   4.829  0.1949  0.3811 -0.0452
 5276SOL    HW127287   3.216   4.164   4.861 -1.1618  0.4616  0.2361
 5276SOL    HW227288   3.109   4.066   4.825  0.2888 -0.9842  0.6141
 5277SOL     OW27289   1.694   2.629   7.437 -0.2035  0.2862  0.2765
 5277SOL    HW127290   1.631   2.699   7.417 -1.4001 -0.7414  0.4935
 5277SOL    HW227291   1.766   2.663   7.384 -1.4173  0.7717 -1.0503
 5278SOL     OW27292   0.380   3.263   4.881  0.3550  0.1017  0.2130
 5278SOL    HW127293   0.392   3.211   4.961  1.5926 -0.0264 -0.0666
 5278SOL    HW227294   0.315   3.214   4.831 -1.5177  2.0850  0.6776
 5279SOL     OW27295   0.113   0.741   8.101 -0.1832  0.0736 -0.2289
 5279SOL    HW127296   0.135   0.734   8.194  3.3499 -0.2457 -1.0957
 5279SOL    HW227297   0.154   0.825   8.081  1.3011 -0.5865  0.0365
 5280SOL     OW27298   0.496   0.148   1.344  0.6805  0.1987  0.4696
 5280SOL    HW127299   0.471   0.111   1.259  0.0677  0.6738  0.4431
 5280SOL    HW227300   0.408   0.145   1.382  0.2322 -0.0921 -0.5978
 5281SOL     OW27301   2.529   2.186   2.444 -0.5530  0.4104 -0.5480
 5281SOL    HW127302   2.545   2.279   2.435 -0.3108  0.3510 -0.7326
 5281SOL    HW227303   2.567   2.164   2.530  0.2756  2.4291 -0.3935
 5282SOL     OW27304   2.859   3.827   1.929  0.3840 -0.1027 -0.0945
 5282SOL    HW127305   2.849   3.912   1.971  1.1931  0.1921 -0.5129
 5282SOL    HW227306   2.891   3.846   1.841  0.9146 -0.2489  0.0694
 5283SOL     OW27307   4.179   2.443   7.018  0.6660  0.3522  0.0146
 5283SOL    HW127308   4.211   2.522   6.974 -1.8826  1.0663 -0.5698
 5283SOL    HW227309   4.119   2.419   6.948 -1.2644  1.0375  1.4353
 5284SOL     OW27310   4.015   0.921   8.299  0.3142 -0.2493 -0.0235
 5284SOL    HW127311   3.961   0.900   8.375  1.4601 -1.4829  0.4662
 5284SOL    HW227312   4.085   0.969   8.342 -0.4151  1.3769 -0.6340
 5285SOL     OW27313   2.231   4.429   2.128 -0.1608 -0.4726 -0.2102
 5285SOL    HW127314   2.323   4.439   2.103  0.0734 -1.5005  0.2422
 5285SOL    HW227315   2.192   4.393   2.049 -1.6998 -1.2393  0.9066
 5286SOL     OW27316   2.907   2.315   5.992  0.1473  0.0183 -0.7875
 5286SOL    HW127317   2.936   2.406   5.993  0.2081  0.0028 -1.2511
 5286SOL    HW227318   2.993   2.272   5.983 -0.4765 -1.4773  0.2508
 5287SOL     OW27319   0.436   0.806   8.183 -0.3516 -0.1463 -0.1439
 5287SOL    HW127320   0.486   0.724   8.186  0.4803  0.2533 -2.2901
 5287SOL    HW227321   0.413   0.802   8.275  0.4652  0.3283  0.0798
 5288SOL     OW27322   1.684   1.846   2.225 -0.3576 -1.1643 -0.7326
 5288SOL    HW127323   1.669   1.927   2.273 -0.7941 -2.9723  2.2394
 5288SOL    HW227324   1.772   1.828   2.257  0.2933  0.0615 -1.8668
 5289SOL     OW27325   2.408   1.194   8.464 -0.2600  0.2498  0.0812
 5289SOL    HW127326   2.400   1.196   8.559 -0.9618  0.4253  0.0161
 5289SOL    HW227327   2.429   1.102   8.451  0.2868  0.5426 -1.1676
 5290SOL     OW27328   4.089   1.728   6.532  0.7059  0.0656  0.0893
 5290SOL    HW127329   4.107   1.790   6.601  0.6977  0.0693  0.0880
 5290SOL    HW227330   4.098   1.651   6.588  0.4765 -0.4887 -0.6292
 5291SOL     OW27331   0.845   2.698   8.073 -0.3411  0.1988 -0.1094
 5291SOL    HW127332   0.802   2.677   8.156 -1.3690  3.1308  0.1092
 5291SOL    HW227333   0.798   2.642   8.012  1.8587 -1.0044 -0.7028
 5292SOL     OW27334   3.311   1.705  12.614  0.0234  0.1844  0.4545
 5292SOL    HW127335   3.313   1.610  12.615 -0.6056  0.1727  0.8769
 5292SOL    HW227336   3.292   1.725  12.523  0.8094 -0.3087  0.1775
 5293SOL     OW27337   0.478   4.450  17.131 -0.1138  0.1678 -0.1418
 5293SOL    HW127338   0.457   4.421  17.220  1.2793  1.1815  0.5075
 5293SOL    HW227339   0.408   4.514  17.136  0.7797  1.0870  0.5749
 5294SOL     OW27340   1.544   1.080   3.283  0.5641  0.2842 -0.5427
 5294SOL    HW127341   1.469   1.077   3.223 -2.3150  1.5909  2.9885
 5294SOL    HW227342   1.614   1.066   3.218 -0.0008  0.7075 -1.2483
 5295SOL     OW27343   1.894   2.563   8.999  0.0998 -0.5268  0.3207
 5295SOL    HW127344   1.810   2.592   9.036  0.8232  0.4213  1.2436
 5295SOL    HW227345   1.884   2.594   8.909 -0.7495  1.2087  1.0024
 5296SOL     OW27346   2.608   1.126   0.228 -0.0787 -0.4113  0.8295
 5296SOL    HW127347   2.689   1.147   0.182  0.0322  2.1451  2.1828
 5296SOL    HW227348   2.635   1.082   0.308  0.1146  0.3252  1.1645
 5297SOL     OW27349   1.145   1.307   6.419 -0.3066 -0.3545 -0.1492
 5297SOL    HW127350   1.141   1.403   6.413  3.8626 -0.2272 -0.7668
 5297SOL    HW227351   1.130   1.290   6.512 -2.2089 -0.1183 -0.4149
 5298SOL     OW27352   3.033   0.321   6.429 -0.1810 -0.1681 -0.4106
 5298SOL    HW127353   3.022   0.237   6.385 -0.4095 -1.2628  1.7207
 5298SOL    HW227354   2.947   0.332   6.470 -0.9416  1.4215 -2.4662
 5299SOL     OW27355   1.940   2.135   0.643 -0.2551  0.5212  0.2415
 5299SOL    HW127356   1.905   2.153   0.555  0.5368 -0.6270 -0.3008
 5299SOL    HW227357   2.032   2.126   0.617  0.0241 -3.4397  2.6574
 5300SOL     OW27358   4.334   3.126   2.558 -0.0455 -0.1275 -0.0202
 5300SOL    HW127359   4.419   3.108   2.518  0.2355 -0.1563  0.5873
 5300SOL    HW227360   4.348   3.088   2.645 -2.7240  1.2429  1.0082
 5301SOL     OW27361   3.095   1.357  12.796  0.3379 -0.0793  0.2772
 5301SOL    HW127362   3.101   1.261  12.793  1.0663 -0.0943  1.8292
 5301SOL    HW227363   3.005   1.373  12.824 -0.1113 -1.4087 -0.4307
 5302SOL     OW27364   2.362   2.001   2.885  0.2497 -0.7159  0.9538
 5302SOL    HW127365   2.400   1.916   2.863  0.4510 -0.1180 -1.0141
 5302SOL    HW227366   2.404   2.015   2.970 -0.3512  0.0094  1.1300
 5303SOL     OW27367   3.522   1.388  15.779  0.2234 -0.4177  0.2536
 5303SOL    HW127368   3.582   1.414  15.710  0.3623 -2.9823 -0.5874
 5303SOL    HW227369   3.453   1.453  15.766 -0.5074 -1.0963  0.7294
 5304SOL     OW27370   1.635   0.044  10.351  0.1523 -0.4814 -0.1591
 5304SOL    HW127371   1.567   4.703  10.371  0.6637 -1.1183 -0.5055
 5304SOL    HW227372   1.701   4.705  10.324  0.2863  0.5289 -2.1877
 5305SOL     OW27373   3.990   1.454   4.236 -0.8306  0.6681 -0.3693
 5305SOL    HW127374   4.034   1.536   4.214  2.7276 -1.1747 -0.1089
 5305SOL    HW227375   3.948   1.431   4.153  1.2436 -1.5548 -0.7763
 5306SOL     OW27376   1.763   0.571   3.551  0.1269 -0.1400  0.1994
 5306SOL    HW127377   1.671   0.582   3.574 -0.2761 -1.3793 -0.7759
 5306SOL    HW227378   1.803   0.615   3.626 -0.6622  1.0186 -0.0582
 5307SOL     OW27379   3.811   2.094   5.605 -0.1272 -0.0718 -0.0263
 5307SOL    HW127380   3.780   2.109   5.516 -0.7897 -1.1246  0.0329
 5307SOL    HW227381   3.732   2.073   5.653 -0.9070  0.0333 -1.2589
 5308SOL     OW27382   0.595   1.066   1.594  0.2851  0.2201  0.0877
 5308SOL    HW127383   0.671   1.124   1.605  0.2488  0.4464 -0.8640
 5308SOL    HW227384   0.613   1.037   1.505 -1.5125 -1.0153  0.1322
 5309SOL     OW27385   2.817   1.918   5.383 -0.8020 -0.8506  0.4298
 5309SOL    HW127386   2.910   1.917   5.360 -0.6477  0.9512  0.9789
 5309SOL    HW227387   2.767   1.900   5.304  3.7265  0.1469 -2.7066
 5310SOL     OW27388   3.656   3.175   9.885 -0.6659  0.2053 -0.7366
 5310SOL    HW127389   3.644   3.268   9.869 -0.2144 -0.1433 -3.0638
 5310SOL    HW227390   3.673   3.144   9.796 -0.0331 -2.0670  0.1593
 5311SOL     OW27391   4.095   4.474  14.421 -0.4096 -0.6621 -0.5607
 5311SOL    HW127392   4.059   4.396  14.379  0.9541 -1.2464 -0.6434
 5311SOL    HW227393   4.190   4.460  14.420 -0.0051  2.0629 -1.0599
 5312SOL     OW27394   3.648   0.217   9.821  0.3306  0.5979  0.1335
 5312SOL    HW127395   3.708   0.273   9.771  2.4137 -0.0922  1.8654
 5312SOL    HW227396   3.561   0.254   9.806 -1.4625 -4.1043 -0.9835
 5313SOL     OW27397   0.120   3.556  10.176  0.5296  0.1903  0.0353
 5313SOL    HW127398   0.133   3.491  10.107 -1.9403  1.1907 -1.3599
 5313SOL    HW227399   0.074   3.513  10.247 -0.7279  0.1922 -0.7737
 5314SOL     OW27400   1.568   2.996   2.126 -0.6590  0.4917  0.1078
 5314SOL    HW127401   1.483   2.965   2.157 -1.2597  3.3636  1.2718
 5314SOL    HW227402   1.623   2.936   2.176 -0.3234  0.4655 -0.2896
 5315SOL     OW27403   0.081   2.002   5.649 -0.2965  0.3826 -0.3809
 5315SOL    HW127404   0.022   2.060   5.697 -0.8814 -0.2773 -0.2909
 5315SOL    HW227405   0.050   1.915   5.675 -0.5708  0.3729 -0.7286
 5316SOL     OW27406   0.130   4.609   6.430  0.0212 -0.1049  0.0560
 5316SOL    HW127407   0.127   4.681   6.492  2.1339  0.1457 -0.1289
 5316SOL    HW227408   0.182   4.541   6.473 -2.0301 -0.2078  2.3554
 5317SOL     OW27409   4.714   2.340   3.118 -0.7470 -0.2690  0.7759
 5317SOL    HW127410   0.082   2.314   3.128 -0.5234  0.4654  0.6233
 5317SOL    HW227411   4.709   2.408   3.051  0.6658  0.1221  1.0627
 5318SOL     OW27412   1.244   3.357   3.178  0.8837 -0.1310 -0.9627
 5318SOL    HW127413   1.277   3.379   3.265 -0.9012  0.1129 -0.3417
 5318SOL    HW227414   1.317   3.377   3.120  0.7748  0.3341 -0.9471
 5319SOL     OW27415   2.807   1.020  10.833  0.4953  0.1460 -0.5119
 5319SOL    HW127416   2.797   1.026  10.928 -0.4447 -1.1851 -0.5182
 5319SOL    HW227417   2.750   0.949  10.803  0.7245  0.0241 -0.6585
 5320SOL     OW27418   0.873   2.568   5.003  0.4520 -0.0492 -0.2178
 5320SOL    HW127419   0.914   2.483   5.020  1.2093  0.7327  1.9151
 5320SOL    HW227420   0.780   2.548   5.000  0.1269  1.4065 -0.1548
 5321SOL     OW27421   3.295   3.786  11.008  0.2371 -0.0299 -0.3605
 5321SOL    HW127422   3.232   3.732  11.057  1.6997  0.3815  1.9907
 5321SOL    HW227423   3.337   3.822  11.086  2.8214 -1.9077 -0.8642
 5322SOL     OW27424   4.177   0.967  13.772  0.5664  0.1053  0.7154
 5322SOL    HW127425   4.213   1.056  13.778  1.2734  0.0647 -2.9978
 5322SOL    HW227426   4.239   0.924  13.832  2.3131  0.3329 -0.9169
 5323SOL     OW27427   2.365   2.624  13.464  0.2861 -0.4305  0.1721
 5323SOL    HW127428   2.328   2.565  13.399 -0.5440  1.1419 -0.7846
 5323SOL    HW227429   2.456   2.619  13.436 -0.4692 -1.5893 -2.0554
 5324SOL     OW27430   1.006   1.710   4.991  0.5372  0.7712 -0.0970
 5324SOL    HW127431   0.917   1.745   4.994 -0.2854 -1.2635 -0.8264
 5324SOL    HW227432   0.993   1.615   5.000 -1.5065  0.9452 -1.2125
 5325SOL     OW27433   1.618   2.679  14.831 -0.1734 -0.4234  0.5386
 5325SOL    HW127434   1.643   2.612  14.895  0.2149  0.5270  1.3765
 5325SOL    HW227435   1.523   2.674  14.838 -0.3897  2.3282 -0.2891
 5326SOL     OW27436   1.355   2.005  15.916  0.4596 -0.5366  0.0047
 5326SOL    HW127437   1.449   2.010  15.899  0.3252  0.5650 -0.3866
 5326SOL    HW227438   1.324   2.073  15.856 -0.1556 -0.8481 -0.0317
 5327SOL     OW27439   1.175   1.858   4.840 -0.0563 -0.4931 -0.0517
 5327SOL    HW127440   1.108   1.810   4.889 -1.2243 -0.2615 -1.4123
 5327SOL    HW227441   1.214   1.913   4.908  0.7446 -2.2320  0.8853
 5328SOL     OW27442   3.360   3.418   5.755 -0.4800 -0.2456  0.0916
 5328SOL    HW127443   3.430   3.458   5.806 -0.6954 -1.0230  1.0175
 5328SOL    HW227444   3.367   3.468   5.674  0.4781 -2.0322 -0.9184
 5329SOL     OW27445   3.657   4.674   0.378  0.5245  0.5684 -0.8559
 5329SOL    HW127446   3.651   0.039   0.412 -2.3524 -0.3202  0.9331
 5329SOL    HW227447   3.572   4.670   0.336 -0.8734 -2.6883  2.3084
 5330SOL     OW27448   1.676   0.880   2.387  0.4780  0.4340 -0.0918
 5330SOL    HW127449   1.710   0.880   2.298 -0.5816  2.4398 -0.5033
 5330SOL    HW227450   1.627   0.798   2.382 -2.1971  2.0013  0.4738
 5331SOL     OW27451   3.472   3.630  10.861 -0.1984  0.6423 -0.0321
 5331SOL    HW127452   3.397   3.676  10.899 -0.0345  0.4566  0.5088
 5331SOL    HW227453   3.535   3.651  10.929  0.2220  2.0527 -0.8491
 5332SOL     OW27454   1.411   2.103   5.370 -0.0973 -0.1036 -0.1790
 5332SOL    HW127455   1.434   2.019   5.411  0.7936  0.9501  1.4910
 5332SOL    HW227456   1.317   2.105   5.387  0.5027 -1.0898  3.3480
 5333SOL     OW27457   4.666   2.565   2.558  0.0627  0.3564 -0.5352
 5333SOL    HW127458   4.601   2.623   2.599 -1.7373 -2.4032  0.5484
 5333SOL    HW227459   4.634   2.566   2.468 -2.4032  2.1678  0.3354
 5334SOL     OW27460   3.626   0.725   6.979  0.4122  0.4580 -0.2353
 5334SOL    HW127461   3.626   0.810   7.022 -1.1098  0.7766 -0.8702
 5334SOL    HW227462   3.579   0.673   7.044  0.4350 -0.4034 -0.9026
 5335SOL     OW27463   3.186   2.819   6.420 -0.3894  0.5673  0.4926
 5335SOL    HW127464   3.200   2.747   6.482  0.9490  1.7995  1.6226
 5335SOL    HW227465   3.267   2.826   6.370 -2.4276 -2.1635 -3.2222
 5336SOL     OW27466   2.042   1.658   6.589  0.0439  0.4697  0.6023
 5336SOL    HW127467   1.980   1.663   6.662 -0.7216  1.0326 -0.0936
 5336SOL    HW227468   2.017   1.578   6.544 -1.0150  0.0146  2.0195
 5337SOL     OW27469   2.346   1.273  14.720  0.4779 -0.4852  0.1423
 5337SOL    HW127470   2.388   1.248  14.637  1.4251  0.7077  0.2555
 5337SOL    HW227471   2.283   1.331  14.677  0.2369 -0.4829  0.5012
 5338SOL     OW27472   0.798   1.175   6.086  0.0812 -0.3850  0.1804
 5338SOL    HW127473   0.862   1.234   6.046 -1.2424 -0.2600 -1.7636
 5338SOL    HW227474   0.854   1.127   6.147  0.1626  0.7994  1.0281
 5339SOL     OW27475   1.368   0.012   6.546 -0.2883  0.0219 -0.2720
 5339SOL    HW127476   1.425   4.679   6.495  1.6249 -0.5074  2.4484
 5339SOL    HW227477   1.293   4.680   6.566  0.5717 -1.0306  0.0061
 5340SOL     OW27478   4.649   3.706   2.055 -0.3661  0.7472 -0.0763
 5340SOL    HW127479   4.599   3.758   1.992  2.2736  3.6554  0.2063
 5340SOL    HW227480   4.715   3.772   2.078  0.0124 -0.4188  2.1498
 5341SOL     OW27481   1.124   4.524   3.234 -0.8062  0.1612 -0.0691
 5341SOL    HW127482   1.203   4.537   3.182  1.3857  1.4174  3.5603
 5341SOL    HW227483   1.101   4.613   3.259  0.8778  0.5567  0.1014
 5342SOL     OW27484   0.195   2.130  16.750  0.1961 -0.5262 -0.1607
 5342SOL    HW127485   0.156   2.049  16.718  0.8530 -0.0338 -2.1933
 5342SOL    HW227486   0.272   2.140  16.695  1.0201 -1.1792  0.8657
 5343SOL     OW27487   0.059   4.106   7.192  0.3035 -0.0479  0.1578
 5343SOL    HW127488   0.022   4.067   7.271  2.4185 -0.1635  1.0967
 5343SOL    HW227489   0.030   4.048   7.122  0.8406  0.8864 -0.8395
 5344SOL     OW27490   4.125   3.481  11.395 -0.2408 -0.1210 -0.1405
 5344SOL    HW127491   4.183   3.431  11.338  1.3903 -0.5306  1.8703
 5344SOL    HW227492   4.165   3.468  11.481 -0.4887 -2.8157 -0.4467
 5345SOL     OW27493   0.568   3.336  15.212 -0.0733  0.3177  0.0359
 5345SOL    HW127494   0.524   3.409  15.256  1.6988 -0.0041  2.3867
 5345SOL    HW227495   0.563   3.260  15.270 -1.0686  0.5012  0.1820
 5346SOL     OW27496   2.610   2.690  13.789 -0.0203 -0.4284  0.1049
 5346SOL    HW127497   2.575   2.694  13.878  0.1824  0.1659  0.1600
 5346SOL    HW227498   2.571   2.768  13.751 -0.6708 -1.7328 -1.8898
 5347SOL     OW27499   0.968   2.656   5.289 -0.3152  0.1145  0.4390
 5347SOL    HW127500   1.010   2.702   5.216  0.6252  0.5069  1.2323
 5347SOL    HW227501   0.973   2.565   5.258  0.9695  0.1533  0.5442
 5348SOL     OW27502   3.263   3.140   0.234 -0.5043 -0.5996  0.5973
 5348SOL    HW127503   3.279   3.234   0.242  0.6846 -0.5390 -2.6210
 5348SOL    HW227504   3.271   3.110   0.325  0.5163 -0.2629  0.6157
 5349SOL     OW27505   0.713   1.767   7.940  0.2692  0.1448  0.3839
 5349SOL    HW127506   0.685   1.682   7.905  0.7212  0.0359  0.2783
 5349SOL    HW227507   0.805   1.742   7.930  0.5387  1.6451 -0.8899
 5350SOL     OW27508   3.844   3.983   7.680  0.3840  0.0793  0.4729
 5350SOL    HW127509   3.777   3.942   7.734  1.7004 -0.6952  1.4852
 5350SOL    HW227510   3.817   4.075   7.681 -2.3597 -0.7260  1.2524
 5351SOL     OW27511   2.024   4.364  11.946 -0.0790 -0.3671  0.0684
 5351SOL    HW127512   2.058   4.401  12.027  1.7307 -0.2248 -0.7516
 5351SOL    HW227513   1.943   4.414  11.945  0.7206  0.9673  1.8078
 5352SOL     OW27514   1.604   0.707  15.405 -0.5213  0.1466 -0.7621
 5352SOL    HW127515   1.628   0.682  15.316  0.3882 -0.3231 -0.3788
 5352SOL    HW227516   1.608   0.802  15.391  2.2922  0.4527  1.9452
 5353SOL     OW27517   3.595   2.040   6.490 -0.1369  0.1240  0.0516
 5353SOL    HW127518   3.627   1.971   6.432 -1.3555 -1.6684  1.5103
 5353SOL    HW227519   3.681   2.069   6.521  0.0790 -1.3141  0.7970
 5354SOL     OW27520   0.158   0.742  13.338  0.2518  0.4149  0.4550
 5354SOL    HW127521   0.071   0.778  13.319 -0.3715  1.1824  4.9074
 5354SOL    HW227522   0.198   0.779  13.259 -0.7174 -0.3415 -0.4073
 5355SOL     OW27523   3.069   1.391   7.657  0.3658 -0.1745  0.4154
 5355SOL    HW127524   3.009   1.323   7.625  2.3162 -1.6597 -0.0453
 5355SOL    HW227525   3.008   1.462   7.679 -1.1098 -1.3546  0.1736
 5356SOL     OW27526   2.094   1.221   6.866  0.6905 -0.2989  0.4033
 5356SOL    HW127527   2.036   1.169   6.810  0.9193  0.8132 -0.8628
 5356SOL    HW227528   2.032   1.252   6.932 -1.8257 -0.0023 -2.1284
 5357SOL     OW27529   3.432   4.507   0.970  0.7703  0.6821 -0.1089
 5357SOL    HW127530   3.491   4.578   0.947 -0.0381  1.1218 -0.8395
 5357SOL    HW227531   3.482   4.434   0.934  2.0116  1.2217  0.5303
 5358SOL     OW27532   2.942   2.644   6.051 -0.1252  0.0381  0.1898
 5358SOL    HW127533   3.030   2.611   6.063  0.1324  0.7177  0.1946
 5358SOL    HW227534   2.930   2.702   6.127 -2.1568 -0.1372 -0.0000
 5359SOL     OW27535   1.232   4.605   7.756  0.2364 -0.2699 -0.3137
 5359SOL    HW127536   1.180   4.672   7.711  0.0709 -0.8667 -1.0158
 5359SOL    HW227537   1.263   4.545   7.689  1.7222 -0.7287  0.7865
 5360SOL     OW27538   1.469   1.874   5.557 -0.0735  0.5347 -0.6554
 5360SOL    HW127539   1.424   1.912   5.633 -1.6673  0.5858 -1.6203
 5360SOL    HW227540   1.446   1.785   5.584 -0.4717  0.6067 -0.7532
 5361SOL     OW27541   3.555   2.255   7.141  0.0170  0.5277 -0.4494
 5361SOL    HW127542   3.525   2.264   7.231  1.1739  2.5301 -0.2494
 5361SOL    HW227543   3.595   2.340   7.123 -1.1309  1.4167  1.2308
 5362SOL     OW27544   2.377   0.548   8.576  0.4714 -0.0617 -0.2353
 5362SOL    HW127545   2.397   0.470   8.627  1.0850 -0.1590 -0.6191
 5362SOL    HW227546   2.344   0.602   8.647 -0.5516 -0.5412 -0.3509
 5363SOL     OW27547   4.576   3.810   0.890  0.1637 -0.2311  0.1094
 5363SOL    HW127548   4.653   3.793   0.836 -0.0373  0.1518 -0.3017
 5363SOL    HW227549   4.603   3.882   0.947 -0.2264 -0.8618  1.0768
 5364SOL     OW27550   2.017   3.424  12.375 -0.1006  0.5574  0.4538
 5364SOL    HW127551   1.995   3.390  12.288 -0.8762 -1.6793  1.5239
 5364SOL    HW227552   2.112   3.414  12.375 -0.4566 -2.8207  0.0587
 5365SOL     OW27553   1.647   2.567   0.740 -0.3711 -0.1211  0.4717
 5365SOL    HW127554   1.697   2.624   0.682  0.3216 -0.6370  0.5587
 5365SOL    HW227555   1.707   2.498   0.769  0.8968  1.1226  0.8024
 5366SOL     OW27556   2.977   2.265  14.215  0.2184  0.2592 -0.6864
 5366SOL    HW127557   2.981   2.199  14.146 -0.0693  0.9650 -1.3810
 5366SOL    HW227558   2.939   2.344  14.177 -0.5505  1.6060  2.9426
 5367SOL     OW27559   4.452   2.330  14.228  0.2425 -0.1094  0.0262
 5367SOL    HW127560   4.428   2.407  14.278  1.7950 -0.5694  1.5127
 5367SOL    HW227561   4.372   2.284  14.203 -0.7161  2.2542 -1.1325
 5368SOL     OW27562   4.558   3.772   2.910 -0.0806 -0.0798  0.0000
 5368SOL    HW127563   4.465   3.751   2.903 -0.4687  1.1940  1.5266
 5368SOL    HW227564   4.559   3.780   3.005 -5.0644 -0.5477  0.0849
 5369SOL     OW27565   3.735   2.355   4.224 -0.3894  0.3868 -0.6664
 5369SOL    HW127566   3.751   2.418   4.154  1.0285  1.4746  0.6178
 5369SOL    HW227567   3.689   2.412   4.285  0.7331  1.8304 -1.1542
 5370SOL     OW27568   2.696   0.352   7.352  0.4202  0.1361 -0.0184
 5370SOL    HW127569   2.680   0.427   7.296  1.7684  0.1903 -0.3315
 5370SOL    HW227570   2.737   0.386   7.431  1.2021  0.1011 -0.4097
 5371SOL     OW27571   3.780   1.862   5.251  0.5909  0.7330 -0.3328
 5371SOL    HW127572   3.703   1.915   5.231 -0.0309 -0.0872 -0.1082
 5371SOL    HW227573   3.803   1.829   5.164  1.7719  1.4937 -0.3118
 5372SOL     OW27574   3.217   1.119   4.309  0.4486  0.0948  0.0696
 5372SOL    HW127575   3.300   1.104   4.355  1.1587  0.5871 -1.0657
 5372SOL    HW227576   3.235   1.074   4.226  0.1848  1.6243 -0.7972
 5373SOL     OW27577   1.897   0.227   3.146  1.2384  0.2318  0.3656
 5373SOL    HW127578   1.869   0.286   3.216  1.2771  0.3808  0.2550
 5373SOL    HW227579   1.984   0.204   3.181  0.8662 -2.0134 -0.2271
 5374SOL     OW27580   1.906   2.893  10.693 -0.6613  0.0521  0.0828
 5374SOL    HW127581   1.989   2.847  10.680  0.2036  1.7609 -0.5604
 5374SOL    HW227582   1.876   2.904  10.603  1.6731 -3.3418 -1.1084
 5375SOL     OW27583   2.126   1.147   8.724  0.0442 -0.2062 -0.5223
 5375SOL    HW127584   2.220   1.160   8.738 -0.4290  2.3459  0.1524
 5375SOL    HW227585   2.095   1.234   8.702  0.0501 -0.3706 -1.1806
 5376SOL     OW27586   2.308   4.093  14.011  0.1133 -0.7110 -0.2399
 5376SOL    HW127587   2.308   4.176  13.963  3.0604  0.2594  1.4661
 5376SOL    HW227588   2.395   4.062  13.987 -0.4490 -1.7008 -0.9742
 5377SOL     OW27589   3.793   2.088   8.300 -0.1441 -0.2666 -0.2864
 5377SOL    HW127590   3.781   1.993   8.303 -1.2268 -0.0523  2.7222
 5377SOL    HW227591   3.846   2.089   8.221  0.0974  1.1030 -0.1131
 5378SOL     OW27592   2.664   4.455   3.996  0.3986 -0.6025  0.2740
 5378SOL    HW127593   2.586   4.401   4.008  0.9444 -1.4156  0.1323
 5378SOL    HW227594   2.676   4.433   3.904  1.0910 -0.6230  0.3686
 5379SOL     OW27595   1.965   3.657  15.188 -0.3691  0.2174 -0.4436
 5379SOL    HW127596   1.931   3.582  15.139  2.4719 -0.2401 -1.6706
 5379SOL    HW227597   1.983   3.722  15.120 -0.1857  1.1358  0.5029
 5380SOL     OW27598   0.758   2.348   8.461  0.0782 -0.1031  0.1220
 5380SOL    HW127599   0.742   2.254   8.455  2.1435 -0.3221 -1.9635
 5380SOL    HW227600   0.759   2.375   8.553 -2.0653  1.3572 -0.2802
 5381SOL     OW27601   4.323   0.933   2.279 -0.8308 -0.1571 -0.1252
 5381SOL    HW127602   4.375   1.012   2.293  1.0916 -1.2110 -1.3796
 5381SOL    HW227603   4.357   0.919   2.191  0.7519  1.1447  0.2696
 5382SOL     OW27604   3.154   1.554  11.154 -0.3141 -0.0416 -0.3144
 5382SOL    HW127605   3.103   1.580  11.078 -2.6277  0.5753  1.4579
 5382SOL    HW227606   3.212   1.630  11.147 -0.8810  0.3309 -0.9749
 5383SOL     OW27607   3.165   3.002  17.521 -0.4510 -0.2300  0.3376
 5383SOL    HW127608   3.120   2.954  17.591 -0.0625 -1.3595 -0.1801
 5383SOL    HW227609   3.149   2.955  17.439 -0.8636 -2.0983  1.4855
 5384SOL     OW27610   3.136   2.532   8.568 -0.0407  0.7260 -0.1159
 5384SOL    HW127611   3.118   2.544   8.661  0.6198  2.2056 -0.1822
 5384SOL    HW227612   3.231   2.534   8.565  0.0580 -1.1163  1.1654
 5385SOL     OW27613   2.912   4.332   5.850 -0.2217 -0.0989 -0.5406
 5385SOL    HW127614   2.898   4.407   5.792 -0.7876 -0.2218 -0.5703
 5385SOL    HW227615   2.882   4.371   5.932  2.1738 -1.7067  1.0937
 5386SOL     OW27616   2.856   1.705   5.134 -0.0727 -0.0146 -0.0845
 5386SOL    HW127617   2.915   1.758   5.081 -0.6559  0.3308 -0.3894
 5386SOL    HW227618   2.783   1.695   5.072 -0.8597  0.8845  0.6986
 5387SOL     OW27619   2.440   1.518   7.466 -0.4787 -0.2905 -0.0171
 5387SOL    HW127620   2.348   1.505   7.442 -0.5712  0.3552 -0.0035
 5387SOL    HW227621   2.469   1.586   7.405 -0.3719  0.3201  0.7180
 5388SOL     OW27622   4.621   3.619  14.082  0.1138 -0.2377 -0.1413
 5388SOL    HW127623   4.642   3.532  14.047  0.2393  0.3413 -1.5128
 5388SOL    HW227624   4.660   3.675  14.015  0.8394 -1.1065 -0.4469
 5389SOL     OW27625   2.113   1.752  15.952 -0.2535 -0.2253 -0.4554
 5389SOL    HW127626   2.041   1.693  15.929 -1.2191  1.3439 -1.4184
 5389SOL    HW227627   2.124   1.794  15.867 -1.7958  3.8412  1.3758
 5390SOL     OW27628   2.943   0.059   1.636  0.3458  0.0884  0.2149
 5390SOL    HW127629   2.980   0.136   1.593  2.0183 -1.0903 -0.4213
 5390SOL    HW227630   2.981   0.070   1.723  0.3421  1.1219  0.0916
 5391SOL     OW27631   4.174   3.983   4.717  0.2452  0.5236 -0.3077
 5391SOL    HW127632   4.160   3.995   4.811  0.6865 -0.2985 -0.1450
 5391SOL    HW227633   4.235   4.055   4.701 -0.1985  1.0316  0.2812
 5392SOL     OW27634   3.087   2.193   9.198 -0.0031  0.0678  0.1602
 5392SOL    HW127635   3.076   2.184   9.293 -2.7360 -0.0821 -0.1559
 5392SOL    HW227636   3.169   2.151   9.175 -0.2250  1.2996 -2.8444
 5393SOL     OW27637   3.242   4.484   3.987  0.0467  0.3183 -0.7019
 5393SOL    HW127638   3.218   4.392   3.972 -0.1853  0.5250 -1.6061
 5393SOL    HW227639   3.281   4.501   3.901  0.1820 -1.2367 -0.9581
 5394SOL     OW27640   1.957   4.276   4.356 -0.4828 -0.0676 -0.2513
 5394SOL    HW127641   1.868   4.284   4.323 -0.4020 -0.3614 -0.5475
 5394SOL    HW227642   1.993   4.363   4.339  1.1764 -0.7911 -0.4553
 5395SOL     OW27643   0.639   2.316   4.763 -0.3735 -0.3850  0.5030
 5395SOL    HW127644   0.705   2.364   4.812  0.4790  0.4326 -1.4445
 5395SOL    HW227645   0.625   2.369   4.685  3.1198 -1.2348 -0.6804
 5396SOL     OW27646   2.002   2.890   1.907 -0.4699  0.1028  0.7048
 5396SOL    HW127647   1.981   2.906   1.999 -1.3853  0.2579  0.4664
 5396SOL    HW227648   2.094   2.869   1.923 -0.4911  0.6885  1.6449
 5397SOL     OW27649   4.648   2.937  13.895 -0.7686  0.1095  0.3138
 5397SOL    HW127650   4.659   2.843  13.909  0.9780  0.4041  0.9151
 5397SOL    HW227651   4.589   2.964  13.965  2.2242 -0.3984  3.0290
 5398SOL     OW27652   3.202   0.939   1.980 -1.0729  0.2387  0.3043
 5398SOL    HW127653   3.150   1.019   1.977  0.0742  1.0629  1.8662
 5398SOL    HW227654   3.208   0.913   1.888  0.1590 -1.4614  0.8490
 5399SOL     OW27655   1.711   3.344   0.651  0.2317  0.3984 -0.0049
 5399SOL    HW127656   1.713   3.392   0.734 -1.2973  1.7649 -0.7382
 5399SOL    HW227657   1.747   3.259   0.676  1.1038  0.5492 -0.7570
 5400SOL     OW27658   0.749   0.686   7.012  0.2583 -0.7323  0.2350
 5400SOL    HW127659   0.709   0.601   7.028  0.4797 -1.2547 -2.0822
 5400SOL    HW227660   0.721   0.748   7.080 -2.0025  0.9058 -2.1672
 5401SOL     OW27661   0.496   0.215   9.840  0.0301  0.1853 -0.1712
 5401SOL    HW127662   0.576   0.268   9.839 -0.6104  1.1996  1.5684
 5401SOL    HW227663   0.456   0.257   9.764  3.2154  0.5752 -1.6574
 5402SOL     OW27664   1.200   2.454   0.116 -0.4953 -0.5127  0.2908
 5402SOL    HW127665   1.234   2.538   0.147 -1.2753  0.4897 -1.6085
 5402SOL    HW227666   1.256   2.446   0.038 -0.3196  0.0885  0.3480
 5403SOL     OW27667   2.853   3.456  15.332 -0.1089  0.0761  0.0511
 5403SOL    HW127668   2.920   3.522  15.317 -0.8235  0.4107 -1.7198
 5403SOL    HW227669   2.766   3.492  15.317 -0.3801 -0.3702  0.5563
 5404SOL     OW27670   2.079   3.527  15.639 -0.1654  0.7203 -0.3395
 5404SOL    HW127671   2.122   3.611  15.655 -0.3434  0.9330 -0.9981
 5404SOL    HW227672   2.147   3.462  15.656 -0.6299  0.4525  0.4816
 5405SOL     OW27673   3.950   1.825   1.057 -0.1913 -0.3750  0.0466
 5405SOL    HW127674   3.919   1.865   0.976  0.0765 -0.5607 -0.1456
 5405SOL    HW227675   3.964   1.898   1.117  0.4960 -1.5479  1.3201
 5406SOL     OW27676   3.954   0.178   2.211 -0.1271  0.6903 -0.0227
 5406SOL    HW127677   3.953   0.094   2.257  0.6902  1.1188  0.8090
 5406SOL    HW227678   4.040   0.189   2.171  0.8154  3.2422  2.6335
 5407SOL     OW27679   0.372   0.697   3.403  0.1099 -0.1949  0.1715
 5407SOL    HW127680   0.337   0.652   3.480  2.7076 -0.5709  1.1343
 5407SOL    HW227681   0.433   0.629   3.376 -0.4555 -0.7829  0.3774
 5408SOL     OW27682   0.319   1.053  12.399  0.2269  0.0872  0.4800
 5408SOL    HW127683   0.334   1.005  12.317  2.3809 -1.7991  1.9817
 5408SOL    HW227684   0.303   1.144  12.373  1.1681 -0.5005 -2.2375
 5409SOL     OW27685   4.333   3.089   2.824 -0.3215  0.1897  0.9866
 5409SOL    HW127686   4.268   3.022   2.845 -1.1414 -0.5100 -3.9945
 5409SOL    HW227687   4.412   3.052   2.864  0.1884  0.1039 -0.1151
 5410SOL     OW27688   0.569   3.749  12.245  0.7271 -0.5530 -0.0543
 5410SOL    HW127689   0.498   3.790  12.196 -0.5336 -1.9419  0.6012
 5410SOL    HW227690   0.561   3.806  12.322  1.0780 -2.9659  1.7765
 5411SOL     OW27691   4.544   3.215   4.735 -0.5382 -0.1966  0.2023
 5411SOL    HW127692   4.522   3.180   4.822 -0.3651 -0.1012  0.2854
 5411SOL    HW227693   4.494   3.297   4.727  1.5684  1.2249  1.7190
 5412SOL     OW27694   0.928   1.627   5.942  0.2778  0.6629 -0.3256
 5412SOL    HW127695   1.018   1.601   5.920  0.9914  1.4137  1.7787
 5412SOL    HW227696   0.881   1.551   5.909 -1.8601  1.6587  0.4099
 5413SOL     OW27697   3.424   1.173   5.440  0.3052 -0.3858 -0.3722
 5413SOL    HW127698   3.414   1.268   5.425 -2.7661  0.0201  4.1624
 5413SOL    HW227699   3.449   1.152   5.351  0.4122  0.3588 -0.5217
 5414SOL     OW27700   3.306   0.616  17.240  0.3310  0.6990  0.0584
 5414SOL    HW127701   3.240   0.648  17.301 -0.4386  0.8802 -0.8789
 5414SOL    HW227702   3.383   0.580  17.283 -1.4003 -2.2845  0.6040
 5415SOL     OW27703   0.298   2.875   0.758 -0.2327 -0.4415 -0.0206
 5415SOL    HW127704   0.314   2.910   0.670 -0.5323  2.2496  0.9852
 5415SOL    HW227705   0.386   2.875   0.795 -0.5406  1.5003  0.7438
 5416SOL     OW27706   0.686   2.443  15.249  1.0566  0.0742  0.3834
 5416SOL    HW127707   0.631   2.505  15.297  0.5491  0.7490 -1.0745
 5416SOL    HW227708   0.757   2.502  15.224  1.3699  0.4130  2.1070
 5417SOL     OW27709   3.030   3.683  11.555  0.1907  0.6729 -0.0745
 5417SOL    HW127710   3.011   3.670  11.648  0.7650  0.7541  0.0545
 5417SOL    HW227711   2.945   3.670  11.514 -0.1267 -2.1986  1.5410
 5418SOL     OW27712   4.268   3.068   3.928 -0.0964 -0.9007 -0.5300
 5418SOL    HW127713   4.298   3.082   3.839  1.1903  1.5644  0.2979
 5418SOL    HW227714   4.336   3.017   3.972  2.0162 -0.7322 -3.6871
 5419SOL     OW27715   4.376   0.082   8.156  0.3988  0.0799  0.1885
 5419SOL    HW127716   4.342   0.171   8.166  0.8054  0.3179 -0.5495
 5419SOL    HW227717   4.344   0.057   8.069 -0.4831 -1.3270  0.9184
 5420SOL     OW27718   1.173   0.122   0.441 -0.7388 -0.1705  1.0111
 5420SOL    HW127719   1.134   0.056   0.383 -2.9716  1.0880  1.0845
 5420SOL    HW227720   1.117   0.196   0.419 -1.2573 -0.7462  0.3580
 5421SOL     OW27721   2.071   3.633   1.166 -0.1534 -0.1886 -0.2242
 5421SOL    HW127722   2.125   3.624   1.245  1.4588 -0.7028 -1.3878
 5421SOL    HW227723   1.993   3.660   1.215 -0.4441 -0.5603 -0.4764
 5422SOL     OW27724   4.121   4.028  10.356  0.5863  0.0858 -0.0800
 5422SOL    HW127725   4.199   4.082  10.343  0.5466  0.4183  1.0418
 5422SOL    HW227726   4.112   3.980  10.274  2.3355 -1.0024  0.3511
 5423SOL     OW27727   4.267   0.089   1.659 -0.4777 -0.2817  0.1155
 5423SOL    HW127728   4.318   0.011   1.676 -0.4570 -0.7890 -2.2542
 5423SOL    HW227729   4.329   0.149   1.618 -0.5385 -0.9905 -1.0134
 5424SOL     OW27730   1.215   0.217  11.633  0.1710 -0.6809  0.1597
 5424SOL    HW127731   1.214   0.302  11.588 -0.8486 -0.4358  0.6489
 5424SOL    HW227732   1.300   0.184  11.604 -0.3623  0.0670 -2.2377
 5425SOL     OW27733   1.555   4.120   4.087 -0.8184  0.2332 -0.0845
 5425SOL    HW127734   1.504   4.075   4.020 -1.6095  1.6615 -0.4531
 5425SOL    HW227735   1.488   4.165   4.140 -2.9825 -1.3767 -1.4756
 5426SOL     OW27736   1.327   2.781   7.900 -0.7311 -0.4158  0.1289
 5426SOL    HW127737   1.251   2.730   7.873 -1.3700  0.9685 -0.6901
 5426SOL    HW227738   1.388   2.773   7.827 -0.7005  1.6976 -0.0755
 5427SOL     OW27739   3.324   1.263   3.788 -0.0234  0.1847 -0.0751
 5427SOL    HW127740   3.360   1.330   3.730 -1.8260 -0.6944 -2.2423
 5427SOL    HW227741   3.349   1.189   3.732  1.8989  1.2632 -0.6263
 5428SOL     OW27742   3.070   2.277   8.934 -0.1502 -0.2083  0.1837
 5428SOL    HW127743   3.068   2.257   9.027  0.2731 -0.4229  0.1467
 5428SOL    HW227744   2.984   2.239   8.915 -1.1894  2.8715 -1.3186
 5429SOL     OW27745   0.915   0.332   7.948 -0.4184  0.0589  0.1238
 5429SOL    HW127746   0.902   0.288   8.032 -2.2736  1.1143  0.3753
 5429SOL    HW227747   0.862   0.276   7.890  0.0336 -0.9065  0.6465
 5430SOL     OW27748   3.824   2.851  15.017 -0.4491  0.4099  0.5485
 5430SOL    HW127749   3.810   2.905  15.094 -0.0030  0.2503  0.7390
 5430SOL    HW227750   3.871   2.914  14.962 -0.0948 -0.2095  0.1419
 5431SOL     OW27751   2.100   1.490   3.210  0.3832  0.1867  0.0364
 5431SOL    HW127752   2.049   1.525   3.283 -2.8851 -0.5371 -1.9024
 5431SOL    HW227753   2.171   1.553   3.209  1.7786 -1.4059 -0.5816
 5432SOL     OW27754   3.722   2.572   3.469  0.4349  0.3266  0.2177
 5432SOL    HW127755   3.724   2.566   3.374 -0.9451 -2.0340  0.3437
 5432SOL    HW227756   3.634   2.609   3.466  1.6753  3.1469 -1.5404
 5433SOL     OW27757   1.164   1.725   0.850 -0.1904  0.2612 -0.0138
 5433SOL    HW127758   1.173   1.815   0.884  0.8172 -0.1393  0.7850
 5433SOL    HW227759   1.243   1.678   0.877 -0.5770 -0.8473 -0.8230
 5434SOL     OW27760   1.611   1.351  15.896  0.0829 -0.1827 -0.1190
 5434SOL    HW127761   1.679   1.302  15.942  0.9018  0.8438 -0.2572
 5434SOL    HW227762   1.540   1.286  15.901  0.4562 -0.6775 -1.2645
 5435SOL     OW27763   2.501   4.455   5.627  0.2563 -0.2663 -0.4419
 5435SOL    HW127764   2.487   4.520   5.558 -0.0009  1.2525  1.0354
 5435SOL    HW227765   2.462   4.500   5.701  0.2173 -0.3577 -0.4072
 5436SOL     OW27766   0.530   4.626   5.179  0.1097  0.1531  0.0711
 5436SOL    HW127767   0.566   4.653   5.263 -0.2137  2.3003 -0.4682
 5436SOL    HW227768   0.474   4.703   5.176 -1.6442 -1.1405 -0.6008
 5437SOL     OW27769   1.548   1.508   8.676  0.2969  0.0679 -0.2300
 5437SOL    HW127770   1.623   1.450   8.682  0.7193  0.6042 -0.3369
 5437SOL    HW227771   1.580   1.542   8.593  2.7247  1.7653  1.3863
 5438SOL     OW27772   0.186   2.371   5.219 -0.1362  0.4078  0.3389
 5438SOL    HW127773   0.244   2.417   5.279 -0.7889  0.3330  1.0308
 5438SOL    HW227774   0.116   2.436   5.212 -0.7496 -0.1872  0.9570
 5439SOL     OW27775   3.609   1.482   8.111  0.0174  0.0750 -0.0216
 5439SOL    HW127776   3.550   1.546   8.070 -1.6206  0.0054  2.2287
 5439SOL    HW227777   3.550   1.408   8.118 -0.7689  0.6360 -0.6304
 5440SOL     OW27778   3.762   2.254  13.510  0.3705 -0.3775  0.4249
 5440SOL    HW127779   3.789   2.307  13.585  0.1855 -0.0466  0.2576
 5440SOL    HW227780   3.836   2.270  13.452  0.6434 -1.7607  0.3759
 5441SOL     OW27781   0.058   3.514  13.858 -0.4309 -0.1638 -0.2638
 5441SOL    HW127782   0.047   3.606  13.881 -1.3067 -1.0119  2.7210
 5441SOL    HW227783   4.723   3.506  13.784  0.3488  1.2538 -1.0458
 5442SOL     OW27784   0.675   0.829   7.281  0.2820 -0.6976  0.2226
 5442SOL    HW127785   0.630   0.869   7.355 -0.1937  0.4366 -0.6886
 5442SOL    HW227786   0.762   0.869   7.284 -0.3565  0.6959 -0.3101
 5443SOL     OW27787   2.152   0.762   4.238 -0.1910 -0.3286 -0.0483
 5443SOL    HW127788   2.110   0.811   4.309 -0.5563  0.6708 -0.9655
 5443SOL    HW227789   2.090   0.691   4.224  1.2977 -1.5202 -0.6065
 5444SOL     OW27790   3.946   4.286   7.917  0.3018 -0.2427  0.2908
 5444SOL    HW127791   4.005   4.255   7.848  0.4934 -1.4823  1.0083
 5444SOL    HW227792   3.963   4.220   7.984 -0.0301  0.9583  1.5693
 5445SOL     OW27793   1.256   3.824   4.541 -0.0636  0.4662  0.0147
 5445SOL    HW127794   1.276   3.896   4.601  3.0851 -1.1835  0.9110
 5445SOL    HW227795   1.212   3.770   4.607  1.9307 -0.0905  0.8936
 5446SOL     OW27796   2.549   0.797   9.211  0.6834  0.0586 -0.1497
 5446SOL    HW127797   2.525   0.889   9.202 -0.7164 -0.3967 -1.2114
 5446SOL    HW227798   2.644   0.795   9.222  0.6716  0.6016  0.0213
 5447SOL     OW27799   2.276   1.582  16.911 -0.0583  0.2439 -0.4127
 5447SOL    HW127800   2.275   1.501  16.860  2.0585 -0.6425  0.9444
 5447SOL    HW227801   2.358   1.622  16.882  0.9356 -0.9593  0.7338
 5448SOL     OW27802   3.858   1.997   3.676 -0.7002  0.4183  0.3457
 5448SOL    HW127803   3.834   1.910   3.644  0.3171  0.1078  0.4452
 5448SOL    HW227804   3.883   2.043   3.596 -0.0642  0.1397  0.3878
 5449SOL     OW27805   2.836   4.078   5.020  0.2310  0.7775  0.6249
 5449SOL    HW127806   2.810   4.168   5.036 -0.7439  0.4595  0.7934
 5449SOL    HW227807   2.780   4.022   5.073  0.1046 -0.8900 -1.2335
 5450SOL     OW27808   0.100   3.213   2.808 -0.6583  0.0243 -0.4639
 5450SOL    HW127809   0.106   3.129   2.761  2.0178  0.0524 -0.1635
 5450SOL    HW227810   0.163   3.267   2.760  0.3229 -0.4177  0.3183
 5451SOL     OW27811   2.891   2.818   0.767 -0.3049 -0.3314 -0.0072
 5451SOL    HW127812   2.930   2.752   0.824 -0.5861 -0.4908  0.0035
 5451SOL    HW227813   2.933   2.794   0.685 -2.4609  1.0432 -1.5326
 5452SOL     OW27814   3.377   2.189   8.416  0.1565 -0.2000 -0.2512
 5452SOL    HW127815   3.306   2.233   8.370 -0.2034 -0.5534 -0.0336
 5452SOL    HW227816   3.367   2.095   8.406  0.2274 -0.3565  1.0896
 5453SOL     OW27817   2.247   2.853  13.620 -0.0026 -0.0219  0.7791
 5453SOL    HW127818   2.263   2.767  13.582 -2.0113  0.5990 -1.4439
 5453SOL    HW227819   2.332   2.882  13.653 -0.2925  0.1244  1.4114
 5454SOL     OW27820   3.510   0.020  11.645 -0.0898 -0.2260 -0.7877
 5454SOL    HW127821   3.475   0.066  11.722 -0.7191  2.1572 -2.5125
 5454SOL    HW227822   3.601   4.722  11.664  0.0396 -0.2652 -1.4883
 5455SOL     OW27823   4.117   0.091   1.409  0.2176 -0.2552  0.0255
 5455SOL    HW127824   4.155   0.096   1.497 -1.7388 -1.9143  0.9650
 5455SOL    HW227825   4.030   0.131   1.409  0.0411 -0.6456  0.6636
 5456SOL     OW27826   4.587   3.195   3.988 -0.1394  0.3604  0.0718
 5456SOL    HW127827   4.560   3.105   4.004 -2.4243  1.2617  1.3941
 5456SOL    HW227828   4.655   3.210   4.053  0.9608  0.5684 -1.1104
 5457SOL     OW27829   1.731   3.613   4.920  0.1215 -0.1557  0.6378
 5457SOL    HW127830   1.763   3.584   5.006 -0.7745  0.2772  1.1071
 5457SOL    HW227831   1.793   3.684   4.904  0.2228 -0.8025 -1.8935
 5458SOL     OW27832   1.282   3.098   7.299  0.1643 -0.0192  0.0180
 5458SOL    HW127833   1.347   3.113   7.230 -0.4630  2.4673 -0.0070
 5458SOL    HW227834   1.318   3.151   7.370  2.5641  0.2526 -1.4221
 5459SOL     OW27835   4.700   2.754   7.167  0.1328 -0.0434 -0.2882
 5459SOL    HW127836   0.045   2.723   7.108  0.0924 -2.8252  1.1562
 5459SOL    HW227837   4.626   2.708   7.129  0.2450  1.3250 -2.1746
 5460SOL     OW27838   2.854   4.447   6.637  0.0016  0.2168 -0.1129
 5460SOL    HW127839   2.872   4.541   6.637 -0.7115  0.3510 -0.4717
 5460SOL    HW227840   2.807   4.434   6.720  1.0032  0.5319  0.5045
 5461SOL     OW27841   3.743   0.741   1.906  0.4518  0.3036 -0.0475
 5461SOL    HW127842   3.838   0.735   1.906  0.5179  1.2392 -2.1568
 5461SOL    HW227843   3.729   0.768   1.997 -0.3276  2.9055 -0.9481
 5462SOL     OW27844   0.216   1.059   8.448 -0.0087 -0.0005 -0.0226
 5462SOL    HW127845   0.261   1.027   8.527 -2.6577 -1.4722  0.8836
 5462SOL    HW227846   0.239   1.152   8.444  0.6105 -0.2720 -2.3549
 5463SOL     OW27847   2.001   2.542   1.333 -0.1079 -0.0339 -0.1039
 5463SOL    HW127848   1.986   2.460   1.380 -1.0915  0.3267  0.2064
 5463SOL    HW227849   2.079   2.521   1.282 -0.3600 -1.2557  0.0297
 5464SOL     OW27850   0.708   1.148   6.959  0.1827 -0.7647  0.0432
 5464SOL    HW127851   0.729   1.202   7.035  1.8289 -0.6528 -0.5108
 5464SOL    HW227852   0.790   1.099   6.956  0.7900  0.3134 -0.7932
 5465SOL     OW27853   2.770   2.794   6.861 -0.0937  0.7589  0.0253
 5465SOL    HW127854   2.706   2.816   6.794 -1.9791 -1.5259  1.0917
 5465SOL    HW227855   2.770   2.698   6.858  1.1579  0.6782  2.4661
 5466SOL     OW27856   1.483   3.870   1.277 -0.0657 -0.1375 -0.7377
 5466SOL    HW127857   1.501   3.883   1.370 -2.1512  1.7151 -0.5792
 5466SOL    HW227858   1.479   3.960   1.243  1.1001  0.1372 -0.1217
 5467SOL     OW27859   0.990   2.139  10.403 -0.1783  0.4123  0.0417
 5467SOL    HW127860   0.903   2.125  10.439  0.8601  0.5353  2.5916
 5467SOL    HW227861   1.019   2.048  10.412  0.4644  0.6338  0.2236
 5468SOL     OW27862   4.665   3.493   8.383  0.4134 -0.1218  0.4864
 5468SOL    HW127863   4.717   3.418   8.412  0.2818  0.4152  2.1262
 5468SOL    HW227864   4.588   3.485   8.440  0.7425 -1.1569  0.7971
 5469SOL     OW27865   4.201   3.938  15.997  0.0004 -0.2257 -0.1078
 5469SOL    HW127866   4.235   4.027  15.998  2.0135 -1.0219  1.3256
 5469SOL    HW227867   4.279   3.883  15.990  0.9818  1.3816 -1.7864
 5470SOL     OW27868   3.266   1.299   7.826  0.3512  0.2388  0.5092
 5470SOL    HW127869   3.225   1.316   7.911 -1.0651 -0.6915  0.0185
 5470SOL    HW227870   3.212   1.348   7.764  1.3118  2.3814  1.3613
 5471SOL     OW27871   3.097   0.639   1.243  0.1935 -0.1806 -0.0955
 5471SOL    HW127872   3.056   0.693   1.175 -0.6984 -1.4019 -0.5342
 5471SOL    HW227873   3.187   0.649   1.214  0.2985  1.4380  0.8015
 5472SOL     OW27874   0.499   3.753  17.441 -0.0649  0.5698  0.0400
 5472SOL    HW127875   0.562   3.684  17.461  1.3699  1.5470 -1.1382
 5472SOL    HW227876   0.523   3.771  17.350  1.5769  1.2895  0.6048
 5473SOL     OW27877   2.267   3.642   1.460  0.2176 -0.0841  0.5584
 5473SOL    HW127878   2.356   3.665   1.485 -0.2981 -0.7142  2.9542
 5473SOL    HW227879   2.272   3.547   1.448  0.7174  0.0462 -0.2869
 5474SOL     OW27880   2.222   4.632   5.584  0.1370  0.0545 -0.1435
 5474SOL    HW127881   2.291   4.676   5.633 -0.0174 -0.6282  0.6860
 5474SOL    HW227882   2.242   4.678   5.502 -0.8991  1.8497  0.6042
 5475SOL     OW27883   0.722   2.180  12.208  0.1232  0.4629 -0.3412
 5475SOL    HW127884   0.790   2.237  12.242  1.7379 -1.5173 -0.2390
 5475SOL    HW227885   0.726   2.193  12.113  1.6782 -0.7902 -0.4479
 5476SOL     OW27886   0.313   4.661  10.452  0.3375 -0.1434 -0.1642
 5476SOL    HW127887   0.365   0.002  10.498 -1.5728 -0.2594  2.1730
 5476SOL    HW227888   0.247   4.720  10.415  1.1524  1.8291  1.4734
 5477SOL     OW27889   3.629   0.286  15.661  0.0352 -0.1844  0.8350
 5477SOL    HW127890   3.620   0.263  15.754 -0.2274 -2.0494  0.3457
 5477SOL    HW227891   3.552   0.247  15.621  0.6476  0.6191 -1.1041
 5478SOL     OW27892   2.181   0.298   0.937 -0.5387 -0.3211 -0.1465
 5478SOL    HW127893   2.266   0.316   0.977 -0.4952  2.1453 -1.3879
 5478SOL    HW227894   2.119   0.315   1.007 -0.7409 -2.1726  0.1431
 5479SOL     OW27895   3.889   0.953   5.655  0.1168  0.7291  0.1199
 5479SOL    HW127896   3.824   0.913   5.712  0.7571 -0.9510 -0.3260
 5479SOL    HW227897   3.963   0.960   5.715 -0.8157  3.8608  0.9040
 5480SOL     OW27898   3.053   4.219   4.183  0.2940 -0.3487  0.2471
 5480SOL    HW127899   3.105   4.142   4.160  0.0395 -0.2106 -0.7961
 5480SOL    HW227900   3.080   4.226   4.275 -2.3660  0.3336  0.9880
 5481SOL     OW27901   3.752   4.546   7.130 -0.5028 -0.4379  0.6631
 5481SOL    HW127902   3.717   4.634   7.144 -0.6947 -0.9829  3.4813
 5481SOL    HW227903   3.844   4.565   7.145 -0.8081  0.6516  1.1633
 5482SOL     OW27904   4.231   1.034   4.064  0.2140  0.1147 -0.4508
 5482SOL    HW127905   4.314   1.055   4.107  0.8637 -0.3577 -1.4822
 5482SOL    HW227906   4.175   1.086   4.122 -1.5532 -0.0283 -2.0218
 5483SOL     OW27907   1.817   4.039  14.805  0.2880  0.4370  0.0617
 5483SOL    HW127908   1.885   4.088  14.758  0.6555  0.2856  0.4336
 5483SOL    HW227909   1.773   4.008  14.726 -0.6119 -1.5419  1.3585
 5484SOL     OW27910   3.123   2.012   5.583  0.4406  0.0010 -0.8298
 5484SOL    HW127911   3.099   1.941   5.523 -0.6112  1.9277 -2.6792
 5484SOL    HW227912   3.191   2.059   5.533  1.8642 -2.5647 -1.3424
 5485SOL     OW27913   2.629   1.352   8.469  0.2750 -0.0727 -0.4538
 5485SOL    HW127914   2.583   1.270   8.453 -1.6258  0.6408  1.3791
 5485SOL    HW227915   2.599   1.389   8.386  0.3435 -0.3897 -0.6148
 5486SOL     OW27916   2.449   2.170  14.512 -0.5250 -0.0832  0.1091
 5486SOL    HW127917   2.364   2.213  14.501  0.4480  1.6649 -0.6028
 5486SOL    HW227918   2.447   2.122  14.429  0.2844 -0.7937  0.5059
 5487SOL     OW27919   3.376   1.034   3.303 -0.3208  0.0278  0.1835
 5487SOL    HW127920   3.282   1.021   3.299 -0.1297 -1.6739  1.2284
 5487SOL    HW227921   3.397   1.040   3.210 -0.3840 -3.0622 -0.0381
 5488SOL     OW27922   2.365   1.782  12.134 -0.9879 -0.3908 -0.2006
 5488SOL    HW127923   2.383   1.723  12.061 -1.4980 -0.6432 -0.1260
 5488SOL    HW227924   2.357   1.868  12.093  2.4288  0.5940  1.1652
 5489SOL     OW27925   3.733   4.606   8.821 -0.2310 -0.2683  0.0592
 5489SOL    HW127926   3.792   4.661   8.770  0.1386  1.3310  2.2278
 5489SOL    HW227927   3.670   4.590   8.750 -1.5514  0.4869  1.0583
 5490SOL     OW27928   1.682   3.515  14.101 -0.4037 -0.2748  0.0042
 5490SOL    HW127929   1.704   3.422  14.111  1.2325  0.2815  1.5758
 5490SOL    HW227930   1.651   3.510  14.011 -0.3523  2.0162 -0.1425
 5491SOL     OW27931   2.247   0.961   8.093  0.1407  0.0972  0.5407
 5491SOL    HW127932   2.162   0.972   8.136  0.6326  1.9435  1.0533
 5491SOL    HW227933   2.305   1.022   8.139 -0.5646  0.0189  1.5222
 5492SOL     OW27934   1.903   2.687   4.726 -0.8337  0.1593 -0.1832
 5492SOL    HW127935   1.874   2.711   4.814 -1.9563 -2.6108  0.2148
 5492SOL    HW227936   1.998   2.695   4.721 -0.8953  1.0520  0.1194
 5493SOL     OW27937   2.380   4.334  16.763  0.4397  0.8371  0.0122
 5493SOL    HW127938   2.300   4.282  16.770  2.4358 -2.4003 -0.8434
 5493SOL    HW227939   2.440   4.264  16.736  1.1959  0.2967  3.1229
 5494SOL     OW27940   2.618   3.760   5.515  0.0569 -0.2145  0.1897
 5494SOL    HW127941   2.690   3.727   5.462 -0.0149  0.5681 -0.3981
 5494SOL    HW227942   2.555   3.688   5.523 -1.0398  0.5525 -1.5586
 5495SOL     OW27943   0.390   1.664   3.869  0.0228  0.1119  0.4650
 5495SOL    HW127944   0.483   1.688   3.865 -0.0671  0.5396  0.9132
 5495SOL    HW227945   0.382   1.599   3.939 -1.4080 -0.9729 -0.7164
 5496SOL     OW27946   2.832   1.440   5.595  0.2846 -0.3281  0.0237
 5496SOL    HW127947   2.740   1.411   5.593  0.5106 -1.0893  0.6661
 5496SOL    HW227948   2.851   1.470   5.506 -1.2524 -0.6797 -0.4394
 5497SOL     OW27949   4.449   1.579   1.994 -0.1496 -0.3805  0.0682
 5497SOL    HW127950   4.385   1.571   2.066 -1.7204  1.9613 -1.0942
 5497SOL    HW227951   4.396   1.540   1.924 -1.4940  0.6451  0.5136
 5498SOL     OW27952   0.105   4.514   2.395  0.0814 -0.0076 -0.1118
 5498SOL    HW127953   0.188   4.472   2.415  0.7469  1.0538 -0.6074
 5498SOL    HW227954   0.042   4.443   2.383 -0.9538  1.0687 -1.0515
 5499SOL     OW27955   0.279   3.589   1.465 -0.2869 -0.1731 -0.3930
 5499SOL    HW127956   0.295   3.566   1.557 -0.8644  1.1386  0.0349
 5499SOL    HW227957   0.369   3.608   1.439  0.0638 -1.1693  0.1079
 5500SOL     OW27958   0.598   3.992   3.459 -0.6108 -0.7191  0.2660
 5500SOL    HW127959   0.581   3.968   3.368 -0.0298  0.7692 -0.2290
 5500SOL    HW227960   0.512   4.030   3.477  0.0504  0.7549  0.3408
 5501SOL     OW27961   0.630   4.608   1.768  0.8680  0.3102 -0.6253
 5501SOL    HW127962   0.576   4.534   1.793  0.7255 -0.2247 -2.5047
 5501SOL    HW227963   0.652   4.599   1.675  1.1061  2.0040 -0.7375
 5502SOL     OW27964   1.754   4.027  11.423  0.3117  0.3883  0.3900
 5502SOL    HW127965   1.735   4.077  11.344  2.2148  1.6943  0.7574
 5502SOL    HW227966   1.841   4.060  11.444  1.1077 -1.5748  0.0942
 5503SOL     OW27967   3.564   1.209   5.697  0.4917  0.7020  0.5728
 5503SOL    HW127968   3.543   1.269   5.626 -2.0160 -1.5616 -0.6169
 5503SOL    HW227969   3.476   1.190   5.728  1.3408 -1.3281  1.7551
 5504SOL     OW27970   1.966   2.137   5.879 -0.4190  0.9667 -0.2071
 5504SOL    HW127971   1.928   2.070   5.823 -1.4044  0.5870  0.9186
 5504SOL    HW227972   1.889   2.179   5.917  0.8777  2.1467  1.1045
 5505SOL     OW27973   1.106   1.992  17.638 -0.2002  0.2115  0.1928
 5505SOL    HW127974   1.073   1.906  17.664 -2.2252  0.0556 -2.8000
 5505SOL    HW227975   1.035   2.053  17.658  0.6853  0.7304  1.7360
 5506SOL     OW27976   3.723   4.085   6.489 -0.0093  0.1932  0.0846
 5506SOL    HW127977   3.672   4.061   6.412  0.8446  0.3683 -0.5447
 5506SOL    HW227978   3.655   4.138   6.529  1.3569  2.2764 -0.3582
 5507SOL     OW27979   3.920   2.275   6.551 -0.0417 -0.1417 -0.8295
 5507SOL    HW127980   3.911   2.293   6.457 -1.9348  0.5276 -0.5164
 5507SOL    HW227981   3.943   2.359   6.591 -0.8331 -0.3489  0.0709
 5508SOL     OW27982   1.912   3.652   1.914 -0.8506  0.2085 -0.3134
 5508SOL    HW127983   1.878   3.577   1.964  1.8875  0.1859  1.5096
 5508SOL    HW227984   1.963   3.603   1.850  0.8751  1.7022 -0.0598
 5509SOL     OW27985   2.759   1.484  12.462 -0.8081 -0.8690 -0.4033
 5509SOL    HW127986   2.795   1.514  12.378 -1.1301 -1.1020 -0.6231
 5509SOL    HW227987   2.749   1.389  12.453  2.2995 -1.1735 -0.9891
 5510SOL     OW27988   0.263   2.381   2.022  0.3570 -0.0494 -0.0748
 5510SOL    HW127989   0.231   2.335   2.099 -1.9489  1.4296 -0.1328
 5510SOL    HW227990   0.194   2.447   2.015  0.8638  0.3087 -1.6166
 5511SOL     OW27991   1.703   0.725  17.024  0.5874  0.3812 -0.1115
 5511SOL    HW127992   1.661   0.806  16.994 -1.4171 -0.6539 -0.1147
 5511SOL    HW227993   1.755   0.755  17.099  1.3998  0.8186 -0.8428
 5512SOL     OW27994   4.126   3.884   3.267 -0.3444 -1.2936 -0.5564
 5512SOL    HW127995   4.097   3.908   3.355  1.2876 -0.2824 -0.2898
 5512SOL    HW227996   4.196   3.949   3.257 -2.3793  0.9975  0.1500
 5513SOL     OW27997   0.859   0.036   0.646  0.2527  0.2264 -0.6344
 5513SOL    HW127998   0.881   4.694   0.712 -1.9007  0.1574  0.0307
 5513SOL    HW227999   0.807   4.706   0.586  0.0133 -0.3949  0.1243
 5514SOL     OW28000   2.579   2.411  14.614  0.0306 -0.1960  0.1577
 5514SOL    HW128001   2.643   2.346  14.643  0.9566 -0.1107 -1.6885
 5514SOL    HW228002   2.524   2.358  14.556  1.5659 -1.7293  0.0777
 5515SOL     OW28003   3.383   4.469  12.207  0.2551  0.1889  0.1540
 5515SOL    HW128004   3.319   4.462  12.136  0.3722 -1.9444  0.2739
 5515SOL    HW228005   3.349   4.544  12.257 -1.7766 -1.4210  1.1552
 5516SOL     OW28006   3.502   4.112   6.753  0.2104 -0.1214 -0.3854
 5516SOL    HW128007   3.485   4.131   6.661 -3.3492  0.3134  0.3329
 5516SOL    HW228008   3.448   4.187   6.778  0.4202 -0.6428  1.6330
 5517SOL     OW28009   2.875   2.662   2.232 -0.3085 -0.4351  0.3882
 5517SOL    HW128010   2.803   2.719   2.208 -1.7745 -1.1855  2.9993
 5517SOL    HW228011   2.944   2.728   2.229 -0.7503 -0.0940 -2.2851
 5518SOL     OW28012   3.300   2.873   7.203  0.2814 -0.3535  0.1669
 5518SOL    HW128013   3.265   2.802   7.256  0.0507  2.0381  3.2626
 5518SOL    HW228014   3.354   2.925   7.263  0.2063 -1.6772  1.3693
 5519SOL     OW28015   3.605   3.547   9.391  0.1203 -0.0120 -0.0293
 5519SOL    HW128016   3.545   3.611   9.352 -1.3159  0.4379  2.8879
 5519SOL    HW228017   3.660   3.530   9.315  0.1375 -0.4193  0.0759
 5520SOL     OW28018   4.403   4.200  16.920  0.0158 -0.4787 -0.0230
 5520SOL    HW128019   4.434   4.128  16.866 -1.3651 -0.7897 -0.3791
 5520SOL    HW228020   4.308   4.196  16.914 -0.0882  1.2823  0.4403
 5521SOL     OW28021   4.648   0.146   9.465 -0.2038 -0.4617  0.2165
 5521SOL    HW128022   4.619   0.204   9.395 -3.0535 -0.8377  1.0798
 5521SOL    HW228023   4.723   0.194   9.500  0.2821 -0.1886 -1.1877
 5522SOL     OW28024   1.295   2.831   5.023  0.0100  0.3943 -0.4725
 5522SOL    HW128025   1.370   2.879   5.059 -0.2803 -0.6795  1.5386
 5522SOL    HW228026   1.243   2.899   4.980 -0.5532  0.3449  0.1326
 5523SOL     OW28027   3.006   0.090   7.259  0.3603  0.0994  0.5338
 5523SOL    HW128028   2.973   0.046   7.337 -0.9827  1.0657  0.5233
 5523SOL    HW228029   3.007   0.178   7.297 -0.5521 -0.3695  1.6489
 5524SOL     OW28030   0.514   0.361   4.911  0.0762  0.1447 -0.1800
 5524SOL    HW128031   0.560   0.390   4.990 -0.5335 -4.5140  1.8556
 5524SOL    HW228032   0.487   0.273   4.936 -2.1217  1.0688  0.7503
 5525SOL     OW28033   0.219   4.654  12.542 -0.1205  0.1116 -0.6098
 5525SOL    HW128034   0.213   4.710  12.464  3.0913  1.1774 -0.0642
 5525SOL    HW228035   0.301   4.680  12.584  0.7514  0.1491 -2.3322
 5526SOL     OW28036   2.776   1.483   8.684  0.2861 -0.3657 -0.0206
 5526SOL    HW128037   2.744   1.442   8.604  2.4086  0.4165 -1.2710
 5526SOL    HW228038   2.869   1.464   8.668  0.3360 -1.6213  1.7830
 5527SOL     OW28039   0.184   0.175   4.351 -0.5874  0.3841  0.1420
 5527SOL    HW128040   0.227   0.260   4.351  2.0086 -0.9502  0.5878
 5527SOL    HW228041   0.229   0.139   4.427 -3.5097 -1.0012  1.1946
 5528SOL     OW28042   1.869   2.971  15.950 -0.0353  0.0690  0.3320
 5528SOL    HW128043   1.823   3.001  15.872 -1.2943 -2.1376  0.2084
 5528SOL    HW228044   1.962   2.965  15.926 -0.6716 -0.6826 -2.0091
 5529SOL     OW28045   1.194   4.584   7.392 -0.8223 -1.3640  0.2605
 5529SOL    HW128046   1.257   4.528   7.347  0.6272 -0.4066  1.0817
 5529SOL    HW228047   1.245   4.661   7.417 -0.1577 -1.6371 -0.2751
 5530SOL     OW28048   2.454   3.972   6.390 -0.6212 -0.6885 -0.1997
 5530SOL    HW128049   2.489   3.954   6.303  1.1983 -1.1824  0.6244
 5530SOL    HW228050   2.461   4.068   6.389  1.1272 -0.7912  2.9852
 5531SOL     OW28051   0.718   3.444  11.821 -0.0203  0.0692 -0.4255
 5531SOL    HW128052   0.773   3.468  11.895 -1.5564  0.5611  0.5563
 5531SOL    HW228053   0.732   3.350  11.836 -3.1889 -0.6407 -2.0180
 5532SOL     OW28054   3.983   3.566   6.044 -0.1297  0.0608  0.3560
 5532SOL    HW128055   3.940   3.497   6.094  0.2624 -0.9157 -0.6686
 5532SOL    HW228056   3.921   3.564   5.972 -0.8761 -2.0921  1.0696
 5533SOL     OW28057   1.094   2.130   4.330  0.1014  0.2858 -0.2748
 5533SOL    HW128058   1.143   2.187   4.271  1.2354 -1.8354 -1.3836
 5533SOL    HW228059   1.004   2.158   4.310 -0.2997 -1.0615 -0.3529
 5534SOL     OW28060   0.040   3.848   8.483  0.1901 -0.6001 -0.0191
 5534SOL    HW128061   0.048   3.893   8.567  2.0814  0.1409 -0.5918
 5534SOL    HW228062   0.036   3.915   8.415 -0.2222 -0.2775  0.3294
 5535SOL     OW28063   3.472   3.293   8.794 -0.8173 -0.4484  0.3407
 5535SOL    HW128064   3.504   3.328   8.877  1.7263  2.5761 -1.9274
 5535SOL    HW228065   3.521   3.351   8.735 -1.3333 -0.0661  0.2797
 5536SOL     OW28066   0.535   4.269   8.650  0.2085  0.3515 -0.0281
 5536SOL    HW128067   0.553   4.206   8.720 -0.1143 -0.7170 -0.9108
 5536SOL    HW228068   0.439   4.263   8.648  0.1657  1.1686 -0.3663
 5537SOL     OW28069   3.601   0.473   9.173  0.3650  0.3231 -0.1637
 5537SOL    HW128070   3.669   0.540   9.176  0.0777  0.5961  0.4693
 5537SOL    HW228071   3.528   0.517   9.129 -1.1037 -1.1296  0.7772
 5538SOL     OW28072   0.954   4.034   6.851  0.2734 -0.3141 -0.0055
 5538SOL    HW128073   0.958   4.129   6.860  1.7870 -0.3288 -0.5648
 5538SOL    HW228074   0.898   3.995   6.919  0.0166  1.5000  0.8328
 5539SOL     OW28075   4.476   2.904   9.545 -0.4439 -0.9113  0.3946
 5539SOL    HW128076   4.400   2.882   9.491  0.8895 -3.7866 -0.3563
 5539SOL    HW228077   4.478   2.827   9.601 -0.6799 -3.7178 -3.4427
 5540SOL     OW28078   4.054   0.601   8.332 -0.0628  0.2152 -0.0867
 5540SOL    HW128079   4.149   0.593   8.328 -0.4106 -3.5858 -0.4573
 5540SOL    HW228080   4.042   0.633   8.422 -0.7055 -1.9228  0.5962
 5541SOL     OW28081   3.711   2.860   2.049 -0.2484  0.0509 -0.1427
 5541SOL    HW128082   3.720   2.954   2.039  0.9501 -0.1547 -1.1420
 5541SOL    HW228083   3.777   2.843   2.116 -0.2468 -1.2513 -0.4689
 5542SOL     OW28084   3.606   2.138  12.449 -0.4531  0.1804 -0.4774
 5542SOL    HW128085   3.641   2.123  12.536 -0.4138  2.5093 -0.1051
 5542SOL    HW228086   3.541   2.208  12.451  0.5192  1.0854 -0.4826
 5543SOL     OW28087   3.380   0.905  15.408  0.3087  0.2729  0.0807
 5543SOL    HW128088   3.303   0.947  15.447  1.8301  2.0775  1.1529
 5543SOL    HW228089   3.426   0.986  15.386  3.5971 -1.6517 -0.1368
 5544SOL     OW28090   0.421   3.508   8.178  0.2161  0.3573 -0.3644
 5544SOL    HW128091   0.511   3.493   8.205 -0.4081 -1.0448  0.9817
 5544SOL    HW228092   0.409   3.587   8.231 -0.8452 -0.6372  0.9029
 5545SOL     OW28093   2.771   0.388   8.081 -0.1356  0.2124  0.8433
 5545SOL    HW128094   2.782   0.442   8.159  0.5917  4.9358 -2.4835
 5545SOL    HW228095   2.862   0.380   8.051  0.2989 -0.8215  2.4615
 5546SOL     OW28096   4.693   1.178   2.220  0.2153 -0.0381  0.2366
 5546SOL    HW128097   4.656   1.256   2.177  0.6104  0.6542  1.1589
 5546SOL    HW228098   4.702   1.117   2.147 -0.9894  1.7169 -1.3811
 5547SOL     OW28099   0.175   0.975   1.802  0.0095 -0.4095 -0.0297
 5547SOL    HW128100   0.107   0.942   1.861 -0.7100  0.0632 -0.5891
 5547SOL    HW228101   0.212   0.889   1.782  0.1438 -0.5159  0.6719
 5548SOL     OW28102   1.286   2.228   0.987  0.5641  0.4996  0.2616
 5548SOL    HW128103   1.228   2.242   1.062 -1.2086 -1.2468 -0.7908
 5548SOL    HW228104   1.359   2.285   1.011  0.0199  1.3475 -0.0996
 5549SOL     OW28105   4.228   1.693   7.213  0.2558  0.1038 -0.7734
 5549SOL    HW128106   4.208   1.787   7.218  1.1838  0.2471  0.3402
 5549SOL    HW228107   4.297   1.681   7.278 -0.0412 -1.1286 -0.6972
 5550SOL     OW28108   2.830   2.211  11.878 -0.0882  0.2235  0.2590
 5550SOL    HW128109   2.903   2.167  11.922 -0.6524  1.1935  2.1634
 5550SOL    HW228110   2.795   2.281  11.932 -0.3235 -0.0246  0.4254
 5551SOL     OW28111   0.718   1.775   8.680 -0.2238 -0.1734 -0.1493
 5551SOL    HW128112   0.681   1.802   8.764 -0.1276  0.9540 -0.4682
 5551SOL    HW228113   0.706   1.856   8.630  0.2439 -0.5903 -0.9264
 5552SOL     OW28114   2.866   3.725   9.484  0.0587 -0.1379  0.1108
 5552SOL    HW128115   2.807   3.800   9.490  1.1315  0.5937  1.7765
 5552SOL    HW228116   2.851   3.694   9.574  1.0478  1.8430  0.9500
 5553SOL     OW28117   1.520   0.052   6.156  0.1018  0.3047 -0.0317
 5553SOL    HW128118   1.540   0.103   6.078  0.9145  0.5185  0.3243
 5553SOL    HW228119   1.549   4.688   6.131  1.1808  0.6366  0.0587
 5554SOL     OW28120   0.194   2.870  16.274  0.0368 -0.0240  0.0987
 5554SOL    HW128121   0.201   2.848  16.367 -0.1088 -1.4841 -0.2326
 5554SOL    HW228122   0.193   2.966  16.274  1.0167 -0.0267  1.7069
 5555SOL     OW28123   2.829   0.817   5.559  0.3104 -0.0639  0.2133
 5555SOL    HW128124   2.896   0.877   5.592  0.0739 -0.1252  0.8075
 5555SOL    HW228125   2.836   0.836   5.465 -0.1238  1.3481  0.4607
 5556SOL     OW28126   3.265   3.992   7.021 -0.1055 -0.0084 -0.0205
 5556SOL    HW128127   3.321   4.069   7.031  0.0186 -0.2571  1.2695
 5556SOL    HW228128   3.193   4.025   6.968  0.4370  0.3207 -0.5484
 5557SOL     OW28129   3.054   2.744  17.620  0.3687  0.1128 -0.2942
 5557SOL    HW128130   3.073   2.656  17.586  2.5705  0.4834 -0.0296
 5557SOL    HW228131   2.996   2.769  17.548  2.1762  2.0433 -1.0620
 5558SOL     OW28132   3.547   0.190   3.332  0.0727 -0.5689 -0.2522
 5558SOL    HW128133   3.451   0.194   3.331  0.1482  1.3669  0.0778
 5558SOL    HW228134   3.547   0.171   3.425 -0.4541  0.9150  0.0589
 5559SOL     OW28135   0.096   4.458   2.776  0.2577  0.1744 -0.1988
 5559SOL    HW128136   0.098   4.408   2.694  0.7075 -1.9838  1.1256
 5559SOL    HW228137   0.069   4.547   2.753 -0.4901 -0.2554 -1.0169
 5560SOL     OW28138   0.940   3.036  12.829 -0.2577  0.0990  0.0653
 5560SOL    HW128139   0.927   2.970  12.898 -1.1810 -1.8286 -1.9777
 5560SOL    HW228140   0.856   3.081  12.831  0.4186  1.4235 -1.8419
 5561SOL     OW28141   0.313   2.196   7.101 -0.4097 -0.3594 -0.2257
 5561SOL    HW128142   0.239   2.248   7.071  0.2923  0.7505 -0.0656
 5561SOL    HW228143   0.276   2.147   7.174  1.3267  0.5528  1.2830
 5562SOL     OW28144   4.143   1.195   6.812  0.0762  0.5186  0.5148
 5562SOL    HW128145   4.108   1.110   6.840  0.6238  0.1595  0.0943
 5562SOL    HW228146   4.232   1.185   6.846  0.2787 -0.2138 -0.2348
 5563SOL     OW28147   1.791   2.790   6.243  0.6433 -0.0168  0.2831
 5563SOL    HW128148   1.716   2.746   6.203  1.8941 -0.0972 -1.9502
 5563SOL    HW228149   1.861   2.777   6.179  0.9260  4.0433 -0.2347
 5564SOL     OW28150   3.902   0.478  15.578 -0.1874  0.6252 -0.6364
 5564SOL    HW128151   3.954   0.442  15.651 -0.4213  0.7682 -0.3997
 5564SOL    HW228152   3.934   0.568  15.574  4.3915 -0.8670  1.4134
 5565SOL     OW28153   1.418   2.369  10.043  0.1864 -0.2142 -0.7790
 5565SOL    HW128154   1.365   2.317   9.983 -0.6385  1.0794 -1.1909
 5565SOL    HW228155   1.483   2.391   9.977 -1.4142  2.6238 -1.4620
 5566SOL     OW28156   2.951   1.604   5.895  0.0165 -0.7597  0.0645
 5566SOL    HW128157   3.014   1.584   5.964  2.1277 -1.3731 -2.0292
 5566SOL    HW228158   3.001   1.570   5.820 -3.9391 -1.4014 -2.2994
 5567SOL     OW28159   4.546   2.031  16.594  0.0431  0.2690  0.0042
 5567SOL    HW128160   4.641   2.039  16.603  0.1462 -1.0640  0.1095
 5567SOL    HW228161   4.540   1.953  16.649  2.0670 -0.8595 -1.3743
 5568SOL     OW28162   4.545   4.461   4.632  0.4032 -0.3192  0.2811
 5568SOL    HW128163   4.634   4.425   4.625  1.5822  2.2539  1.9382
 5568SOL    HW228164   4.529   4.468   4.538 -3.9820 -1.5538  0.9450
 5569SOL     OW28165   1.595   3.041   3.024 -0.2095  0.0029 -0.3386
 5569SOL    HW128166   1.684   3.077   3.026  0.0236 -0.5531 -0.7421
 5569SOL    HW228167   1.603   2.984   2.947 -0.2976  0.2755 -0.5477
 5570SOL     OW28168   0.382   3.088   1.124  0.2894 -0.1352  0.1528
 5570SOL    HW128169   0.289   3.070   1.120 -0.0728  2.1139 -1.2594
 5570SOL    HW228170   0.408   3.031   1.197 -2.1460  0.3781  1.3959
 5571SOL     OW28171   2.985   3.051   8.934 -0.9590 -0.2352  0.2080
 5571SOL    HW128172   3.055   3.069   8.873  0.1477 -0.3891  1.4253
 5571SOL    HW228173   3.007   2.961   8.960 -0.4728 -0.1591  0.0454
 5572SOL     OW28174   3.710   4.674  15.706 -0.5083  0.0285 -0.1155
 5572SOL    HW128175   3.686   0.008  15.778 -3.3156  1.2343 -2.0196
 5572SOL    HW228176   3.676   4.712  15.625 -1.1732  0.5442  0.4024
 5573SOL     OW28177   3.628   2.209   3.909 -0.5954  0.0234 -0.0851
 5573SOL    HW128178   3.694   2.278   3.905 -1.0013  0.2998 -1.6943
 5573SOL    HW228179   3.581   2.214   3.826  0.1610  0.3234 -0.4973
 5574SOL     OW28180   2.770   0.442   9.224  0.3611 -0.4624  0.0239
 5574SOL    HW128181   2.810   0.357   9.208  2.8648  0.6682  0.1886
 5574SOL    HW228182   2.681   0.418   9.201  0.0130 -0.1052  0.9650
 5575SOL     OW28183   2.496   3.896   5.288 -0.9143 -0.4600 -0.0304
 5575SOL    HW128184   2.404   3.910   5.310 -0.5439  3.3580 -0.8436
 5575SOL    HW228185   2.553   3.945   5.348 -1.5280  1.9945 -1.4370
 5576SOL     OW28186   4.314   0.206  15.610  0.2647  0.2710 -0.5688
 5576SOL    HW128187   4.275   0.180  15.694  3.4536  0.5378  1.0171
 5576SOL    HW228188   4.406   0.210  15.635 -0.2732  1.9915  1.1700
 5577SOL     OW28189   2.610   2.377   7.077 -0.1686 -0.1660  0.4320
 5577SOL    HW128190   2.620   2.388   6.983 -1.0898 -4.8133 -0.2288
 5577SOL    HW228191   2.700   2.397   7.103 -0.1936 -0.5856  0.8446
 5578SOL     OW28192   2.813   2.930   5.952  0.3952  0.0734 -0.3217
 5578SOL    HW128193   2.848   2.957   6.037 -1.5141 -2.5938  1.3195
 5578SOL    HW228194   2.727   2.902   5.986  0.5145  0.0593 -0.0312
 5579SOL     OW28195   1.481   0.550   6.989 -0.6245  0.1362 -0.5434
 5579SOL    HW128196   1.399   0.507   7.014 -0.4297 -0.4852 -0.9723
 5579SOL    HW228197   1.454   0.551   6.897 -0.8123 -1.6131 -0.5059
 5580SOL     OW28198   1.913   1.051  13.690  0.1749 -0.1317 -0.6828
 5580SOL    HW128199   1.835   1.002  13.664 -0.3968 -0.3392  1.3528
 5580SOL    HW228200   1.921   1.104  13.611 -4.0753  1.5451 -0.0397
 5581SOL     OW28201   2.388   4.029   0.542 -0.0859 -0.1526  0.0296
 5581SOL    HW128202   2.386   4.010   0.448  2.6755 -1.0903  0.1446
 5581SOL    HW228203   2.300   4.063   0.555 -0.0256  0.3663 -0.9193
 5582SOL     OW28204   4.292   1.435   8.050  0.4667  0.4012 -0.0034
 5582SOL    HW128205   4.362   1.459   7.990  2.2278 -1.9289  1.1413
 5582SOL    HW228206   4.218   1.446   7.990  1.4172  2.3972 -0.8080
 5583SOL     OW28207   4.388   0.861   3.288  0.7953 -0.3815 -0.4778
 5583SOL    HW128208   4.431   0.873   3.203 -2.5097  1.7222 -1.8240
 5583SOL    HW228209   4.359   0.946   3.319  2.1748 -0.2476  0.4298
 5584SOL     OW28210   1.389   1.383  16.622 -0.3444 -0.7374 -0.3670
 5584SOL    HW128211   1.441   1.394  16.702  0.2777 -2.0209 -0.5917
 5584SOL    HW228212   1.319   1.327  16.657  0.5291 -1.6772 -0.1110
 5585SOL     OW28213   1.689   0.077   3.151  0.3236  0.3052  0.0646
 5585SOL    HW128214   1.776   0.117   3.156 -0.6456  2.3028  0.8950
 5585SOL    HW228215   1.718   4.714   3.125  1.7188  1.7930 -3.2781
 5586SOL     OW28216   4.460   2.325  10.090  0.1597  0.6272 -0.1583
 5586SOL    HW128217   4.457   2.414  10.125  1.8254  0.4042  0.5486
 5586SOL    HW228218   4.377   2.316  10.042 -0.3969 -1.2307  1.1254
 5587SOL     OW28219   2.356   0.719   6.159 -0.2844  0.1520 -0.1206
 5587SOL    HW128220   2.270   0.747   6.128  0.2430  3.3873  1.3913
 5587SOL    HW228221   2.344   0.730   6.254 -0.2577 -2.1822  0.1605
 5588SOL     OW28222   4.384   4.322   7.779  0.2069 -0.0329 -0.4597
 5588SOL    HW128223   4.327   4.369   7.840  0.2079  0.6462 -0.9789
 5588SOL    HW228224   4.468   4.358   7.807 -0.1886 -0.3388  1.1112
 5589SOL     OW28225   2.028   1.838   8.512  0.2168 -0.0223 -0.0758
 5589SOL    HW128226   2.067   1.873   8.593  0.4592  3.4325 -1.6968
 5589SOL    HW228227   1.938   1.820   8.538 -0.6613  0.7197 -2.6315
 5590SOL     OW28228   1.496   2.361   0.166 -0.0463 -0.3102 -0.1971
 5590SOL    HW128229   1.588   2.373   0.141 -0.1899  0.6713 -0.2428
 5590SOL    HW228230   1.455   2.372   0.080  1.1832 -0.5995 -0.8172
 5591SOL     OW28231   1.955   2.059  15.611 -0.3220  0.5233 -0.1901
 5591SOL    HW128232   2.000   2.074  15.694  0.7723  1.0582 -0.8826
 5591SOL    HW228233   2.024   2.011  15.564 -0.6305 -0.9513  0.8350
 5592SOL     OW28234   0.459   2.778   3.538 -0.1275  0.1950 -0.0057
 5592SOL    HW128235   0.436   2.728   3.460  0.6644 -1.5864  0.8890
 5592SOL    HW228236   0.554   2.770   3.543 -0.1866 -0.3663  0.2609
 5593SOL     OW28237   2.591   1.137   3.655 -0.4473 -0.0149  0.7410
 5593SOL    HW128238   2.601   1.231   3.641 -0.8778 -0.3474 -1.7644
 5593SOL    HW228239   2.552   1.131   3.742 -0.3073  2.0282  0.9516
 5594SOL     OW28240   3.275   4.479   5.212  0.4174 -0.4969  0.1976
 5594SOL    HW128241   3.235   4.435   5.137  0.4672 -0.5413  0.1970
 5594SOL    HW228242   3.369   4.470   5.198  0.3768 -0.5361 -0.0553
 5595SOL     OW28243   3.951   0.057   2.771 -0.4866  0.4953  0.3711
 5595SOL    HW128244   3.943   0.151   2.788  0.4033  0.7166 -0.4152
 5595SOL    HW228245   3.877   0.051   2.710 -0.4778  0.8185  0.3285
 5596SOL     OW28246   2.616   3.184   7.221 -0.1698 -0.7659 -0.0094
 5596SOL    HW128247   2.608   3.091   7.200  3.4593 -0.5586 -2.2773
 5596SOL    HW228248   2.697   3.193   7.271  0.6537 -0.4349 -1.3849
 5597SOL     OW28249   3.289   4.224   9.305 -0.2793 -0.2335  0.7665
 5597SOL    HW128250   3.243   4.233   9.388 -1.3847  1.0318  0.0141
 5597SOL    HW228251   3.237   4.160   9.257 -0.1221  0.0076  0.2793
 5598SOL     OW28252   2.271   0.787  16.338  0.1625 -0.1061  0.1486
 5598SOL    HW128253   2.204   0.780  16.406  0.0421  0.0586  0.0460
 5598SOL    HW228254   2.242   0.717  16.280 -1.0333  2.5815 -2.4717
 5599SOL     OW28255   3.388   4.020   9.031  0.1242  0.2351 -0.0780
 5599SOL    HW128256   3.319   3.961   9.061  0.9431 -1.2075 -1.0118
 5599SOL    HW228257   3.415   4.062   9.113  0.8001 -0.8840  0.2776
 5600SOL     OW28258   2.271   1.058  13.691 -0.2131  0.0854 -0.0546
 5600SOL    HW128259   2.329   0.994  13.732  0.3029 -0.3810 -1.4836
 5600SOL    HW228260   2.219   1.097  13.761  1.3041 -1.1772  1.7663
 5601SOL     OW28261   1.127   0.472   9.924  0.3218  0.6849 -0.3826
 5601SOL    HW128262   1.042   0.450   9.961  0.7325 -0.2193  0.0406
 5601SOL    HW228263   1.192   0.417   9.968 -0.1163  0.9457  0.5892
 5602SOL     OW28264   3.644   1.623  13.122 -0.1031 -0.2387 -0.4951
 5602SOL    HW128265   3.701   1.680  13.173  0.8872 -2.3995  0.7913
 5602SOL    HW228266   3.680   1.536  13.135  0.9451  0.3481  0.5362
 5603SOL     OW28267   2.045   0.022  17.312  0.5009  0.2563 -0.5384
 5603SOL    HW128268   1.977   0.085  17.288  1.2498  1.7069  1.2054
 5603SOL    HW228269   1.996   4.665  17.295 -1.2187  1.2880 -0.5611
 5604SOL     OW28270   2.664   0.299   8.346  0.6717  0.2255  0.9152
 5604SOL    HW128271   2.753   0.279   8.316  0.3610  0.5018 -0.1788
 5604SOL    HW228272   2.658   0.383   8.301 -1.3353 -0.9990 -1.0830
 5605SOL     OW28273   1.792   0.668   6.486  0.3043 -0.4963 -0.1512
 5605SOL    HW128274   1.851   0.594   6.472 -1.2999 -0.9558 -4.6043
 5605SOL    HW228275   1.809   0.691   6.577 -1.3001 -0.0592  0.0485
 5606SOL     OW28276   3.413   2.923   6.074  0.0516 -0.3966 -0.2272
 5606SOL    HW128277   3.400   3.007   6.029 -2.1229 -0.6965 -0.1999
 5606SOL    HW228278   3.320   2.899   6.083 -0.1602 -0.0845 -1.5492
 5607SOL     OW28279   3.598   2.308   9.325  0.0894 -0.4488 -0.2069
 5607SOL    HW128280   3.535   2.236   9.334 -0.7245  0.4329  0.9829
 5607SOL    HW228281   3.532   2.375   9.308 -0.6063 -0.8205  1.1026
 5608SOL     OW28282   0.255   1.832   7.935 -0.8939  0.2365 -0.2793
 5608SOL    HW128283   0.273   1.861   7.846 -0.4672  1.0037  0.0493
 5608SOL    HW228284   0.167   1.796   7.926 -0.8691 -0.4318  1.9657
 5609SOL     OW28285   2.735   0.462   2.672  0.6789  0.7101 -0.0251
 5609SOL    HW128286   2.744   0.375   2.633  2.3081  0.3132  1.2427
 5609SOL    HW228287   2.771   0.443   2.759 -0.3552  0.1038  0.2704
 5610SOL     OW28288   3.930   0.508   0.145  0.3719 -0.2929 -0.6556
 5610SOL    HW128289   3.953   0.478   0.233 -1.5285  2.5431  0.8298
 5610SOL    HW228290   3.922   0.601   0.167  1.2808 -0.3470 -0.1202
 5611SOL     OW28291   1.576   1.631   4.885  0.3724  0.7025 -0.6055
 5611SOL    HW128292   1.587   1.715   4.929 -0.6864  0.4652  0.0993
 5611SOL    HW228293   1.552   1.570   4.954  2.2728 -0.8067 -1.2659
 5612SOL     OW28294   0.245   1.194   7.509  0.2611 -0.1273  0.0924
 5612SOL    HW128295   0.245   1.135   7.585 -0.3152 -0.1250  0.0939
 5612SOL    HW228296   0.165   1.173   7.461 -0.4963  1.0399  0.8293
 5613SOL     OW28297   2.160   3.667   8.493  0.0821 -0.0168  0.0121
 5613SOL    HW128298   2.229   3.682   8.428  1.0302  0.1091  1.0457
 5613SOL    HW228299   2.101   3.605   8.451  0.5169  0.9880 -2.0822
 5614SOL     OW28300   4.171   1.892  11.150  0.0220  0.5236  0.3308
 5614SOL    HW128301   4.133   1.971  11.110 -1.8563 -0.9170 -0.7274
 5614SOL    HW228302   4.110   1.874  11.222  0.1721  0.2444  0.3851
 5615SOL     OW28303   2.819   1.261   2.389 -0.1446 -0.3506 -0.4790
 5615SOL    HW128304   2.839   1.177   2.349  0.7672 -0.3177 -0.1168
 5615SOL    HW228305   2.870   1.318   2.332  0.4787 -0.8555 -0.4279
 5616SOL     OW28306   2.271   0.124   3.644 -0.6510  0.7272 -0.1325
 5616SOL    HW128307   2.275   0.094   3.553  0.8842 -0.5525  0.3598
 5616SOL    HW228308   2.340   0.188   3.659 -1.7399  1.3380  2.2122
 5617SOL     OW28309   2.788   3.520  17.407 -0.1456  0.2755 -0.6608
 5617SOL    HW128310   2.716   3.477  17.454  0.0818  0.4407 -0.1623
 5617SOL    HW228311   2.834   3.540  17.489  1.3510  0.7090 -1.6220
 5618SOL     OW28312   3.620   0.103   5.335 -0.0097  0.6858  0.3215
 5618SOL    HW128313   3.637   0.125   5.243 -4.8218  0.5279 -0.5813
 5618SOL    HW228314   3.605   0.009   5.333  1.7262  0.4071 -0.0228
 5619SOL     OW28315   0.157   0.050  11.358  0.2913  0.2733  0.0767
 5619SOL    HW128316   0.118   0.032  11.444  2.3814 -1.0426  0.7407
 5619SOL    HW228317   0.191   4.689  11.329 -1.0414 -0.3584  0.3101
 5620SOL     OW28318   3.433   0.276  10.239 -0.6669  0.4744 -0.1064
 5620SOL    HW128319   3.397   0.219  10.171 -1.2797 -0.3290  0.8833
 5620SOL    HW228320   3.371   0.349  10.233 -0.1010  0.8399 -1.3580
 5621SOL     OW28321   3.690   1.085   6.203  0.5246  0.5274  0.0649
 5621SOL    HW128322   3.781   1.101   6.180  0.1405 -1.9124 -3.1265
 5621SOL    HW228323   3.692   1.027   6.279  0.3431 -1.1893 -1.2325
 5622SOL     OW28324   2.903   0.219   4.712 -0.2585 -0.1746  0.2654
 5622SOL    HW128325   2.959   0.180   4.645 -2.2241 -0.7525 -1.0312
 5622SOL    HW228326   2.823   0.242   4.664 -0.9819 -1.0803  1.0355
 5623SOL     OW28327   0.615   3.714   3.515 -0.0824 -0.1909 -0.2288
 5623SOL    HW128328   0.633   3.808   3.511  2.0885 -0.6127 -0.4003
 5623SOL    HW228329   0.591   3.696   3.424  0.1358  1.5058 -0.6395
 5624SOL     OW28330   1.469   1.407   2.834 -0.2961  0.0796 -0.1362
 5624SOL    HW128331   1.393   1.424   2.778 -0.5530 -0.4612  0.0486
 5624SOL    HW228332   1.439   1.443   2.917 -2.0262  0.5636 -0.9758
 5625SOL     OW28333   0.585   4.565   2.166  0.0410 -0.7236  0.0413
 5625SOL    HW128334   0.658   4.570   2.105  0.1461  2.6607  0.4742
 5625SOL    HW228335   0.585   4.469   2.175 -1.2193 -0.8790 -1.7760
 5626SOL     OW28336   4.112   0.989   7.709  0.5007 -0.2991 -0.0647
 5626SOL    HW128337   4.064   1.060   7.751  3.0156  0.8121  0.9108
 5626SOL    HW228338   4.040   0.930   7.685  1.8481 -1.6253 -0.8846
 5627SOL     OW28339   4.097   2.590   2.866  0.5737  0.7700  0.1279
 5627SOL    HW128340   4.180   2.545   2.852 -0.7333 -1.1256 -1.4243
 5627SOL    HW228341   4.043   2.515   2.890  1.2043  0.2897  0.0499
 5628SOL     OW28342   2.792   0.789   7.102  0.1751  0.3054  0.2392
 5628SOL    HW128343   2.816   0.745   7.020 -0.1894  0.3935  0.0868
 5628SOL    HW228344   2.701   0.764   7.117  0.5661 -0.5625  1.2223
 5629SOL     OW28345   0.970   0.849  10.916  0.1541  0.1042 -0.7721
 5629SOL    HW128346   0.918   0.881  10.842  1.2429  0.5029 -1.3674
 5629SOL    HW228347   0.907   0.788  10.954 -0.6488  1.1011 -0.5221
 5630SOL     OW28348   4.179   2.286  10.684 -0.0324  0.5177 -0.2660
 5630SOL    HW128349   4.140   2.303  10.770 -0.9814 -0.0035 -0.5927
 5630SOL    HW228350   4.270   2.270  10.708 -0.0227 -0.3781 -0.9199
 5631SOL     OW28351   3.855   1.311   8.276  0.0647  0.1260  0.2399
 5631SOL    HW128352   3.950   1.302   8.267  0.3133  2.2025  0.8968
 5631SOL    HW228353   3.817   1.231   8.240 -2.0767  0.6774  1.2457
 5632SOL     OW28354   1.966   2.453   2.497  0.2759 -0.1025  0.1571
 5632SOL    HW128355   1.963   2.367   2.537 -0.2559  0.8182  2.1188
 5632SOL    HW228356   1.975   2.504   2.578  0.5603 -0.8515  0.6000
 5633SOL     OW28357   0.846   2.067   9.258 -0.1845  0.2345 -0.7464
 5633SOL    HW128358   0.905   2.038   9.327 -0.6777 -0.4144 -0.5950
 5633SOL    HW228359   0.857   2.161   9.249 -1.4953  0.2201 -2.7156
 5634SOL     OW28360   1.009   1.672   7.423  0.3854 -0.4199  0.6938
 5634SOL    HW128361   0.963   1.755   7.407 -0.4098 -0.7521  1.2737
 5634SOL    HW228362   0.969   1.641   7.504 -3.1545  0.7915 -0.5486
 5635SOL     OW28363   0.206   1.165   4.483  0.4282  0.6309  0.2827
 5635SOL    HW128364   0.268   1.116   4.429 -1.0209  1.6259 -2.2420
 5635SOL    HW228365   0.260   1.244   4.485  1.2175  0.0997  0.0959
 5636SOL     OW28366   1.732   0.166   7.021  0.3471  0.0580  0.0819
 5636SOL    HW128367   1.798   0.097   7.030  2.3501  1.8143 -1.1005
 5636SOL    HW228368   1.713   0.168   6.927 -1.7669  1.1979  0.5375
 5637SOL     OW28369   4.654   1.671  11.878  0.1488 -0.3299  0.1622
 5637SOL    HW128370   4.655   1.576  11.862  0.4357 -0.4106  0.6613
 5637SOL    HW228371   4.654   1.698  11.787  1.4715  0.6819  0.4523
 5638SOL     OW28372   1.850   0.863   3.711  0.2003  0.3161 -0.0987
 5638SOL    HW128373   1.813   0.932   3.655 -2.5157 -0.5227  0.6396
 5638SOL    HW228374   1.917   0.824   3.655  0.4740 -1.5523  1.5407
 5639SOL     OW28375   1.197   2.259   4.095  0.3139  0.3774  0.0853
 5639SOL    HW128376   1.155   2.339   4.062  0.1379  0.6549  0.9980
 5639SOL    HW228377   1.257   2.308   4.151  0.4332  0.7369 -0.3514
 5640SOL     OW28378   3.282   0.599   9.591  0.1835  0.0042  0.3513
 5640SOL    HW128379   3.273   0.593   9.686 -1.5375 -0.0470  0.1824
 5640SOL    HW228380   3.219   0.666   9.564  1.3536  0.1863 -1.9129
 5641SOL     OW28381   4.536   2.558  15.590  0.0016  0.4511 -0.1100
 5641SOL    HW128382   4.607   2.494  15.580 -1.3836 -1.0904 -0.2103
 5641SOL    HW228383   4.471   2.516  15.533  0.6426  0.3547 -0.7575
 5642SOL     OW28384   1.394   4.458   0.891 -0.6505 -0.0628  0.0544
 5642SOL    HW128385   1.425   4.412   0.814 -0.1571  0.4267 -0.0442
 5642SOL    HW228386   1.421   4.394   0.957  0.4715 -0.2701 -0.6028
 5643SOL     OW28387   0.363   3.697   3.665  0.7485  0.1628  0.4969
 5643SOL    HW128388   0.447   3.691   3.619 -0.5337 -0.8408 -1.7242
 5643SOL    HW228389   0.323   3.622   3.621 -3.6339  2.2535  0.9516
 5644SOL     OW28390   0.203   0.805   0.973 -0.6219  0.8140  0.0127
 5644SOL    HW128391   0.237   0.781   0.887  0.1616  0.3403  0.4512
 5644SOL    HW228392   0.183   0.721   1.013  1.0049  0.2053 -0.4489
 5645SOL     OW28393   4.436   4.304   3.866  0.2263  0.4343  0.3634
 5645SOL    HW128394   4.394   4.390   3.868 -2.6692 -1.0760  3.4695
 5645SOL    HW228395   4.365   4.254   3.826 -0.2018 -0.2132  1.9357
 5646SOL     OW28396   2.634   2.567  12.655 -0.2416 -0.0695 -0.2162
 5646SOL    HW128397   2.703   2.610  12.705  0.4201 -1.4919  0.1155
 5646SOL    HW228398   2.558   2.623  12.672  0.6356  1.9212 -2.8521
 5647SOL     OW28399   4.072   1.463   8.889  0.3943 -0.3506  0.2482
 5647SOL    HW128400   4.142   1.495   8.831 -1.5760 -0.0154 -1.9313
 5647SOL    HW228401   4.095   1.492   8.978  0.2538  2.0968 -0.4991
 5648SOL     OW28402   4.719   4.153  16.433  0.1621 -0.2608  0.2161
 5648SOL    HW128403   0.003   4.118  16.344  0.8177  1.9421 -0.5995
 5648SOL    HW228404   0.046   4.090  16.484  2.0918  0.6210 -0.6298
 5649SOL     OW28405   2.620   4.151   3.227 -0.3934 -0.1266  0.3324
 5649SOL    HW128406   2.563   4.075   3.232 -0.5898  0.1813  2.6294
 5649SOL    HW228407   2.552   4.217   3.240 -0.9217 -0.6686  0.3175
 5650SOL     OW28408   2.584   1.957   7.017 -0.0169  0.1550 -0.1630
 5650SOL    HW128409   2.657   1.959   6.955  1.1485  0.8304  1.2576
 5650SOL    HW228410   2.570   1.863   7.024 -2.5017  0.4714 -0.6826
 5651SOL     OW28411   1.506   0.143   5.628  0.1062 -0.3580 -0.7749
 5651SOL    HW128412   1.586   0.196   5.625  0.6911 -1.1880  0.1245
 5651SOL    HW228413   1.442   0.205   5.662 -0.5796  0.2434 -3.1653
 5652SOL     OW28414   4.320   0.728   6.015 -0.2317 -0.3460 -0.2213
 5652SOL    HW128415   4.407   0.738   6.053  0.7762  0.3050 -2.7006
 5652SOL    HW228416   4.285   0.647   6.052 -0.9871 -0.7206 -1.7433
 5653SOL     OW28417   1.724   0.201   2.839 -0.3526 -0.3561  0.6328
 5653SOL    HW128418   1.706   0.246   2.757  1.2904 -2.2498 -0.7403
 5653SOL    HW228419   1.634   0.199   2.873 -0.1701  2.7725  1.3530
 5654SOL     OW28420   3.586   4.256  16.850  0.2798 -0.3695 -0.1032
 5654SOL    HW128421   3.564   4.165  16.870  0.9132 -0.9464 -2.0544
 5654SOL    HW228422   3.503   4.302  16.836  0.4430 -0.3930 -1.1193
 5655SOL     OW28423   0.020   3.721   3.652 -0.2126  0.6677 -0.5774
 5655SOL    HW128424   0.038   3.664   3.577 -0.4836 -0.3843  0.1449
 5655SOL    HW228425   4.666   3.679   3.689  0.7599  0.3224  1.0899
 5656SOL     OW28426   2.936   1.894   2.447  0.3605 -0.6712  0.2635
 5656SOL    HW128427   2.920   1.950   2.523 -0.0591 -0.3493 -0.0575
 5656SOL    HW228428   2.853   1.857   2.417 -0.6277  1.6252  0.0970
 5657SOL     OW28429   0.175   2.349   2.830 -0.5218  0.1285 -0.1186
 5657SOL    HW128430   0.090   2.318   2.799 -1.8565  1.9605  1.7220
 5657SOL    HW228431   0.159   2.442   2.814  0.2985  0.5326  1.4410
 5658SOL     OW28432   3.858   1.771   0.348 -0.1703 -0.2463 -0.7918
 5658SOL    HW128433   3.834   1.860   0.322 -1.2014  0.6663  3.3914
 5658SOL    HW228434   3.909   1.785   0.427  1.4755 -0.4510 -1.8065
 5659SOL     OW28435   3.897   2.406   7.367 -0.0148 -0.1569  0.3123
 5659SOL    HW128436   3.871   2.410   7.459 -1.0943 -2.4440  0.0981
 5659SOL    HW228437   3.954   2.482   7.362  1.5924 -1.3900 -0.1879
 5660SOL     OW28438   0.603   3.147   5.418 -0.5250  0.3286 -0.2645
 5660SOL    HW128439   0.691   3.129   5.385 -0.5394 -2.2405  1.1426
 5660SOL    HW228440   0.558   3.136   5.335 -0.3397 -0.0877 -0.3054
 5661SOL     OW28441   2.055   0.806   4.518 -0.0356  0.3527  0.0184
 5661SOL    HW128442   2.063   0.800   4.614 -0.3953 -0.4835 -0.0045
 5661SOL    HW228443   2.134   0.853   4.492  0.2200  1.1003  2.1414
 5662SOL     OW28444   0.690   3.055  14.173  0.0541 -0.1277  0.1867
 5662SOL    HW128445   0.731   2.991  14.231  2.0643 -0.8946 -2.0377
 5662SOL    HW228446   0.611   3.076  14.222  1.0553  3.5434  0.2586
 5663SOL     OW28447   4.180   0.523   4.807 -0.2742 -0.2730 -0.1549
 5663SOL    HW128448   4.208   0.613   4.791 -0.1764 -0.2773 -0.0088
 5663SOL    HW228449   4.089   0.536   4.781 -0.9645  0.5184  2.6333
 5664SOL     OW28450   4.080   3.923   9.344 -0.7406 -0.1332 -0.0334
 5664SOL    HW128451   4.098   3.924   9.250  1.3822 -1.5437  0.3798
 5664SOL    HW228452   4.128   3.845   9.369 -1.0236  0.1902  1.5476
 5665SOL     OW28453   2.929   3.482  14.971 -0.0240  0.3343 -0.3850
 5665SOL    HW128454   2.879   3.442  14.900 -0.0202  1.8213 -1.2182
 5665SOL    HW228455   2.967   3.411  15.023  1.6575  1.2316 -0.3932
 5666SOL     OW28456   3.188   0.776   4.295 -0.3240 -0.2572 -0.1233
 5666SOL    HW128457   3.275   0.796   4.261  0.2288 -0.3154  1.2476
 5666SOL    HW228458   3.181   0.689   4.255 -1.2204 -1.0891  1.8346
 5667SOL     OW28459   0.077   1.889   4.901  0.3887 -0.0156 -0.5849
 5667SOL    HW128460   0.154   1.903   4.845 -0.0269 -0.7624 -1.3438
 5667SOL    HW228461   0.059   1.979   4.928 -0.9829  0.0985 -1.8445
 5668SOL     OW28462   3.685   0.832   5.994 -0.3570  0.2472  0.1860
 5668SOL    HW128463   3.666   0.845   6.087 -0.6266  0.0340  0.1590
 5668SOL    HW228464   3.777   0.809   6.010 -0.6342 -0.6728  0.4995
 5669SOL     OW28465   0.657   3.189   5.693  0.4348  0.0885 -0.0322
 5669SOL    HW128466   0.752   3.195   5.682  0.6613 -2.2464  0.6261
 5669SOL    HW228467   0.630   3.216   5.605  0.2923 -0.4455 -0.1519
 5670SOL     OW28468   1.839   3.596  13.351 -0.4218  0.0170  0.2148
 5670SOL    HW128469   1.898   3.563  13.284  0.8266  1.0698  0.7930
 5670SOL    HW228470   1.856   3.531  13.420 -0.2216 -0.0906  0.0625
 5671SOL     OW28471   3.782   0.169   4.431  0.2073  0.1735 -0.1046
 5671SOL    HW128472   3.798   0.156   4.337  2.8668  0.0826  0.3529
 5671SOL    HW228473   3.713   0.235   4.427  0.0687 -0.2021 -3.5559
 5672SOL     OW28474   0.256   0.647   5.032  0.2230  0.0101 -0.0349
 5672SOL    HW128475   0.246   0.595   5.112 -0.2148 -1.4942 -1.0720
 5672SOL    HW228476   0.253   0.728   5.083 -0.0335 -1.6159  2.5592
 5673SOL     OW28477   0.242   1.309   3.694  0.2433  0.5041  0.4172
 5673SOL    HW128478   0.269   1.301   3.785  1.5261  1.4675  0.1272
 5673SOL    HW228479   0.264   1.400   3.673 -0.9864  0.2939 -1.8693
 5674SOL     OW28480   0.419   3.106  14.292 -0.0097  0.0092 -0.4929
 5674SOL    HW128481   0.395   3.195  14.317 -0.8051  0.2025 -1.9280
 5674SOL    HW228482   0.386   3.039  14.352 -1.6067  0.5523 -0.7574
 5675SOL     OW28483   2.255   3.719  16.435  0.6649 -0.2448  0.1422
 5675SOL    HW128484   2.265   3.786  16.367  0.5299 -0.3513  0.0168
 5675SOL    HW228485   2.331   3.726  16.492 -0.7819  0.7384  1.9459
 5676SOL     OW28486   4.043   2.792   2.516  0.1155 -0.1161 -0.0649
 5676SOL    HW128487   4.036   2.877   2.473  2.0552  0.0333 -0.1023
 5676SOL    HW228488   4.137   2.773   2.511  0.2595  1.4811 -3.2255
 5677SOL     OW28489   4.607   3.637   7.108 -0.1453 -0.4537  0.4432
 5677SOL    HW128490   4.636   3.639   7.199 -0.2437 -0.9086  0.4877
 5677SOL    HW228491   4.689   3.646   7.059 -0.4915 -0.5090 -0.1413
 5678SOL     OW28492   1.490   2.390   1.082  0.0463 -0.5363  0.0248
 5678SOL    HW128493   1.474   2.397   1.177  1.4156  0.4067  0.1917
 5678SOL    HW228494   1.568   2.335   1.084 -0.8557 -1.7828  0.6438
 5679SOL     OW28495   2.696   0.598   0.681 -0.1696 -0.1216  0.7742
 5679SOL    HW128496   2.619   0.544   0.663 -0.6942  0.5623  0.9220
 5679SOL    HW228497   2.769   0.538   0.692 -0.3828 -0.4738  0.2526
 5680SOL     OW28498   0.143   2.522  14.490 -0.4031  0.3972  0.4104
 5680SOL    HW128499   0.220   2.544  14.542 -0.4890  0.2200  0.6092
 5680SOL    HW228500   0.169   2.570  14.411  1.5606 -0.7661  0.3421
 5681SOL     OW28501   3.926   1.187   7.811 -0.0827  0.0674 -0.0541
 5681SOL    HW128502   3.875   1.259   7.848  0.0120  0.2819 -0.3469
 5681SOL    HW228503   3.987   1.239   7.759  1.1213 -1.7501 -0.4761
 5682SOL     OW28504   3.852   2.366   7.632  0.0191 -0.1873  0.3411
 5682SOL    HW128505   3.874   2.273   7.627 -0.1634 -0.0853 -2.5128
 5682SOL    HW228506   3.867   2.381   7.725  0.6567  0.8767  0.0783
 5683SOL     OW28507   1.238   0.323   6.152 -0.2415 -0.7711 -0.2244
 5683SOL    HW128508   1.177   0.258   6.117 -0.6404 -1.0024  0.8799
 5683SOL    HW228509   1.252   0.303   6.245 -1.6399  0.5006  0.2649
 5684SOL     OW28510   2.038   1.971   2.905 -0.1379  0.4696 -0.4498
 5684SOL    HW128511   2.007   1.975   2.814  2.9636  0.0482 -1.5381
 5684SOL    HW228512   2.130   1.983   2.881  0.0391  0.6938  0.3587
 5685SOL     OW28513   3.909   3.336   8.559  0.0896 -0.4277  0.3392
 5685SOL    HW128514   3.914   3.243   8.538 -1.8172 -0.6450  0.8950
 5685SOL    HW228515   4.003   3.355   8.554  0.0207  0.0338  0.7422
 5686SOL     OW28516   1.417   2.172   7.763 -0.0553  0.0052 -0.1846
 5686SOL    HW128517   1.501   2.217   7.775  0.5844 -0.5922 -2.4974
 5686SOL    HW228518   1.372   2.243   7.717 -0.3871 -0.2841 -0.3051
 5687SOL     OW28519   2.750   0.387   5.826  0.3677 -0.3054  0.1563
 5687SOL    HW128520   2.842   0.369   5.845  0.4422 -0.5690 -0.4582
 5687SOL    HW228521   2.742   0.481   5.840  1.5404 -0.3973  1.4140
 5688SOL     OW28522   1.586   0.548   2.817 -0.3218  0.2917 -0.3830
 5688SOL    HW128523   1.523   0.493   2.769 -0.8739  0.6283 -0.0484
 5688SOL    HW228524   1.621   0.502   2.892 -0.5517  0.3234 -0.2563
 5689SOL     OW28525   2.129   1.203   7.388  0.5664 -0.7150  0.1593
 5689SOL    HW128526   2.185   1.190   7.465 -0.6199  2.7709  1.6121
 5689SOL    HW228527   2.060   1.140   7.407 -0.1294 -0.7310 -2.3937
 5690SOL     OW28528   2.560   2.271   8.609  0.0903  0.0122 -0.0025
 5690SOL    HW128529   2.581   2.239   8.697  0.0941 -0.5928 -0.2229
 5690SOL    HW228530   2.535   2.184   8.576 -1.3993  0.2816  0.3853
 5691SOL     OW28531   1.185   0.010  12.092  0.1267  0.1339 -0.0359
 5691SOL    HW128532   1.242   0.027  12.166  1.3628 -0.3762 -0.8676
 5691SOL    HW228533   1.221   0.064  12.021  1.1721  1.5049  1.5497
 5692SOL     OW28534   3.488   1.135  13.216 -0.4491 -0.4259 -0.2065
 5692SOL    HW128535   3.534   1.082  13.281  1.4615  0.3509 -0.9237
 5692SOL    HW228536   3.537   1.103  13.140 -0.4255  0.6761 -0.6602
 5693SOL     OW28537   0.821   2.378  12.867 -0.9350  0.0437  0.2733
 5693SOL    HW128538   0.779   2.383  12.781 -0.7676 -0.1400  0.1789
 5693SOL    HW228539   0.741   2.379  12.920 -1.6996 -2.3008 -0.8172
 5694SOL     OW28540   1.042   3.682   1.719  0.5768 -0.1221  0.4145
 5694SOL    HW128541   0.996   3.599   1.730 -0.8604  0.4870 -1.0705
 5694SOL    HW228542   1.054   3.691   1.625 -2.4509 -0.3285  0.0342
 5695SOL     OW28543   2.773   3.091   6.674  0.2307 -0.3418  0.0595
 5695SOL    HW128544   2.857   3.111   6.715 -1.4378  0.0186  3.2778
 5695SOL    HW228545   2.724   3.116   6.752  0.1193 -2.8299  0.7612
 5696SOL     OW28546   1.408   2.853  16.680  0.1672 -0.0778  0.4519
 5696SOL    HW128547   1.486   2.808  16.647  0.4291 -0.2176  1.2641
 5696SOL    HW228548   1.438   2.896  16.761  2.6792 -0.3281 -0.3569
 5697SOL     OW28549   4.422   0.825   3.908  0.0522 -0.1722 -0.3872
 5697SOL    HW128550   4.435   0.735   3.938 -2.8989  0.6880  3.4469
 5697SOL    HW228551   4.360   0.854   3.975  0.3369 -1.1393  0.2946
 5698SOL     OW28552   4.131   0.595   8.600  0.2502  0.2121  0.2370
 5698SOL    HW128553   4.099   0.662   8.661 -2.2827  0.7824 -1.7116
 5698SOL    HW228554   4.218   0.584   8.638 -0.0533 -0.0502  0.8537
 5699SOL     OW28555   4.070   2.962  15.241 -0.2368  0.4721  0.7653
 5699SOL    HW128556   3.976   2.946  15.230  0.2136 -1.5418 -0.1739
 5699SOL    HW228557   4.083   3.041  15.189 -0.9388 -0.3079 -0.6050
 5700SOL     OW28558   2.555   3.784  14.801  0.0317 -0.0130  0.2511
 5700SOL    HW128559   2.562   3.690  14.790  1.5654  0.1724 -0.2760
 5700SOL    HW228560   2.624   3.818  14.744  0.4871 -0.4581  0.5350
 5701SOL     OW28561   4.463   1.901  11.502 -0.0996  0.1233 -0.4318
 5701SOL    HW128562   4.552   1.934  11.518 -1.0524  2.2537  0.4925
 5701SOL    HW228563   4.424   1.895  11.589 -2.0485 -0.6789 -1.3658
 5702SOL     OW28564   0.455   3.105   4.449  0.0619 -0.0521  0.0013
 5702SOL    HW128565   0.434   3.156   4.371 -0.6914  0.2292  0.3929
 5702SOL    HW228566   0.541   3.142   4.467  0.2384 -0.5773  0.2367
 5703SOL     OW28567   3.217   2.514  16.307 -0.0995  0.9369 -0.4242
 5703SOL    HW128568   3.249   2.436  16.261 -3.1882 -0.8534  0.4482
 5703SOL    HW228569   3.188   2.482  16.393  1.8397  0.1838 -0.0299
 5704SOL     OW28570   1.777   3.109   9.874  0.1813  0.2379 -0.3557
 5704SOL    HW128571   1.843   3.158   9.924 -0.2529 -0.6449  1.0963
 5704SOL    HW228572   1.797   3.019   9.898 -1.0736 -0.1972 -1.0009
 5705SOL     OW28573   4.214   2.045   7.629 -0.0731  0.8657 -0.5877
 5705SOL    HW128574   4.278   2.116   7.622  1.4890 -0.5461 -0.3813
 5705SOL    HW228575   4.259   1.988   7.691  1.7388  2.7798 -0.1209
 5706SOL     OW28576   1.363   2.131  17.549  0.1563 -0.2670  0.0125
 5706SOL    HW128577   1.303   2.079  17.604  0.9139 -2.1453 -0.9129
 5706SOL    HW228578   1.439   2.074  17.537 -1.5781 -2.2333 -1.8409
 5707SOL     OW28579   0.784   2.205  11.953 -0.2881  0.8398 -0.4005
 5707SOL    HW128580   0.751   2.146  11.886  1.3993  0.0795 -0.5665
 5707SOL    HW228581   0.786   2.287  11.904  2.1974 -0.3451 -2.2478
 5708SOL     OW28582   0.839   4.052  11.105 -0.2614 -0.0115 -0.4980
 5708SOL    HW128583   0.799   4.038  11.019  0.4261  0.0830 -0.8328
 5708SOL    HW228584   0.775   4.105  11.152  1.5747  0.1866  1.7610
 5709SOL     OW28585   4.630   1.610   1.430  0.4596  0.2811  0.0194
 5709SOL    HW128586   4.632   1.569   1.516  1.7372 -0.2023 -0.2280
 5709SOL    HW228587   4.600   1.536   1.378  1.3368  0.0528 -0.1675
 5710SOL     OW28588   4.634   0.973   3.795 -0.1665 -1.0375 -0.1165
 5710SOL    HW128589   4.582   0.909   3.845 -3.2707  0.3087 -1.5776
 5710SOL    HW228590   4.572   0.997   3.726 -0.7701 -0.9780  0.4366
 5711SOL     OW28591   3.548   3.347  16.638  0.7639  0.0010 -0.5753
 5711SOL    HW128592   3.537   3.261  16.680 -1.2122 -0.3593 -1.9026
 5711SOL    HW228593   3.491   3.341  16.562 -2.3002  0.5680  1.6875
 5712SOL     OW28594   4.176   2.285   6.375 -0.3219  0.0428 -0.0653
 5712SOL    HW128595   4.159   2.194   6.399 -1.2733 -0.2574 -1.8901
 5712SOL    HW228596   4.097   2.323   6.337 -1.8936 -2.1596  0.9757
 5713SOL     OW28597   4.288   2.628   8.695  0.2217 -1.0806 -0.4502
 5713SOL    HW128598   4.205   2.629   8.743  0.2638 -1.1131 -0.3763
 5713SOL    HW228599   4.255   2.612   8.606 -3.0862  0.3102  0.5293
 5714SOL     OW28600   3.579   2.709   6.062  0.1130  0.5411 -0.4400
 5714SOL    HW128601   3.649   2.744   6.007  0.1519 -0.3756 -0.9761
 5714SOL    HW228602   3.509   2.774   6.058 -1.1901 -0.7382  1.4055
 5715SOL     OW28603   3.045   2.966   4.937 -0.2181  0.8183  0.1283
 5715SOL    HW128604   2.989   2.973   4.860 -1.2866  0.1079  0.8296
 5715SOL    HW228605   2.993   2.904   4.989  0.9699 -0.5558 -0.3213
 5716SOL     OW28606   4.533   0.063   0.749 -0.1704  0.0446 -0.3444
 5716SOL    HW128607   4.451   0.037   0.706 -0.7628 -0.6828  1.2055
 5716SOL    HW228608   4.568   0.123   0.683  1.3590  1.5216  1.8292
 5717SOL     OW28609   3.933   4.428   0.761  0.6339  0.1701  0.1178
 5717SOL    HW128610   3.868   4.459   0.697  0.6754  2.9658  1.4375
 5717SOL    HW228611   3.888   4.348   0.787 -0.3067  0.5168 -0.4089
 5718SOL     OW28612   2.641   2.533   5.492 -0.1194  0.0607  0.1283
 5718SOL    HW128613   2.600   2.582   5.421  0.1996  0.2576  0.0777
 5718SOL    HW228614   2.734   2.550   5.472 -0.3705  0.3689 -0.7971
 5719SOL     OW28615   3.624   1.771   2.557 -0.0756  0.7865  0.2019
 5719SOL    HW128616   3.665   1.793   2.474  0.5254  0.9295  0.5354
 5719SOL    HW228617   3.613   1.678   2.536  0.5973  1.1063 -1.5095
 5720SOL     OW28618   0.580   1.805   7.181 -0.2766  0.2749  0.0406
 5720SOL    HW128619   0.592   1.794   7.275  0.6283  1.3411  0.0437
 5720SOL    HW228620   0.585   1.896   7.152 -3.4798  0.7904  1.1132
 5721SOL     OW28621   4.367   0.611   6.729  0.5104 -0.4170 -0.6131
 5721SOL    HW128622   4.332   0.538   6.781 -2.7958  2.2960  0.9773
 5721SOL    HW228623   4.396   0.561   6.653  1.6594  1.5486 -1.4590
 5722SOL     OW28624   2.316   3.413  12.326  0.1513 -0.0443 -0.8305
 5722SOL    HW128625   2.269   3.472  12.385  0.5032  0.1735 -0.7659
 5722SOL    HW228626   2.380   3.357  12.370  4.1239  4.1529 -1.1767
 5723SOL     OW28627   3.752   0.407   2.294  0.4211  0.0422 -0.5107
 5723SOL    HW128628   3.807   0.349   2.241 -0.1900  1.7757 -3.0481
 5723SOL    HW228629   3.666   0.373   2.269  1.1581 -1.7934 -0.4970
 5724SOL     OW28630   0.415   0.373   7.979 -0.5592  0.0621 -0.0125
 5724SOL    HW128631   0.403   0.417   7.895 -0.7123  1.2275  0.6174
 5724SOL    HW228632   0.501   0.398   8.013 -0.2574 -2.2718  0.9025
 5725SOL     OW28633   0.229   3.137   0.863  0.2981  0.0377  0.8602
 5725SOL    HW128634   0.264   3.050   0.844  0.2708 -0.1542  1.7034
 5725SOL    HW228635   0.150   3.123   0.915 -0.8267 -0.1986 -0.9175
 5726SOL     OW28636   3.080   2.333   6.783  0.0530 -0.2071 -0.4283
 5726SOL    HW128637   3.153   2.369   6.732  1.5388 -0.5548  1.4940
 5726SOL    HW228638   3.099   2.377   6.866 -1.2819 -2.5921  1.1278
 5727SOL     OW28639   1.130   4.604   6.612 -0.0052  0.1884  0.1791
 5727SOL    HW128640   1.038   4.617   6.636 -0.2347  2.3528 -1.7596
 5727SOL    HW228641   1.117   4.529   6.554 -0.9748  1.3263 -1.0945
 5728SOL     OW28642   2.135   3.523   4.551  0.6527 -0.5316 -0.0905
 5728SOL    HW128643   2.144   3.489   4.461 -1.9097  0.1834 -0.6081
 5728SOL    HW228644   2.130   3.616   4.528  0.8975 -1.1300 -2.5773
 5729SOL     OW28645   2.886   0.987   3.126  0.8014  0.3042  0.3473
 5729SOL    HW128646   2.799   0.948   3.138  1.2277 -0.8778 -0.4218
 5729SOL    HW228647   2.872   1.005   3.033  0.1479 -1.5883  0.0794
 5730SOL     OW28648   3.378   2.767   1.300 -0.1790 -0.2016  0.1088
 5730SOL    HW128649   3.293   2.785   1.261  0.1443  0.3668 -0.3276
 5730SOL    HW228650   3.408   2.850   1.337  1.5972 -0.7182 -0.1654
 5731SOL     OW28651   1.506   3.102   7.113  0.3337  0.6433 -0.3373
 5731SOL    HW128652   1.509   3.015   7.072 -1.0732  0.8337 -0.8336
 5731SOL    HW228653   1.556   3.146   7.044  0.6077 -0.9805 -1.1863
 5732SOL     OW28654   4.717   3.984  15.322  0.0414  0.2503  0.0952
 5732SOL    HW128655   4.647   3.999  15.258  0.7060 -0.8107 -0.8992
 5732SOL    HW228656   0.062   4.037  15.283 -0.0732  1.0095  0.9275
 5733SOL     OW28657   0.278   1.610   6.906 -0.5785  0.1757  0.3857
 5733SOL    HW128658   0.362   1.575   6.935 -0.4661  1.1958  1.2789
 5733SOL    HW228659   0.263   1.576   6.818 -0.4681  0.8823  0.0946
 5734SOL     OW28660   0.499   2.034   3.727  0.1368  0.4575  0.1031
 5734SOL    HW128661   0.516   2.010   3.635 -0.7473  2.4086 -0.5788
 5734SOL    HW228662   0.406   2.057   3.730  0.5738  2.1692  0.4834
 5735SOL     OW28663   0.209   1.872   3.897 -0.2428  0.1149 -0.2767
 5735SOL    HW128664   0.275   1.806   3.880  0.9330  1.0030  0.8220
 5735SOL    HW228665   0.209   1.876   3.993 -0.6765  0.8405 -0.2995
 5736SOL     OW28666   0.810   4.365   5.019 -0.0452 -0.2500 -0.2120
 5736SOL    HW128667   0.768   4.336   5.100 -2.3185 -0.8775 -1.5959
 5736SOL    HW228668   0.867   4.291   4.999 -0.7698 -0.4008 -1.6829
 5737SOL     OW28669   0.856   3.803   1.231 -0.0379 -0.2615  0.0070
 5737SOL    HW128670   0.903   3.770   1.308  1.0974 -0.2055 -0.6522
 5737SOL    HW228671   0.805   3.731   1.195 -1.6235 -0.0033  1.7717
 5738SOL     OW28672   0.629   2.974   1.285  0.2193  0.4150  0.2207
 5738SOL    HW128673   0.575   2.931   1.219  0.1851 -0.2678  0.6991
 5738SOL    HW228674   0.661   2.890   1.316  0.2251  0.0532 -0.7578
 5739SOL     OW28675   0.839   0.968  10.717  0.1450 -0.1102 -0.5136
 5739SOL    HW128676   0.766   0.912  10.740 -2.4974  3.3667 -0.4887
 5739SOL    HW228677   0.798   1.053  10.727  1.7551  1.0221 -3.4302
 5740SOL     OW28678   3.061   3.292   8.017  0.2821  0.0955 -0.0717
 5740SOL    HW128679   3.080   3.379   7.982  1.1364  0.1043  0.4311
 5740SOL    HW228680   3.134   3.241   7.982  1.2325  1.0717  0.4885
 5741SOL     OW28681   4.564   0.016   1.045  0.0770  0.6797  0.5377
 5741SOL    HW128682   4.500   4.669   1.035 -1.4939  1.9302  1.7533
 5741SOL    HW228683   4.578   0.039   0.953  0.4139 -0.4606  0.2973
 5742SOL     OW28684   3.585   0.909   7.348  0.0040  0.1150  0.7776
 5742SOL    HW128685   3.497   0.890   7.379  0.6184 -2.1906  1.0837
 5742SOL    HW228686   3.582   0.908   7.252 -0.0438 -0.9625  0.7948
 5743SOL     OW28687   0.711   0.167   8.338 -0.1231 -0.4476 -0.3498
 5743SOL    HW128688   0.690   0.097   8.276  1.4861 -1.2073 -0.0314
 5743SOL    HW228689   0.788   0.134   8.385 -0.4417 -0.5242  0.1149
 5744SOL     OW28690   2.805   4.012   0.795 -0.5847 -0.1633  0.1352
 5744SOL    HW128691   2.843   4.090   0.754 -0.5574  0.3562  1.1515
 5744SOL    HW228692   2.731   4.051   0.842 -0.2692  1.2374 -0.5085
 5745SOL     OW28693   2.437   0.800   4.719 -0.4797 -0.6029 -0.0866
 5745SOL    HW128694   2.509   0.864   4.717 -0.7742 -0.3142 -1.3694
 5745SOL    HW228695   2.405   0.794   4.629 -0.5545  0.8448 -0.1604
 5746SOL     OW28696   0.189   0.699   7.677 -0.1680 -0.0465  0.0121
 5746SOL    HW128697   0.242   0.708   7.598 -1.0944  0.1934 -0.5804
 5746SOL    HW228698   0.259   0.722   7.738  1.4988  0.4532 -2.0850
 5747SOL     OW28699   1.475   0.736   5.455 -0.1515  0.1839  0.1648
 5747SOL    HW128700   1.415   0.662   5.456  1.5613 -1.1710  2.8833
 5747SOL    HW228701   1.424   0.807   5.417  1.6196  2.2172  1.5038
 5748SOL     OW28702   3.177   1.962  14.070  0.2223 -0.1522 -0.0676
 5748SOL    HW128703   3.247   2.018  14.038 -0.4416  0.4839 -0.4015
 5748SOL    HW228704   3.206   1.950  14.161 -0.7204 -0.7544  0.1621
 5749SOL     OW28705   1.164   1.550   4.699  0.2611 -0.6101 -0.0298
 5749SOL    HW128706   1.205   1.628   4.736 -1.2815 -0.7663  2.0229
 5749SOL    HW228707   1.118   1.514   4.774 -0.3874  1.3687  0.5255
 5750SOL     OW28708   1.251   0.874   2.599 -0.4731 -0.0034  0.0705
 5750SOL    HW128709   1.331   0.921   2.620 -0.9768  0.9100 -0.0725
 5750SOL    HW228710   1.249   0.862   2.504  1.1742  1.5669 -0.1667
 5751SOL     OW28711   4.132   0.170   5.866 -0.3520 -0.1557  0.7563
 5751SOL    HW128712   4.220   0.196   5.839 -1.6152 -0.0636 -3.4185
 5751SOL    HW228713   4.126   0.185   5.960 -1.1228  0.0817  0.6750
 5752SOL     OW28714   2.566   1.666   6.981  0.0932  0.3830 -0.1914
 5752SOL    HW128715   2.560   1.573   7.000  0.6256 -0.4778 -4.1023
 5752SOL    HW228716   2.504   1.665   6.908 -1.8115  0.2206  1.4646
 5753SOL     OW28717   4.422   4.657   6.415  0.3000 -0.1841 -0.6505
 5753SOL    HW128718   4.458   0.015   6.382 -0.6725  0.7269  0.5518
 5753SOL    HW228719   4.354   4.696   6.470  0.9867  1.3713 -0.9028
 5754SOL     OW28720   3.867   0.440  15.969  0.3109  0.1535 -0.3441
 5754SOL    HW128721   3.848   0.492  16.047 -2.2427  0.6922 -1.3342
 5754SOL    HW228722   3.803   0.473  15.906  0.3318  0.1031 -0.3918
 5755SOL     OW28723   0.693   2.577   7.117 -0.1815  0.0582 -0.1227
 5755SOL    HW128724   0.721   2.663   7.151  1.1965  0.8137 -3.1949
 5755SOL    HW228725   0.674   2.607   7.028  3.0835  0.1674 -0.8096
 5756SOL     OW28726   1.336   2.488   7.788 -0.5014  0.2193 -0.2691
 5756SOL    HW128727   1.344   2.518   7.697 -1.6542  0.8030 -0.1732
 5756SOL    HW228728   1.252   2.444   7.775 -0.0866  0.1647 -2.8191
 5757SOL     OW28729   1.398   1.453   0.227 -0.3213 -0.1823 -0.3658
 5757SOL    HW128730   1.420   1.364   0.198 -0.3602 -0.2347 -0.2330
 5757SOL    HW228731   1.458   1.472   0.300  0.5665  1.7478 -1.5965
 5758SOL     OW28732   1.616   2.034  17.455  0.1536 -0.4396  0.2543
 5758SOL    HW128733   1.703   1.996  17.465  0.3029 -0.4415 -1.0695
 5758SOL    HW228734   1.633   2.086  17.377 -0.8968  1.1460  1.0827
 5759SOL     OW28735   0.249   2.938  13.307 -0.9872  0.9226  0.0555
 5759SOL    HW128736   0.184   3.007  13.325 -1.2548  1.3224 -2.5007
 5759SOL    HW228737   0.324   2.978  13.350 -0.1524  0.3871 -0.9106
 5760SOL     OW28738   2.495   0.224   3.783 -0.4354  0.0341 -0.0457
 5760SOL    HW128739   2.548   0.156   3.742 -2.5908 -0.1125 -2.5709
 5760SOL    HW228740   2.527   0.301   3.735 -2.5439  0.8257 -0.1700
 5761SOL     OW28741   3.408   4.132   5.500 -0.8122 -0.1060 -0.2160
 5761SOL    HW128742   3.416   4.120   5.594 -0.9621  1.4278 -0.0130
 5761SOL    HW228743   3.365   4.217   5.496 -0.1206  0.2231 -0.6930
 5762SOL     OW28744   1.704   2.377  17.666 -0.2747 -0.1772 -0.0398
 5762SOL    HW128745   1.697   2.472  17.662 -0.5368 -0.1317  1.2469
 5762SOL    HW228746   1.682   2.359  17.575 -2.7021 -0.7616  0.6623
 5763SOL     OW28747   1.718   0.314   5.591  0.2343  0.6345  0.3523
 5763SOL    HW128748   1.670   0.348   5.516  2.8055  0.5712 -1.3277
 5763SOL    HW228749   1.733   0.389   5.649 -0.3432  0.5996  0.5435
 5764SOL     OW28750   4.456   0.018   4.539  0.0479 -0.1319 -0.3772
 5764SOL    HW128751   4.506   0.100   4.531  0.9034 -0.7256 -1.1290
 5764SOL    HW228752   4.514   4.677   4.499 -0.7252 -1.7746  1.1899
 5765SOL     OW28753   1.115   3.176   5.223 -0.4455 -0.4120 -0.4718
 5765SOL    HW128754   1.078   3.090   5.243 -0.2847 -0.3081  0.2685
 5765SOL    HW228755   1.095   3.218   5.307 -2.3752 -1.6331 -0.3157
 5766SOL     OW28756   4.139   2.008   2.446 -0.6817 -0.4857  0.4244
 5766SOL    HW128757   4.165   1.923   2.482 -2.0458 -0.6669  1.0065
 5766SOL    HW228758   4.051   2.008   2.483  0.0844 -0.2940  2.2603
 5767SOL     OW28759   4.376   0.847  17.571 -0.0498 -0.4337 -0.1355
 5767SOL    HW128760   4.284   0.822  17.574 -0.1994 -0.0313 -1.5829
 5767SOL    HW228761   4.371   0.930  17.524  0.8959 -1.2004 -1.5600
 5768SOL     OW28762   4.521   4.689   7.278  0.5204  0.5001  0.1096
 5768SOL    HW128763   4.468   4.613   7.304  0.2305  0.2931 -1.1046
 5768SOL    HW228764   4.461   0.038   7.293 -1.3844 -1.1017  0.2818
 5769SOL     OW28765   4.198   0.847   6.540  0.4269  0.1143 -0.2986
 5769SOL    HW128766   4.282   0.807   6.516 -0.2417 -0.7168 -1.2802
 5769SOL    HW228767   4.218   0.939   6.527 -1.1778  0.2806 -1.5483
 5770SOL     OW28768   1.395   1.100   6.476 -0.2109  0.3063 -0.1873
 5770SOL    HW128769   1.314   1.115   6.428  0.3979  0.6776 -1.1109
 5770SOL    HW228770   1.363   1.087   6.565  3.2544 -2.5498  0.6503
 5771SOL     OW28771   3.987   0.347   3.675  0.0257 -0.2227  0.0703
 5771SOL    HW128772   4.005   0.442   3.673 -1.1055 -0.0173 -0.1975
 5771SOL    HW228773   4.023   0.329   3.761 -0.0175 -2.4074 -0.3758
 5772SOL     OW28774   2.965   3.822   1.234  0.5925 -0.1803  0.3859
 5772SOL    HW128775   3.004   3.846   1.150 -0.9368  0.1847 -0.2229
 5772SOL    HW228776   2.872   3.818   1.213  1.2662  0.9996 -2.7991
 5773SOL     OW28777   0.887   2.127  16.943  0.1291 -0.6135  1.1399
 5773SOL    HW128778   0.943   2.060  16.904 -0.5682 -0.4386 -0.1421
 5773SOL    HW228779   0.938   2.206  16.925  0.7879  0.0842  5.9505
 5774SOL     OW28780   2.484   3.813   7.560 -0.2906  0.1832  0.0309
 5774SOL    HW128781   2.566   3.775   7.592  0.6011  1.5055 -0.7130
 5774SOL    HW228782   2.452   3.748   7.498  0.6715 -0.7926  0.5460
 5775SOL     OW28783   2.548   3.745   3.596 -0.2576 -0.2276  0.5427
 5775SOL    HW128784   2.555   3.789   3.681 -0.4656  1.7600 -0.4736
 5775SOL    HW228785   2.459   3.766   3.569 -0.0427  0.4519  0.3619
 5776SOL     OW28786   4.452   0.052   3.989  0.0260  0.1735 -0.3579
 5776SOL    HW128787   4.514   0.003   3.935 -2.8922 -1.2560 -2.4626
 5776SOL    HW228788   4.479   0.014   4.073 -0.8327 -0.6633 -0.4460
 5777SOL     OW28789   2.602   2.564   4.781  0.4673 -0.0499  0.3386
 5777SOL    HW128790   2.678   2.507   4.795  2.5268  2.7591  0.5646
 5777SOL    HW228791   2.545   2.508   4.728  1.3491  0.4400 -1.1187
 5778SOL     OW28792   0.259   4.273  14.267  0.3749 -0.5019 -0.0048
 5778SOL    HW128793   0.271   4.226  14.184  2.4156  0.1265 -0.0807
 5778SOL    HW228794   0.166   4.255  14.273  0.1144  0.1118 -2.0749
 5779SOL     OW28795   4.321   1.845   1.554  0.0481  0.0242 -0.3872
 5779SOL    HW128796   4.341   1.803   1.471  1.2399  0.1968 -0.1951
 5779SOL    HW228797   4.276   1.776   1.602  0.0166 -0.3996 -1.0274
 5780SOL     OW28798   0.984   2.422   8.195 -0.3848 -0.0856 -0.1052
 5780SOL    HW128799   0.978   2.496   8.134 -1.4570  0.2942  0.4474
 5780SOL    HW228800   0.906   2.437   8.249 -0.7557  0.2013 -0.7166
 5781SOL     OW28801   2.078   1.255   8.132  0.4007 -0.1147 -0.2223
 5781SOL    HW128802   2.071   1.347   8.105  3.3358 -0.2137 -1.2580
 5781SOL    HW228803   1.998   1.216   8.095 -1.1575  2.3174  0.5233
 5782SOL     OW28804   4.553   1.575  15.544 -0.4457  0.1110 -0.2114
 5782SOL    HW128805   4.475   1.597  15.596  0.0516  1.8831 -0.2427
 5782SOL    HW228806   4.583   1.652  15.497 -1.7273  1.3354  0.9623
 5783SOL     OW28807   2.993   3.880   0.948  0.3781  0.1478 -0.0414
 5783SOL    HW128808   3.071   3.932   0.929 -0.6967  1.1833 -1.5895
 5783SOL    HW228809   2.920   3.928   0.909 -0.5931 -0.5416  0.9172
 5784SOL     OW28810   0.475   3.713  10.350  0.1408  0.1749 -0.6182
 5784SOL    HW128811   0.503   3.679  10.265 -0.0400  0.7390 -0.9008
 5784SOL    HW228812   0.517   3.799  10.356 -0.5494  0.5890 -1.7856
 5785SOL     OW28813   2.429   0.318   4.946  0.1612 -0.5110  1.1380
 5785SOL    HW128814   2.434   0.240   4.891  2.1693 -0.1988  0.8655
 5785SOL    HW228815   2.520   0.342   4.929  0.1002 -0.3706  1.0152
 5786SOL     OW28816   2.916   3.722   3.325  0.0432  0.1730  0.4954
 5786SOL    HW128817   3.006   3.742   3.299 -0.6505  1.9518 -0.5079
 5786SOL    HW228818   2.886   3.803   3.365 -0.8477 -0.6754  1.5679
 5787SOL     OW28819   2.713   3.555   2.668  0.2327 -0.3317 -0.4600
 5787SOL    HW128820   2.719   3.481   2.607  1.6821  1.4310 -2.4741
 5787SOL    HW228821   2.785   3.613   2.642 -0.1792 -0.3545 -1.6853
 5788SOL     OW28822   4.249   4.310   0.919  0.0687 -0.0259 -0.0632
 5788SOL    HW128823   4.254   4.356   0.836  1.0704  1.0864  0.6117
 5788SOL    HW228824   4.315   4.240   0.918 -1.8185 -1.7760 -0.7449
 5789SOL     OW28825   1.877   1.973   2.652 -0.0432 -0.4299  0.1162
 5789SOL    HW128826   1.799   1.935   2.612  0.0305 -0.7762  0.3080
 5789SOL    HW228827   1.943   1.908   2.628 -2.2236 -2.4786 -0.3757
 5790SOL     OW28828   4.519   3.225   2.027  0.3174 -0.0903 -0.7446
 5790SOL    HW128829   4.601   3.245   2.072  0.7109  0.6420 -1.7921
 5790SOL    HW228830   4.493   3.312   1.995  3.2846  1.3918  0.8624
 5791SOL     OW28831   3.687   3.622   7.906 -0.4519  0.2391  0.5118
 5791SOL    HW128832   3.672   3.714   7.885 -3.0084 -0.4287 -0.5567
 5791SOL    HW228833   3.759   3.626   7.969 -2.9520  1.0651  3.3487
 5792SOL     OW28834   3.638   2.230   5.321  0.2445  0.0351 -0.0778
 5792SOL    HW128835   3.564   2.290   5.329 -0.7613 -1.5616  2.4076
 5792SOL    HW228836   3.611   2.164   5.258  1.3424  0.7627 -1.3249
 5793SOL     OW28837   1.751   0.709   7.803 -0.1399 -0.6087 -0.0940
 5793SOL    HW128838   1.791   0.628   7.773 -2.3142 -1.8529  0.3579
 5793SOL    HW228839   1.674   0.716   7.748  0.5191  0.1323 -0.9307
 5794SOL     OW28840   1.147   1.675   8.542  0.2790 -0.6760 -0.4331
 5794SOL    HW128841   1.071   1.674   8.600  0.3889 -0.3799 -0.2834
 5794SOL    HW228842   1.109   1.699   8.458  3.8122 -0.3310 -1.8995
 5795SOL     OW28843   0.412   0.222   2.093  0.1102 -0.1357 -0.2426
 5795SOL    HW128844   0.493   0.190   2.054 -1.3599 -2.2647 -1.5727
 5795SOL    HW228845   0.346   0.168   2.049 -0.9508  2.5676 -2.0426
 5796SOL     OW28846   3.989   2.421  10.557 -0.1675  0.2908  0.0124
 5796SOL    HW128847   4.018   2.458  10.474 -0.0091 -1.0488 -0.5294
 5796SOL    HW228848   4.070   2.384  10.592  0.4436 -0.4798 -2.2167
 5797SOL     OW28849   0.387   2.823   4.382  0.1572 -0.0490 -0.3008
 5797SOL    HW128850   0.405   2.916   4.398 -2.2382 -0.0551  2.2830
 5797SOL    HW228851   0.466   2.796   4.334  0.0949  0.0852 -0.4789
 5798SOL     OW28852   3.866   1.386   6.061  0.0946 -0.5140 -0.1555
 5798SOL    HW128853   3.776   1.355   6.065  1.3890 -4.0380  1.2365
 5798SOL    HW228854   3.920   1.316   6.098 -0.3090 -0.5995  0.2667
 5799SOL     OW28855   0.429   1.501   0.169 -0.2458  0.7027 -0.3541
 5799SOL    HW128856   0.413   1.474   0.260 -0.0467 -0.3457 -0.6282
 5799SOL    HW228857   0.349   1.463   0.132  0.5988 -0.4923 -0.9642
 5800SOL     OW28858   1.731   4.097   4.436  0.5353 -0.1104 -0.5488
 5800SOL    HW128859   1.771   4.156   4.371 -0.3632  0.9733 -0.1139
 5800SOL    HW228860   1.805   4.099   4.497  0.0283  0.4346  0.0325
 5801SOL     OW28861   3.276   0.129  12.477  0.0415 -0.1033  0.4179
 5801SOL    HW128862   3.254   0.102  12.566  0.4542 -1.0630  0.2295
 5801SOL    HW228863   3.209   0.081  12.429  0.2078  0.1662 -0.0862
 5802SOL     OW28864   1.051   0.574   0.443 -0.3067  0.3189 -0.1967
 5802SOL    HW128865   1.141   0.553   0.466 -0.7894  0.0088  1.3693
 5802SOL    HW228866   1.041   0.513   0.370  1.6534  2.1001 -1.9456
 5803SOL     OW28867   2.612   3.528   1.799 -0.3835  0.1325 -0.1395
 5803SOL    HW128868   2.638   3.547   1.709  1.3970 -1.0456  0.1165
 5803SOL    HW228869   2.690   3.514   1.853 -1.3374 -1.0829  0.9249
 5804SOL     OW28870   1.266   3.822  12.987 -0.6186  0.0986  0.0970
 5804SOL    HW128871   1.265   3.732  13.020 -0.3182 -0.7310 -2.1444
 5804SOL    HW228872   1.303   3.808  12.900 -1.3720 -0.0916 -0.1935
 5805SOL     OW28873   0.861   3.632   3.276  0.4249  0.5724  0.0352
 5805SOL    HW128874   0.925   3.577   3.321 -0.6919 -0.3018  0.5843
 5805SOL    HW228875   0.894   3.603   3.191  2.1227  0.0579  0.8797
 5806SOL     OW28876   4.012   0.792   2.563  0.2947 -0.2540 -0.1444
 5806SOL    HW128877   4.095   0.785   2.611 -0.6685  0.6534  1.6577
 5806SOL    HW228878   3.976   0.718   2.611  0.9156  0.2217  1.0776
 5807SOL     OW28879   1.065   2.064   0.298  0.0200  0.1815  0.1829
 5807SOL    HW128880   1.144   2.115   0.316  1.1537 -1.5647  0.1913
 5807SOL    HW228881   1.095   1.981   0.335 -1.2198 -0.1396  0.4802
 5808SOL     OW28882   3.525   4.566   5.380  0.3648 -0.0515  0.4897
 5808SOL    HW128883   3.523   4.477   5.414  0.7176 -1.0511 -2.1213
 5808SOL    HW228884   3.438   4.594   5.411 -0.5687 -1.3300 -0.9321
 5809SOL     OW28885   3.222   2.681   8.232 -0.3033  0.2344  0.7366
 5809SOL    HW128886   3.271   2.683   8.150 -1.5051  0.8177  0.0264
 5809SOL    HW228887   3.163   2.607   8.219 -0.0847 -0.0614  1.4012
 5810SOL     OW28888   1.608   3.962   5.339  0.4110 -0.0643  0.1389
 5810SOL    HW128889   1.594   3.961   5.244 -0.5040  1.0319  0.2619
 5810SOL    HW228890   1.516   3.969   5.364 -0.0034  0.4599 -1.5058
 5811SOL     OW28891   0.688   4.382   3.206  0.6002 -0.7322 -0.1647
 5811SOL    HW128892   0.695   4.432   3.287  1.7925  0.6933 -1.1461
 5811SOL    HW228893   0.727   4.301   3.238  1.7993 -0.3165 -0.5756
 5812SOL     OW28894   1.635   3.015   5.032  0.8604 -0.2075 -0.1324
 5812SOL    HW128895   1.657   2.972   5.114 -2.8996  1.6808  1.8426
 5812SOL    HW228896   1.667   3.104   5.050  2.5915 -1.3737  2.4206
 5813SOL     OW28897   0.383   4.574  15.274 -0.1120 -0.6863  0.1626
 5813SOL    HW128898   0.393   4.653  15.220 -2.3966  0.5228  1.4695
 5813SOL    HW228899   0.313   4.610  15.329  1.3374  2.2246  0.1247
 5814SOL     OW28900   1.289   0.377   3.635 -0.7570  0.4537  0.1145
 5814SOL    HW128901   1.274   0.457   3.686  2.7718  2.0056 -1.2678
 5814SOL    HW228902   1.336   0.417   3.562 -1.9603  0.2844 -0.7503
 5815SOL     OW28903   3.222   4.396  15.871 -0.2337 -0.0217 -0.0017
 5815SOL    HW128904   3.133   4.431  15.871  0.4858  1.8144  0.9514
 5815SOL    HW228905   3.273   4.460  15.921  0.5806  1.5138 -2.7945
 5816SOL     OW28906   4.558   4.134  13.683  0.4230  0.1055 -0.2822
 5816SOL    HW128907   4.582   4.070  13.750  0.2721 -0.1570 -0.4782
 5816SOL    HW228908   4.528   4.089  13.604  1.1003 -2.0420  0.6979
 5817SOL     OW28909   1.130   0.398   5.857  0.4066 -0.3750 -0.0058
 5817SOL    HW128910   1.134   0.343   5.935  1.7928  2.5079  1.9681
 5817SOL    HW228911   1.038   0.424   5.862  1.1185  2.1114  0.1400
 5818SOL     OW28912   1.349   1.634   5.595 -0.5247  0.0604  0.5416
 5818SOL    HW128913   1.264   1.652   5.635 -0.0079  3.7951 -0.1023
 5818SOL    HW228914   1.389   1.569   5.653  1.4782  2.1257  1.4572
 5819SOL     OW28915   3.865   0.777   4.272  0.9318 -0.5181  0.6590
 5819SOL    HW128916   3.903   0.729   4.198  0.7599 -1.0593  0.9184
 5819SOL    HW228917   3.940   0.776   4.330  0.7958 -2.0550  0.8309
 5820SOL     OW28918   2.840   4.392   7.471 -0.2472 -0.0808  0.2898
 5820SOL    HW128919   2.803   4.304   7.479  0.7814 -0.7244 -1.8972
 5820SOL    HW228920   2.861   4.417   7.561  1.0571 -0.0878 -0.0120
 5821SOL     OW28921   1.339   3.148   3.871 -0.0769  0.0917 -0.6357
 5821SOL    HW128922   1.276   3.086   3.908 -1.2931  1.6409 -0.1240
 5821SOL    HW228923   1.298   3.233   3.886  1.4444  0.2682  2.5972
 5822SOL     OW28924   3.888   3.776  14.342  0.1957 -0.2262  0.2127
 5822SOL    HW128925   3.935   3.785  14.259  0.1754 -1.2805  0.0853
 5822SOL    HW228926   3.917   3.851  14.393 -0.5958 -0.5733  1.1815
 5823SOL     OW28927   0.858   0.238   2.058  0.1862 -0.2936 -0.0619
 5823SOL    HW128928   0.886   0.150   2.085  1.7726  0.7111  1.5623
 5823SOL    HW228929   0.783   0.207   2.008 -0.7634  0.9492  0.5888
 5824SOL     OW28930   1.654   2.954   5.973  0.0200 -0.0287 -0.6235
 5824SOL    HW128931   1.565   2.919   5.977 -0.6401  1.4928 -1.8763
 5824SOL    HW228932   1.691   2.900   5.903  0.0570  0.9076 -1.3353
 5825SOL     OW28933   3.174   2.139   2.465  0.0273 -0.2902 -0.2769
 5825SOL    HW128934   3.174   2.203   2.537  1.0677  0.4525 -0.9305
 5825SOL    HW228935   3.114   2.070   2.492  1.8113 -1.1141  1.6546
 5826SOL     OW28936   4.666   2.123   3.823 -0.1466 -0.3290 -0.3687
 5826SOL    HW128937   4.650   2.036   3.786  2.0619 -1.4113  1.1628
 5826SOL    HW228938   4.651   2.181   3.749 -0.4953  2.4046  1.8251
 5827SOL     OW28939   3.215   2.121   3.840 -0.2505 -1.0813  0.6311
 5827SOL    HW128940   3.260   2.190   3.791 -3.1585 -1.0816 -2.0282
 5827SOL    HW228941   3.230   2.051   3.776  0.1025 -0.0177 -0.4562
 5828SOL     OW28942   1.133   3.746   2.008  0.5426  0.3677 -0.5984
 5828SOL    HW128943   1.080   3.738   1.929  1.8654 -1.0957 -1.3447
 5828SOL    HW228944   1.215   3.706   1.980  1.0130  0.3405  0.8301
 5829SOL     OW28945   3.838   0.302  15.304  0.2632 -0.0760 -0.1394
 5829SOL    HW128946   3.839   0.264  15.216 -1.2933  4.8050 -2.2891
 5829SOL    HW228947   3.923   0.272  15.337 -0.4985 -1.4836  0.5401
 5830SOL     OW28948   3.018   1.261   5.690  0.8083 -0.1197  0.1114
 5830SOL    HW128949   2.968   1.342   5.680  1.3395 -0.1335 -2.6989
 5830SOL    HW228950   3.102   1.306   5.687  1.1960 -0.9423 -1.1281
 5831SOL     OW28951   4.512   1.707   7.670  0.0062  0.0129 -0.0678
 5831SOL    HW128952   4.416   1.715   7.665  0.0552  1.6365  1.5832
 5831SOL    HW228953   4.535   1.782   7.616 -2.0662  0.6294 -0.1107
 5832SOL     OW28954   1.934   4.285   0.776  0.2058 -0.8274 -0.6985
 5832SOL    HW128955   1.971   4.373   0.770  1.4922 -1.2923  0.4767
 5832SOL    HW228956   1.928   4.290   0.871 -0.7245 -0.6369 -0.7661
 5833SOL     OW28957   1.439   3.318   5.563 -0.4639  0.4139  0.1887
 5833SOL    HW128958   1.462   3.246   5.505  0.2228  1.2749 -0.6088
 5833SOL    HW228959   1.359   3.285   5.604 -0.6707  0.6958  0.0137
 5834SOL     OW28960   3.861   3.497  14.461 -0.4054  0.4490 -0.5330
 5834SOL    HW128961   3.889   3.580  14.499 -1.8969  0.4555  0.5506
 5834SOL    HW228962   3.868   3.504  14.366  0.7997  1.4735 -0.3600
 5835SOL     OW28963   0.088   1.737  10.689 -0.0685  0.1558  0.0758
 5835SOL    HW128964   0.037   1.693  10.756 -4.2879  1.1438 -2.4735
 5835SOL    HW228965   0.037   1.817  10.676  0.9204  0.6646 -0.6876
 5836SOL     OW28966   0.032   2.339  15.866 -0.0473 -0.1417  0.1425
 5836SOL    HW128967   0.070   2.402  15.928 -0.1988 -0.1847  0.2797
 5836SOL    HW228968   0.108   2.287  15.843  1.2571  1.8316 -0.0341
 5837SOL     OW28969   0.669   3.575  10.706  0.1923  0.2849 -0.2389
 5837SOL    HW128970   0.679   3.502  10.645 -0.2704 -0.1275  0.1850
 5837SOL    HW228971   0.760   3.602  10.718 -0.3657  1.0662  2.1735
 5838SOL     OW28972   2.067   0.536  14.452 -0.3946 -0.2620 -0.1901
 5838SOL    HW128973   2.059   0.488  14.369 -2.0415  0.1641 -0.2872
 5838SOL    HW228974   2.162   0.536  14.458 -0.3754 -1.3501 -0.4921
 5839SOL     OW28975   1.155   0.652   6.001 -0.5861 -0.0214  0.6094
 5839SOL    HW128976   1.121   0.575   5.956 -0.4074  0.2483  0.0201
 5839SOL    HW228977   1.078   0.701   6.028 -1.8893 -0.6837 -1.9730
 5840SOL     OW28978   0.384   4.209   9.598  0.1855  0.3643  0.0489
 5840SOL    HW128979   0.459   4.163   9.637 -0.9086 -3.0635 -1.9368
 5840SOL    HW228980   0.427   4.224   9.514  0.6597 -1.4890 -0.0395
 5841SOL     OW28981   1.036   0.654   7.280  0.6056  0.0109  0.4005
 5841SOL    HW128982   1.104   0.651   7.346  1.0143 -3.0500 -0.1329
 5841SOL    HW228983   1.052   0.738   7.238  2.7697 -1.0811 -0.9190
 5842SOL     OW28984   2.425   4.526   8.579 -0.3173 -0.1834  0.5713
 5842SOL    HW128985   2.366   4.456   8.608 -0.7471 -0.2328 -0.4227
 5842SOL    HW228986   2.506   4.477   8.588  0.6382  1.3627  0.4546
 5843SOL     OW28987   0.792   2.213   3.116 -0.6146  0.3032  0.1997
 5843SOL    HW128988   0.860   2.205   3.049 -1.3577  2.0726 -0.7845
 5843SOL    HW228989   0.720   2.189   3.057  0.2702 -0.6289 -0.4985
 5844SOL     OW28990   2.656   2.031   5.709  0.1440  0.1138  0.0911
 5844SOL    HW128991   2.686   1.956   5.656 -2.1664 -0.9630  0.2922
 5844SOL    HW228992   2.607   1.983   5.775  0.3229  0.4643  0.4731
 5845SOL     OW28993   3.578   3.873   4.938  0.3912 -0.0875 -0.5536
 5845SOL    HW128994   3.645   3.805   4.944 -0.1808 -0.4506  1.9313
 5845SOL    HW228995   3.598   3.927   5.015  0.9068 -0.9488 -0.0787
 5846SOL     OW28996   0.027   2.302   1.012  0.0920  0.0200 -0.9608
 5846SOL    HW128997   0.061   2.314   0.923 -0.4211 -1.1752 -1.3059
 5846SOL    HW228998   4.669   2.350   1.004 -0.4470 -0.5921  0.8857
 5847SOL     OW28999   1.034   0.619   6.972  0.0812  0.4379 -0.1939
 5847SOL    HW129000   1.032   0.583   7.061 -1.3268 -1.7533 -1.1147
 5847SOL    HW229001   0.960   0.679   6.971  2.6591  3.6008  0.7006
 5848SOL     OW29002   3.856   0.946   3.243  0.8684 -0.0937 -0.1846
 5848SOL    HW129003   3.848   0.852   3.258  0.2829 -0.2011 -1.1269
 5848SOL    HW229004   3.817   0.955   3.156  2.1508 -1.0271 -0.8586
 5849SOL     OW29005   4.624   3.935   7.345 -0.0110 -0.3080  0.7124
 5849SOL    HW129006   4.550   3.972   7.392  0.9139  0.0748  1.8681
 5849SOL    HW229007   4.602   3.842   7.339 -0.6361 -0.0852 -0.4853
 5850SOL     OW29008   1.019   2.057  11.702 -0.2445  0.4547 -0.0679
 5850SOL    HW129009   0.942   2.056  11.760 -2.1476 -0.6237 -2.6083
 5850SOL    HW229010   1.033   2.150  11.683  0.0289 -0.2284 -3.0986
 5851SOL     OW29011   1.564   4.671   5.834 -0.2773 -0.3425 -0.1727
 5851SOL    HW129012   1.475   4.636   5.828 -0.4829  0.2582 -0.6257
 5851SOL    HW229013   1.566   0.010   5.762  1.0276 -0.2357 -0.0510
 5852SOL     OW29014   4.616   0.648   2.657 -0.3612 -0.0235  0.6963
 5852SOL    HW129015   4.539   0.634   2.712 -2.1474  1.7378 -1.3742
 5852SOL    HW229016   4.619   0.743   2.643  0.0524 -0.3822 -1.6838
 5853SOL     OW29017   1.239   1.113   8.568 -0.1437 -0.3060 -0.4909
 5853SOL    HW129018   1.231   1.120   8.473  3.8963 -0.9515 -0.8776
 5853SOL    HW229019   1.272   1.198   8.597 -0.9279 -0.4030  0.6918
 5854SOL     OW29020   3.393   3.395   3.796 -0.0843 -0.4364  0.0763
 5854SOL    HW129021   3.305   3.374   3.829  0.5223 -1.1361  1.2464
 5854SOL    HW229022   3.444   3.316   3.809  0.3735 -0.0826  0.4371
 5855SOL     OW29023   2.664   4.234  14.368  0.0557  0.3271  0.9585
 5855SOL    HW129024   2.576   4.271  14.360 -0.2019 -0.5241 -0.0535
 5855SOL    HW229025   2.644   4.159  14.424 -1.8066 -0.9750 -1.4791
 5856SOL     OW29026   1.076   3.054  16.738 -0.8788  0.1907  0.3196
 5856SOL    HW129027   1.049   3.003  16.662 -1.5819  0.3285  0.4770
 5856SOL    HW229028   1.151   2.997  16.757 -1.6292 -1.3368 -1.2915
 5857SOL     OW29029   3.064   0.150  15.684 -0.0407  0.0026  0.2384
 5857SOL    HW129030   3.095   0.070  15.727  0.8595 -0.0423 -0.5013
 5857SOL    HW229031   3.136   0.207  15.710 -0.8425  1.8850 -1.6817
 5858SOL     OW29032   3.827   0.379   7.611 -0.3019 -0.1748 -0.0495
 5858SOL    HW129033   3.906   0.334   7.640  0.9222  0.6433 -2.1177
 5858SOL    HW229034   3.826   0.466   7.651 -0.5085 -0.3889  0.4025
 5859SOL     OW29035   4.462   2.206   3.152  0.3073 -0.0539 -0.2544
 5859SOL    HW129036   4.476   2.254   3.234  0.8069 -0.6197 -0.0101
 5859SOL    HW229037   4.531   2.246   3.099 -0.2555 -0.1845 -1.0738
 5860SOL     OW29038   0.442   1.404   6.645  0.3982  0.0831 -0.1866
 5860SOL    HW129039   0.380   1.362   6.586  1.3035  1.9087 -2.4357
 5860SOL    HW229040   0.463   1.337   6.710  0.6444  0.3665  0.0246
 5861SOL     OW29041   4.642   3.855   5.404  0.2642  0.0338 -0.4421
 5861SOL    HW129042   4.708   3.846   5.335  2.0550  2.8645  0.9010
 5861SOL    HW229043   4.557   3.826   5.371  0.8024  0.3032 -2.0848
 5862SOL     OW29044   4.225   4.394   8.006  0.0342 -0.1420  0.5612
 5862SOL    HW129045   4.212   4.422   8.097  0.8541 -0.6399  0.8352
 5862SOL    HW229046   4.139   4.394   7.964 -0.8414  1.6810  2.3422
 5863SOL     OW29047   1.571   3.016   4.057 -0.4822  0.6806 -0.2821
 5863SOL    HW129048   1.555   2.922   4.054  1.5864  0.3018  1.0028
 5863SOL    HW229049   1.503   3.051   4.000 -2.2228 -0.9622  0.7680
 5864SOL     OW29050   3.847   2.712   2.935 -0.4531  0.1669 -0.0299
 5864SOL    HW129051   3.843   2.650   3.007  0.6303  0.2402  0.0924
 5864SOL    HW229052   3.927   2.683   2.891 -0.3349  1.0696 -0.4217
 5865SOL     OW29053   2.806   3.157   3.610 -0.1106  0.0645 -0.4500
 5865SOL    HW129054   2.900   3.138   3.599 -0.0899 -0.6515  1.0458
 5865SOL    HW229055   2.805   3.243   3.570  0.7553 -0.1289 -0.8983
 5866SOL     OW29056   4.561   2.868  11.003 -0.1376  0.3030  0.1464
 5866SOL    HW129057   4.615   2.946  11.012 -2.0780  1.5701  0.8254
 5866SOL    HW229058   4.620   2.801  10.968 -0.3760  0.3944 -0.4388
 5867SOL     OW29059   0.267   0.983   3.663  0.0788  0.3687 -0.6765
 5867SOL    HW129060   0.234   0.954   3.578  2.4482  0.7144 -1.7082
 5867SOL    HW229061   0.272   1.079   3.656 -1.0192  0.4186 -0.8029
 5868SOL     OW29062   2.277   1.104  14.934 -0.6266 -0.1309  0.2121
 5868SOL    HW129063   2.311   1.155  14.861 -1.5486  1.1535  0.6836
 5868SOL    HW229064   2.329   1.024  14.927  0.0445  0.3249  0.0043
 5869SOL     OW29065   0.579   2.934   7.439 -0.3554 -0.1478  0.0967
 5869SOL    HW129066   0.531   2.852   7.430  1.9479 -1.2659 -1.9722
 5869SOL    HW229067   0.611   2.921   7.529 -1.6974 -0.7898  0.4727
 5870SOL     OW29068   3.678   0.021   6.788 -0.3555 -0.4079 -0.4487
 5870SOL    HW129069   3.660   0.058   6.701  0.7122 -1.4439 -1.1023
 5870SOL    HW229070   3.651   0.096   6.841 -0.9519  0.3377 -1.7748
 5871SOL     OW29071   3.840   4.385   8.201  0.4332 -0.1853  0.1392
 5871SOL    HW129072   3.858   4.398   8.295 -0.0561 -0.2259  0.2382
 5871SOL    HW229073   3.756   4.432   8.195  0.3953 -0.2257  0.3415
 5872SOL     OW29074   0.503   0.786   3.687  0.3496 -0.1456  0.2582
 5872SOL    HW129075   0.498   0.771   3.781  2.1633 -1.7883  0.0789
 5872SOL    HW229076   0.449   0.864   3.675  0.3247 -0.2185 -0.1169
 5873SOL     OW29077   2.459   1.070   2.603 -0.1133  0.1904 -0.1587
 5873SOL    HW129078   2.386   1.130   2.616  0.3499  0.7114  0.0205
 5873SOL    HW229079   2.495   1.095   2.518 -0.2416  2.6521  0.5144
 5874SOL     OW29080   3.590   0.750   9.342  0.6271 -0.2793 -1.1565
 5874SOL    HW129081   3.574   0.685   9.410  0.0596  2.4624  1.3450
 5874SOL    HW229082   3.603   0.834   9.388 -4.1711 -0.3928  0.3353
 5875SOL     OW29083   0.767   0.722  10.029  0.4863  0.0205 -0.2950
 5875SOL    HW129084   0.859   0.706  10.050  0.4913 -1.5784 -1.5981
 5875SOL    HW229085   0.730   0.636  10.048  1.0750 -0.7009 -2.4434
 5876SOL     OW29086   3.473   3.479   2.985 -0.2132  0.1239 -0.1827
 5876SOL    HW129087   3.427   3.563   2.994  0.6982  0.5968  0.0832
 5876SOL    HW229088   3.413   3.423   3.034  1.7637 -0.4359  1.6152
 5877SOL     OW29089   3.126   2.938  15.020  0.1601 -0.0524  0.0123
 5877SOL    HW129090   3.202   2.883  15.001  1.8705  2.5426 -0.6923
 5877SOL    HW229091   3.175   3.004  15.071 -1.7142  1.3072  0.0489
 5878SOL     OW29092   4.386   2.238  12.662 -0.7871 -0.4575  1.0214
 5878SOL    HW129093   4.331   2.223  12.586 -0.3973  0.1191  0.6273
 5878SOL    HW229094   4.332   2.301  12.709 -2.2009 -0.8737 -0.0601
 5879SOL     OW29095   1.937   3.839   6.925  0.1794  0.1818 -0.5841
 5879SOL    HW129096   2.020   3.791   6.928 -0.7195 -1.3182 -0.0664
 5879SOL    HW229097   1.878   3.780   6.972  3.6744 -1.0405  2.2961
 5880SOL     OW29098   1.861   4.097  17.424  0.1275  0.2124  0.2428
 5880SOL    HW129099   1.878   4.078  17.331  0.5155  0.4917  0.2571
 5880SOL    HW229100   1.777   4.142  17.418  1.8078  3.6663  2.8141
 5881SOL     OW29101   1.535   1.735   9.183 -0.4822 -0.2170 -0.3650
 5881SOL    HW129102   1.513   1.642   9.173 -1.2035 -0.1110  0.2040
 5881SOL    HW229103   1.451   1.780   9.169  0.3276  0.7681 -2.0720
 5882SOL     OW29104   4.241   2.370   4.087 -0.1581 -0.0265  0.1342
 5882SOL    HW129105   4.234   2.284   4.130 -1.9507 -1.0097 -2.1673
 5882SOL    HW229106   4.215   2.426   4.160 -1.2581  0.7214 -0.8363
 5883SOL     OW29107   1.081   0.826   3.988  0.2063  0.1456 -0.3250
 5883SOL    HW129108   1.112   0.748   3.942 -0.2745  0.8178 -1.7620
 5883SOL    HW229109   1.168   0.863   4.001  0.7509 -1.2113 -0.0368
 5884SOL     OW29110   3.914   3.868   5.874  0.4072 -0.4339 -0.1959
 5884SOL    HW129111   3.906   3.773   5.883  1.2627 -0.2722  2.4580
 5884SOL    HW229112   4.009   3.882   5.869  0.4308 -0.9125 -1.0863
 5885SOL     OW29113   4.194   4.569  17.582 -0.0885 -0.1535 -0.3661
 5885SOL    HW129114   4.258   4.635  17.555  0.5725 -1.0009 -0.8990
 5885SOL    HW229115   4.141   4.564  17.502  0.6601  0.9743 -0.9456
 5886SOL     OW29116   2.296   4.154   5.042 -0.3137 -0.3489  0.0248
 5886SOL    HW129117   2.213   4.180   5.083 -1.4600  0.1120 -2.6327
 5886SOL    HW229118   2.359   4.215   5.082 -0.2163 -0.3972 -0.0585
 5887SOL     OW29119   4.124   4.255   7.709  0.1232  0.2781 -0.0572
 5887SOL    HW129120   4.121   4.188   7.641 -1.3637 -0.0359  0.3076
 5887SOL    HW229121   4.214   4.255   7.739 -0.5077  2.2270  1.8503
 5888SOL     OW29122   1.686   3.114   8.064 -0.0781  0.1417 -0.2957
 5888SOL    HW129123   1.605   3.106   8.015 -0.9181 -0.3909  1.1711
 5888SOL    HW229124   1.706   3.023   8.085  1.3044 -0.0011 -2.2385
 5889SOL     OW29125   0.454   0.767   8.447 -0.1318 -0.0940  0.2195
 5889SOL    HW129126   0.546   0.785   8.431  0.5066 -2.8276  0.8408
 5889SOL    HW229127   0.449   0.767   8.542  1.9157 -0.6396  0.3154
 5890SOL     OW29128   3.458   1.712  12.848  0.2809  0.0102  0.0427
 5890SOL    HW129129   3.417   1.731  12.764  0.0409  3.0174  0.8693
 5890SOL    HW229130   3.514   1.788  12.858 -2.0803  1.7046  0.2830
 5891SOL     OW29131   0.119   0.042   8.951 -0.2423 -0.0368  0.4627
 5891SOL    HW129132   0.144   4.681   8.986  1.0643 -0.0124 -0.3861
 5891SOL    HW229133   0.025   0.031   8.962 -0.4980 -0.6482 -2.2351
 5892SOL     OW29134   1.126   0.687  16.018 -0.0620 -0.4721 -0.0620
 5892SOL    HW129135   1.152   0.595  16.025  1.0668 -0.3080 -2.1618
 5892SOL    HW229136   1.097   0.687  15.927  0.4691 -0.5974 -0.2299
 5893SOL     OW29137   4.066   1.994   5.676 -0.4553 -0.4416 -0.2312
 5893SOL    HW129138   3.982   2.038   5.664 -1.2310 -1.8328 -0.0006
 5893SOL    HW229139   4.107   2.017   5.593  2.4079 -0.2984  1.2249
 5894SOL     OW29140   2.410   1.751   7.761  0.5965  0.3658  0.1152
 5894SOL    HW129141   2.334   1.697   7.781 -0.8586  2.4467  0.2629
 5894SOL    HW229142   2.471   1.736   7.833  0.9227 -0.1016 -0.2646
 5895SOL     OW29143   3.214   3.199   8.301 -0.1008 -0.3003 -0.4454
 5895SOL    HW129144   3.289   3.169   8.251 -2.1876 -3.1078 -1.9153
 5895SOL    HW229145   3.191   3.269   8.239  0.3606  1.1793  1.0583
 5896SOL     OW29146   2.564   0.797  15.190  0.5661  0.2755  0.4236
 5896SOL    HW129147   2.509   0.832  15.260 -1.0037  0.0941 -0.7139
 5896SOL    HW229148   2.528   0.847  15.116 -0.5028 -0.9377  0.1179
 5897SOL     OW29149   3.353   1.749   6.397 -0.2064 -0.3570  0.2150
 5897SOL    HW129150   3.292   1.799   6.451 -2.5827 -2.6677 -0.3292
 5897SOL    HW229151   3.419   1.746   6.466  0.3727 -0.0159 -0.3273
 5898SOL     OW29152   0.914   4.323   4.041  0.3022  0.1720  0.5462
 5898SOL    HW129153   0.995   4.364   4.010 -1.7427  2.5137 -1.6178
 5898SOL    HW229154   0.899   4.371   4.122  0.1194 -0.1452  0.7019
 5899SOL     OW29155   1.349   0.951   5.122 -0.0734  0.1496 -0.6555
 5899SOL    HW129156   1.352   0.989   5.034 -4.1924 -0.4753 -1.0265
 5899SOL    HW229157   1.269   0.900   5.112  1.5279 -2.1634 -1.4616
 5900SOL     OW29158   0.282   1.787  16.146 -0.4253 -0.3007 -0.7639
 5900SOL    HW129159   0.318   1.715  16.095  3.1357  1.2223 -0.3767
 5900SOL    HW229160   0.304   1.851  16.078  2.3622  0.5395  0.9263
 5901SOL     OW29161   2.144   4.287   8.024 -0.2699  0.4073 -0.0400
 5901SOL    HW129162   2.051   4.265   8.024  0.0959 -1.1179 -0.2043
 5901SOL    HW229163   2.135   4.363   8.082 -1.1159  0.0633  0.2746
 5902SOL     OW29164   0.114   1.323   5.977 -0.0086  0.1864  0.0283
 5902SOL    HW129165   0.144   1.233   5.993 -1.7166 -0.3725  0.1113
 5902SOL    HW229166   0.169   1.347   5.903 -0.8560  2.7582  0.2270
 5903SOL     OW29167   0.812   0.363  11.757 -0.4271  0.3439 -0.1325
 5903SOL    HW129168   0.853   0.339  11.840 -1.7429  0.7455  0.6295
 5903SOL    HW229169   0.850   0.446  11.727 -0.4145  0.3770 -0.0230
 5904SOL     OW29170   2.143   2.284  17.244 -0.0343  0.4225 -0.0549
 5904SOL    HW129171   2.100   2.369  17.237  0.1122  0.5479  0.5830
 5904SOL    HW229172   2.235   2.310  17.232 -0.5030  1.2288 -1.8602
 5905SOL     OW29173   4.649   2.782   1.064 -0.4796  0.0524  0.3016
 5905SOL    HW129174   4.592   2.859   1.073  0.6291  0.7664  1.1577
 5905SOL    HW229175   0.010   2.821   1.085  0.5488 -1.6704 -0.7277
 5906SOL     OW29176   3.835   1.690   3.902 -0.5969  0.1030 -0.1639
 5906SOL    HW129177   3.885   1.752   3.955 -3.1265  2.4879 -0.5642
 5906SOL    HW229178   3.768   1.748   3.865  0.5779  1.9375  0.6164
 5907SOL     OW29179   1.151   1.812   0.402 -0.2823 -0.2475  0.1987
 5907SOL    HW129180   1.209   1.743   0.371 -0.8191 -1.8817  2.7586
 5907SOL    HW229181   1.206   1.847   0.473  0.1483 -1.4887  0.4916
 5908SOL     OW29182   0.391   0.074   3.531 -0.0384 -0.1122 -0.0280
 5908SOL    HW129183   0.404   0.019   3.454 -0.9309 -0.6567  0.2104
 5908SOL    HW229184   0.310   0.123   3.512  0.3329  0.3833 -0.3443
 5909SOL     OW29185   0.848   1.450   8.963  0.4529  0.3028 -0.2602
 5909SOL    HW129186   0.936   1.412   8.959  0.0134 -0.7770  0.2890
 5909SOL    HW229187   0.795   1.370   8.966 -1.3357  1.4566 -0.8858
 5910SOL     OW29188   4.100   0.376  15.818  0.4457  0.1289 -0.0914
 5910SOL    HW129189   4.032   0.383  15.885 -1.3200 -2.0051 -1.6620
 5910SOL    HW229190   4.086   0.287  15.785 -1.7798  0.5030 -0.1314
 5911SOL     OW29191   2.437   4.023   1.542  0.1889 -0.6155 -0.6519
 5911SOL    HW129192   2.420   4.068   1.625  0.5044 -0.4755 -0.6622
 5911SOL    HW229193   2.351   4.024   1.499 -1.5593 -0.4839  2.7837
 5912SOL     OW29194   1.015   0.686  15.779 -0.0290  0.5991  0.5679
 5912SOL    HW129195   1.076   0.735  15.724 -0.3132  0.8066  0.4399
 5912SOL    HW229196   0.988   0.627  15.709  1.2357  1.9463 -1.0733
 5913SOL     OW29197   4.649   1.681  12.131  0.0177 -0.1826  0.3651
 5913SOL    HW129198   4.655   1.663  12.037  1.7089  0.6150  0.3113
 5913SOL    HW229199   0.015   1.698  12.160  0.2400  0.6332 -0.8429
 5914SOL     OW29200   0.282   1.307   6.440 -0.1562 -0.2480  0.4585
 5914SOL    HW129201   0.190   1.325   6.419 -0.2893 -0.6671  0.6829
 5914SOL    HW229202   0.287   1.229   6.385 -1.2689  0.6464 -0.9226
 5915SOL     OW29203   0.255   1.649   7.648  0.0821  0.2101  0.2693
 5915SOL    HW129204   0.325   1.604   7.695 -0.3598 -1.6475 -0.8532
 5915SOL    HW229205   0.184   1.664   7.710  0.1098 -1.9132  0.8163
 5916SOL     OW29206   1.444   2.626   8.580 -0.7551 -0.4427 -0.4358
 5916SOL    HW129207   1.465   2.558   8.644 -0.9164 -0.0899 -0.0094
 5916SOL    HW229208   1.370   2.583   8.537  0.8683 -2.2406 -1.4305
 5917SOL     OW29209   4.045   1.228   3.818 -0.1126  0.2773 -0.0874
 5917SOL    HW129210   4.140   1.230   3.808 -0.0587  0.5338  0.4587
 5917SOL    HW229211   4.030   1.134   3.829 -0.2367  0.1192 -1.6213
 5918SOL     OW29212   1.606   2.511   6.756  0.4376 -0.0703  0.1161
 5918SOL    HW129213   1.512   2.531   6.761  0.4525 -0.4557  1.9440
 5918SOL    HW229214   1.596   2.435   6.699  2.6643  0.1695 -0.5846
 5919SOL     OW29215   1.457   3.148  15.136  0.2653 -0.2302 -0.0901
 5919SOL    HW129216   1.363   3.162  15.142  0.7467  2.0475  1.9382
 5919SOL    HW229217   1.467   3.081  15.068 -2.2185  1.4337 -2.0603
 5920SOL     OW29218   3.105   2.776   3.912  0.0315  0.0066  0.1091
 5920SOL    HW129219   3.168   2.708   3.935 -1.2060 -0.1910  2.9232
 5920SOL    HW229220   3.106   2.830   3.991  0.5187 -0.1213  0.1885
 5921SOL     OW29221   3.286   2.751   2.539  0.2296 -0.6087  0.2006
 5921SOL    HW129222   3.278   2.798   2.622  0.2303  1.7196 -1.1059
 5921SOL    HW229223   3.236   2.816   2.489 -1.1065 -0.6500  1.4792
 5922SOL     OW29224   1.511   2.149  13.769  0.1302  0.3636  0.0726
 5922SOL    HW129225   1.459   2.200  13.706  1.0853  2.1904  0.7683
 5922SOL    HW229226   1.591   2.156  13.717  1.0162  0.8146  1.4909
 5923SOL     OW29227   3.294   4.044  17.205 -0.5146 -0.4153  0.1178
 5923SOL    HW129228   3.324   4.069  17.293 -0.2023  2.3632 -0.7677
 5923SOL    HW229229   3.204   4.015  17.218 -0.7722  0.0035 -0.7401
 5924SOL     OW29230   1.399   0.504  16.367  0.0838  0.0966  0.6361
 5924SOL    HW129231   1.448   0.452  16.431  1.6247 -0.1185 -0.7319
 5924SOL    HW229232   1.441   0.589  16.372 -1.5850  1.0544 -1.9560
 5925SOL     OW29233   0.318   3.225   2.393  0.5363 -0.0495 -0.2307
 5925SOL    HW129234   0.390   3.285   2.411  0.8771 -0.8564  1.0847
 5925SOL    HW229235   0.257   3.289   2.356  0.8456  2.1811  3.0810
 5926SOL     OW29236   1.997   0.859  15.854 -0.3156  0.0872  0.1711
 5926SOL    HW129237   1.993   0.788  15.918 -0.8527  1.2802  1.4519
 5926SOL    HW229238   1.976   0.935  15.908 -1.0848 -0.0719  0.1024
 5927SOL     OW29239   4.652   2.291  13.002  0.6690 -0.1578  1.0289
 5927SOL    HW129240   4.637   2.196  12.999 -2.8092  0.5069 -2.6963
 5927SOL    HW229241   4.670   2.302  13.095 -0.8773  2.1778  1.0569
 5928SOL     OW29242   2.358   2.672   6.742 -0.2176 -0.7642 -0.6204
 5928SOL    HW129243   2.416   2.747   6.757 -1.2452  0.1440 -1.1307
 5928SOL    HW229244   2.319   2.710   6.664 -0.5951 -0.3292 -0.2248
 5929SOL     OW29245   3.106   2.933   7.536  0.4593 -0.0032  0.1435
 5929SOL    HW129246   3.167   3.005   7.524 -0.3340  0.4793 -0.9949
 5929SOL    HW229247   3.132   2.891   7.619  0.7335 -1.9089 -0.9094
 5930SOL     OW29248   4.457   1.587   6.142 -0.8949 -0.0663 -0.4651
 5930SOL    HW129249   4.471   1.508   6.089  2.2025 -1.1865  2.0423
 5930SOL    HW229250   4.445   1.562   6.234 -0.4405  2.0621  0.1548
 5931SOL     OW29251   3.880   2.451   8.390 -0.4017 -0.0385  0.1670
 5931SOL    HW129252   3.902   2.428   8.480  2.4112  0.7633 -0.3132
 5931SOL    HW229253   3.792   2.414   8.392  0.8162 -2.9640 -0.0737
 5932SOL     OW29254   4.578   4.580  10.487  0.2196  0.8785 -0.2863
 5932SOL    HW129255   4.516   4.532  10.543 -1.7930  0.0261 -3.2425
 5932SOL    HW229256   4.616   4.505  10.441  0.4536  1.5081 -1.1020
 5933SOL     OW29257   1.651   3.470   8.039  0.4197 -0.1749 -0.1878
 5933SOL    HW129258   1.683   3.434   7.957 -3.2139 -2.5218 -0.5680
 5933SOL    HW229259   1.708   3.422   8.099  2.1103  1.0528 -0.8106
 5934SOL     OW29260   3.257   4.282   5.006 -0.2900 -0.5395 -0.3273
 5934SOL    HW129261   3.223   4.205   5.051  0.8635 -1.8254 -1.6691
 5934SOL    HW229262   3.350   4.279   5.028 -0.8878 -1.9420  1.9897
 5935SOL     OW29263   1.411   3.494   1.545 -0.1001  0.0301 -0.1296
 5935SOL    HW129264   1.320   3.466   1.538 -0.6742  1.5507  1.0964
 5935SOL    HW229265   1.448   3.407   1.535  0.4670  0.2662 -0.0939
 5936SOL     OW29266   2.585   3.769  12.136 -0.5184 -0.2935 -0.0502
 5936SOL    HW129267   2.636   3.832  12.187 -0.4898 -0.1849 -0.2125
 5936SOL    HW229268   2.584   3.684  12.180  0.8043 -0.3108 -0.0542
 5937SOL     OW29269   0.373   2.129   5.719  0.1847  0.6230  0.4352
 5937SOL    HW129270   0.335   2.073   5.652  1.0123 -1.4544  1.7171
 5937SOL    HW229271   0.344   2.089   5.801 -1.7416  2.9090  0.8930
 5938SOL     OW29272   1.341   4.719  16.523  0.1922  0.4792 -0.1635
 5938SOL    HW129273   1.437   4.716  16.517  0.3808  0.9564  2.5687
 5938SOL    HW229274   1.319   4.686  16.610 -0.8886  1.7563  0.0484
 5939SOL     OW29275   1.402   3.288   6.196  0.5260  0.6673  0.0915
 5939SOL    HW129276   1.358   3.263   6.278  0.5820 -2.4143 -0.8196
 5939SOL    HW229277   1.350   3.238   6.133  2.4237 -1.1068 -0.0666
 5940SOL     OW29278   2.986   3.173   2.790  0.6346  0.1607 -0.0656
 5940SOL    HW129279   2.943   3.231   2.727  1.9750 -0.1455 -1.2606
 5940SOL    HW229280   3.071   3.217   2.782  1.2387 -1.0242 -0.0962
 5941SOL     OW29281   0.702   4.538   6.803 -0.3757 -0.3038  0.3652
 5941SOL    HW129282   0.782   4.574   6.765 -0.7602 -0.3100 -0.4401
 5941SOL    HW229283   0.726   4.480   6.875  0.5781  1.1489  1.2218
 5942SOL     OW29284   3.746   4.414   5.536 -0.0696  0.6361 -0.6108
 5942SOL    HW129285   3.702   4.410   5.621 -0.0277 -1.0259 -0.6672
 5942SOL    HW229286   3.827   4.453   5.568  0.9910 -2.8655  1.0424
 5943SOL     OW29287   4.704   2.598   0.863 -0.2537  0.1663 -0.1559
 5943SOL    HW129288   4.636   2.532   0.878  0.6051  0.0230  3.0940
 5943SOL    HW229289   4.681   2.662   0.930  0.3518 -0.7869  0.9686
 5944SOL     OW29290   4.555   2.091   5.846 -0.0652 -0.8503  0.1574
 5944SOL    HW129291   4.598   2.135   5.918 -2.2209  0.9275  0.3360
 5944SOL    HW229292   4.464   2.088   5.878 -0.0133  0.4970  0.4350
 5945SOL     OW29293   2.237   3.710  15.337  0.3048  0.0709 -0.4219
 5945SOL    HW129294   2.236   3.799  15.301  0.7814  0.7125  1.1690
 5945SOL    HW229295   2.323   3.680  15.308  0.9362  1.3892  0.0450
 5946SOL     OW29296   1.443   2.667   5.872  0.0415  0.0257  0.5687
 5946SOL    HW129297   1.488   2.668   5.957  0.2364 -1.0270  0.4778
 5946SOL    HW229298   1.355   2.666   5.910  0.2753  1.1711  1.1556
 5947SOL     OW29299   0.644   2.813  10.897  0.0529 -0.2279 -0.6175
 5947SOL    HW129300   0.701   2.741  10.924 -1.5510 -0.7588  1.3690
 5947SOL    HW229301   0.576   2.776  10.841 -0.5625  2.5848 -1.7265
 5948SOL     OW29302   0.523   4.380  10.224  0.2216 -0.3305 -0.0303
 5948SOL    HW129303   0.556   4.465  10.193 -1.0632 -0.2052 -1.0415
 5948SOL    HW229304   0.434   4.379  10.189  0.5000 -0.0953 -0.7567
 5949SOL     OW29305   2.785   4.067   2.050 -0.1754 -0.2386  0.0613
 5949SOL    HW129306   2.768   4.135   1.984  0.4156 -0.3636 -0.2128
 5949SOL    HW229307   2.691   4.055   2.060 -0.3426 -0.2905 -1.6084
 5950SOL     OW29308   1.698   2.285   6.046 -0.0357 -0.4005 -0.1757
 5950SOL    HW129309   1.726   2.330   5.967 -2.0481  1.7216  0.3398
 5950SOL    HW229310   1.625   2.233   6.012 -0.7701  2.4255 -2.7995
 5951SOL     OW29311   0.131   2.828   5.352  0.0204 -0.1032  0.5366
 5951SOL    HW129312   0.198   2.829   5.421  1.2491  2.1262 -0.6627
 5951SOL    HW229313   0.052   2.858   5.396 -0.5167  0.3108 -0.7284
 5952SOL     OW29314   3.321   0.844  14.675  0.6596  0.0230 -0.0883
 5952SOL    HW129315   3.390   0.780  14.665 -0.1985 -0.6432 -1.8051
 5952SOL    HW229316   3.338   0.878  14.763  2.4735 -0.1402 -0.3899
 5953SOL     OW29317   0.677   4.073   7.080 -0.3713  0.3467  0.6120
 5953SOL    HW129318   0.681   3.999   7.019  3.8674 -2.4741  4.2524
 5953SOL    HW229319   0.586   4.099   7.068 -0.3782  0.0707  0.0532
 5954SOL     OW29320   2.237   1.718   5.121 -0.2842  0.3719  0.0475
 5954SOL    HW129321   2.189   1.638   5.142 -0.5074  0.5428  0.1947
 5954SOL    HW229322   2.204   1.775   5.191 -0.2906  0.2122  0.1771
 5955SOL     OW29323   4.372   0.265  16.147 -0.4062  0.9291 -0.1058
 5955SOL    HW129324   4.439   0.330  16.126 -0.2873  0.4816 -1.0616
 5955SOL    HW229325   4.382   0.258  16.242 -1.4941 -0.0214 -0.0659
 5956SOL     OW29326   1.048   4.605   5.915  0.3945  0.3455  0.1387
 5956SOL    HW129327   0.965   4.652   5.915 -1.2374 -2.5503  1.1697
 5956SOL    HW229328   1.053   4.568   5.827  0.3204  1.1169 -0.1886
 5957SOL     OW29329   3.404   4.494   3.738  0.1445  0.1583 -0.0971
 5957SOL    HW129330   3.341   4.510   3.668  0.9386 -0.5116 -0.9624
 5957SOL    HW229331   3.461   4.426   3.702 -2.1434 -0.6221 -2.2206
 5958SOL     OW29332   2.224   1.357  12.493 -0.5194  0.2422 -0.0363
 5958SOL    HW129333   2.231   1.306  12.574  1.9104  0.9187  0.1931
 5958SOL    HW229334   2.299   1.416  12.505 -0.5483  0.1277  0.7237
 5959SOL     OW29335   3.864   1.373   3.711  0.0184  0.1612  0.1141
 5959SOL    HW129336   3.941   1.331   3.749 -0.0099 -0.1905 -0.2263
 5959SOL    HW229337   3.805   1.298   3.701  0.5321 -0.2244  0.0025
 5960SOL     OW29338   1.035   2.395   8.930 -0.2319  0.1112 -0.5559
 5960SOL    HW129339   1.064   2.327   8.991 -0.3163  0.8139  0.2717
 5960SOL    HW229340   0.946   2.415   8.960  0.0731 -0.6054  0.8282
 5961SOL     OW29341   2.991   3.797  11.287  0.6724  0.0502 -0.3330
 5961SOL    HW129342   2.906   3.799  11.331  0.4868 -1.2541 -0.6228
 5961SOL    HW229343   2.995   3.868  11.222 -1.9764  0.4922 -0.0352
 5962SOL     OW29344   4.164   1.132   8.954 -0.1374 -0.0338 -0.0601
 5962SOL    HW129345   4.252   1.166   8.937 -0.9155  2.5013  0.9127
 5962SOL    HW229346   4.127   1.216   8.983 -1.0050  0.0703 -1.4307
 5963SOL     OW29347   0.077   4.670   0.750 -0.5741  0.1275 -0.5152
 5963SOL    HW129348   4.711   4.690   0.777  0.6198  0.4534  3.1674
 5963SOL    HW229349   0.070   4.662   0.655  1.2844  1.7748 -0.7985
 5964SOL     OW29350   0.463   0.532   2.450 -0.7685 -0.4367 -0.8682
 5964SOL    HW129351   0.460   0.522   2.354  0.4755  0.5556 -1.0155
 5964SOL    HW229352   0.404   0.607   2.457 -1.7188 -1.2316 -0.4244
 5965SOL     OW29353   0.204   3.052  15.710 -0.0291  0.0657  0.2658
 5965SOL    HW129354   0.118   3.077  15.677 -0.3531 -0.1838  0.9162
 5965SOL    HW229355   0.197   2.957  15.702  1.5771 -0.1531  1.4466
 5966SOL     OW29356   4.571   4.201   1.567 -0.2621  0.1210  0.1302
 5966SOL    HW129357   4.538   4.216   1.478 -1.0643 -0.7224  0.2919
 5966SOL    HW229358   4.529   4.117   1.584 -1.6731  0.8850  0.4665
 5967SOL     OW29359   0.170   1.515   9.596 -0.2973 -1.1046 -0.3734
 5967SOL    HW129360   0.224   1.530   9.674  0.6786  1.5142 -1.5456
 5967SOL    HW229361   0.225   1.504   9.519 -0.9076  1.2966 -1.1584
 5968SOL     OW29362   3.084   1.894   8.124  0.1848 -0.3014  0.1269
 5968SOL    HW129363   3.031   1.973   8.117 -0.4984 -0.7127  0.5691
 5968SOL    HW229364   3.112   1.880   8.034 -1.1685  0.6709 -0.4428
 5969SOL     OW29365   0.320   4.528   7.608  0.0126  0.0942  0.0975
 5969SOL    HW129366   0.241   4.550   7.658 -1.7083 -1.0929 -2.0891
 5969SOL    HW229367   0.386   4.528   7.678 -0.6233  2.8550  0.6681
 5970SOL     OW29368   1.132   4.567   2.579  0.1139 -0.4385  0.1278
 5970SOL    HW129369   1.120   4.567   2.484  1.0255  0.8767  0.0059
 5970SOL    HW229370   1.046   4.539   2.610  0.6232  0.1814  2.0836
 5971SOL     OW29371   4.274   3.817   6.293  0.0417  0.6397  0.3899
 5971SOL    HW129372   4.291   3.723   6.282 -4.2651  0.0062 -0.6287
 5971SOL    HW229373   4.202   3.816   6.355  0.4747 -1.1475  0.8586
 5972SOL     OW29374   2.008   1.263   6.000  0.1284  0.5238 -0.8802
 5972SOL    HW129375   1.959   1.236   6.077  2.0985  0.2874  0.2904
 5972SOL    HW229376   2.022   1.188   5.942  0.5775 -0.2382  0.2176
 5973SOL     OW29377   1.911   2.520   6.635  0.1526  0.4088 -0.7229
 5973SOL    HW129378   1.880   2.506   6.545 -0.7814  0.4919 -0.4140
 5973SOL    HW229379   1.829   2.537   6.682  0.2596  0.9738 -0.7403
 5974SOL     OW29380   3.524   3.178  14.559  0.5199 -0.8759  0.1514
 5974SOL    HW129381   3.513   3.120  14.634  0.6307  0.4404  1.1807
 5974SOL    HW229382   3.617   3.199  14.565 -0.5108  3.9040 -0.5588
 5975SOL     OW29383   2.317   2.737   0.891  0.2094  0.1828  0.0191
 5975SOL    HW129384   2.261   2.659   0.893  0.4862  0.0124  1.5870
 5975SOL    HW229385   2.406   2.705   0.905 -0.4393 -0.3924  2.8589
 5976SOL     OW29386   1.575   4.542   4.480  0.3127  0.0091  0.9202
 5976SOL    HW129387   1.626   4.620   4.457 -2.9009  1.6694 -0.4777
 5976SOL    HW229388   1.521   4.538   4.401  1.7377 -0.6330 -0.0436
 5977SOL     OW29389   4.475   0.841   0.918 -0.6345 -0.1156 -0.1937
 5977SOL    HW129390   4.441   0.926   0.946  0.6602 -0.3795  2.2003
 5977SOL    HW229391   4.453   0.828   0.825  1.1712  3.3122 -1.0841
 5978SOL     OW29392   1.542   1.953   8.474 -0.7718  0.1738  0.5937
 5978SOL    HW129393   1.624   2.001   8.472 -0.5095 -0.3256 -0.3399
 5978SOL    HW229394   1.537   1.900   8.554  0.3774 -3.4332 -1.6981
 5979SOL     OW29395   1.710   0.527  10.569  0.1204  0.1778 -0.0800
 5979SOL    HW129396   1.735   0.451  10.622  1.5288 -1.1361 -2.6182
 5979SOL    HW229397   1.787   0.538  10.513  1.4176 -0.2448  1.6135
 5980SOL     OW29398   0.476   1.390  14.063  0.3269  0.0518  0.4750
 5980SOL    HW129399   0.416   1.324  14.097  1.2497 -1.8315 -1.5248
 5980SOL    HW229400   0.418   1.467  14.061 -3.1263 -2.5522  0.3475
 5981SOL     OW29401   0.188   0.725   2.925 -0.2978  0.7721 -0.7277
 5981SOL    HW129402   0.217   0.703   3.013 -1.1765 -0.3522 -0.7207
 5981SOL    HW229403   0.271   0.723   2.876 -0.8509  1.4342 -1.6956
 5982SOL     OW29404   2.566   4.109   0.909  0.3142  0.4966  0.2442
 5982SOL    HW129405   2.497   4.156   0.957 -0.4865  0.0328 -0.4421
 5982SOL    HW229406   2.560   4.151   0.824 -1.3729  2.4648  1.3556
 5983SOL     OW29407   0.829   2.811   6.782  0.4150 -0.9128  0.2309
 5983SOL    HW129408   0.764   2.748   6.812 -1.8259  1.7275  0.9194
 5983SOL    HW229409   0.780   2.843   6.706 -1.1944 -1.2303  1.1428
 5984SOL     OW29410   4.594   0.100  13.354  0.3543 -0.5694 -0.5912
 5984SOL    HW129411   4.572   0.022  13.405  0.3393 -0.5634 -0.5885
 5984SOL    HW229412   4.550   0.171  13.401 -1.8812 -3.1286  1.1796
 5985SOL     OW29413   2.553   1.990   4.836 -0.2421  0.2927  0.4521
 5985SOL    HW129414   2.494   2.003   4.761  0.6603  2.4505  0.1215
 5985SOL    HW229415   2.495   1.928   4.881 -0.4876  0.5628  0.5114
 5986SOL     OW29416   3.173   2.961   2.707 -0.1291  0.1485  0.5057
 5986SOL    HW129417   3.128   2.950   2.790  0.4433  0.1022  0.8128
 5986SOL    HW229418   3.218   3.046   2.707  0.2437 -0.0483  1.8274
 5987SOL     OW29419   0.047   3.743   8.144 -0.5583  0.2144 -0.1106
 5987SOL    HW129420   0.074   3.700   8.063 -0.1436 -0.7003  0.5142
 5987SOL    HW229421   0.039   3.828   8.102 -1.9383 -0.1048 -0.5133
 5988SOL     OW29422   2.368   4.336   2.543 -0.0384  0.4132  0.0426
 5988SOL    HW129423   2.452   4.291   2.549 -0.5403 -0.7862 -1.7819
 5988SOL    HW229424   2.338   4.304   2.457  1.3630  3.4323 -1.5707
 5989SOL     OW29425   2.380   1.566   5.677  0.5602  0.0346  0.6997
 5989SOL    HW129426   2.386   1.523   5.763 -0.9587  1.0032  1.2899
 5989SOL    HW229427   2.436   1.644   5.671  0.1832  0.3710  1.4536
 5990SOL     OW29428   4.397   4.215   1.324  0.1307 -0.0903  0.1691
 5990SOL    HW129429   4.428   4.306   1.327 -0.2786  0.0278  0.7489
 5990SOL    HW229430   4.311   4.230   1.284  0.3724  0.0190 -0.3105
 5991SOL     OW29431   0.200   1.620  11.968  0.7680 -0.6283  0.0368
 5991SOL    HW129432   0.128   1.619  11.904 -0.1571  0.3031  1.0691
 5991SOL    HW229433   0.269   1.577  11.917  2.5878  0.4024  1.6660
 5992SOL     OW29434   4.382   0.375   7.829  0.3940  0.2440 -0.5628
 5992SOL    HW129435   4.435   0.375   7.749 -0.0172 -2.1009 -0.8496
 5992SOL    HW229436   4.424   0.444   7.880  0.4746 -0.2760  0.0737
 5993SOL     OW29437   4.409   0.451   0.442  0.6599 -0.1698  0.1341
 5993SOL    HW129438   4.382   0.529   0.490 -0.7720 -0.1278 -0.7483
 5993SOL    HW229439   4.504   0.448   0.453  0.6524 -1.5055 -0.1480
 5994SOL     OW29440   0.829   3.791   0.755  0.2523 -0.0681 -0.2149
 5994SOL    HW129441   0.738   3.803   0.780  0.2134 -1.5256  0.3108
 5994SOL    HW229442   0.864   3.879   0.741 -1.0991  0.7999  1.8143
 5995SOL     OW29443   1.952   0.600  10.467  0.0385  0.4473 -0.1450
 5995SOL    HW129444   1.977   0.691  10.486 -0.8660  0.8924 -1.0797
 5995SOL    HW229445   2.003   0.553  10.533 -0.8709 -1.4547 -0.7854
 5996SOL     OW29446   3.660   1.360   2.773  0.0156 -0.8197  0.0526
 5996SOL    HW129447   3.703   1.370   2.858  0.1342 -3.1340  0.2509
 5996SOL    HW229448   3.708   1.282   2.746 -1.9311 -3.2974  3.7201
 5997SOL     OW29449   4.653   2.359  14.527  0.6119  0.3981 -0.3726
 5997SOL    HW129450   4.606   2.380  14.608 -0.3516 -1.8465 -0.3436
 5997SOL    HW229451   0.005   2.415  14.530  0.3444  0.8733 -2.6958
 5998SOL     OW29452   3.894   0.045   9.776 -0.2118 -0.0086  0.3250
 5998SOL    HW129453   3.899   0.020   9.868  2.3483 -0.0927  0.1560
 5998SOL    HW229454   3.812   0.094   9.781 -0.5887 -0.9366  3.2532
 5999SOL     OW29455   2.424   2.796  16.651 -0.0252  0.3858  0.5955
 5999SOL    HW129456   2.441   2.717  16.599  1.6888  0.3799  1.1521
 5999SOL    HW229457   2.363   2.826  16.583  0.3257  0.5679  0.3603
 6000SOL     OW29458   3.212   0.728  13.970  0.5066 -0.3020  0.0224
 6000SOL    HW129459   3.176   0.806  13.928 -0.3591 -0.9241 -0.3986
 6000SOL    HW229460   3.160   0.733  14.050  1.4015  1.9041  0.4775
 6001SOL     OW29461   3.636   0.811   5.296  0.0935 -0.2196  0.5586
 6001SOL    HW129462   3.560   0.757   5.274  0.3654 -0.5353  0.4024
 6001SOL    HW229463   3.666   0.755   5.367  3.0616 -0.9017 -1.2586
 6002SOL     OW29464   1.475   1.154  15.445  0.2726  0.6529  0.3264
 6002SOL    HW129465   1.522   1.071  15.442 -1.3736 -0.3304  1.6348
 6002SOL    HW229466   1.480   1.168  15.540  0.9991 -1.5572  0.6009
 6003SOL     OW29467   0.604   1.541   5.067  0.1732 -0.0030  0.1626
 6003SOL    HW129468   0.610   1.461   5.119  1.4864  0.0481  0.0775
 6003SOL    HW229469   0.689   1.532   5.025 -0.7576  0.8336 -1.9536
 6004SOL     OW29470   1.053   4.085   4.722  0.3522  0.4047  0.5542
 6004SOL    HW129471   1.006   4.014   4.677  0.6524  2.1224 -2.4845
 6004SOL    HW229472   1.119   4.108   4.656  0.1646 -1.2247 -0.2099
 6005SOL     OW29473   0.803   3.799   1.982  0.5528 -0.1923  0.5266
 6005SOL    HW129474   0.844   3.885   1.985 -3.5347  1.7657 -1.8925
 6005SOL    HW229475   0.841   3.762   2.062 -0.4912 -0.7168  0.7763
 6006SOL     OW29476   1.461   4.131   4.495  0.3546  0.2155 -0.1107
 6006SOL    HW129477   1.554   4.120   4.476  0.2076  1.3606 -1.5799
 6006SOL    HW229478   1.458   4.103   4.586 -2.0271  0.3677 -0.1482
 6007SOL     OW29479   3.674   1.386   8.497 -0.2077  0.7329 -0.2645
 6007SOL    HW129480   3.742   1.350   8.440  0.0921 -0.4773  0.8644
 6007SOL    HW229481   3.737   1.423   8.559 -1.8430 -0.3794  2.0684
 6008SOL     OW29482   1.129   4.316   8.675 -0.4022 -0.0429  0.1713
 6008SOL    HW129483   1.070   4.318   8.600 -0.5057 -2.4254  0.2066
 6008SOL    HW229484   1.166   4.405   8.679  0.7337 -0.5056  0.0025
 6009SOL     OW29485   4.553   2.077  14.299  0.5887  0.2116  0.0844
 6009SOL    HW129486   4.540   2.037  14.213  2.0786  0.7467 -0.3850
 6009SOL    HW229487   4.530   2.168  14.278 -0.4853 -0.0789  0.0026
 6010SOL     OW29488   1.702   2.601   2.672 -0.4729 -0.1403  0.0442
 6010SOL    HW129489   1.676   2.526   2.619  1.8759 -0.5354 -0.5501
 6010SOL    HW229490   1.654   2.671   2.627  2.5600  0.0308 -2.8910
 6011SOL     OW29491   3.352   4.300   4.646  0.2012  0.3659  0.0016
 6011SOL    HW129492   3.388   4.286   4.734 -0.4967 -1.0169  0.0627
 6011SOL    HW229493   3.434   4.310   4.596 -0.1994  1.0474 -0.5079
 6012SOL     OW29494   4.697   3.833   0.314 -0.0436 -0.4002 -0.3121
 6012SOL    HW129495   4.608   3.846   0.345 -1.0437 -1.3492 -2.7495
 6012SOL    HW229496   4.722   3.772   0.384 -0.7856  0.7636  0.9516
 6013SOL     OW29497   2.759   1.001  11.088 -0.1274  0.0249  0.1201
 6013SOL    HW129498   2.850   0.992  11.115 -0.8450  0.1737  2.5428
 6013SOL    HW229499   2.711   1.035  11.164  2.1499  1.1744  1.0228
 6014SOL     OW29500   3.197   4.724   8.480  0.0440  0.2392  0.1429
 6014SOL    HW129501   3.216   4.691   8.568 -1.3579 -1.1356 -0.0557
 6014SOL    HW229502   3.124   4.665   8.462 -0.5418  0.6580  1.1675
 6015SOL     OW29503   0.905   0.200   5.399  0.3827  0.1983  0.0265
 6015SOL    HW129504   0.947   0.154   5.472 -2.7285  0.3274  1.9125
 6015SOL    HW229505   0.964   0.265   5.363  0.5784 -0.2436 -0.4486
 6016SOL     OW29506   2.613   1.719   8.574  0.1297 -0.0742 -0.1215
 6016SOL    HW129507   2.646   1.740   8.487 -1.1493 -1.4728 -0.9473
 6016SOL    HW229508   2.662   1.643   8.605  0.2060  1.3289  3.1231
 6017SOL     OW29509   2.263   4.462  12.750 -0.1271 -0.0378  0.4048
 6017SOL    HW129510   2.230   4.373  12.758 -0.3949  0.2438  2.4536
 6017SOL    HW229511   2.223   4.495  12.830  1.1573  0.0780  0.9992
 6018SOL     OW29512   1.353   1.448   2.496 -0.5016 -0.4954 -0.4467
 6018SOL    HW129513   1.292   1.377   2.516 -1.6787 -0.3799 -3.5751
 6018SOL    HW229514   1.341   1.494   2.579  0.6348 -0.4017 -0.3305
 6019SOL     OW29515   3.622   4.212   5.382 -0.7272  0.3480  0.8817
 6019SOL    HW129516   3.543   4.174   5.421 -0.6085  1.2937  2.0709
 6019SOL    HW229517   3.666   4.261   5.452 -0.0466  0.7543  0.1619
 6020SOL     OW29518   2.824   3.612   1.543 -0.0721 -0.3329 -0.5135
 6020SOL    HW129519   2.883   3.674   1.585 -0.1234  0.9532 -2.3722
 6020SOL    HW229520   2.885   3.548   1.506  0.3924  0.5719 -1.2970
 6021SOL     OW29521   2.818   0.875   1.272 -0.4443 -0.1714  0.1504
 6021SOL    HW129522   2.785   0.832   1.351  0.9249 -0.4701  0.5710
 6021SOL    HW229523   2.743   0.854   1.217 -0.7348 -1.9009  1.2121
 6022SOL     OW29524   1.207   2.438   0.811 -0.0905 -0.7133  0.4996
 6022SOL    HW129525   1.254   2.435   0.727 -0.4328 -1.4186  0.3311
 6022SOL    HW229526   1.234   2.355   0.849  0.2315 -0.9318 -0.1995
 6023SOL     OW29527   1.708   0.574   7.368 -0.3423 -0.1227 -0.4502
 6023SOL    HW129528   1.707   0.590   7.274 -0.6385  0.0819 -0.4100
 6023SOL    HW229529   1.792   0.616   7.387 -0.5909  1.2759 -2.4684
 6024SOL     OW29530   2.571   2.970   4.744 -0.2143  0.0533 -0.1483
 6024SOL    HW129531   2.608   2.981   4.831 -1.1492 -2.4811  0.5839
 6024SOL    HW229532   2.622   2.900   4.703 -1.9914 -1.3111 -0.0458
 6025SOL     OW29533   1.691   2.145   4.409 -0.1686 -0.0282  0.0758
 6025SOL    HW129534   1.740   2.201   4.470 -2.3279 -1.5406  3.2077
 6025SOL    HW229535   1.622   2.208   4.388  0.2658  0.7083  0.8455
 6026SOL     OW29536   4.270   0.500   5.338  0.3540 -0.5084 -0.1802
 6026SOL    HW129537   4.262   0.484   5.244  0.6427 -0.4962 -0.2075
 6026SOL    HW229538   4.182   0.526   5.366  0.7857 -0.3068  0.9703
 6027SOL     OW29539   0.468   3.239  13.461  0.5886 -0.3655 -0.0972
 6027SOL    HW129540   0.382   3.210  13.492  0.2690 -0.6923 -1.2787
 6027SOL    HW229541   0.488   3.327  13.493  0.6609 -0.0206 -1.0890
 6028SOL     OW29542   1.431   1.989   6.895  0.6996  0.0461  0.3561
 6028SOL    HW129543   1.521   1.957   6.901  0.6679  0.4346  2.6964
 6028SOL    HW229544   1.432   2.066   6.952  0.4672 -1.9484  3.0373
 6029SOL     OW29545   2.559   2.587   7.525  0.3916 -0.6503  0.1423
 6029SOL    HW129546   2.554   2.495   7.551 -1.3536 -0.3795  0.7467
 6029SOL    HW229547   2.634   2.584   7.465  0.4101 -2.7777  0.2730
 6030SOL     OW29548   4.400   2.099   6.373  0.0959  0.5405  0.1911
 6030SOL    HW129549   4.375   2.077   6.284 -2.0158 -2.0928  1.4271
 6030SOL    HW229550   4.373   2.015   6.409 -0.3545  1.5381  2.2069
 6031SOL     OW29551   2.153   4.107  16.705 -0.0219 -0.2750 -0.3251
 6031SOL    HW129552   2.091   4.036  16.720  1.9014 -1.8643  0.0138
 6031SOL    HW229553   2.231   4.066  16.668  0.9886  1.7257 -0.4288
 6032SOL     OW29554   2.504   1.781   2.629 -0.1995 -0.7844 -0.1931
 6032SOL    HW129555   2.481   1.692   2.603 -1.6614 -0.3263 -0.4382
 6032SOL    HW229556   2.510   1.780   2.724  1.9690 -2.1892 -0.3348
 6033SOL     OW29557   3.634   2.210  11.392  0.3554  0.0559 -0.1518
 6033SOL    HW129558   3.707   2.205  11.453 -0.6024 -0.6580  0.9402
 6033SOL    HW229559   3.670   2.160  11.318  0.5058 -0.5834  0.3499
 6034SOL     OW29560   3.914   0.016   9.044  0.2773 -0.2112  0.5118
 6034SOL    HW129561   3.923   0.107   9.017 -0.5712 -0.8010 -1.8045
 6034SOL    HW229562   3.826   4.718   9.011  0.4337  0.8779 -0.6341
 6035SOL     OW29563   1.840   2.373   0.759  0.2610 -0.4394  0.0549
 6035SOL    HW129564   1.828   2.303   0.823 -2.1443 -0.4338 -0.3941
 6035SOL    HW229565   1.852   2.321   0.679  2.9660  2.4466 -1.4001
 6036SOL     OW29566   4.688   2.686   3.710 -0.2912  0.1874 -0.6088
 6036SOL    HW129567   0.031   2.727   3.655  1.0067 -0.5216  0.4544
 6036SOL    HW229568   4.612   2.742   3.694 -0.1187  0.5324 -0.2072
 6037SOL     OW29569   3.332   3.564   4.553 -0.0906  0.3585  0.0632
 6037SOL    HW129570   3.262   3.502   4.576 -1.4222  0.5835 -3.3305
 6037SOL    HW229571   3.346   3.600   4.640  0.4561 -2.3697  1.1178
 6038SOL     OW29572   2.089   4.516   0.770  1.0961  0.6819  0.0648
 6038SOL    HW129573   2.039   4.534   0.691  2.2661 -0.2196 -0.8830
 6038SOL    HW229574   2.152   4.588   0.778 -0.0632  1.6908  0.1378
 6039SOL     OW29575   0.201   0.134   0.883 -0.8090  0.0786 -0.2447
 6039SOL    HW129576   0.154   0.066   0.835 -0.1038 -0.6352  0.0878
 6039SOL    HW229577   0.200   0.199   0.812  0.9344 -0.1256 -0.4463
 6040SOL     OW29578   2.591   1.973  17.521 -0.1351  0.4744  0.4477
 6040SOL    HW129579   2.583   1.929  17.436  1.1379 -0.3813  0.7714
 6040SOL    HW229580   2.570   1.899  17.579 -0.0348  0.6049  0.6490
 6041SOL     OW29581   1.760   2.752   4.987 -0.1954 -0.1000  0.1236
 6041SOL    HW129582   1.733   2.835   4.950 -1.4967 -0.6985 -0.2643
 6041SOL    HW229583   1.681   2.715   5.027 -0.3951 -0.6628 -0.7876
 6042SOL     OW29584   3.393   0.301   7.800  0.1597 -0.4078  0.1136
 6042SOL    HW129585   3.464   0.310   7.864 -0.0277  0.8301  0.1484
 6042SOL    HW229586   3.449   0.280   7.726 -0.8071 -1.6960 -0.2582
 6043SOL     OW29587   1.093   1.955   8.964  0.5817 -0.0060 -0.1075
 6043SOL    HW129588   1.116   2.031   8.912 -1.7899  0.5395 -0.3089
 6043SOL    HW229589   1.050   1.991   9.042  0.0790 -2.1916  0.6325
 6044SOL     OW29590   3.905   2.913   2.737 -0.2463 -0.9624 -0.1466
 6044SOL    HW129591   3.873   2.850   2.801 -1.8291 -0.1001 -0.0708
 6044SOL    HW229592   3.884   2.875   2.652 -0.6893 -1.7763  0.3284
 6045SOL     OW29593   3.311   4.117   2.743  0.2934 -0.0964 -0.4916
 6045SOL    HW129594   3.364   4.165   2.808  1.6997 -0.3329 -1.4656
 6045SOL    HW229595   3.270   4.192   2.700 -1.1490 -0.3489  0.4545
 6046SOL     OW29596   2.476   4.564  15.350  0.2825 -0.5582  0.2805
 6046SOL    HW129597   2.548   4.626  15.336  0.9354 -1.0479  1.5453
 6046SOL    HW229598   2.509   4.496  15.409  0.1696  1.2697  2.4560
 6047SOL     OW29599   4.518   0.645  13.198  0.1394  0.1268  0.3498
 6047SOL    HW129600   4.554   0.621  13.283 -0.1528  0.1455  0.4787
 6047SOL    HW229601   4.595   0.658  13.143  1.0494  1.4861  1.9410
 6048SOL     OW29602   1.785   3.779   8.146 -0.0962 -0.2140  0.2330
 6048SOL    HW129603   1.744   3.758   8.230 -2.2533  1.2875 -0.4572
 6048SOL    HW229604   1.858   3.833   8.176 -0.9217  1.1463 -0.2068
 6049SOL     OW29605   4.365   0.556   2.733 -0.6083 -0.0788 -0.1589
 6049SOL    HW129606   4.317   0.554   2.650 -1.2098  1.3829  0.1565
 6049SOL    HW229607   4.373   0.464   2.758  0.8631  0.6718  2.1476
 6050SOL     OW29608   2.980   1.174   8.966 -0.0854 -0.3468 -0.4895
 6050SOL    HW129609   3.045   1.116   9.006 -0.7646 -0.5646  0.3092
 6050SOL    HW229610   2.905   1.155   9.022  1.5270 -0.1093  1.7679
 6051SOL     OW29611   2.723   3.041   5.203  0.1876  0.1997  0.0213
 6051SOL    HW129612   2.699   2.949   5.214  1.0556 -0.0888 -0.5004
 6051SOL    HW229613   2.795   3.051   5.265 -0.2960  1.2979  0.4010
 6052SOL     OW29614   1.426   4.072  11.607  0.0338  0.0248 -0.1544
 6052SOL    HW129615   1.505   4.024  11.631 -0.4353 -1.5952 -1.8686
 6052SOL    HW229616   1.386   4.008  11.548  1.0020 -0.0545 -0.7141
 6053SOL     OW29617   0.643   1.229   0.751 -0.6455  0.3494 -0.3540
 6053SOL    HW129618   0.612   1.255   0.837  0.3459  0.4539 -0.0297
 6053SOL    HW229619   0.689   1.148   0.772 -0.2059  0.4549 -0.8891
 6054SOL     OW29620   0.082   1.728   5.966  0.7195 -0.8128  0.5395
 6054SOL    HW129621   0.026   1.781   6.022 -1.6373  0.2318 -2.7601
 6054SOL    HW229622   0.053   1.753   5.877 -0.6301  0.3765  1.2986
 6055SOL     OW29623   3.995   3.712   7.854 -0.2438  0.5520  0.1242
 6055SOL    HW129624   4.037   3.759   7.926 -0.2596 -3.0551  2.4839
 6055SOL    HW229625   4.007   3.765   7.775  0.3717 -0.3448 -0.3901
 6056SOL     OW29626   0.072   4.218   5.861 -0.0831  0.1652  0.4948
 6056SOL    HW129627   4.719   4.274   5.873 -0.5501  0.2476 -2.8213
 6056SOL    HW229628   0.138   4.262   5.915 -1.0432  2.6915 -0.3762
 6057SOL     OW29629   4.556   2.973   2.954  0.2976  0.4616  0.3884
 6057SOL    HW129630   4.539   3.037   3.024  0.0141  0.6881  0.1169
 6057SOL    HW229631   4.623   2.923   3.000  0.5337  2.0007  1.7283
 6058SOL     OW29632   2.608   3.458  17.600  0.4034 -0.1344  0.2225
 6058SOL    HW129633   2.518   3.439  17.574  0.7919 -1.4791 -0.1313
 6058SOL    HW229634   2.603   3.411  17.684  0.1326  0.2610  0.4335
 6059SOL     OW29635   1.507   2.712  12.588  0.0710 -0.4926  0.1109
 6059SOL    HW129636   1.425   2.685  12.547 -0.7751 -0.3178  1.6987
 6059SOL    HW229637   1.521   2.793  12.539  1.2584 -0.6422  0.1955
 6060SOL     OW29638   0.348   1.717   6.289  0.0741 -0.2542  0.3855
 6060SOL    HW129639   0.294   1.643   6.261 -0.9480  0.1081  1.3630
 6060SOL    HW229640   0.434   1.677   6.280  0.9036  1.5616  0.3926
 6061SOL     OW29641   3.082   3.768   8.269 -0.2204  0.1896  0.3846
 6061SOL    HW129642   3.155   3.826   8.245 -0.0303 -0.5807 -0.8686
 6061SOL    HW229643   3.014   3.801   8.210 -0.4125 -0.0580  0.4696
 6062SOL     OW29644   1.446   4.177   8.259  0.1049 -0.0155  0.2532
 6062SOL    HW129645   1.454   4.082   8.271 -1.9826  0.0467  2.0121
 6062SOL    HW229646   1.362   4.188   8.304  0.0096 -0.8428  0.2821
 6063SOL     OW29647   0.664   1.112  11.634 -0.4076 -0.2054  0.1344
 6063SOL    HW129648   0.694   1.115  11.543  1.1342 -0.9335  0.6133
 6063SOL    HW229649   0.748   1.079  11.665 -0.7109 -1.8408 -0.7455
 6064SOL     OW29650   4.536   3.128   3.179 -0.2389  0.5313  0.2370
 6064SOL    HW129651   4.594   3.200   3.155 -0.7305  0.2483 -1.7715
 6064SOL    HW229652   4.467   3.182   3.220 -3.2611  0.3128 -4.5684
 6065SOL     OW29653   1.540   3.005  10.882 -0.0087 -0.2829 -0.6990
 6065SOL    HW129654   1.630   3.033  10.899 -0.1612 -1.0148  1.3290
 6065SOL    HW229655   1.529   2.935  10.947 -1.5825  0.1061 -0.5534
 6066SOL     OW29656   0.152   4.565   5.710 -0.0212  0.2051 -0.2759
 6066SOL    HW129657   0.233   4.585   5.662 -0.3108  0.9427 -0.4568
 6066SOL    HW229658   0.156   4.625   5.784 -2.2195  0.0633 -0.0578
 6067SOL     OW29659   2.200   4.190   1.888  0.3479 -0.6654  0.0925
 6067SOL    HW129660   2.203   4.099   1.918  0.2887 -1.1425 -1.3562
 6067SOL    HW229661   2.281   4.188   1.838  0.5226  2.3832  0.2865
 6068SOL     OW29662   1.595   0.348   7.173 -0.7161  0.4604 -0.4736
 6068SOL    HW129663   1.642   0.281   7.125  1.2307  2.4584 -1.3721
 6068SOL    HW229664   1.566   0.418   7.115 -0.6390  2.2084  1.5918
 6069SOL     OW29665   0.458   0.655   4.837  0.0985  0.0759 -0.0433
 6069SOL    HW129666   0.455   0.567   4.799  0.3454 -1.0110  2.4336
 6069SOL    HW229667   0.382   0.657   4.896 -0.0582  0.8157 -0.2696
 6070SOL     OW29668   3.648   3.437   8.626 -0.1639  0.6657  0.1650
 6070SOL    HW129669   3.735   3.407   8.649  0.2335  0.5020 -1.5797
 6070SOL    HW229670   3.608   3.376   8.564  2.4264 -2.9200  2.1047
 6071SOL     OW29671   2.201   2.998   6.833  0.0568  0.7215 -0.0148
 6071SOL    HW129672   2.178   3.090   6.845 -3.3387 -0.1372 -0.1841
 6071SOL    HW229673   2.114   2.968   6.807 -0.6793  0.5069  2.7304
 6072SOL     OW29674   2.807   3.729  17.653 -0.7640 -0.0577  0.5496
 6072SOL    HW129675   2.849   3.643  17.652 -1.4011 -0.4076  2.8027
 6072SOL    HW229676   2.715   3.712  17.676 -1.5036 -0.5288 -2.7245
 6073SOL     OW29677   1.628   4.403  17.088  0.1052 -0.2698 -1.0825
 6073SOL    HW129678   1.544   4.372  17.054 -1.0923  2.2000 -0.3411
 6073SOL    HW229679   1.684   4.343  17.039 -0.7417 -2.2008  0.3228
 6074SOL     OW29680   1.988   2.651  11.901  0.2127  0.0314  0.2310
 6074SOL    HW129681   2.026   2.563  11.893 -0.1385 -0.0301 -0.7875
 6074SOL    HW229682   1.912   2.649  11.842  0.3799 -3.2845  0.1255
 6075SOL     OW29683   2.446   4.403   4.630  0.0763 -0.3478 -0.4250
 6075SOL    HW129684   2.532   4.406   4.671  0.9515  0.0178 -2.3048
 6075SOL    HW229685   2.431   4.495   4.607 -1.7257 -0.4969  0.1319
 6076SOL     OW29686   3.321   0.256  10.769 -0.4919  0.0191  0.2632
 6076SOL    HW129687   3.349   0.264  10.860  3.3027 -0.4373 -0.8818
 6076SOL    HW229688   3.313   0.161  10.766 -0.2861  0.0004  0.3528
 6077SOL     OW29689   4.629   0.862   3.111 -0.6383  0.1592 -0.7321
 6077SOL    HW129690   4.673   0.807   3.176 -2.2205 -0.4596 -0.1914
 6077SOL    HW229691   4.641   0.804   3.035 -0.8187 -0.0730 -0.5858
 6078SOL     OW29692   2.029   2.372   8.776 -0.5216 -0.3171  0.4033
 6078SOL    HW129693   2.023   2.380   8.872 -1.7061 -1.1641  0.3901
 6078SOL    HW229694   1.986   2.452   8.745 -0.6082  0.2076  1.8365
 6079SOL     OW29695   3.847   2.785   8.592 -0.5204  0.1401 -0.1993
 6079SOL    HW129696   3.905   2.792   8.517  0.9804  0.7652  1.0107
 6079SOL    HW229697   3.764   2.780   8.545  0.2343  0.1412 -1.5238
 6080SOL     OW29698   2.021   4.011  14.133  0.2476  0.4197 -0.0815
 6080SOL    HW129699   2.103   3.986  14.090  0.0115 -0.0205 -0.2805
 6080SOL    HW229700   1.965   4.029  14.057  0.1454  0.9911  0.1285
 6081SOL     OW29701   3.677   1.826   6.338  0.7281  0.0920  0.5697
 6081SOL    HW129702   3.742   1.777   6.287  0.2718 -0.0072  0.0794
 6081SOL    HW229703   3.692   1.782   6.421 -1.1196  1.9462  1.8991
 6082SOL     OW29704   3.261   0.607  13.451 -0.3407  0.1260  0.6900
 6082SOL    HW129705   3.258   0.695  13.412  1.0962  0.0945  0.4931
 6082SOL    HW229706   3.187   0.616  13.511 -2.0201 -2.5143 -0.9890
 6083SOL     OW29707   2.757   3.568   5.827 -0.2993 -0.3016 -0.5127
 6083SOL    HW129708   2.770   3.660   5.802  0.0666 -0.8110 -2.1829
 6083SOL    HW229709   2.685   3.567   5.891  1.2190  0.4486  1.1973
 6084SOL     OW29710   3.273   4.130  16.173  0.4584  0.6779 -0.6792
 6084SOL    HW129711   3.180   4.110  16.180  0.7633 -0.9069 -1.1035
 6084SOL    HW229712   3.296   4.093  16.088  1.5222  0.1916 -0.1842
 6085SOL     OW29713   2.692   1.650  14.018 -0.2076 -0.3033  0.3201
 6085SOL    HW129714   2.767   1.598  13.989 -0.1821 -0.4868  0.7184
 6085SOL    HW229715   2.692   1.719  13.951 -0.0551 -0.9832 -0.3809
 6086SOL     OW29716   3.640   4.072   8.298 -0.0900 -0.4465 -0.0952
 6086SOL    HW129717   3.556   4.101   8.263  0.6674  2.4647  0.4575
 6086SOL    HW229718   3.615   4.059   8.390  2.4898 -1.7925  0.4157
 6087SOL     OW29719   2.939   3.471   4.807  0.7119 -0.1352 -0.1899
 6087SOL    HW129720   2.864   3.444   4.754 -0.1211  1.8851 -0.0594
 6087SOL    HW229721   2.919   3.565   4.815 -1.1380 -0.4639 -1.1493
 6088SOL     OW29722   0.039   2.666   6.101 -0.0426 -0.2416  0.0232
 6088SOL    HW129723   0.043   2.581   6.145 -0.8557  0.0703  0.6991
 6088SOL    HW229724   4.712   2.714   6.166  1.2341 -0.2043  1.0124
 6089SOL     OW29725   1.386   2.814   0.528  0.7900  0.1695  0.2958
 6089SOL    HW129726   1.362   2.801   0.620 -2.2418  0.7048 -0.4283
 6089SOL    HW229727   1.350   2.900   0.511 -3.4308 -1.7489 -0.4198
 6090SOL     OW29728   3.905   0.100   3.381  0.2138  0.4287  0.1667
 6090SOL    HW129729   3.824   0.049   3.390  0.9733 -0.8161  0.0553
 6090SOL    HW229730   3.892   0.128   3.291 -0.2862  0.3251  0.2081
 6091SOL     OW29731   0.365   1.540   9.794  0.2171 -0.0767  0.4474
 6091SOL    HW129732   0.391   1.560   9.884  1.7705  0.8072 -0.1971
 6091SOL    HW229733   0.422   1.597   9.744 -2.5951  2.3375  0.0192
 6092SOL     OW29734   3.748   3.273   5.362  0.3122  0.2040 -0.1445
 6092SOL    HW129735   3.714   3.252   5.276 -1.5750  3.1579 -0.1161
 6092SOL    HW229736   3.711   3.206   5.420 -0.4902  0.5934 -0.2016
 6093SOL     OW29737   2.174   3.650  14.268 -0.2014  0.1070  0.3739
 6093SOL    HW129738   2.120   3.702  14.328 -2.1659 -0.3683 -0.9995
 6093SOL    HW229739   2.235   3.712  14.227 -0.5445 -0.8460 -1.5717
 6094SOL     OW29740   2.366   1.397   7.714 -0.2982 -0.7013  0.5841
 6094SOL    HW129741   2.383   1.433   7.626 -0.7913  1.9673  1.5659
 6094SOL    HW229742   2.289   1.450   7.735  0.2043 -0.2057  1.2038
 6095SOL     OW29743   0.217   1.524   3.359  0.2400 -0.3856  0.2321
 6095SOL    HW129744   0.250   1.527   3.448 -1.2660  0.2834  0.7665
 6095SOL    HW229745   0.127   1.551   3.377 -0.3664 -0.7153 -2.2780
 6096SOL     OW29746   3.397   3.702  11.492 -0.8198 -0.4353  0.7098
 6096SOL    HW129747   3.445   3.660  11.421 -0.9169 -0.8238  0.8677
 6096SOL    HW229748   3.464   3.728  11.555  1.0239 -1.6132 -0.7749
 6097SOL     OW29749   4.255   3.239   5.041 -0.5183  0.3344 -0.1335
 6097SOL    HW129750   4.298   3.309   5.090  0.1875 -0.7579  0.8076
 6097SOL    HW229751   4.329   3.184   5.016 -0.6881 -1.3596  3.0029
 6098SOL     OW29752   1.236   0.108   2.729  0.3518  0.6279 -0.2634
 6098SOL    HW129753   1.163   0.107   2.667 -0.0106  0.0386  0.1758
 6098SOL    HW229754   1.308   0.078   2.674  0.5981  4.0692 -1.7897
 6099SOL     OW29755   2.495   1.387   7.039 -0.1782 -0.0755  0.1776
 6099SOL    HW129756   2.457   1.312   6.994 -0.1912 -0.1454  0.3043
 6099SOL    HW229757   2.409   1.426   7.056 -0.3064 -0.9253  1.4818
 6100SOL     OW29758   1.645   3.674   8.397  0.5605 -0.2414  0.4836
 6100SOL    HW129759   1.579   3.611   8.370  0.1394 -0.0885  1.1679
 6100SOL    HW229760   1.675   3.638   8.480 -2.3829  0.6444  1.9028
 6101SOL     OW29761   1.328   2.666   8.160 -0.4707 -0.2897 -0.6555
 6101SOL    HW129762   1.357   2.714   8.083 -1.5255 -0.2513 -1.0246
 6101SOL    HW229763   1.242   2.703   8.180  0.9862  0.7897  3.7211
 6102SOL     OW29764   0.880   2.243   4.544  0.5681 -0.1708 -0.1467
 6102SOL    HW129765   0.877   2.318   4.604 -0.9729 -1.2581  1.1383
 6102SOL    HW229766   0.808   2.257   4.483 -0.4233 -1.5644  0.7085
 6103SOL     OW29767   2.689   3.496   9.507  0.4824  0.7937 -0.0307
 6103SOL    HW129768   2.597   3.485   9.534 -0.7711  2.0449 -3.8726
 6103SOL    HW229769   2.733   3.491   9.592 -0.7890 -0.4574  0.5709
 6104SOL     OW29770   3.889   2.150   7.270 -0.1025 -0.4138  0.2576
 6104SOL    HW129771   3.859   2.238   7.292 -1.2352 -0.5109 -0.8771
 6104SOL    HW229772   3.975   2.178   7.238 -0.1965  2.0292  2.1383
 6105SOL     OW29773   4.416   2.045   2.145 -0.2862  0.2953 -0.0337
 6105SOL    HW129774   4.449   1.967   2.102 -1.2087 -1.2163  1.9774
 6105SOL    HW229775   4.388   2.008   2.228 -0.9540  1.6879  0.3689
 6106SOL     OW29776   4.349   0.562   8.068 -0.1241 -0.4764  0.6095
 6106SOL    HW129777   4.353   0.473   8.105 -1.3166  0.2842  2.6025
 6106SOL    HW229778   4.404   0.605   8.134 -1.6274  2.1321  0.1400
 6107SOL     OW29779   4.049   1.812  12.334  0.1033 -0.0478  1.1070
 6107SOL    HW129780   4.013   1.732  12.297 -0.0642  0.1903  0.7576
 6107SOL    HW229781   4.064   1.784  12.425 -1.3400 -1.6496  0.8544
 6108SOL     OW29782   3.694   1.946  17.586  0.4135 -0.3467 -0.4789
 6108SOL    HW129783   3.777   1.919  17.625  0.4928  0.3219 -0.1864
 6108SOL    HW229784   3.705   2.041  17.576  3.0025 -0.6862 -0.7178
 6109SOL     OW29785   1.444   2.847  10.380 -0.3716 -0.4737  0.6179
 6109SOL    HW129786   1.386   2.918  10.407  2.9548  2.2047  0.7388
 6109SOL    HW229787   1.380   2.782  10.350 -0.9212  0.1364  0.4749
 6110SOL     OW29788   2.264   1.250   2.538  0.3500 -0.4592 -0.5724
 6110SOL    HW129789   2.248   1.253   2.443 -0.5500  1.0994 -0.3725
 6110SOL    HW229790   2.180   1.223   2.575 -0.4527 -1.8407 -3.3672
 6111SOL     OW29791   0.032   3.669  12.475  0.3864 -0.8536  0.4866
 6111SOL    HW129792   0.035   3.763  12.492 -0.9663 -0.8510  0.6601
 6111SOL    HW229793   0.113   3.663  12.424  0.4303  2.7205  0.1634
 6112SOL     OW29794   2.890   3.359   8.736 -0.2954  0.6952 -0.4640
 6112SOL    HW129795   2.822   3.308   8.781 -0.4695  1.6414  0.3358
 6112SOL    HW229796   2.888   3.314   8.651 -1.1185  0.4086 -0.2977
 6113SOL     OW29797   4.565   4.711   8.891  0.0483 -0.6119  0.1612
 6113SOL    HW129798   4.566   4.680   8.801  2.6249 -0.8450  0.2730
 6113SOL    HW229799   4.536   4.635   8.942  0.1143  0.1228  1.3093
 6114SOL     OW29800   2.169   0.764   4.779 -0.0214  0.5816 -0.6052
 6114SOL    HW129801   2.181   0.851   4.816  0.9327  0.6768 -1.1485
 6114SOL    HW229802   2.258   0.733   4.790 -0.1853  0.4633  0.4002
 6115SOL     OW29803   1.074   0.182  13.315  0.3426  0.0565  0.6885
 6115SOL    HW129804   1.121   0.240  13.375  0.5877 -0.4315  0.9668
 6115SOL    HW229805   1.015   0.238  13.264  0.7119 -0.0773  0.1195
 6116SOL     OW29806   1.438   2.437  11.791 -0.4703 -0.7380  0.2603
 6116SOL    HW129807   1.404   2.446  11.702 -0.2855 -0.5479  0.2088
 6116SOL    HW229808   1.513   2.382  11.772  0.6381  0.7455  0.2893
 6117SOL     OW29809   0.615   4.568  14.123 -0.9598  0.0136 -0.0911
 6117SOL    HW129810   0.589   4.514  14.048 -2.0102 -0.5871  0.7113
 6117SOL    HW229811   0.617   4.498  14.188 -0.1099 -0.3479 -0.4982
 6118SOL     OW29812   1.979   4.629  16.368  0.2404 -0.4907  0.3844
 6118SOL    HW129813   2.065   4.663  16.390 -0.4573  1.6822 -0.2386
 6118SOL    HW229814   1.950   4.586  16.448 -2.0853  1.6010  0.6409
 6119SOL     OW29815   0.525   3.614   1.344  0.8116 -0.2978 -0.0313
 6119SOL    HW129816   0.560   3.610   1.255  0.1373 -1.5007 -0.2398
 6119SOL    HW229817   0.599   3.616   1.405  0.1140  0.9876  0.7618
 6120SOL     OW29818   1.653   1.578   8.415 -0.3079  0.0460  0.8749
 6120SOL    HW129819   1.654   1.499   8.361 -2.7246 -0.2229  1.2584
 6120SOL    HW229820   1.610   1.636   8.353 -0.1822 -0.0978  0.6525
 6121SOL     OW29821   1.299   2.282  17.325 -0.1167 -0.1325 -0.1043
 6121SOL    HW129822   1.208   2.285  17.296 -0.3127  0.6143  0.5856
 6121SOL    HW229823   1.294   2.215  17.392 -1.0699 -0.2349 -0.2880
 6122SOL     OW29824   0.339   1.970   4.530 -0.2445 -0.1261  0.5889
 6122SOL    HW129825   0.362   2.063   4.529 -0.9496  0.0729  2.4168
 6122SOL    HW229826   0.302   1.947   4.616 -2.1236  1.1314  0.1285
 6123SOL     OW29827   2.890   2.673   4.234 -0.1616  0.7362  0.5548
 6123SOL    HW129828   2.878   2.763   4.205  2.4084  0.1750 -2.2734
 6123SOL    HW229829   2.889   2.681   4.329  1.1133 -1.0883  0.7360
 6124SOL     OW29830   2.158   4.469   4.923 -0.4635  0.2828 -0.2356
 6124SOL    HW129831   2.148   4.561   4.949  1.9717 -0.2517  2.5460
 6124SOL    HW229832   2.229   4.433   4.977 -1.5095  0.2595  1.1003
 6125SOL     OW29833   2.403   0.641   5.217  0.4696  0.2716 -0.6442
 6125SOL    HW129834   2.448   0.717   5.179 -0.1663 -0.9488 -3.8325
 6125SOL    HW229835   2.396   0.672   5.307  2.6728  0.8507 -0.6770
 6126SOL     OW29836   1.031   1.925   6.505  0.0234 -0.1663  0.2245
 6126SOL    HW129837   0.969   1.863   6.543 -1.4096  0.6059 -0.8503
 6126SOL    HW229838   1.024   1.997   6.567 -0.7165  0.0414 -0.1009
 6127SOL     OW29839   4.016   2.700   1.272 -0.3293  0.2814 -0.0822
 6127SOL    HW129840   3.939   2.651   1.300 -0.2522 -1.0095 -2.1481
 6127SOL    HW229841   4.051   2.644   1.203 -3.5822 -0.5040 -1.0609
 6128SOL     OW29842   0.790   3.443   9.221 -0.1700 -0.2103 -0.4098
 6128SOL    HW129843   0.765   3.354   9.246  1.0843 -0.4854 -0.1548
 6128SOL    HW229844   0.860   3.465   9.283 -2.9791 -0.9893  3.0351
 6129SOL     OW29845   3.214   4.208   4.421  0.3297 -0.1524 -0.1077
 6129SOL    HW129846   3.260   4.263   4.358 -1.0858  1.6264  0.4108
 6129SOL    HW229847   3.241   4.242   4.506 -0.3235 -2.6815  1.1320
 6130SOL     OW29848   3.169   4.356   5.938 -0.0529 -0.2198 -0.3454
 6130SOL    HW129849   3.077   4.355   5.910  0.3149  3.6911 -1.7077
 6130SOL    HW229850   3.149   4.373   6.030  0.5947 -0.4523 -0.1633
 6131SOL     OW29851   4.244   3.494   6.610 -0.1814  0.1301 -0.0302
 6131SOL    HW129852   4.152   3.469   6.608 -0.2204  0.2749 -0.0653
 6131SOL    HW229853   4.248   3.511   6.704 -1.5622  1.3868 -0.1932
 6132SOL     OW29854   1.000   0.094   3.455  0.0440  0.3719 -0.1488
 6132SOL    HW129855   0.963   0.173   3.492  1.5948  1.8966 -1.8459
 6132SOL    HW229856   1.087   0.089   3.494  0.2806  0.2142 -0.6849
 6133SOL     OW29857   1.286   0.919  16.011 -0.0638 -0.1952 -0.2873
 6133SOL    HW129858   1.319   1.009  16.016 -1.3242  0.4107 -2.6042
 6133SOL    HW229859   1.192   0.937  16.010  0.0873  0.5398 -1.5465
 6134SOL     OW29860   3.814   3.160   2.822 -0.1152  0.2530 -0.1293
 6134SOL    HW129861   3.898   3.166   2.867  0.9266  1.0856 -2.1583
 6134SOL    HW229862   3.812   3.067   2.799 -0.2818  0.7522 -2.1363
 6135SOL     OW29863   0.131   0.358   8.493  0.3314  0.3009  0.3549
 6135SOL    HW129864   0.211   0.308   8.480  0.6637  0.5379  1.4840
 6135SOL    HW229865   0.161   0.415   8.565  1.3837 -0.8751  0.8347
 6136SOL     OW29866   1.571   3.437   7.287 -0.1659 -0.1885  0.1511
 6136SOL    HW129867   1.551   3.391   7.368  0.0721 -1.0557 -0.2843
 6136SOL    HW229868   1.534   3.525   7.296 -1.6380 -0.6376 -1.3973
 6137SOL     OW29869   0.981   2.878  13.049 -0.1858  0.4634 -0.3386
 6137SOL    HW129870   1.075   2.878  13.033 -0.5432 -0.0388 -2.4016
 6137SOL    HW229871   0.963   2.786  13.030 -2.2345  0.3709  2.0296
 6138SOL     OW29872   1.745   4.314   5.353  0.2394  1.0787  0.1328
 6138SOL    HW129873   1.652   4.337   5.357  0.0159 -0.4648  4.4875
 6138SOL    HW229874   1.753   4.312   5.258  1.1978 -0.3692  0.2524
 6139SOL     OW29875   2.161   1.477   7.341  0.1448  0.2500 -0.2397
 6139SOL    HW129876   2.143   1.388   7.372  0.4292  0.1344 -0.4028
 6139SOL    HW229877   2.092   1.531   7.378 -0.0420 -0.7230  0.8504
 6140SOL     OW29878   1.487   1.070   2.291  0.0712 -0.7127 -0.1693
 6140SOL    HW129879   1.520   1.108   2.210  0.4622  0.4135  0.5287
 6140SOL    HW229880   1.503   1.138   2.356  0.2027 -0.7542 -0.1576
 6141SOL     OW29881   1.669   3.846   4.501  0.1884 -0.0111  0.1177
 6141SOL    HW129882   1.746   3.797   4.470  1.6183  1.5513  1.2225
 6141SOL    HW229883   1.685   3.931   4.460  1.4684  0.4065  1.4759
 6142SOL     OW29884   3.102   4.169   0.608  0.2550  0.1360 -0.4555
 6142SOL    HW129885   3.070   4.125   0.529  2.1012  1.0534 -1.7226
 6142SOL    HW229886   3.128   4.259   0.586 -2.1097  0.5910 -1.3946
 6143SOL     OW29887   2.293   1.577  14.955 -0.1238 -0.5526  0.0982
 6143SOL    HW129888   2.198   1.569  14.946  0.0648 -0.2333 -2.1858
 6143SOL    HW229889   2.298   1.670  14.977 -3.4523 -1.0117  2.8437
 6144SOL     OW29890   2.149   2.155   0.472 -0.1802 -0.3802 -0.2435
 6144SOL    HW129891   2.157   2.226   0.408  1.7876 -2.0429 -1.8299
 6144SOL    HW229892   2.233   2.113   0.455  0.6382  1.8970 -1.8723
 6145SOL     OW29893   2.272   0.761   8.436 -0.2542  0.1464 -0.7841
 6145SOL    HW129894   2.290   0.688   8.496 -0.9540 -0.7191 -1.6246
 6145SOL    HW229895   2.298   0.714   8.357  0.7192 -1.2792  0.3829
 6146SOL     OW29896   0.311   2.955   2.380 -0.0224 -0.5354 -0.0038
 6146SOL    HW129897   0.319   3.051   2.383  0.7686 -0.6067  0.1421
 6146SOL    HW229898   0.395   2.933   2.421 -0.3426  0.0053  0.9484
 6147SOL     OW29899   2.086   4.297  16.526  0.3921 -0.7376  0.1588
 6147SOL    HW129900   2.104   4.260  16.440 -1.0589  0.0783 -0.4974
 6147SOL    HW229901   2.108   4.227  16.588 -2.1711  0.3155  2.2971
 6148SOL     OW29902   0.766   4.179  10.624 -0.3128  0.0249  0.0919
 6148SOL    HW129903   0.833   4.247  10.616 -2.3490  2.0628  0.5133
 6148SOL    HW229904   0.744   4.170  10.531 -0.7267 -2.3389  0.4166
 6149SOL     OW29905   1.740   4.236   5.992 -0.2205 -0.2399  0.5161
 6149SOL    HW129906   1.774   4.168   5.934 -0.6392  0.7488 -0.8762
 6149SOL    HW229907   1.665   4.254   5.935 -0.1805  0.7595  0.7725
 6150SOL     OW29908   4.718   2.832   8.244  0.7421 -0.2896 -0.9170
 6150SOL    HW129909   4.719   2.757   8.303  0.9988 -1.6776 -2.6571
 6150SOL    HW229910   0.071   2.800   8.196  0.6608 -1.4938 -0.2412
 6151SOL     OW29911   0.946   4.132   5.463  0.3960 -0.3487 -0.3130
 6151SOL    HW129912   0.901   4.056   5.427  0.8495 -1.8362  2.3028
 6151SOL    HW229913   0.994   4.158   5.384 -1.7310  2.3485 -0.7241
 6152SOL     OW29914   4.060   0.578   7.907  0.4196  0.0850  0.0965
 6152SOL    HW129915   4.101   0.611   7.987  1.9132  1.3634 -1.1910
 6152SOL    HW229916   4.121   0.507   7.887  1.4390  0.2750  2.4841
 6153SOL     OW29917   3.998   1.558   3.555 -0.2274  0.0524 -0.2765
 6153SOL    HW129918   3.955   1.489   3.604 -1.4962  0.4127 -0.8844
 6153SOL    HW229919   4.087   1.546   3.589  0.1692  3.0909 -0.1897
 6154SOL     OW29920   3.647   1.858  17.324 -0.1615 -0.2538  0.1854
 6154SOL    HW129921   3.577   1.924  17.327  1.6895  1.6814  1.1757
 6154SOL    HW229922   3.684   1.878  17.410 -1.8468  3.1293  0.1493
 6155SOL     OW29923   1.301   4.044  12.476 -0.1990 -0.0889 -0.1004
 6155SOL    HW129924   1.315   4.138  12.481  1.9505 -0.4558  0.5673
 6155SOL    HW229925   1.243   4.041  12.400  0.5962  1.4753 -0.7592
 6156SOL     OW29926   2.234   3.841   3.830 -0.2258 -0.5067 -0.2778
 6156SOL    HW129927   2.220   3.771   3.767  1.0567 -0.6999 -0.3378
 6156SOL    HW229928   2.197   3.914   3.779 -1.5203 -1.5846 -0.8969
 6157SOL     OW29929   2.274   2.743   9.593 -0.3295 -0.4312 -0.3999
 6157SOL    HW129930   2.354   2.708   9.631 -1.4808  0.4916  2.9401
 6157SOL    HW229931   2.226   2.667   9.559 -0.4727  0.3415 -1.9428
 6158SOL     OW29932   3.705   1.305  15.239 -0.3341 -0.6343  0.5152
 6158SOL    HW129933   3.668   1.375  15.186  0.3378  0.4316  1.4358
 6158SOL    HW229934   3.744   1.343  15.318  0.5958 -0.5500  0.0041
 6159SOL     OW29935   0.740   3.065   0.294 -0.0033  0.2496 -0.3064
 6159SOL    HW129936   0.723   2.987   0.240 -0.2037  0.4365 -0.5091
 6159SOL    HW229937   0.819   3.028   0.334 -0.3877  0.3221  0.5213
 6160SOL     OW29938   2.422   0.341   6.185 -0.2640  0.2777  0.4199
 6160SOL    HW129939   2.485   0.280   6.223 -1.5033 -1.3558 -0.1176
 6160SOL    HW229940   2.459   0.374   6.103  0.9079 -3.2553 -0.4940
 6161SOL     OW29941   4.117   3.621  13.177 -0.4990 -0.6495  0.3486
 6161SOL    HW129942   4.073   3.703  13.195  0.4463  0.0696 -0.6201
 6161SOL    HW229943   4.071   3.585  13.101  1.4023 -1.4565 -0.4363
 6162SOL     OW29944   4.695   1.880  12.727 -0.0891 -0.0813 -0.0824
 6162SOL    HW129945   4.619   1.860  12.673 -0.9848  2.7255  0.1005
 6162SOL    HW229946   0.047   1.834  12.693 -0.0475 -0.6280  0.7682
 6163SOL     OW29947   4.046   4.416   6.959 -0.0320 -1.0951  0.1538
 6163SOL    HW129948   4.070   4.491   7.013  0.2575 -1.9235  1.1813
 6163SOL    HW229949   3.976   4.379   7.013  0.1106 -0.2577  0.9026
 6164SOL     OW29950   0.602   4.297   4.330 -0.3402  0.2141 -0.0926
 6164SOL    HW129951   0.587   4.218   4.278 -0.3122 -0.3554  0.7619
 6164SOL    HW229952   0.644   4.358   4.269 -0.0241  1.4149  1.3363
 6165SOL     OW29953   0.827   0.510   1.512  0.6484  0.1358 -0.1339
 6165SOL    HW129954   0.741   0.497   1.552  0.3976 -1.3180 -1.1406
 6165SOL    HW229955   0.819   0.606   1.513 -0.5177  0.0731 -2.3902
 6166SOL     OW29956   2.815   3.718   4.814 -0.3501 -0.3781  0.0637
 6166SOL    HW129957   2.837   3.805   4.780  2.8922 -0.7157  1.3527
 6166SOL    HW229958   2.719   3.721   4.808 -0.3437  0.8216  0.4243
 6167SOL     OW29959   1.603   2.069  14.032 -0.0364  0.0092 -0.0073
 6167SOL    HW129960   1.581   2.095  13.943 -0.4750 -2.6053 -0.6418
 6167SOL    HW229961   1.669   2.003  14.010 -0.5741 -0.2783 -0.7500
 6168SOL     OW29962   1.722   1.522   6.266 -0.5118  0.7443  0.2061
 6168SOL    HW129963   1.667   1.590   6.226  0.1446  0.3833 -1.3130
 6168SOL    HW229964   1.801   1.525   6.213  0.3164 -0.2994  1.3895
 6169SOL     OW29965   2.723   2.176  13.538  0.8898 -0.4262 -0.0581
 6169SOL    HW129966   2.746   2.256  13.491  1.4185 -0.8975 -0.6006
 6169SOL    HW229967   2.718   2.115  13.465 -0.9258 -0.6844  0.2779
 6170SOL     OW29968   3.731   1.807   6.614  0.4870 -0.4826 -0.0356
 6170SOL    HW129969   3.792   1.734   6.604  1.4796  0.0930  1.8075
 6170SOL    HW229970   3.780   1.860   6.677 -1.0818 -0.1859  0.9529
 6171SOL     OW29971   2.152   2.033   6.743  0.1589  0.2175 -0.1222
 6171SOL    HW129972   2.119   2.114   6.703 -1.8943 -0.9188 -0.7280
 6171SOL    HW229973   2.157   2.068   6.832  1.2864  1.0066 -0.4897
 6172SOL     OW29974   1.292   2.190   8.875  0.5707  0.2837  0.4949
 6172SOL    HW129975   1.295   2.264   8.936 -0.6825 -0.8698  1.9750
 6172SOL    HW229976   1.282   2.238   8.793  3.0849 -1.1461 -0.6603
 6173SOL     OW29977   1.648   1.404   2.090  0.0331 -0.5226  0.0935
 6173SOL    HW129978   1.566   1.433   2.131  0.8327  1.1485  0.5297
 6173SOL    HW229979   1.677   1.483   2.044 -0.4363 -0.5453 -0.2377
 6174SOL     OW29980   1.289   4.491   8.233 -0.1103 -0.9685  0.1662
 6174SOL    HW129981   1.378   4.460   8.218 -0.0676 -0.6932 -0.1637
 6174SOL    HW229982   1.273   4.534   8.148  2.6931  1.3649  0.8095
 6175SOL     OW29983   1.096   3.605   1.032  0.1185  0.2513 -0.8438
 6175SOL    HW129984   1.142   3.581   1.113  0.2248 -1.4038 -1.3954
 6175SOL    HW229985   1.109   3.699   1.037  0.3899  0.0521  2.1360
 6176SOL     OW29986   1.339   4.293   6.950 -0.2592  0.1558  0.2087
 6176SOL    HW129987   1.302   4.230   6.888  0.1030 -0.8498  1.0067
 6176SOL    HW229988   1.346   4.236   7.026  2.3867  0.1471 -0.0439
 6177SOL     OW29989   1.365   4.515   7.963 -0.7018 -0.0634  0.0718
 6177SOL    HW129990   1.334   4.555   7.882 -1.4209 -0.4645  0.1436
 6177SOL    HW229991   1.456   4.544   7.959 -0.5646 -0.7756 -1.8731
 6178SOL     OW29992   1.285   1.091  11.054  0.4242 -0.8574  0.4019
 6178SOL    HW129993   1.326   1.056  10.975 -1.1375 -0.8746 -0.3986
 6178SOL    HW229994   1.193   1.097  11.027  0.4892 -0.4022  0.2773
 6179SOL     OW29995   3.426   2.354   5.638 -0.1199 -0.4659 -0.4129
 6179SOL    HW129996   3.457   2.408   5.565 -0.0806  0.0272 -0.0305
 6179SOL    HW229997   3.377   2.416   5.692  1.8914  0.7711 -0.0327
 6180SOL     OW29998   2.969   4.057  16.151 -0.0119 -0.1717 -0.3422
 6180SOL    HW129999   2.898   4.002  16.183  0.1463  0.6450  1.3796
 6180SOL    HW230000   2.942   4.134  16.202 -0.4082 -1.2195  1.0107
 6181SOL     OW30001   2.547   1.249  10.997  0.4143 -0.1600  0.5753
 6181SOL    HW130002   2.457   1.273  11.016  0.5490  1.1287 -0.4827
 6181SOL    HW230003   2.544   1.153  11.000  1.7702 -0.1648  1.8930
 6182SOL     OW30004   1.922   1.799   2.367  0.0713 -0.1012 -0.2846
 6182SOL    HW130005   1.946   1.755   2.448  0.0320  1.7807  0.7350
 6182SOL    HW230006   1.969   1.743   2.304  1.7367 -0.1131  0.9539
 6183SOL     OW30007   2.394   3.586  15.979 -0.1117 -0.0295 -0.1531
 6183SOL    HW130008   2.408   3.494  15.959 -1.2118 -0.3789  0.6642
 6183SOL    HW230009   2.300   3.595  15.962 -0.0663 -0.5049 -0.6488
 6184SOL     OW30010   2.376   1.673   9.662  0.1449 -0.2266  0.1417
 6184SOL    HW130011   2.333   1.684   9.577  0.4064 -1.4591 -0.1506
 6184SOL    HW230012   2.320   1.732   9.713 -1.2975 -1.3477 -0.1559
 6185SOL     OW30013   2.844   2.705  12.789 -0.0027  0.4898  0.3587
 6185SOL    HW130014   2.782   2.770  12.822 -0.5400  0.1133  0.0899
 6185SOL    HW230015   2.917   2.712  12.851 -1.1203  2.3248  1.4542
 6186SOL     OW30016   1.722   3.624  10.002  0.2014  0.0274 -0.2088
 6186SOL    HW130017   1.628   3.638  10.008  0.1996 -0.9181  1.9833
 6186SOL    HW230018   1.719   3.547   9.943  2.0038  1.4225 -2.1369
 6187SOL     OW30019   0.726   3.852   5.476 -0.0658  0.2001 -0.3728
 6187SOL    HW130020   0.700   3.915   5.409  0.5429  1.8955  1.0045
 6187SOL    HW230021   0.740   3.910   5.551  0.9635 -2.1638  1.2718
 6188SOL     OW30022   0.953   4.010  15.416  0.0299  0.6267  0.3180
 6188SOL    HW130023   0.897   3.997  15.492 -1.2392  0.4364 -0.6661
 6188SOL    HW230024   0.994   4.092  15.444 -0.3987  0.8092  0.4098
 6189SOL     OW30025   2.676   2.953   0.848  0.2965  0.8150 -0.2673
 6189SOL    HW130026   2.607   2.923   0.789  1.7594  1.0526 -2.1020
 6189SOL    HW230027   2.749   2.908   0.804  0.4183 -0.4326  1.2180
 6190SOL     OW30028   3.570   3.522  11.364  0.3673 -0.1651 -0.2656
 6190SOL    HW130029   3.605   3.492  11.280 -3.8381 -3.2736 -0.9326
 6190SOL    HW230030   3.640   3.486  11.418 -0.8030 -1.6241  0.2931
 6191SOL     OW30031   0.085   0.423  12.762  0.1759 -0.2739 -0.4573
 6191SOL    HW130032   0.098   0.513  12.733  1.3750 -0.5096 -0.6460
 6191SOL    HW230033   4.723   0.441  12.800 -0.1333 -0.9848 -0.8228
 6192SOL     OW30034   4.637   0.254   4.177  0.5204  0.0367 -0.2107
 6192SOL    HW130035   4.569   0.310   4.139 -1.5181 -1.9414  0.5605
 6192SOL    HW230036   4.705   0.322   4.176 -0.6274  1.1642 -2.7244
 6193SOL     OW30037   0.394   4.350   3.136 -0.1966  0.1268 -0.3836
 6193SOL    HW130038   0.487   4.344   3.161 -0.6789 -2.6428  0.7235
 6193SOL    HW230039   0.357   4.279   3.187 -2.4656  0.1821 -1.9543
 6194SOL     OW30040   3.558   2.808  16.316  0.1556  0.0899 -0.3942
 6194SOL    HW130041   3.646   2.838  16.339  0.9285 -1.1318 -1.7759
 6194SOL    HW230042   3.505   2.853  16.382 -0.2137 -0.8251 -0.0593
 6195SOL     OW30043   4.346   2.631  15.956  0.4645 -0.2452 -0.2875
 6195SOL    HW130044   4.370   2.670  15.872 -0.3998  2.0882  0.5272
 6195SOL    HW230045   4.397   2.551  15.946  1.1221  0.2549 -0.9371
 6196SOL     OW30046   3.332   3.885   8.503 -0.1955  0.1680 -0.5876
 6196SOL    HW130047   3.425   3.866   8.495  0.1194  1.1922  0.6016
 6196SOL    HW230048   3.314   3.856   8.593  1.4817 -0.6676 -0.5278
 6197SOL     OW30049   0.651   2.725   1.353  0.5201  0.3094  0.0167
 6197SOL    HW130050   0.570   2.680   1.329  0.0956  0.1305  1.7855
 6197SOL    HW230051   0.666   2.683   1.438 -0.3110 -0.3253 -0.1461
 6198SOL     OW30052   1.114   0.620   3.057  0.1918  0.1005  0.4316
 6198SOL    HW130053   1.021   0.637   3.070  0.3844  0.0468  1.8270
 6198SOL    HW230054   1.112   0.530   3.025  0.9758  0.5430 -0.8454
 6199SOL     OW30055   2.164   0.895  16.650 -0.4805 -0.2951  0.0752
 6199SOL    HW130056   2.232   0.923  16.711  0.7325 -0.0860 -1.3775
 6199SOL    HW230057   2.184   0.952  16.576  1.5604 -0.9827  0.1127
 6200SOL     OW30058   1.971   0.946   8.193 -0.1463  0.1988  0.2430
 6200SOL    HW130059   1.960   0.995   8.274  0.1456 -1.4242  1.2709
 6200SOL    HW230060   1.948   0.855   8.213 -0.2198  0.4831  1.4984
 6201SOL     OW30061   3.443   3.033   5.414  0.1396 -0.4972  0.9612
 6201SOL    HW130062   3.408   2.947   5.436  1.2051 -0.6067  2.2351
 6201SOL    HW230063   3.460   3.068   5.501  2.5718  0.6588  0.0348
 6202SOL     OW30064   4.199   0.212   2.102  0.0680 -0.8857  0.1337
 6202SOL    HW130065   4.174   0.212   2.010 -3.8153  1.6199  1.2160
 6202SOL    HW230066   4.193   0.301   2.137 -1.7843 -0.9336 -0.0421
 6203SOL     OW30067   4.112   1.804   3.512 -0.4721  0.3637  0.2092
 6203SOL    HW130068   4.079   1.718   3.488  0.3304  0.4259 -1.1371
 6203SOL    HW230069   4.106   1.793   3.607  3.7534 -1.8203  0.2443
 6204SOL     OW30070   1.706   2.779   6.779  0.3389 -0.0383  0.4982
 6204SOL    HW130071   1.663   2.809   6.699 -0.0866 -2.2985 -0.1280
 6204SOL    HW230072   1.683   2.686   6.787 -1.7894  0.4404 -0.0558
 6205SOL     OW30073   0.376   4.013  11.474  0.4385 -0.1237 -0.0212
 6205SOL    HW130074   0.294   3.977  11.440 -0.2232  1.0851  0.3121
 6205SOL    HW230075   0.445   3.960  11.432  0.2377  0.9774 -1.7442
 6206SOL     OW30076   1.927   4.154  11.777 -0.2730 -0.3809 -0.4306
 6206SOL    HW130077   1.976   4.222  11.821 -0.7814  0.6335 -1.4043
 6206SOL    HW230078   1.852   4.203  11.743 -1.0322 -1.4526 -0.3162
 6207SOL     OW30079   4.376   2.981  15.977  0.0623  0.3553 -0.1776
 6207SOL    HW130080   4.441   2.914  15.998 -1.7051 -1.0328  0.7849
 6207SOL    HW230081   4.340   2.951  15.893  0.1967 -2.3778  0.7521
 6208SOL     OW30082   0.214   1.225   9.601  0.4920 -0.3182 -0.2614
 6208SOL    HW130083   0.192   1.314   9.628 -1.1279 -0.7956 -0.0233
 6208SOL    HW230084   0.307   1.235   9.620 -0.2343 -0.5553  3.3051
 6209SOL     OW30085   0.640   1.520   7.817  0.1385 -0.0954 -0.1308
 6209SOL    HW130086   0.631   1.481   7.904  0.4119  0.4249  0.1296
 6209SOL    HW230087   0.551   1.503   7.787  0.2227 -1.6863  0.5116
 6210SOL     OW30088   4.111   2.784   6.844  0.3187 -0.3280 -0.0337
 6210SOL    HW130089   4.181   2.843   6.874  1.5288 -0.9955 -1.5261
 6210SOL    HW230090   4.140   2.760   6.755  1.0200 -0.3049  0.1882
 6211SOL     OW30091   1.711   0.084   4.927 -0.0725  0.5416 -0.6179
 6211SOL    HW130092   1.757   0.166   4.910  1.6449 -0.0967  1.0135
 6211SOL    HW230093   1.664   0.114   5.005 -0.4760 -0.7764 -0.3487
 6212SOL     OW30094   1.779   1.623   5.635  0.0311 -0.0937 -0.6252
 6212SOL    HW130095   1.713   1.591   5.572  0.0802 -0.8815 -0.2818
 6212SOL    HW230096   1.744   1.609   5.723 -1.2218 -0.5769 -1.1999
 6213SOL     OW30097   2.655   0.863   3.649 -0.2740  0.8996  0.3698
 6213SOL    HW130098   2.642   0.958   3.644 -1.5132  0.6381 -1.4839
 6213SOL    HW230099   2.706   0.853   3.569  0.1491 -0.8529  0.8779
 6214SOL     OW30100   1.590   1.390   7.049 -0.0039  0.0422 -0.2722
 6214SOL    HW130101   1.619   1.303   7.022 -0.4541 -0.3975  0.6670
 6214SOL    HW230102   1.552   1.366   7.134 -1.1261  1.0307 -0.4980
 6215SOL     OW30103   1.764   2.983   4.273  0.4722  0.1472  0.3697
 6215SOL    HW130104   1.727   3.070   4.292  1.8587  0.8428 -0.1483
 6215SOL    HW230105   1.690   2.943   4.226 -0.3892  0.4590  1.4566
 6216SOL     OW30106   4.413   1.056  11.516 -0.3959  0.6801 -0.7955
 6216SOL    HW130107   4.347   1.055  11.586 -2.5252 -1.0389 -2.8092
 6216SOL    HW230108   4.494   1.089  11.555 -0.1248  0.1566 -0.9175
 6217SOL     OW30109   2.455   3.385   0.903 -0.1626 -0.5436  0.1737
 6217SOL    HW130110   2.410   3.430   0.831 -0.2216 -1.0313 -0.0943
 6217SOL    HW230111   2.529   3.357   0.849 -0.0180  1.8799 -0.8754
 6218SOL     OW30112   3.414   3.121   8.139 -0.1133 -0.4043  0.1033
 6218SOL    HW130113   3.487   3.060   8.136  0.7173  0.5192  1.7008
 6218SOL    HW230114   3.470   3.194   8.112 -2.0222  1.0752  0.1919
 6219SOL     OW30115   0.013   2.616   2.188  0.5127 -0.7647  0.1563
 6219SOL    HW130116   0.003   2.625   2.093 -0.0062 -2.8145  0.0252
 6219SOL    HW230117   0.097   2.659   2.206  0.4202 -0.1299 -0.9386
 6220SOL     OW30118   3.132   4.437   0.588  0.1076  0.6895 -0.5569
 6220SOL    HW130119   3.123   4.490   0.509 -0.2296 -1.1415 -1.7660
 6220SOL    HW230120   3.212   4.478   0.622  1.1597 -0.2812 -1.8217
 6221SOL     OW30121   3.641   3.870   2.887  0.1160  0.7512 -0.1508
 6221SOL    HW130122   3.646   3.956   2.928 -0.2298  0.1677  1.0996
 6221SOL    HW230123   3.675   3.815   2.957 -1.4171 -0.6067 -0.4645
 6222SOL     OW30124   2.097   4.466   7.353 -0.4740  0.0924 -0.0684
 6222SOL    HW130125   2.062   4.532   7.293 -0.1901 -1.3920 -1.8529
 6222SOL    HW230126   2.100   4.523   7.430 -0.9645 -0.9925  0.7575
 6223SOL     OW30127   1.322   3.822  15.159 -1.4526  0.1121 -0.3335
 6223SOL    HW130128   1.412   3.791  15.154 -1.3499  0.0451  2.3603
 6223SOL    HW230129   1.291   3.782  15.240 -1.1005  1.2093  0.3475
 6224SOL     OW30130   3.956   4.614   6.442  0.1163  0.2565  1.0608
 6224SOL    HW130131   4.029   4.553   6.432  0.0670  0.6782 -1.9227
 6224SOL    HW230132   3.923   4.573   6.522 -0.5701 -1.7171 -0.2582
 6225SOL     OW30133   2.858   1.505   5.324  0.2348  0.5238 -0.1321
 6225SOL    HW130134   2.871   1.561   5.248  2.2595  0.4213  0.1507
 6225SOL    HW230135   2.762   1.505   5.318  0.1737  0.4382  0.7893
 6226SOL     OW30136   3.474   1.065   9.323  0.2334  0.3788 -0.1601
 6226SOL    HW130137   3.415   1.068   9.398  0.2095 -0.0646 -0.1596
 6226SOL    HW230138   3.558   1.056   9.369  0.2783  0.2491 -0.2644
 6227SOL     OW30139   3.415   4.712   4.900  0.2116 -0.1905  0.0368
 6227SOL    HW130140   3.337   4.659   4.918  0.7691  0.3830  4.2446
 6227SOL    HW230141   3.442   4.679   4.815  0.5412  1.6092 -0.5533
 6228SOL     OW30142   3.294   2.994   3.699  0.6563 -0.7546  0.3025
 6228SOL    HW130143   3.334   2.992   3.786  0.8067  0.0351  0.2533
 6228SOL    HW230144   3.365   3.031   3.646 -1.3306  0.7760 -1.3049
 6229SOL     OW30145   2.516   0.731  11.413 -0.7712 -0.1815  0.3535
 6229SOL    HW130146   2.542   0.812  11.369 -1.4098 -0.3771 -0.3843
 6229SOL    HW230147   2.516   0.760  11.505  0.2639 -2.2125  1.0034
 6230SOL     OW30148   0.820   1.189   6.629 -0.6224  1.5035 -0.1609
 6230SOL    HW130149   0.731   1.213   6.603 -1.5006  2.5912  3.8510
 6230SOL    HW230150   0.859   1.246   6.562  0.3813 -1.2863 -1.9707
 6231SOL     OW30151   0.024   4.509  15.769 -0.2182  0.2336  0.4134
 6231SOL    HW130152   0.110   4.517  15.810 -0.1763  2.1898 -0.0486
 6231SOL    HW230153   0.019   4.564  15.690  0.3565 -0.1008  0.1395
 6232SOL     OW30154   2.507   2.708   4.473  0.2652  0.4367  1.0687
 6232SOL    HW130155   2.478   2.707   4.382 -0.4644 -1.7903  1.3190
 6232SOL    HW230156   2.432   2.738   4.524 -0.1753 -0.6773  1.0766
 6233SOL     OW30157   3.744   1.013   8.867 -0.3199  0.2806  0.4081
 6233SOL    HW130158   3.784   0.963   8.938 -1.7047 -2.3422 -0.6735
 6233SOL    HW230159   3.806   1.085   8.858  0.0114 -0.0369  0.1555
 6234SOL     OW30160   4.711   1.932   7.053  0.5167  0.1904 -0.3393
 6234SOL    HW130161   0.005   1.984   6.975  0.0755  2.2548  0.9383
 6234SOL    HW230162   0.074   1.912   7.087  0.5208 -1.1318 -1.1312
 6235SOL     OW30163   2.930   3.008  16.011 -0.1311 -0.0144 -0.1648
 6235SOL    HW130164   2.987   3.085  16.014 -0.6804  0.2882  2.4834
 6235SOL    HW230165   2.850   3.048  16.042  1.2204  2.2889  0.3147
 6236SOL     OW30166   1.999   1.418   7.647 -0.4091  0.2337  0.0590
 6236SOL    HW130167   2.027   1.329   7.624  0.2602  0.8244 -1.4003
 6236SOL    HW230168   1.904   1.408   7.657 -0.3063 -0.0130  0.8032
 6237SOL     OW30169   3.126   1.671   3.887  0.1477 -0.2537  0.2229
 6237SOL    HW130170   3.161   1.702   3.970 -2.2361  1.2925  0.6628
 6237SOL    HW230171   3.158   1.734   3.823 -0.8769 -0.8870 -0.9014
 6238SOL     OW30172   1.710   2.677   3.746  0.6738 -0.0645  0.0753
 6238SOL    HW130173   1.638   2.672   3.683  1.3141  1.4581 -0.7846
 6238SOL    HW230174   1.700   2.592   3.789  0.1181 -0.0005  0.0814
 6239SOL     OW30175   1.451   2.690   5.264  0.4413  0.1060 -0.0698
 6239SOL    HW130176   1.446   2.625   5.194 -0.4419  1.3415 -1.1597
 6239SOL    HW230177   1.538   2.670   5.299 -0.2928  0.6720  2.1288
 6240SOL     OW30178   4.117   1.953   4.758  0.7530 -0.1748 -0.5752
 6240SOL    HW130179   4.094   1.999   4.677  2.7873  3.2210  0.7789
 6240SOL    HW230180   4.091   1.863   4.737 -0.5724  0.2260 -0.6700
 6241SOL     OW30181   2.187   3.108   5.201 -0.0730  0.6971 -0.0783
 6241SOL    HW130182   2.211   3.140   5.114  0.3067 -0.8312 -0.5426
 6241SOL    HW230183   2.247   3.033   5.207 -2.3556 -1.3111 -2.2418
 6242SOL     OW30184   2.395   1.069   5.994  0.4126 -0.0832 -0.3213
 6242SOL    HW130185   2.434   1.144   6.037  0.2820  0.4846 -1.1830
 6242SOL    HW230186   2.423   1.078   5.903  0.7368  2.3626  0.0423
 6243SOL     OW30187   4.262   1.351   6.570 -0.0156 -0.5886  0.5300
 6243SOL    HW130188   4.236   1.416   6.634 -1.0710 -0.6157  0.1272
 6243SOL    HW230189   4.174   1.315   6.559 -0.6035  1.0178  0.0356
 6244SOL     OW30190   0.878   3.480  12.038  0.0405 -0.1743 -0.1064
 6244SOL    HW130191   0.953   3.532  12.008 -0.1576  0.6469  0.8455
 6244SOL    HW230192   0.849   3.541  12.105  0.9586  1.3133 -1.0489
 6245SOL     OW30193   3.438   2.041   7.709  0.1842  0.4771 -0.3207
 6245SOL    HW130194   3.506   2.105   7.732 -1.6274  1.9606  0.9561
 6245SOL    HW230195   3.447   1.982   7.784 -1.0707  0.6672 -0.0249
 6246SOL     OW30196   3.668   3.839  12.482  0.3926 -0.0580 -0.1496
 6246SOL    HW130197   3.672   3.791  12.399  2.2490  1.2510 -0.8182
 6246SOL    HW230198   3.705   3.775  12.542  3.4848  0.7485 -1.1779
 6247SOL     OW30199   2.155   2.513   9.494  0.5506 -0.1369 -0.2445
 6247SOL    HW130200   2.122   2.427   9.521 -1.7614  0.9578  0.4196
 6247SOL    HW230201   2.077   2.546   9.451 -0.0702  0.6949  1.5425
 6248SOL     OW30202   1.742   1.494   3.677  0.1944 -0.4163 -0.7244
 6248SOL    HW130203   1.836   1.477   3.668  0.7497  2.1806  0.0505
 6248SOL    HW230204   1.710   1.443   3.602  1.2684 -0.9883 -0.7935
 6249SOL     OW30205   3.479   1.830   5.472  0.4842 -0.7014  0.0166
 6249SOL    HW130206   3.546   1.881   5.425  0.3807  0.0123  0.6387
 6249SOL    HW230207   3.529   1.814   5.552 -0.4679 -2.2848  0.2925
 6250SOL     OW30208   2.849   1.027   3.984  0.1229  0.3447  0.0671
 6250SOL    HW130209   2.754   1.031   3.974  0.2823  0.8892 -1.1999
 6250SOL    HW230210   2.872   1.111   4.023 -0.4572  0.0044  1.1686
 6251SOL     OW30211   2.431   1.964   4.158 -0.0924 -0.9391 -0.3590
 6251SOL    HW130212   2.367   1.991   4.223  2.6763 -2.2004  2.8808
 6251SOL    HW230213   2.501   2.030   4.160  1.6972 -2.8210 -0.5699
 6252SOL     OW30214   2.811   4.237  11.285  0.4131 -0.6638  0.2156
 6252SOL    HW130215   2.889   4.193  11.250  1.0783  1.0309 -0.4221
 6252SOL    HW230216   2.832   4.236  11.378 -0.1204  2.4464  0.3786
 6253SOL     OW30217   3.848   2.917   0.569 -0.0480  0.4062  0.7269
 6253SOL    HW130218   3.937   2.900   0.536  0.2866 -1.7583  2.7391
 6253SOL    HW230219   3.816   2.976   0.502  0.5733 -0.9624 -0.7745
 6254SOL     OW30220   2.767   1.370  10.947  0.1413  0.0742  0.0095
 6254SOL    HW130221   2.694   1.312  10.967 -0.6449  1.2768  0.6420
 6254SOL    HW230222   2.803   1.335  10.866  0.4217  1.2929 -0.3934
 6255SOL     OW30223   3.037   2.458   5.706  0.2866  0.4543 -0.4816
 6255SOL    HW130224   2.960   2.514   5.696  1.6829  2.7317  1.3951
 6255SOL    HW230225   3.006   2.373   5.673  0.7699  0.4311 -0.8690
 6256SOL     OW30226   0.677   1.594   9.097  0.1310  0.1782  0.0754
 6256SOL    HW130227   0.723   1.672   9.066  1.7229 -0.4597  0.8128
 6256SOL    HW230228   0.732   1.530   9.051  0.2107  0.2198  0.1123
 6257SOL     OW30229   4.359   3.564   5.693  0.5636 -0.0235 -0.1067
 6257SOL    HW130230   4.410   3.609   5.760  0.8823  1.6861 -1.4923
 6257SOL    HW230231   4.284   3.540   5.748 -0.3695 -0.3591 -1.5301
 6258SOL     OW30232   0.231   3.326   1.873  0.0678  0.3951  0.2377
 6258SOL    HW130233   0.180   3.372   1.941 -1.4557 -0.1611 -0.5221
 6258SOL    HW230234   0.258   3.400   1.819 -0.7145  1.8291  1.8173
 6259SOL     OW30235   3.955   4.199   5.196 -0.0033  0.3372  0.0283
 6259SOL    HW130236   3.871   4.243   5.179  0.1760 -0.1002 -1.9561
 6259SOL    HW230237   3.950   4.162   5.285  3.0627  0.6204  0.3118
 6260SOL     OW30238   0.701   4.184   1.780 -0.3507  0.6482 -0.4402
 6260SOL    HW130239   0.636   4.254   1.783 -2.1687 -1.0319 -0.6543
 6260SOL    HW230240   0.780   4.239   1.774 -1.9418  2.7589 -2.1095
 6261SOL     OW30241   3.522   2.815   4.239  0.1026 -0.1816  0.2757
 6261SOL    HW130242   3.535   2.721   4.226  1.8613 -0.0050  0.7768
 6261SOL    HW230243   3.509   2.851   4.152  0.9995  1.2967  0.7646
 6262SOL     OW30244   4.183   0.023   8.373  0.3653 -0.5974  0.3867
 6262SOL    HW130245   4.181   0.095   8.437  1.2983 -0.2364  0.0171
 6262SOL    HW230246   4.255   0.039   8.312  0.9391 -0.3790  1.1119
 6263SOL     OW30247   2.507   2.193   1.149  0.4752 -0.1427  0.4802
 6263SOL    HW130248   2.472   2.104   1.157 -2.2025  0.8670  0.1552
 6263SOL    HW230249   2.487   2.210   1.241  1.4466  1.4505  0.3931
 6264SOL     OW30250   0.761   1.524   2.815  0.1687  0.4095 -0.0471
 6264SOL    HW130251   0.708   1.453   2.852 -0.6495  1.0380 -0.0214
 6264SOL    HW230252   0.746   1.514   2.721  1.6087 -3.2662  0.0945
 6265SOL     OW30253   3.709   0.269  10.249 -0.0835 -0.0850 -0.3675
 6265SOL    HW130254   3.614   0.260  10.245  0.1061 -1.7272 -1.3885
 6265SOL    HW230255   3.726   0.363  10.255 -1.2244  0.2655 -2.6186
 6266SOL     OW30256   0.425   2.418   7.954 -0.0025  0.1606 -0.2796
 6266SOL    HW130257   0.398   2.357   7.886  0.0450 -0.0647 -0.0994
 6266SOL    HW230258   0.455   2.370   8.032 -1.9040 -1.8233 -0.7510
 6267SOL     OW30259   1.268   3.200   6.404 -0.0097  0.5304 -0.3542
 6267SOL    HW130260   1.225   3.172   6.485  0.1266 -0.7473 -0.7226
 6267SOL    HW230261   1.334   3.131   6.413 -0.7946 -0.4264 -2.0007
 6268SOL     OW30262   4.394   0.309   2.826  0.3327  0.1888 -0.1015
 6268SOL    HW130263   4.355   0.243   2.769 -0.2828 -0.3396  0.9278
 6268SOL    HW230264   4.357   0.305   2.914 -0.4053  2.3309 -0.3097
 6269SOL     OW30265   1.541   1.301  11.873  0.0825  0.6989  0.5418
 6269SOL    HW130266   1.620   1.296  11.927  0.2443  1.2914  0.3553
 6269SOL    HW230267   1.477   1.275  11.940  0.6388 -1.1112  0.3713
 6270SOL     OW30268   1.906   1.625   5.055  0.3208  0.3166 -0.1822
 6270SOL    HW130269   1.856   1.694   5.099 -1.5189 -0.8002 -0.5470
 6270SOL    HW230270   1.910   1.562   5.127  2.8636 -0.4321 -0.9697
 6271SOL     OW30271   3.797   1.759   3.589  0.4627  0.1958 -0.8506
 6271SOL    HW130272   3.752   1.680   3.620  3.0274 -0.3054  1.5904
 6271SOL    HW230273   3.874   1.719   3.548 -0.4643 -1.1039 -1.3299
 6272SOL     OW30274   1.387   2.124  16.192  0.0178  0.1456  0.7253
 6272SOL    HW130275   1.338   2.107  16.111 -1.2266 -1.9445  1.9198
 6272SOL    HW230276   1.388   2.040  16.238 -0.4210 -0.1009  0.2870
 6273SOL     OW30277   4.252   2.795   9.413 -0.3148  0.5166  0.1959
 6273SOL    HW130278   4.171   2.843   9.427 -1.1812 -1.3163  1.4308
 6273SOL    HW230279   4.222   2.707   9.434 -1.4512  0.6461 -0.9061
 6274SOL     OW30280   1.472   1.902  17.689  0.3133  0.1700 -0.4331
 6274SOL    HW130281   1.553   1.934  17.649 -0.0577 -0.9286 -2.0899
 6274SOL    HW230282   1.505   1.833   0.048 -0.4279  0.0718 -0.1231
 6275SOL     OW30283   2.126   4.514  12.145  0.1844 -0.1690 -0.1923
 6275SOL    HW130284   2.195   4.557  12.095 -0.3020  0.6558 -0.1497
 6275SOL    HW230285   2.166   4.512  12.232  0.2728 -1.4230 -0.2569
 6276SOL     OW30286   2.509   3.678   6.623  0.1162 -0.0727 -0.8417
 6276SOL    HW130287   2.435   3.658   6.566  0.3441 -0.2991 -1.0575
 6276SOL    HW230288   2.493   3.771   6.638  0.6482 -0.0731 -0.2729
 6277SOL     OW30289   1.509   1.455   5.096  0.1770 -0.1898 -0.1469
 6277SOL    HW130290   1.430   1.476   5.147 -0.4201 -1.6751 -0.4732
 6277SOL    HW230291   1.581   1.462   5.159  1.1761 -0.2726 -1.2803
 6278SOL     OW30292   3.284   0.675   3.300 -0.3442 -0.1126 -0.3070
 6278SOL    HW130293   3.284   0.726   3.219 -0.8623  1.0169  0.4072
 6278SOL    HW230294   3.233   0.603   3.262  0.4079 -1.4492  1.1933
 6279SOL     OW30295   3.116   0.903  11.692  0.0194 -0.1782  0.6643
 6279SOL    HW130296   3.147   0.973  11.634 -1.1413 -1.0839 -1.0215
 6279SOL    HW230297   3.076   0.960  11.757  2.6309  0.4686  1.7327
 6280SOL     OW30298   0.529   4.567   7.258  0.4246 -0.4489 -0.1325
 6280SOL    HW130299   0.607   4.621   7.246 -0.7967  0.9663 -1.7173
 6280SOL    HW230300   0.499   4.557   7.168 -0.9955 -2.1686  0.5232
 6281SOL     OW30301   3.843   3.093  14.900  0.1323 -0.0529 -0.1184
 6281SOL    HW130302   3.872   3.179  14.869 -1.9334  0.9096  0.6303
 6281SOL    HW230303   3.792   3.120  14.977  2.0782  2.2822  0.3421
 6282SOL     OW30304   2.415   3.745  12.749 -0.0331  0.0978 -0.7053
 6282SOL    HW130305   2.445   3.657  12.728  1.2152  0.6078 -1.0635
 6282SOL    HW230306   2.364   3.731  12.829 -0.2401  2.7298 -0.3686
 6283SOL     OW30307   1.460   3.031   7.907  0.4514  0.3711  0.1219
 6283SOL    HW130308   1.405   2.952   7.914  1.7230 -0.5438 -0.2712
 6283SOL    HW230309   1.456   3.032   7.811  1.5596  0.0147  0.0745
 6284SOL     OW30310   3.348   4.334   6.803 -0.4639  0.1043  0.6793
 6284SOL    HW130311   3.361   4.419   6.845  4.6062  0.6440 -1.9511
 6284SOL    HW230312   3.253   4.343   6.792 -0.3868 -1.6095 -1.5335
 6285SOL     OW30313   0.537   3.501  12.092  0.3486  0.0745  0.1759
 6285SOL    HW130314   0.628   3.496  12.062 -0.1736  2.0022 -1.7464
 6285SOL    HW230315   0.549   3.547  12.176 -1.9228 -1.4268  1.3136
 6286SOL     OW30316   4.269   1.636  12.754  0.3765 -0.3517  0.1425
 6286SOL    HW130317   4.276   1.670  12.843  0.9820  0.7869 -0.3310
 6286SOL    HW230318   4.357   1.648  12.720  0.8456 -1.7502  0.9100
 6287SOL     OW30319   2.708   1.774   9.182  0.5791  0.1996  0.2188
 6287SOL    HW130320   2.685   1.724   9.103 -3.4658 -0.4233  1.7731
 6287SOL    HW230321   2.630   1.825   9.203  0.7512 -0.3394  2.1122
 6288SOL     OW30322   1.676   4.591   8.329  0.0045  0.1343 -0.7752
 6288SOL    HW130323   1.594   4.641   8.332  0.2299  0.3867  0.9867
 6288SOL    HW230324   1.714   4.642   8.258  1.4991  0.6050  0.3552
 6289SOL     OW30325   1.135   0.523   8.130  0.2344  0.2320 -0.5592
 6289SOL    HW130326   1.123   0.604   8.179  2.1644 -0.0339  0.3827
 6289SOL    HW230327   1.059   0.526   8.072  0.3154  0.4488 -0.6520
 6290SOL     OW30328   0.988   2.578  10.415 -0.2961  0.0335 -0.1089
 6290SOL    HW130329   0.930   2.533  10.355 -2.2592  1.0462  1.0419
 6290SOL    HW230330   0.978   2.525  10.495  0.9437  0.0745  0.0803
 6291SOL     OW30331   4.586   2.718   6.332  0.2839  0.1689  0.1433
 6291SOL    HW130332   4.520   2.786   6.318  0.9947  0.7086 -0.5939
 6291SOL    HW230333   4.540   2.644   6.371  1.5688  0.3368  1.9893
 6292SOL     OW30334   3.087   4.219   5.617 -0.3341  0.2064 -0.0695
 6292SOL    HW130335   3.176   4.244   5.591  0.0260 -2.1021 -1.0990
 6292SOL    HW230336   3.039   4.291   5.576  0.2468  0.0782 -0.9789
 6293SOL     OW30337   2.730   2.333   9.575  0.5228 -0.5091 -0.0221
 6293SOL    HW130338   2.703   2.244   9.599 -0.0794 -0.2799  0.1520
 6293SOL    HW230339   2.745   2.375   9.659  2.0061 -0.4452 -0.3146
 6294SOL     OW30340   2.391   4.540   1.601  0.3883 -0.7619 -0.3259
 6294SOL    HW130341   2.476   4.535   1.557 -0.0684 -0.5644 -1.2251
 6294SOL    HW230342   2.335   4.536   1.523  0.9144  0.8633 -0.7907
 6295SOL     OW30343   1.613   3.652   5.417  0.1865 -0.1058  0.3612
 6295SOL    HW130344   1.688   3.710   5.429  1.3789 -0.8240 -3.6812
 6295SOL    HW230345   1.575   3.631   5.503  0.3576  0.5320  0.5943
 6296SOL     OW30346   0.068   2.164   6.344  0.0587 -0.3052  0.3026
 6296SOL    HW130347   0.052   2.102   6.415 -0.5783  0.5219  0.8847
 6296SOL    HW230348   0.159   2.150   6.318  0.2423  0.3460  0.5769
 6297SOL     OW30349   1.244   4.465   6.301 -0.3601 -0.0165  0.2265
 6297SOL    HW130350   1.322   4.414   6.279  0.4017  1.3642 -0.2273
 6297SOL    HW230351   1.237   4.528   6.229 -1.3406 -1.3096 -0.8037
 6298SOL     OW30352   2.052   3.264  16.704  0.3789 -0.0503 -0.1500
 6298SOL    HW130353   2.074   3.217  16.785 -1.7097  2.0040  1.6332
 6298SOL    HW230354   1.985   3.201  16.678  0.6750 -1.2577  2.0168
 6299SOL     OW30355   0.399   4.423   5.656  0.0383 -0.0122  0.3477
 6299SOL    HW130356   0.303   4.415   5.655 -0.0623  1.2854 -0.5225
 6299SOL    HW230357   0.430   4.332   5.656  0.5452  0.1428  2.5715
 6300SOL     OW30358   1.761   1.352   8.619  0.7426  0.3770  0.5879
 6300SOL    HW130359   1.823   1.376   8.688  2.5676 -0.4601 -0.7709
 6300SOL    HW230360   1.815   1.375   8.544 -3.3246  0.2481 -2.3802
 6301SOL     OW30361   4.217   0.501   2.522 -0.7335 -0.2570  0.1779
 6301SOL    HW130362   4.256   0.422   2.486  0.5187  0.7507 -0.7025
 6301SOL    HW230363   4.127   0.470   2.525 -0.0946 -2.0879  0.1496
 6302SOL     OW30364   3.942   4.243   8.688  0.3435 -0.4243 -0.0554
 6302SOL    HW130365   3.926   4.268   8.779  0.3626 -2.6901  0.5663
 6302SOL    HW230366   3.862   4.194   8.669 -2.0075  3.3579  0.1527
 6303SOL     OW30367   1.061   4.572  13.848 -0.0851  0.5954  0.1077
 6303SOL    HW130368   1.050   4.590  13.755  0.0879 -0.3685 -0.0951
 6303SOL    HW230369   0.976   4.538  13.875  0.9462 -0.0479  2.6294
 6304SOL     OW30370   1.727   3.645   2.447  0.1062 -0.1581  0.4497
 6304SOL    HW130371   1.747   3.642   2.354 -2.1601  0.7387 -0.0734
 6304SOL    HW230372   1.702   3.736   2.463  0.0373 -0.0019 -0.5489
 6305SOL     OW30373   2.278   1.601   3.829  0.3320 -0.5202 -0.2805
 6305SOL    HW130374   2.317   1.671   3.882  0.8640  0.5615 -2.0864
 6305SOL    HW230375   2.318   1.610   3.743  2.1370 -0.8293  0.5154
 6306SOL     OW30376   3.230   2.460   6.986  0.4453 -0.0617 -0.4107
 6306SOL    HW130377   3.293   2.525   6.955 -1.1784  1.8196  0.1970
 6306SOL    HW230378   3.255   2.453   7.078  0.7386 -1.4686 -0.6065
 6307SOL     OW30379   0.290   4.440   3.995  0.0446  0.3122 -0.1314
 6307SOL    HW130380   0.204   4.465   4.030 -0.7701 -1.9557 -0.5543
 6307SOL    HW230381   0.275   4.442   3.901 -0.1151 -1.7485 -0.1388
 6308SOL     OW30382   1.025   0.178   5.998 -0.3287  0.2261  0.9258
 6308SOL    HW130383   0.985   0.181   5.911  2.3502  0.5488 -0.2714
 6308SOL    HW230384   1.018   0.089   6.035 -2.5727  0.3179  0.7587
 6309SOL     OW30385   2.839   0.049  12.068 -0.2731 -0.2699 -0.2225
 6309SOL    HW130386   2.887   4.698  12.103 -0.0993  0.5499  1.3378
 6309SOL    HW230387   2.897   0.108  12.020 -0.6513 -0.0108 -0.3596
 6310SOL     OW30388   2.156   0.729   3.723 -0.0495 -0.3255  0.6005
 6310SOL    HW130389   2.107   0.731   3.641  0.6621  0.7315  0.1986
 6310SOL    HW230390   2.163   0.823   3.740 -0.6182 -0.2675  0.4920
 6311SOL     OW30391   3.284   0.905  13.427 -0.3998 -0.3134 -0.4807
 6311SOL    HW130392   3.361   0.954  13.454 -0.8279  1.0103 -1.6824
 6311SOL    HW230393   3.282   0.927  13.334  1.5451 -0.4838 -0.5611
 6312SOL     OW30394   2.540   2.757  16.903  0.2268 -0.4184 -0.5468
 6312SOL    HW130395   2.492   2.749  16.820 -1.3417  1.8480  0.1543
 6312SOL    HW230396   2.626   2.783  16.870 -0.2339 -1.5083 -2.6114
 6313SOL     OW30397   3.292   1.980   4.115 -0.0736 -0.5491 -0.1680
 6313SOL    HW130398   3.366   2.037   4.135 -0.1525 -0.5705  0.1897
 6313SOL    HW230399   3.240   2.045   4.067  0.6105 -1.1807 -1.7593
 6314SOL     OW30400   4.579   0.449  15.182  0.5716  0.5146 -0.2190
 6314SOL    HW130401   4.662   0.479  15.146  0.5395  1.3874  0.4458
 6314SOL    HW230402   4.559   0.512  15.251  0.5145 -1.3185  1.4313
 6315SOL     OW30403   2.895   0.337   5.499  0.4506 -0.1305  0.1455
 6315SOL    HW130404   2.868   0.389   5.424 -0.7861  0.0068  0.6886
 6315SOL    HW230405   2.957   0.388   5.551  0.1106  0.5328 -0.1071
 6316SOL     OW30406   3.260   1.117   4.015  0.0416  0.1860  0.1253
 6316SOL    HW130407   3.291   1.164   3.937 -0.0189 -0.1128 -0.0805
 6316SOL    HW230408   3.194   1.060   3.974  0.9870  0.6506 -2.0299
 6317SOL     OW30409   0.159   0.292  11.879 -0.0904  0.1840  0.1234
 6317SOL    HW130410   0.186   0.253  11.796  0.0277  0.4412  0.0443
 6317SOL    HW230411   0.189   0.219  11.934 -3.6906 -2.1609 -0.9743
 6318SOL     OW30412   1.846   0.966   8.720  0.1847  0.0794 -0.0458
 6318SOL    HW130413   1.864   1.018   8.641 -1.6632  0.7323 -0.0282
 6318SOL    HW230414   1.922   0.997   8.771 -0.6605  2.2129 -0.0920
 6319SOL     OW30415   3.991   0.903   5.375 -0.0814  0.8837 -0.4555
 6319SOL    HW130416   3.934   0.950   5.437  0.2320  3.2926 -1.9695
 6319SOL    HW230417   4.072   0.881   5.421 -0.8506 -0.2803  0.3410
 6320SOL     OW30418   1.225   1.281   3.940  0.5754 -0.8911 -0.3653
 6320SOL    HW130419   1.223   1.372   3.910 -1.5069 -0.6609  0.5378
 6320SOL    HW230420   1.254   1.291   4.031  0.8952  1.9748 -0.7919
 6321SOL     OW30421   2.412   0.696   0.796  0.0211 -0.1028 -0.1367
 6321SOL    HW130422   2.474   0.752   0.750  1.9723 -1.0542  1.3510
 6321SOL    HW230423   2.440   0.619   0.746 -0.8957 -0.0670 -0.7078
 6322SOL     OW30424   1.308   4.485   0.576 -0.4439 -0.4873 -0.2291
 6322SOL    HW130425   1.218   4.483   0.609 -0.0022 -0.1011  1.0291
 6322SOL    HW230426   1.308   4.578   0.555 -0.1396 -0.5404 -0.4696
 6323SOL     OW30427   4.556   4.524  12.797  0.2908  0.4499  0.3471
 6323SOL    HW130428   4.466   4.494  12.809  0.3069  0.0508 -0.4982
 6323SOL    HW230429   4.557   4.534  12.702 -0.3440 -2.6007  0.0093
 6324SOL     OW30430   0.812   2.592   4.258 -0.1805  0.0076 -0.3098
 6324SOL    HW130431   0.826   2.676   4.302 -0.6516  0.0721 -0.2815
 6324SOL    HW230432   0.728   2.567   4.296 -0.3159  0.6919 -0.1449
 6325SOL     OW30433   0.266   2.868  15.385 -0.3233 -0.2379  0.1524
 6325SOL    HW130434   0.341   2.902  15.336 -0.6501 -2.9246 -2.2194
 6325SOL    HW230435   0.195   2.931  15.374 -0.3243 -0.1107  0.8778
 6326SOL     OW30436   1.306   0.934   7.631 -0.5454 -0.1081  0.2576
 6326SOL    HW130437   1.271   1.019   7.604  1.1444  0.4284 -0.2360
 6326SOL    HW230438   1.278   0.934   7.723 -0.2382  0.0608  0.3506
 6327SOL     OW30439   3.152   4.548   9.285 -0.2638 -0.2134 -0.0361
 6327SOL    HW130440   3.239   4.586   9.270  0.4770 -1.5821  0.8765
 6327SOL    HW230441   3.128   4.577   9.373 -1.0307 -2.6035  0.5340
 6328SOL     OW30442   0.847   0.032   8.004  0.1828  0.9115  0.4796
 6328SOL    HW130443   0.811   0.045   7.916  0.7986 -0.5467  0.0151
 6328SOL    HW230444   0.931   4.711   7.993  0.7012  1.8429  0.6592
 6329SOL     OW30445   1.989   0.201   8.267  0.7352 -0.5353 -0.1615
 6329SOL    HW130446   2.023   0.281   8.307 -0.1843 -0.3110  0.1681
 6329SOL    HW230447   2.070   0.151   8.256  0.5129 -0.1773 -3.5851
 6330SOL     OW30448   3.205   4.337   2.599 -0.1321  0.4207  0.0647
 6330SOL    HW130449   3.204   4.394   2.523 -0.1349  0.7534  0.3137
 6330SOL    HW230450   3.217   4.404   2.667  0.0868 -2.0234  2.4435
 6331SOL     OW30451   3.736   1.795   1.356 -0.2671  0.3619  0.4430
 6331SOL    HW130452   3.741   1.866   1.291 -0.6585 -1.3131 -1.4243
 6331SOL    HW230453   3.710   1.724   1.298 -0.4664  1.3251 -0.6496
 6332SOL     OW30454   4.611   1.335   8.494 -0.3302 -0.0749 -0.1607
 6332SOL    HW130455   4.597   1.419   8.538  0.4661  0.1083 -0.2715
 6332SOL    HW230456   4.659   1.361   8.415  0.9650  0.5955  0.8465
 6333SOL     OW30457   2.427   2.717   1.708 -0.0647  0.2453 -0.4129
 6333SOL    HW130458   2.378   2.698   1.788  1.8660 -0.6195  0.5436
 6333SOL    HW230459   2.369   2.782   1.667  0.1629  0.4233 -0.4530
 6334SOL     OW30460   3.427   3.898   0.724 -0.2224 -0.2567  0.1980
 6334SOL    HW130461   3.378   3.980   0.726 -1.1179 -0.7222 -3.1081
 6334SOL    HW230462   3.451   3.902   0.817  0.1689 -5.3416  0.3208
 6335SOL     OW30463   4.039   2.017   5.387 -0.2227 -0.3613 -0.4741
 6335SOL    HW130464   4.079   1.931   5.400  0.7281  0.1431 -0.0579
 6335SOL    HW230465   3.972   1.984   5.328 -0.4586  2.1024 -1.6041
 6336SOL     OW30466   2.923   4.375   3.676  0.3500 -0.1142  0.0841
 6336SOL    HW130467   2.911   4.301   3.735  0.8651  0.2321  0.6214
 6336SOL    HW230468   2.908   4.330   3.592 -2.5991 -0.2686  0.7180
 6337SOL     OW30469   2.728   3.981  15.152  0.1807 -0.1126  0.5514
 6337SOL    HW130470   2.776   4.020  15.080  2.4500 -0.7566  1.7059
 6337SOL    HW230471   2.796   3.946  15.210  1.2881 -2.5058 -2.1605
 6338SOL     OW30472   4.379   0.320   4.061  0.2283 -0.7091  0.0947
 6338SOL    HW130473   4.331   0.295   4.140  0.9172 -1.3201  0.3097
 6338SOL    HW230474   4.391   0.233   4.024  0.7964 -0.5349 -0.1270
 6339SOL     OW30475   2.144   0.660  16.817  0.0943 -0.3570 -0.1689
 6339SOL    HW130476   2.203   0.720  16.771  1.5674 -1.4023  0.3402
 6339SOL    HW230477   2.092   0.714  16.876  0.6982  0.4591 -0.3794
 6340SOL     OW30478   3.151   1.898   4.715  0.0252 -0.4327 -0.0606
 6340SOL    HW130479   3.099   1.969   4.678  0.7362  0.4516  0.6496
 6340SOL    HW230480   3.103   1.834   4.662  0.5156 -0.0664 -0.9435
 6341SOL     OW30481   4.546   1.374   6.687 -0.1515 -0.1966 -0.2691
 6341SOL    HW130482   4.452   1.357   6.693 -0.5371  1.4015 -1.7302
 6341SOL    HW230483   4.548   1.469   6.689 -0.0575 -0.2223  0.8019
 6342SOL     OW30484   4.453   2.863   1.533  0.0750  0.1870  0.9907
 6342SOL    HW130485   4.421   2.853   1.623  1.7006 -0.3465  1.5122
 6342SOL    HW230486   4.544   2.890   1.548  0.1162 -0.6942  2.2902
 6343SOL     OW30487   4.578   3.253   6.675  0.0328  0.4202  0.4723
 6343SOL    HW130488   4.613   3.338   6.651  1.4530 -0.3193 -0.0782
 6343SOL    HW230489   4.652   3.233   6.732 -0.1460 -0.8733  0.2608
 6344SOL     OW30490   0.318   1.953  13.123 -0.2323 -0.4523 -0.6413
 6344SOL    HW130491   0.391   1.964  13.062  0.1483  2.5535  0.3693
 6344SOL    HW230492   0.266   2.033  13.113 -2.1482 -1.5594  0.3533
 6345SOL     OW30493   0.017   0.576   8.374 -0.3537  0.2533 -0.6336
 6345SOL    HW130494   0.096   0.625   8.397  0.1452 -1.8847  2.2869
 6345SOL    HW230495   0.048   0.485   8.374 -2.5520 -0.5103  1.9862
 6346SOL     OW30496   3.477   4.488   7.626 -0.0601  0.2828  0.1058
 6346SOL    HW130497   3.439   4.536   7.553 -1.7021  0.4374  1.0734
 6346SOL    HW230498   3.472   4.395   7.604 -1.9746 -0.0951  2.2430
 6347SOL     OW30499   3.283   0.416   3.972 -0.0483  0.3646 -1.2508
 6347SOL    HW130500   3.241   0.481   4.029  1.1225  0.8939 -0.9795
 6347SOL    HW230501   3.349   0.469   3.927  1.9151 -1.7282 -0.8676
 6348SOL     OW30502   2.896   4.273   1.461  0.9231  0.1721  0.1956
 6348SOL    HW130503   2.942   4.356   1.450  0.3295  0.4662 -0.0535
 6348SOL    HW230504   2.858   4.255   1.375  1.9213 -0.9977  0.0027
 6349SOL     OW30505   3.798   1.133   7.222 -0.0663 -0.8053  0.0879
 6349SOL    HW130506   3.807   1.116   7.316 -1.3574  1.8325  0.7063
 6349SOL    HW230507   3.827   1.048   7.191  0.5959 -0.3499 -0.5235
 6350SOL     OW30508   4.414   4.269   5.351 -0.5630 -0.2105 -0.0477
 6350SOL    HW130509   4.408   4.281   5.446  1.0457 -1.6962  0.2470
 6350SOL    HW230510   4.327   4.300   5.325 -1.5456 -1.1483  2.0754
 6351SOL     OW30511   1.758   2.682  10.797  0.7588  0.9881  0.1815
 6351SOL    HW130512   1.737   2.658  10.707 -1.1267 -0.9067  1.1180
 6351SOL    HW230513   1.790   2.770  10.777 -1.2857  1.1966 -2.1460
 6352SOL     OW30514   2.515   4.194  12.671 -0.2603  0.0860 -0.2919
 6352SOL    HW130515   2.531   4.104  12.700  1.9386  0.1776 -1.2039
 6352SOL    HW230516   2.424   4.204  12.698 -0.2840 -0.5892 -0.1176
 6353SOL     OW30517   2.574   1.449   4.921  0.3227  0.2003  0.1187
 6353SOL    HW130518   2.631   1.412   4.988  0.8390 -0.7505 -0.8394
 6353SOL    HW230519   2.614   1.404   4.846 -2.1614 -2.1517  0.2048
 6354SOL     OW30520   3.777   0.494  10.003 -0.1890  0.0662 -0.1665
 6354SOL    HW130521   3.860   0.538   9.982  0.6220 -0.2546  2.3883
 6354SOL    HW230522   3.803   0.406   9.979 -0.0979  0.4805 -1.6004
 6355SOL     OW30523   3.083   0.216   4.473  0.0704  0.0816  0.3487
 6355SOL    HW130524   3.046   0.277   4.409 -0.6962 -0.9451 -0.1942
 6355SOL    HW230525   3.027   0.141   4.452  1.2350 -1.4803  2.8274
 6356SOL     OW30526   3.634   0.745   0.353 -0.6983 -0.3767 -0.1323
 6356SOL    HW130527   3.597   0.707   0.432 -0.0420  1.5337  1.0968
 6356SOL    HW230528   3.594   0.831   0.360 -0.5160 -0.2153 -1.0140
 6357SOL     OW30529   1.401   4.552   4.692  0.0363  0.8095 -0.3139
 6357SOL    HW130530   1.461   4.574   4.622  1.8853  2.8360  1.8951
 6357SOL    HW230531   1.370   4.467   4.661 -1.6231  2.1587 -2.3714
 6358SOL     OW30532   4.326   2.486  13.937  0.3135 -0.4493 -0.2281
 6358SOL    HW130533   4.298   2.577  13.949  0.3862 -0.4827  0.1893
 6358SOL    HW230534   4.416   2.486  13.970  1.1570 -0.9709 -2.4855
 6359SOL     OW30535   2.333   2.899  14.785 -0.4755  0.4706 -0.4945
 6359SOL    HW130536   2.423   2.914  14.813 -1.5029  2.9955  1.5034
 6359SOL    HW230537   2.337   2.808  14.757 -0.0009  0.9586 -2.0013
 6360SOL     OW30538   3.575   4.362  11.830 -0.6760 -0.2916  0.1216
 6360SOL    HW130539   3.615   4.443  11.862  1.4674 -1.0587 -0.6342
 6360SOL    HW230540   3.572   4.311  11.911  0.7160  0.0933  0.4118
 6361SOL     OW30541   1.979   3.418   3.611  0.3549  0.5854 -0.5220
 6361SOL    HW130542   1.985   3.364   3.690  1.3787 -1.6980 -2.1632
 6361SOL    HW230543   1.940   3.358   3.547 -1.5391 -0.4193  1.5674
 6362SOL     OW30544   4.712   1.766   5.712  0.0350  0.4083 -0.0042
 6362SOL    HW130545   4.698   1.677   5.677 -1.2895  0.8628 -0.6357
 6362SOL    HW230546   4.625   1.795   5.738 -0.1822  1.4236 -1.9081
 6363SOL     OW30547   0.908   1.822  12.759  0.5563  0.2814 -0.2076
 6363SOL    HW130548   0.824   1.835  12.715 -0.2556  2.5630  1.9869
 6363SOL    HW230549   0.909   1.734  12.797  0.8624  0.6692  0.6907
 6364SOL     OW30550   2.265   2.793   3.518 -0.0110  0.2259 -0.3133
 6364SOL    HW130551   2.248   2.701   3.535  0.8650  0.5607  2.4338
 6364SOL    HW230552   2.303   2.812   3.604 -1.9180 -2.4544  1.1229
 6365SOL     OW30553   3.839   0.666   3.809  0.3065 -0.3556  0.3778
 6365SOL    HW130554   3.794   0.736   3.856 -1.9290 -0.7043 -1.2815
 6365SOL    HW230555   3.815   0.680   3.718  0.7218 -0.3313  0.2717
 6366SOL     OW30556   2.328   0.763   2.360 -0.2545  0.4604  0.2593
 6366SOL    HW130557   2.322   0.725   2.448  0.3287 -0.8181 -0.2567
 6366SOL    HW230558   2.241   0.802   2.355 -0.8482 -0.8113  0.5522
 6367SOL     OW30559   3.351   2.727  16.047 -0.5834 -0.6136  0.1423
 6367SOL    HW130560   3.316   2.798  16.101 -0.4118 -0.6103  0.2513
 6367SOL    HW230561   3.438   2.759  16.025  0.1872 -0.6559  3.1678
 6368SOL     OW30562   1.163   2.547   8.465  0.7293  0.6776 -0.0041
 6368SOL    HW130563   1.112   2.545   8.384  1.4710  0.9943 -0.4727
 6368SOL    HW230564   1.237   2.494   8.434  1.8055  0.8826  2.2333
 6369SOL     OW30565   2.735   3.587   4.338  0.0920 -0.6504 -0.3246
 6369SOL    HW130566   2.675   3.654   4.372  1.2278 -0.8081  1.9890
 6369SOL    HW230567   2.789   3.634   4.274 -2.9156 -0.0353 -2.4343
 6370SOL     OW30568   2.249   1.644  10.406  0.4419 -0.2846  0.0783
 6370SOL    HW130569   2.340   1.671  10.422 -0.6781  3.0395  0.6598
 6370SOL    HW230570   2.265   1.553  10.379 -1.3766  0.0625 -2.1044
 6371SOL     OW30571   0.919   0.600   4.199  0.2562 -0.2327  0.4223
 6371SOL    HW130572   0.910   0.506   4.218 -0.5989 -0.3805 -0.6868
 6371SOL    HW230573   0.960   0.594   4.112 -1.6307  0.5488 -0.5232
 6372SOL     OW30574   2.480   1.392  14.919  0.1019 -0.2061 -0.1799
 6372SOL    HW130575   2.410   1.458  14.922 -0.0210 -0.4068  1.2797
 6372SOL    HW230576   2.443   1.348  14.843 -0.3123  0.4954 -0.3899
 6373SOL     OW30577   1.705   0.939  13.534  0.3479 -0.2603 -0.3367
 6373SOL    HW130578   1.667   0.877  13.597  0.4804 -0.1216 -0.1192
 6373SOL    HW230579   1.647   0.926  13.459 -0.3842 -0.8778  0.3321
 6374SOL     OW30580   3.300   2.230   8.048  0.3722 -0.5003 -0.1053
 6374SOL    HW130581   3.247   2.175   7.990 -0.6594 -1.9363  2.1898
 6374SOL    HW230582   3.354   2.168   8.096 -0.9459 -1.1749  0.5099
 6375SOL     OW30583   3.345   0.226   5.580 -0.0147 -0.1068  0.3107
 6375SOL    HW130584   3.307   0.216   5.667  0.3403  0.6772  0.5555
 6375SOL    HW230585   3.289   0.298   5.550 -0.3817 -0.8954 -0.8893
 6376SOL     OW30586   2.629   0.869   6.819 -0.0605 -0.5389 -1.0640
 6376SOL    HW130587   2.693   0.884   6.749 -2.0221 -1.7661 -3.1045
 6376SOL    HW230588   2.648   0.943   6.877  2.0275 -1.0899 -1.0587
 6377SOL     OW30589   4.253   2.001   5.866  0.0565  0.2498 -0.1729
 6377SOL    HW130590   4.195   1.979   5.794  0.2653  0.5983 -0.4464
 6377SOL    HW230591   4.258   1.918   5.915  1.4346  0.2689 -0.2734
 6378SOL     OW30592   4.641   3.812   4.145  0.4131 -0.0414  0.2302
 6378SOL    HW130593   4.640   3.722   4.114  1.0301  0.0080  0.0648
 6378SOL    HW230594   4.715   3.807   4.205  0.1572  0.0846  0.5572
 6379SOL     OW30595   1.548   4.372  15.660 -0.0679 -0.4629 -0.1293
 6379SOL    HW130596   1.548   4.467  15.669  1.8312 -0.6227  1.4994
 6379SOL    HW230597   1.540   4.340  15.750  0.1987 -1.2062 -0.3746
 6380SOL     OW30598   4.327   2.630   7.264  0.0933 -0.3801 -0.5587
 6380SOL    HW130599   4.363   2.659   7.180  1.4419  0.1207  0.1895
 6380SOL    HW230600   4.245   2.681   7.266  0.4108  0.0364  2.3138
 6381SOL     OW30601   3.361   4.213  15.669  0.2494 -0.9451  0.1031
 6381SOL    HW130602   3.377   4.228  15.576  0.6430 -0.9911  0.1661
 6381SOL    HW230603   3.331   4.301  15.694  1.9746 -1.4563  3.9380
 6382SOL     OW30604   3.743   3.459   7.465  0.2678  0.3343 -0.5825
 6382SOL    HW130605   3.818   3.433   7.412  1.1629  0.8064  0.4509
 6382SOL    HW230606   3.752   3.555   7.462 -0.7035  0.4861  1.0005
 6383SOL     OW30607   0.545   0.276   6.604 -0.7299  0.0532 -0.0588
 6383SOL    HW130608   0.637   0.253   6.589 -0.7521  0.5501 -0.9864
 6383SOL    HW230609   0.506   0.195   6.636  2.3369 -2.1808 -2.0132
 6384SOL     OW30610   1.989   3.093   3.658 -0.2889 -0.4051  0.2423
 6384SOL    HW130611   1.990   2.997   3.650  4.6631 -0.3857  0.4533
 6384SOL    HW230612   2.064   3.116   3.604 -0.2838  0.5957  0.6816
 6385SOL     OW30613   0.678   0.082  10.970  0.0201 -0.3105 -0.1844
 6385SOL    HW130614   0.609   0.072  10.905 -1.9214  2.0086  1.5148
 6385SOL    HW230615   0.721   4.721  10.958 -0.9677 -0.6772 -1.1166
 6386SOL     OW30616   1.340   0.648   6.429 -0.1440  0.2079  0.3645
 6386SOL    HW130617   1.408   0.583   6.444  0.4429  0.6399 -0.4591
 6386SOL    HW230618   1.401   0.719   6.409  1.1241 -1.0246 -0.1288
 6387SOL     OW30619   3.314   2.869   8.408  0.2082  0.4749 -0.5137
 6387SOL    HW130620   3.293   2.798   8.347 -2.0078 -0.6754  1.6297
 6387SOL    HW230621   3.289   2.947   8.358 -0.3760  1.0355  0.6527
 6388SOL     OW30622   2.105   2.969   0.374 -0.2902 -0.0429  0.3691
 6388SOL    HW130623   2.078   3.053   0.411 -1.8521 -1.4819  2.5109
 6388SOL    HW230624   2.117   2.996   0.283  2.8779  1.6542  1.2879
 6389SOL     OW30625   0.071   2.775   4.081 -0.1258 -0.2660  0.2830
 6389SOL    HW130626   0.005   2.729   4.031  1.6500 -0.5760 -1.7806
 6389SOL    HW230627   0.149   2.749   4.032  1.7112  0.1595  2.9337
 6390SOL     OW30628   1.911   2.864   2.568  0.4210 -0.0145 -0.2471
 6390SOL    HW130629   1.993   2.856   2.520  0.0237  0.3232 -0.9784
 6390SOL    HW230630   1.858   2.792   2.534  0.0340  0.4513 -0.6392
 6391SOL     OW30631   3.913   1.227  13.575 -0.7026  0.2939  0.5482
 6391SOL    HW130632   3.902   1.302  13.634 -0.3590  0.7188  0.0732
 6391SOL    HW230633   3.878   1.261  13.493  0.4473 -1.5173 -0.6787
 6392SOL     OW30634   0.155   0.503   2.646 -0.1267  0.7181 -0.1592
 6392SOL    HW130635   0.121   0.487   2.734  0.5832  0.7437  0.1234
 6392SOL    HW230636   0.103   0.577   2.617  0.0840  0.6886 -0.6050
 6393SOL     OW30637   2.824   0.530   1.284  0.3532  0.3201 -0.0093
 6393SOL    HW130638   2.913   0.564   1.280 -0.0765  1.2341 -1.6811
 6393SOL    HW230639   2.816   0.537   1.379 -0.2027  0.1653 -0.0453
 6394SOL     OW30640   1.427   3.151   6.711  0.2135 -0.2401  0.1492
 6394SOL    HW130641   1.482   3.229   6.698  1.7317 -1.4723 -0.8423
 6394SOL    HW230642   1.431   3.118   6.622  0.3846  2.0508 -0.6945
 6395SOL     OW30643   0.492   4.438  10.485  0.1522 -0.1289 -0.4852
 6395SOL    HW130644   0.446   4.509  10.440  0.5237  0.0961 -0.5148
 6395SOL    HW230645   0.547   4.407  10.413  0.7073  0.6649 -0.4081
 6396SOL     OW30646   2.170   2.012   1.295  0.1180  0.2662 -0.2003
 6396SOL    HW130647   2.101   1.946   1.303 -0.0090  0.5537  1.1137
 6396SOL    HW230648   2.119   2.084   1.257  0.2597  0.1329 -0.6422
 6397SOL     OW30649   0.114   1.726  12.320  0.3125  0.3119  0.2827
 6397SOL    HW130650   0.174   1.798  12.338  1.5092 -0.9233  1.2448
 6397SOL    HW230651   0.101   1.686  12.407 -1.5070  0.8518  0.2587
 6398SOL     OW30652   3.721   0.092   7.987 -0.5844  0.5827  0.0303
 6398SOL    HW130653   3.800   0.067   8.035  0.1047  2.9307  0.0690
 6398SOL    HW230654   3.735   0.037   7.910 -2.4320  0.3699 -0.1643
 6399SOL     OW30655   2.838   4.004  17.658 -0.3123 -0.3474 -0.2843
 6399SOL    HW130656   2.912   3.990   0.018 -0.0528 -1.4345 -0.8855
 6399SOL    HW230657   2.796   3.918  17.662  1.2157 -0.9971  1.6891
 6400SOL     OW30658   1.899   1.895   4.437  0.5667 -0.0263 -0.0224
 6400SOL    HW130659   1.804   1.908   4.440  0.5192 -0.7094  1.4472
 6400SOL    HW230660   1.900   1.800   4.429 -0.4108  0.0185 -0.6698
 6401SOL     OW30661   0.886   2.473   3.185 -0.3485 -0.1499  0.5585
 6401SOL    HW130662   0.980   2.462   3.167 -0.5628 -2.3892  0.6932
 6401SOL    HW230663   0.863   2.380   3.180 -0.1873 -0.1362 -0.4982
 6402SOL     OW30664   1.146   2.825   5.918 -0.7622  0.2421 -0.1518
 6402SOL    HW130665   1.091   2.760   5.876 -0.5734  0.2362 -0.3859
 6402SOL    HW230666   1.193   2.859   5.842  0.3863  0.8351  0.7965
 6403SOL     OW30667   0.532   2.964   2.530 -0.5538 -0.1201 -0.2840
 6403SOL    HW130668   0.622   2.989   2.510  0.0751 -0.1277  2.5146
 6403SOL    HW230669   0.513   3.035   2.591  0.0197 -0.4084  0.2414
 6404SOL     OW30670   1.609   2.211  11.691 -0.3351 -0.5277 -0.3256
 6404SOL    HW130671   1.538   2.208  11.627  0.1537  0.6366 -0.9254
 6404SOL    HW230672   1.597   2.134  11.746  1.6006 -1.8187 -1.6822
 6405SOL     OW30673   4.232   3.191   2.239 -0.2908  0.5070 -0.0572
 6405SOL    HW130674   4.195   3.252   2.175 -0.7672 -1.1776 -1.3852
 6405SOL    HW230675   4.269   3.263   2.290 -0.8256  1.2956 -0.7854
 6406SOL     OW30676   1.662   2.031   4.718  0.2630  0.1780 -0.3192
 6406SOL    HW130677   1.642   1.979   4.641 -0.4345  1.5833 -1.0825
 6406SOL    HW230678   1.756   2.048   4.712  0.0755  1.0492 -0.7306
 6407SOL     OW30679   1.140   3.575   6.369 -0.5051  0.0072 -0.0289
 6407SOL    HW130680   1.177   3.663   6.373 -0.5260 -0.0683  1.6657
 6407SOL    HW230681   1.192   3.525   6.432 -0.1300  0.0888 -0.2752
 6408SOL     OW30682   0.492   2.181   8.150 -0.7166 -0.3023  0.3913
 6408SOL    HW130683   0.569   2.178   8.208 -0.1092  2.3334 -0.2589
 6408SOL    HW230684   0.508   2.108   8.089 -0.7231  0.2135 -0.2299
 6409SOL     OW30685   0.261   2.391  13.209  0.2321 -0.2665  0.4843
 6409SOL    HW130686   0.172   2.376  13.243  0.1449 -0.0138  0.3697
 6409SOL    HW230687   0.261   2.485  13.226 -2.5886  0.4553 -3.5942
 6410SOL     OW30688   1.448   2.517  16.994 -0.1939  0.2869  0.6060
 6410SOL    HW130689   1.423   2.425  16.992  1.0885 -0.0161 -2.7077
 6410SOL    HW230690   1.484   2.517  17.082  0.3943 -0.4053  0.3729
 6411SOL     OW30691   2.881   0.380   7.106 -0.5228 -0.2646  0.2318
 6411SOL    HW130692   2.902   0.333   7.187  0.0013 -0.5297 -0.0569
 6411SOL    HW230693   2.926   0.462   7.124  0.6720 -0.5144 -1.6405
 6412SOL     OW30694   2.827   2.135   6.521  0.1642  0.4448  0.5021
 6412SOL    HW130695   2.755   2.166   6.467  1.5805  0.2196 -1.5150
 6412SOL    HW230696   2.898   2.123   6.457  0.4797 -0.9287  1.1047
 6413SOL     OW30697   2.529   0.627   4.885 -0.5706 -0.1357  0.3925
 6413SOL    HW130698   2.515   0.687   4.812  1.0401 -1.2458 -0.8254
 6413SOL    HW230699   2.540   0.689   4.957 -0.3410  0.4341 -0.1403
 6414SOL     OW30700   2.520   4.086   2.232 -0.5523 -0.2634 -0.3115
 6414SOL    HW130701   2.591   4.115   2.289 -0.9496  1.8915 -0.9181
 6414SOL    HW230702   2.443   4.118   2.279  0.4810 -0.0231  1.2267
 6415SOL     OW30703   3.484   3.878  10.634  0.2516 -0.5674 -0.4095
 6415SOL    HW130704   3.541   3.804  10.654  0.2009 -0.2550  0.8678
 6415SOL    HW230705   3.451   3.862  10.546  1.1284 -1.8669 -0.4936
 6416SOL     OW30706   3.147   4.306   3.384  0.0713  0.3870  0.2600
 6416SOL    HW130707   3.191   4.298   3.299 -1.3052  0.8059 -0.4908
 6416SOL    HW230708   3.096   4.225   3.382  0.8879 -0.1807  2.3248
 6417SOL     OW30709   2.829   0.843   9.349 -0.0353  0.0858  0.0790
 6417SOL    HW130710   2.835   0.818   9.257 -0.2174  1.8944 -0.4090
 6417SOL    HW230711   2.841   0.938   9.347 -1.4748  0.2381 -1.1622
 6418SOL     OW30712   3.696   0.441   7.214 -0.2765 -0.3413 -0.3114
 6418SOL    HW130713   3.754   0.373   7.178  0.5894 -0.6993  1.7908
 6418SOL    HW230714   3.758   0.492   7.265 -1.2581  1.7383 -1.2028
 6419SOL     OW30715   1.486   3.408  11.147 -0.0916 -0.4538 -0.3917
 6419SOL    HW130716   1.462   3.331  11.199  2.4192  0.1549  1.6454
 6419SOL    HW230717   1.529   3.463  11.212  1.7381 -0.5633 -1.4902
 6420SOL     OW30718   2.457   2.522   8.161  0.5036  0.7203 -0.8329
 6420SOL    HW130719   2.431   2.613   8.171  3.4538  1.4969 -0.0972
 6420SOL    HW230720   2.416   2.486   8.239  2.7861 -3.1743 -1.4075
 6421SOL     OW30721   3.392   0.407   2.787  0.3335 -0.9139  0.0269
 6421SOL    HW130722   3.363   0.318   2.771  1.1156 -1.1495 -0.0711
 6421SOL    HW230723   3.389   0.411   2.883  1.9029 -0.9323  0.0711
 6422SOL     OW30724   3.989   1.692   5.676  0.6229  0.2319  0.9104
 6422SOL    HW130725   4.012   1.686   5.583  0.0044 -4.2314  1.0091
 6422SOL    HW230726   4.008   1.785   5.672  1.9547 -0.0628  0.0508
 6423SOL     OW30727   1.350   0.751   9.567  0.3357 -0.3636 -0.0023
 6423SOL    HW130728   1.422   0.689   9.570  3.0381  2.7577 -0.4673
 6423SOL    HW230729   1.301   0.731   9.647  0.1957  0.6459  0.1763
 6424SOL     OW30730   3.519   2.794   5.032 -0.2768 -0.6035 -0.0415
 6424SOL    HW130731   3.528   2.765   4.941  2.1723 -0.8121  0.2508
 6424SOL    HW230732   3.442   2.742   5.054  2.0868 -4.1004 -0.1220
 6425SOL     OW30733   1.703   1.277   5.970  0.5487  0.5596  0.7104
 6425SOL    HW130734   1.721   1.246   6.059 -1.0103 -0.7708  0.5472
 6425SOL    HW230735   1.660   1.201   5.931  0.5961  0.6432  0.4940
 6426SOL     OW30736   3.595   1.028   7.680  0.4350 -0.7532  0.4169
 6426SOL    HW130737   3.577   1.105   7.626  1.4413  0.0773  1.2660
 6426SOL    HW230738   3.516   0.982   7.653  1.6055 -1.7371 -1.4228
 6427SOL     OW30739   4.445   2.826   1.830  0.0245  0.2214 -0.5868
 6427SOL    HW130740   4.526   2.819   1.881  0.2378 -0.1938 -0.9823
 6427SOL    HW230741   4.416   2.737   1.850 -0.0799  0.8902  2.3442
 6428SOL     OW30742   2.421   1.574   6.753 -0.4254 -0.2248  0.3601
 6428SOL    HW130743   2.352   1.513   6.725 -0.1206 -1.2475  1.8500
 6428SOL    HW230744   2.370   1.652   6.734  1.4631  0.3521 -2.4041
 6429SOL     OW30745   1.565   2.525   2.911  0.2838  0.5825 -0.3232
 6429SOL    HW130746   1.565   2.451   2.851  1.2913 -0.6263  1.1768
 6429SOL    HW230747   1.607   2.589   2.854 -0.4668  1.1124 -0.2904
 6430SOL     OW30748   3.178   3.975   4.053  0.2610  0.2254 -0.6627
 6430SOL    HW130749   3.126   3.927   3.989 -1.8312  1.5415  0.0245
 6430SOL    HW230750   3.204   3.902   4.108 -1.2155  0.3347  0.1896
 6431SOL     OW30751   3.318   3.460   8.496 -0.5368 -0.1013 -0.1891
 6431SOL    HW130752   3.294   3.461   8.589 -0.8868 -2.2431 -0.2503
 6431SOL    HW230753   3.231   3.467   8.456 -0.1906  4.1256 -0.1552
 6432SOL     OW30754   4.399   0.934   5.111 -0.0708  0.0194  0.1144
 6432SOL    HW130755   4.435   0.878   5.042 -1.7107  1.0693 -1.5841
 6432SOL    HW230756   4.310   0.900   5.125 -0.0249 -0.1434  0.0177
 6433SOL     OW30757   2.606   4.676   3.013  0.0970  0.2796 -0.1289
 6433SOL    HW130758   2.652   4.654   3.094  1.3118  0.5852 -0.7358
 6433SOL    HW230759   2.616   4.588   2.977 -1.7641  1.3085 -3.0810
 6434SOL     OW30760   3.684   4.229   8.551 -0.6064 -0.3962  0.0631
 6434SOL    HW130761   3.595   4.239   8.585 -0.5209 -1.2218  0.5316
 6434SOL    HW230762   3.673   4.263   8.462 -1.7520 -1.5158 -0.2199
 6435SOL     OW30763   2.821   3.488   8.126 -0.2073  0.0858 -0.3784
 6435SOL    HW130764   2.856   3.480   8.215  0.6683 -2.2548 -0.9296
 6435SOL    HW230765   2.809   3.396   8.099 -0.0418 -0.4300  1.3184
 6436SOL     OW30766   0.079   1.837   8.563 -0.3794  0.4485  0.8685
 6436SOL    HW130767   0.168   1.835   8.597 -1.2981  0.8204  3.3481
 6436SOL    HW230768   0.044   1.905   8.620  0.3154  1.7395 -0.2654
 6437SOL     OW30769   1.372   0.426   2.684  0.3499  0.6040 -0.2044
 6437SOL    HW130770   1.288   0.430   2.729 -0.6877 -0.0207 -2.0811
 6437SOL    HW230771   1.352   0.481   2.609 -3.0182 -1.1506 -0.6029
 6438SOL     OW30772   2.265   0.083   5.372  0.3772  0.3734  0.1658
 6438SOL    HW130773   2.246   0.164   5.326  2.3168  0.4950 -0.4321
 6438SOL    HW230774   2.269   0.029   5.293  2.4343  1.8730 -0.7406
 6439SOL     OW30775   2.085   3.162   4.358 -0.5522  0.4195  0.4475
 6439SOL    HW130776   2.134   3.190   4.435  1.1851 -1.5805  0.0599
 6439SOL    HW230777   2.066   3.239   4.305 -3.1411  0.7390  1.8389
 6440SOL     OW30778   1.757   1.010   5.367  0.4501  0.3220  0.0011
 6440SOL    HW130779   1.842   1.003   5.323  0.1958 -2.2028 -0.1086
 6440SOL    HW230780   1.700   1.054   5.305 -1.1701 -0.6261  0.8282
 6441SOL     OW30781   0.516   4.664   8.275  0.2594  0.2809  0.0581
 6441SOL    HW130782   0.493   4.589   8.331 -0.1451  1.8884  2.0499
 6441SOL    HW230783   0.603   4.633   8.252 -0.1163  0.9503 -2.2955
 6442SOL     OW30784   3.994   4.638   8.089 -0.1553 -0.0799 -0.2133
 6442SOL    HW130785   3.966   4.564   8.143 -0.1507  1.2161  1.5826
 6442SOL    HW230786   4.039   4.672   8.167  1.4731  0.8071 -1.5375
 6443SOL     OW30787   2.798   4.419  14.631  0.0386 -0.1295  0.6469
 6443SOL    HW130788   2.716   4.372  14.646  1.4002 -1.7685  3.0097
 6443SOL    HW230789   2.769   4.486  14.569  0.2476 -0.4981  0.1513
 6444SOL     OW30790   1.923   0.326   5.214 -0.5441  0.0602  0.6086
 6444SOL    HW130791   1.950   0.417   5.230  0.6966 -0.1053 -0.5878
 6444SOL    HW230792   1.940   0.294   5.303 -0.5047 -2.1097 -0.1826
 6445SOL     OW30793   2.346   3.750   2.040  0.0703 -0.3273  0.0447
 6445SOL    HW130794   2.323   3.700   2.118 -0.7578  0.5775  0.3889
 6445SOL    HW230795   2.261   3.782   2.011  1.1767  1.2451 -1.4788
 6446SOL     OW30796   3.934   1.550   5.247  0.2028  0.2582  0.1566
 6446SOL    HW130797   3.906   1.461   5.267 -3.8826  1.3271 -0.8875
 6446SOL    HW230798   3.936   1.550   5.151  2.2208 -0.4350  0.1964
 6447SOL     OW30799   2.108   3.949   0.305  0.3828 -0.8591  0.3435
 6447SOL    HW130800   2.197   3.934   0.273  0.7123  0.8427  0.4490
 6447SOL    HW230801   2.055   3.908   0.237 -1.3877  2.1315 -0.0915
 6448SOL     OW30802   0.465   0.098  12.050  0.0596  0.0554 -0.4701
 6448SOL    HW130803   0.538   0.058  12.002  0.2050 -1.3900  0.9292
 6448SOL    HW230804   0.471   0.191  12.031 -2.4899  0.5920  1.4148
 6449SOL     OW30805   2.063   2.823   2.208  0.4109  0.1451  0.1745
 6449SOL    HW130806   2.117   2.846   2.284 -0.2229 -3.4422  1.7074
 6449SOL    HW230807   2.072   2.728   2.201 -0.7258  0.1042 -0.6356
 6450SOL     OW30808   0.125   1.196   0.518 -0.0589  0.2516 -0.2291
 6450SOL    HW130809   0.099   1.284   0.546  0.9757  0.0212  1.4566
 6450SOL    HW230810   0.211   1.198   0.558  0.0939 -1.9094 -0.4676
 6451SOL     OW30811   0.070   3.319   3.842  0.3797 -0.2662  0.0500
 6451SOL    HW130812   0.052   3.278   3.758 -1.6075 -1.5590  1.1139
 6451SOL    HW230813   4.719   3.287   3.892 -2.4300  4.3787 -1.2182
 6452SOL     OW30814   0.895   4.010   8.425  0.0528 -0.5195 -0.5441
 6452SOL    HW130815   0.978   3.966   8.405  1.3427  0.9509  1.6937
 6452SOL    HW230816   0.909   4.029   8.517 -1.0985  0.7003 -0.6269
 6453SOL     OW30817   1.382   0.715   8.914  0.5120 -0.0684 -0.4479
 6453SOL    HW130818   1.459   0.744   8.963  1.0832 -0.7097 -0.9561
 6453SOL    HW230819   1.417   0.712   8.825 -0.3547  1.5489 -0.8394
 6454SOL     OW30820   3.047   1.486   6.966  0.7189 -0.2714  0.4651
 6454SOL    HW130821   2.977   1.427   6.991  1.1077 -0.8022  0.2990
 6454SOL    HW230822   2.995   1.566   6.954  1.0523 -0.1244  0.0179
 6455SOL     OW30823   2.835   2.862   7.516 -0.1359 -0.3101 -0.1196
 6455SOL    HW130824   2.832   2.791   7.452 -0.5030 -0.2840 -0.1310
 6455SOL    HW230825   2.927   2.888   7.529 -0.1751  0.3084 -1.0546
 6456SOL     OW30826   2.978   3.610   8.629  0.1948 -0.0477  0.6257
 6456SOL    HW130827   3.029   3.544   8.677  0.7599  0.6016  0.9052
 6456SOL    HW230828   2.907   3.624   8.692 -0.0743  0.8324  0.1288
 6457SOL     OW30829   1.472   3.519   3.820  0.1670 -0.3376 -0.1717
 6457SOL    HW130830   1.494   3.471   3.739  0.3429  0.7272 -0.7524
 6457SOL    HW230831   1.385   3.547   3.792 -0.2053 -0.0771  1.2768
 6458SOL     OW30832   0.623   0.145  11.614  0.1018 -0.7832  0.2443
 6458SOL    HW130833   0.546   0.202  11.616 -0.9072 -2.0542 -1.3204
 6458SOL    HW230834   0.683   0.187  11.675  1.4980  0.9114 -2.2725
 6459SOL     OW30835   1.906   2.891  17.251  0.0987 -0.0028 -0.1398
 6459SOL    HW130836   1.828   2.860  17.205 -0.8861  0.2941  1.3086
 6459SOL    HW230837   1.878   2.959  17.312 -0.8785 -0.9677  0.5166
 6460SOL     OW30838   3.386   2.635   8.018  0.3499  0.1884  0.1196
 6460SOL    HW130839   3.446   2.639   8.093  0.0085  2.9845  0.2278
 6460SOL    HW230840   3.412   2.547   7.991 -0.0105 -0.9662  3.4906
 6461SOL     OW30841   3.204   3.512   2.186 -0.3630  0.4609  0.7506
 6461SOL    HW130842   3.282   3.542   2.233  0.2415 -0.1199  0.1183
 6461SOL    HW230843   3.172   3.601   2.169  4.0195  2.5247  3.0338
 6462SOL     OW30844   1.037   1.074   1.790 -0.9644 -0.1932 -0.4667
 6462SOL    HW130845   1.024   1.114   1.876  2.1513 -0.3984  0.1099
 6462SOL    HW230846   1.108   1.128   1.752 -0.3303 -0.5109  0.2786
 6463SOL     OW30847   1.360   4.533  17.089 -0.0479 -0.1429  0.2133
 6463SOL    HW130848   1.426   4.601  17.103 -0.4691 -0.2323  2.5538
 6463SOL    HW230849   1.334   4.542  16.997  1.2365  1.3015 -0.0259
 6464SOL     OW30850   0.286   1.050   5.018 -0.2423 -0.5623 -0.0870
 6464SOL    HW130851   0.206   1.002   4.996  0.7934 -1.5091 -1.7811
 6464SOL    HW230852   0.251   1.134   5.048 -1.3730 -0.5976 -1.2951
 6465SOL     OW30853   4.557   2.710   5.752 -0.0541  0.1191  0.1139
 6465SOL    HW130854   4.551   2.624   5.792  0.6998 -0.2098 -0.4846
 6465SOL    HW230855   4.487   2.749   5.804  0.7282  1.3289  0.2616
 6466SOL     OW30856   0.849   3.558   3.687 -0.1652  0.0798  0.6309
 6466SOL    HW130857   0.780   3.624   3.679  0.5404  0.9016  1.2773
 6466SOL    HW230858   0.814   3.498   3.753 -1.0066  0.7256  0.7801
 6467SOL     OW30859   0.777   4.404   5.731 -0.5668  0.4790 -0.2443
 6467SOL    HW130860   0.863   4.444   5.715 -0.6020 -0.1341 -1.9383
 6467SOL    HW230861   0.765   4.432   5.822  0.3867 -0.0692  0.0513
 6468SOL     OW30862   0.663   3.917   6.856  0.3916 -0.2208  0.8174
 6468SOL    HW130863   0.679   3.823   6.855  0.1746 -0.2343 -0.3659
 6468SOL    HW230864   0.676   3.930   6.762  1.7221  1.1530  1.1823
 6469SOL     OW30865   3.793   0.494   5.000  0.0231  0.5576  0.7938
 6469SOL    HW130866   3.835   0.422   5.048  1.0599  1.3030  1.0014
 6469SOL    HW230867   3.742   0.452   4.931 -0.7073  4.7563 -1.1889
 6470SOL     OW30868   1.484   4.192  15.252 -0.0943 -0.1030 -0.3651
 6470SOL    HW130869   1.492   4.121  15.189 -1.2225 -0.7704  0.2463
 6470SOL    HW230870   1.557   4.250  15.228 -0.3889  0.3168 -0.2555
 6471SOL     OW30871   2.355   0.050   9.041 -0.5088 -0.0128 -0.5702
 6471SOL    HW130872   2.360   4.679   9.036  0.4658 -0.1061  1.9795
 6471SOL    HW230873   2.378   0.069   8.950  1.6036 -0.2467 -0.0820
 6472SOL     OW30874   0.832   3.727   2.804  0.5781  0.5377 -1.0832
 6472SOL    HW130875   0.794   3.803   2.759  0.1181  0.0693 -1.4838
 6472SOL    HW230876   0.917   3.770   2.814  0.8477 -0.0160 -1.0070
 6473SOL     OW30877   0.083   0.394   9.457  0.3337 -0.3950 -0.0166
 6473SOL    HW130878   0.158   0.450   9.439 -0.4399 -0.2563 -2.8396
 6473SOL    HW230879   0.009   0.442   9.419 -0.0576 -1.4586 -0.6043
 6474SOL     OW30880   0.208   1.004   5.719 -0.2364 -0.0555  0.0427
 6474SOL    HW130881   0.225   0.940   5.651 -0.1639 -2.1916  2.0640
 6474SOL    HW230882   0.270   1.072   5.694  1.9443 -1.8758  0.5644
 6475SOL     OW30883   3.944   2.393   2.132 -0.4328  0.2200  0.2270
 6475SOL    HW130884   4.000   2.318   2.154 -0.6037  0.3688  1.1803
 6475SOL    HW230885   3.863   2.341   2.131  0.1125 -0.6393 -0.0093
 6476SOL     OW30886   1.490   4.371   5.279  0.2430 -0.0702  0.0340
 6476SOL    HW130887   1.528   4.313   5.212  0.2298 -0.6899  0.5674
 6476SOL    HW230888   1.408   4.403   5.242  0.2158  1.2601  1.2553
 6477SOL     OW30889   1.186   2.558   3.555 -0.5533 -0.5451 -0.1256
 6477SOL    HW130890   1.237   2.576   3.476 -3.4247  1.2585 -1.5803
 6477SOL    HW230891   1.140   2.641   3.570  0.3318  0.1520 -1.2419
 6478SOL     OW30892   3.596   2.172   4.958  0.4191  0.1024  0.5860
 6478SOL    HW130893   3.688   2.184   4.938 -0.3289  3.8393 -0.5695
 6478SOL    HW230894   3.554   2.195   4.875 -0.1633  2.3026  1.4690
 6479SOL     OW30895   4.385   0.895   6.262  0.1009 -0.1282 -0.1949
 6479SOL    HW130896   4.394   0.846   6.343  0.6654 -0.1156 -0.2462
 6479SOL    HW230897   4.479   0.914   6.251  0.2663 -0.1576  1.2086
 6480SOL     OW30898   4.566   3.444   3.433 -0.2785 -0.3068  0.1656
 6480SOL    HW130899   4.492   3.457   3.374 -0.0435  0.2688  0.0014
 6480SOL    HW230900   4.531   3.473   3.518 -0.1836 -0.5984  0.3060
 6481SOL     OW30901   3.416   2.013  10.965  0.3901  0.5570  0.1343
 6481SOL    HW130902   3.384   1.997  10.877 -0.5500  1.8324  0.2478
 6481SOL    HW230903   3.455   2.101  10.961  2.4923 -0.5291 -2.7632
 6482SOL     OW30904   2.680   0.197  14.507 -0.0444 -0.1591  0.3412
 6482SOL    HW130905   2.730   0.251  14.568 -3.0789  1.7400  1.1721
 6482SOL    HW230906   2.736   0.184  14.432 -2.1764  0.1205 -1.3110
 6483SOL     OW30907   0.242   1.000   7.710  0.1705 -0.3297  0.3656
 6483SOL    HW130908   0.289   1.035   7.785  0.2374  0.6065 -0.1170
 6483SOL    HW230909   0.256   0.906   7.724 -0.1045 -0.3468  0.5183
 6484SOL     OW30910   2.474   3.942   6.696  0.2719  0.0471 -0.2318
 6484SOL    HW130911   2.391   3.953   6.743 -0.4879  1.1430 -1.8628
 6484SOL    HW230912   2.466   3.985   6.611 -1.4841 -1.1191 -0.6618
 6485SOL     OW30913   3.127   1.042   7.488  0.0726 -0.4146 -0.1747
 6485SOL    HW130914   3.042   1.076   7.459 -0.3556 -1.4267 -0.0759
 6485SOL    HW230915   3.101   0.996   7.567 -0.9614  0.6650  0.1083
 6486SOL     OW30916   1.635   1.230   2.720  0.1905  0.2364  0.0142
 6486SOL    HW130917   1.717   1.257   2.761 -0.2649  0.2710  0.9011
 6486SOL    HW230918   1.567   1.280   2.765 -0.3234 -1.3202  0.9769
 6487SOL     OW30919   0.300   0.543   9.416  0.7725  0.3036  0.0007
 6487SOL    HW130920   0.349   0.618   9.452 -0.1825  0.4233  1.0558
 6487SOL    HW230921   0.367   0.485   9.380  0.1953 -0.1886 -0.2776
 6488SOL     OW30922   2.208   1.706  15.435  0.3378 -0.4736  0.2933
 6488SOL    HW130923   2.138   1.650  15.401 -1.2901  1.2739  0.7863
 6488SOL    HW230924   2.283   1.687  15.378  0.1613 -0.5679  0.0929
 6489SOL     OW30925   3.038   0.358   7.335  0.3103 -0.8597  0.3619
 6489SOL    HW130926   3.129   0.387   7.322  0.9345 -1.7162  2.7804
 6489SOL    HW230927   2.998   0.437   7.371 -1.7629 -1.8386  0.1762
 6490SOL     OW30928   4.723   4.696   3.499  0.5545  0.3846  0.4591
 6490SOL    HW130929   4.721   0.065   3.475 -1.1730 -0.3742 -2.2702
 6490SOL    HW230930   0.064   4.698   3.569 -0.9548  0.3868  1.8523
 6491SOL     OW30931   3.754   0.521   6.465 -0.0705  0.2125  0.1281
 6491SOL    HW130932   3.765   0.499   6.557 -1.1414 -0.2241  0.1478
 6491SOL    HW230933   3.847   0.504   6.447  0.2315 -0.3257  2.2078
 6492SOL     OW30934   1.231   3.101   2.109  0.0252  0.0895  0.4539
 6492SOL    HW130935   1.240   3.006   2.123 -1.1599  0.0781  1.1007
 6492SOL    HW230936   1.235   3.101   2.014  0.4413  1.9418  0.4767
 6493SOL     OW30937   4.146   2.520   9.423 -0.5101  0.2354  0.6725
 6493SOL    HW130938   4.133   2.566   9.340 -0.0650 -0.8406  0.0113
 6493SOL    HW230939   4.118   2.432   9.401 -3.3194  1.1987  0.3565
 6494SOL     OW30940   2.789   4.388  14.052 -0.3727  0.0788  0.0626
 6494SOL    HW130941   2.738   4.462  14.018 -0.2282  0.2413  0.1956
 6494SOL    HW230942   2.872   4.412  14.009 -0.0041 -1.8464 -0.3201
 6495SOL     OW30943   3.994   3.780   2.394  0.5025 -0.4709 -0.4128
 6495SOL    HW130944   3.992   3.812   2.485 -0.8823  0.5627 -0.8082
 6495SOL    HW230945   4.016   3.688   2.406  0.7715 -0.2988  0.4047
 6496SOL     OW30946   0.974   1.993   0.935 -0.1560  0.3634  0.3903
 6496SOL    HW130947   0.969   2.086   0.913  1.0171  0.2087 -0.5833
 6496SOL    HW230948   1.066   1.977   0.916 -0.2115  0.5812 -0.0668
 6497SOL     OW30949   0.873   2.806   7.182 -0.2547  0.2494 -0.2291
 6497SOL    HW130950   0.939   2.839   7.122 -0.5536  1.2059 -0.0263
 6497SOL    HW230951   0.808   2.877   7.179 -0.6339 -0.1307 -0.9567
 6498SOL     OW30952   2.465   2.755   7.266 -0.1605  0.1346  0.2442
 6498SOL    HW130953   2.375   2.786   7.277 -0.3267 -0.7954  1.4223
 6498SOL    HW230954   2.449   2.665   7.237  3.4197 -1.1214  2.1837
 6499SOL     OW30955   4.368   1.032   8.149  0.2237  0.0329  0.2573
 6499SOL    HW130956   4.300   1.048   8.214  0.0461 -0.7851  0.2748
 6499SOL    HW230957   4.306   1.036   8.075  0.8446  0.7411 -0.2253
 6500SOL     OW30958   2.813   3.864   2.958  0.0650 -0.0173  0.0600
 6500SOL    HW130959   2.737   3.886   3.013 -0.6806  2.7298 -2.0627
 6500SOL    HW230960   2.827   3.770   2.967 -1.8077 -0.4192 -1.1908
 6501SOL     OW30961   1.256   0.891   3.133  0.2425  0.5321  0.7064
 6501SOL    HW130962   1.175   0.906   3.180  0.3571  0.8225  0.8127
 6501SOL    HW230963   1.228   0.836   3.059  1.1759  0.2972  0.5208
 6502SOL     OW30964   3.305   1.785   3.436 -0.1275  0.3469 -0.2012
 6502SOL    HW130965   3.352   1.846   3.379 -0.0419  0.7436  0.2963
 6502SOL    HW230966   3.325   1.707   3.383 -2.1653 -0.6418  0.4730
 6503SOL     OW30967   3.228   1.562   4.551  0.2453 -0.2300  0.5517
 6503SOL    HW130968   3.200   1.647   4.517  1.6241 -0.8505 -2.1525
 6503SOL    HW230969   3.154   1.539   4.606 -0.6793 -0.8811 -0.9841
 6504SOL     OW30970   0.400   0.098   8.710  0.0868 -0.4248 -0.1646
 6504SOL    HW130971   0.324   0.144   8.747  0.6494 -0.2898  0.8281
 6504SOL    HW230972   0.457   0.086   8.787  1.9556  2.3602 -1.1410
 6505SOL     OW30973   0.992   4.514   3.605  0.0146 -0.1953 -0.5917
 6505SOL    HW130974   1.001   4.579   3.535 -0.8822 -1.0249 -1.4663
 6505SOL    HW230975   0.927   4.557   3.660 -1.5823 -1.2604 -1.6426
 6506SOL     OW30976   1.879   4.402  14.340 -0.4182  0.3675 -0.2780
 6506SOL    HW130977   1.855   4.429  14.429  1.0501 -0.1088  0.2724
 6506SOL    HW230978   1.845   4.313  14.344 -0.8188  0.5273 -0.0938
 6507SOL     OW30979   4.162   3.050   6.373 -0.4157  0.1017  0.3454
 6507SOL    HW130980   4.069   3.036   6.390  0.2056 -1.2972  2.7408
 6507SOL    HW230981   4.191   3.127   6.421 -0.0836  1.0202 -1.3405
 6508SOL     OW30982   3.773   3.559   5.460  0.5338  0.8637 -0.2948
 6508SOL    HW130983   3.728   3.494   5.513  0.4078  0.7773 -0.5066
 6508SOL    HW230984   3.800   3.508   5.384  2.3567 -1.6287  2.0258
 6509SOL     OW30985   2.147   3.922   7.237  0.4062  0.0447  0.0188
 6509SOL    HW130986   2.144   3.984   7.164  0.3567 -0.9289 -0.8071
 6509SOL    HW230987   2.233   3.883   7.220 -0.6975 -2.1455 -0.5909
 6510SOL     OW30988   3.533   3.295   7.239 -0.5830  0.1098  0.8726
 6510SOL    HW130989   3.468   3.287   7.309 -1.0894 -0.5397  0.3320
 6510SOL    HW230990   3.611   3.271   7.289 -0.0772  1.2600  0.6316
 6511SOL     OW30991   4.563   0.984   7.725  0.0362 -0.7083 -0.4494
 6511SOL    HW130992   4.479   1.011   7.687 -0.1123  0.0742  0.4052
 6511SOL    HW230993   4.540   0.933   7.803 -1.1306  1.8137  0.8648
 6512SOL     OW30994   1.969   0.462   2.856 -0.1488 -0.0193 -0.4113
 6512SOL    HW130995   2.065   0.464   2.859 -0.0809 -0.4637 -1.8665
 6512SOL    HW230996   1.938   0.539   2.903  1.0662  1.2518 -1.7006
 6513SOL     OW30997   3.232   4.203  16.988  0.1835 -0.3972  0.4103
 6513SOL    HW130998   3.247   4.153  17.068 -1.0677 -0.7368  0.4314
 6513SOL    HW230999   3.140   4.230  16.990 -0.1658 -1.4925 -0.8314
 6514SOL     OW31000   0.590   2.309   0.895  0.2942 -0.2275  0.2188
 6514SOL    HW131001   0.575   2.400   0.870 -0.5992  0.5531  3.5824
 6514SOL    HW231002   0.501   2.280   0.876 -0.2494  1.2766  0.4999
 6515SOL     OW31003   2.932   4.054   5.781 -0.6566  0.1012  0.1115
 6515SOL    HW131004   2.991   4.101   5.723  0.8661 -1.0569  0.7032
 6515SOL    HW231005   2.895   4.125   5.833 -3.1667 -0.4814 -0.8882
 6516SOL     OW31006   4.615   0.657   7.504  0.0605  0.3935 -0.2937
 6516SOL    HW131007   4.558   0.725   7.540  0.2906  0.4235  0.0220
 6516SOL    HW231008   4.695   0.707   7.488 -0.6496  1.0352 -1.7991
 6517SOL     OW31009   1.950   3.052   6.128  0.3749  1.1431  0.1139
 6517SOL    HW131010   1.857   3.072   6.133  0.2540  1.0996 -1.8988
 6517SOL    HW231011   1.993   3.132   6.157  2.2124 -0.3751  1.6451
 6518SOL     OW31012   0.836   0.202  15.069  0.0646 -0.0428  0.4366
 6518SOL    HW131013   0.889   0.238  14.998  0.1414 -0.4071  0.3079
 6518SOL    HW231014   0.829   0.112  15.036  1.6713 -0.0048 -0.0405
 6519SOL     OW31015   0.865   0.722   3.831  0.6463  0.6624  0.0868
 6519SOL    HW131016   0.779   0.747   3.866 -0.8849 -3.2663 -0.8158
 6519SOL    HW231017   0.918   0.753   3.904 -0.4844 -0.0024  1.2093
 6520SOL     OW31018   0.340   1.080   3.181 -0.6605  0.2712 -0.5451
 6520SOL    HW131019   0.288   1.040   3.111  0.2605 -2.4691  0.3377
 6520SOL    HW231020   0.310   1.171   3.173 -2.7520 -0.4935 -1.5279
 6521SOL     OW31021   2.762   4.055   8.438  0.0657  0.2022 -0.0158
 6521SOL    HW131022   2.725   4.019   8.357 -0.2387 -1.6986  0.9663
 6521SOL    HW231023   2.830   3.994   8.467 -1.0221 -1.6041 -1.2021
 6522SOL     OW31024   0.335   3.339  14.458  0.2067 -0.4124  0.6827
 6522SOL    HW131025   0.363   3.275  14.523  1.5151 -0.8807 -0.3660
 6522SOL    HW231026   0.411   3.398  14.463 -0.7247  0.8771 -0.2455
 6523SOL     OW31027   4.191   0.520   6.151 -0.1515 -0.3885 -0.1602
 6523SOL    HW131028   4.142   0.562   6.223 -1.2607  0.6809 -1.5285
 6523SOL    HW231029   4.120   0.478   6.103 -1.6599  3.0801 -0.9246
 6524SOL     OW31030   1.982   4.350   1.781  0.4262 -0.4448 -0.5722
 6524SOL    HW131031   1.991   4.426   1.839  2.4953 -1.8447  0.9513
 6524SOL    HW231032   2.040   4.288   1.824 -1.0166 -0.8877  0.7123
 6525SOL     OW31033   2.870   2.791   5.052 -0.1815  0.2202 -0.0882
 6525SOL    HW131034   2.812   2.826   5.120  0.1637 -1.1295  0.9051
 6525SOL    HW231035   2.803   2.747   5.000 -0.5780 -1.0989  1.5398
 6526SOL     OW31036   0.220   3.772  15.253 -0.0703  0.9381  0.5751
 6526SOL    HW131037   0.313   3.790  15.264 -0.3716  2.0883  1.3387
 6526SOL    HW231038   0.192   3.774  15.162  0.8120 -0.3907  0.2836
 6527SOL     OW31039   0.801   2.735   6.155  0.1856  0.1213  0.1845
 6527SOL    HW131040   0.822   2.782   6.235 -1.3543 -0.9692  1.2320
 6527SOL    HW231041   0.708   2.757   6.149 -0.0970 -1.1600 -0.1569
 6528SOL     OW31042   1.634   2.149   2.429  0.0473  0.3424 -0.3281
 6528SOL    HW131043   1.715   2.157   2.379  0.6188 -0.0725  0.5378
 6528SOL    HW231044   1.640   2.212   2.500 -1.4311 -0.0778  0.1686
 6529SOL     OW31045   4.256   0.290   4.296 -0.5438 -0.4785  0.2743
 6529SOL    HW131046   4.222   0.379   4.306 -0.8921 -0.7519  1.6103
 6529SOL    HW231047   4.252   0.256   4.386  2.3693 -0.4259  0.4007
 6530SOL     OW31048   1.300   1.657   8.103 -0.2986  0.3483  0.0297
 6530SOL    HW131049   1.355   1.699   8.169  1.1818 -0.8659 -0.4475
 6530SOL    HW231050   1.233   1.615   8.158  0.4425 -0.8470  0.0270
 6531SOL     OW31051   0.449   1.948  16.419 -0.1314  0.3837 -0.5166
 6531SOL    HW131052   0.413   1.965  16.332  0.1503  1.6621 -0.3754
 6531SOL    HW231053   0.433   2.032  16.461  1.9359  0.8998 -0.7718
 6532SOL     OW31054   3.612   1.319   6.313  0.1639 -0.1031  0.1798
 6532SOL    HW131055   3.631   1.226   6.325 -0.7717 -0.3497 -0.2830
 6532SOL    HW231056   3.614   1.328   6.218  4.2156 -1.3199  0.1732
 6533SOL     OW31057   1.417   0.643  12.238  0.3535 -0.2470  0.3998
 6533SOL    HW131058   1.421   0.558  12.194  0.3177 -0.5090  0.9092
 6533SOL    HW231059   1.506   0.676  12.224 -0.1813  1.0305 -0.0743
 6534SOL     OW31060   2.952   0.247   9.528  0.0456  0.2187  0.6282
 6534SOL    HW131061   2.875   0.304   9.534 -0.4421 -0.2131 -1.6007
 6534SOL    HW231062   3.020   0.314   9.523  0.3901 -0.1072  1.0056
 6535SOL     OW31063   4.470   2.440  10.634 -0.3559 -0.4747  0.7060
 6535SOL    HW131064   4.410   2.427  10.560 -0.2578 -1.0066  0.7271
 6535SOL    HW231065   4.550   2.396  10.607 -0.8991  0.5052 -2.4462
 6536SOL     OW31066   4.265   3.696   4.622 -0.4679 -0.3725 -0.5953
 6536SOL    HW131067   4.257   3.790   4.640  0.9786 -0.1183 -1.3241
 6536SOL    HW231068   4.172   3.679   4.607 -0.8872 -2.1620  3.9575
 6537SOL     OW31069   3.371   0.847  10.848 -0.0163 -0.2882  0.4829
 6537SOL    HW131070   3.399   0.866  10.938 -1.8890 -0.0838  1.0179
 6537SOL    HW231071   3.333   0.762  10.870  1.3623 -1.4641 -1.6936
 6538SOL     OW31072   0.386   1.572   8.749  0.3181 -0.2112  0.1968
 6538SOL    HW131073   0.423   1.526   8.824  0.0946 -1.7912 -0.6551
 6538SOL    HW231074   0.300   1.530   8.746  0.8757 -1.2799 -0.8346
 6539SOL     OW31075   3.354   4.571   3.222  0.1729 -0.7072  0.7001
 6539SOL    HW131076   3.393   4.658   3.208 -0.8708 -0.7364 -2.3404
 6539SOL    HW231077   3.419   4.520   3.173 -2.1334 -1.5061 -1.5315
 6540SOL     OW31078   3.337   1.921   5.038  0.5517  0.1174  0.2988
 6540SOL    HW131079   3.342   1.879   4.952 -0.7694 -0.1315  0.3441
 6540SOL    HW231080   3.247   1.897   5.059  0.2486  0.6223 -0.4372
 6541SOL     OW31081   0.812   4.593   7.301  0.2792 -0.3250 -0.2965
 6541SOL    HW131082   0.834   4.608   7.393  0.8071  0.0073 -0.4768
 6541SOL    HW231083   0.894   4.548   7.278  0.7689  0.5414 -0.2283
 6542SOL     OW31084   2.314   4.545  15.131  0.6886 -0.3022 -0.4749
 6542SOL    HW131085   2.355   4.538  15.217 -0.0570 -2.3321 -0.2863
 6542SOL    HW231086   2.221   4.534  15.153  0.6075 -0.1294 -0.7330
 6543SOL     OW31087   2.566   2.883   7.482  0.1792 -0.0112 -0.3336
 6543SOL    HW131088   2.661   2.896   7.477  0.4721 -2.1007 -0.0293
 6543SOL    HW231089   2.551   2.815   7.417  0.7712  0.1239 -0.6200
 6544SOL     OW31090   3.908   1.448   3.982  0.3554  0.2696 -0.6595
 6544SOL    HW131091   3.892   1.533   3.941 -2.1408 -0.5959 -1.4242
 6544SOL    HW231092   3.917   1.378   3.917  0.5127 -1.3237  1.0591
 6545SOL     OW31093   1.099   4.004  11.050 -0.1589 -0.5194 -0.4896
 6545SOL    HW131094   1.015   4.033  11.085  0.8167  1.5862  0.0902
 6545SOL    HW231095   1.076   4.002  10.957 -3.1632  0.9779  0.2123
 6546SOL     OW31096   3.211   3.729   4.176  0.5571 -0.0163 -0.8204
 6546SOL    HW131097   3.253   3.776   4.248 -1.9433  1.4104 -0.3115
 6546SOL    HW231098   3.209   3.637   4.203 -0.4616  0.0144 -0.8083
 6547SOL     OW31099   3.812   1.624   5.891 -0.4491 -0.4286 -0.2222
 6547SOL    HW131100   3.858   1.557   5.941  0.9463 -1.0338 -2.2873
 6547SOL    HW231101   3.873   1.664   5.828 -0.5860 -1.4613 -1.0220
 6548SOL     OW31102   2.283   3.806  14.894 -0.3555 -0.1499 -0.4752
 6548SOL    HW131103   2.333   3.873  14.941 -2.4427  2.1827 -1.5668
 6548SOL    HW231104   2.347   3.786  14.826  0.0964 -1.5084  0.3436
 6549SOL     OW31105   3.413   2.640  15.260 -0.1707 -0.2869 -0.2265
 6549SOL    HW131106   3.317   2.643  15.255 -0.2575  0.0907  1.6149
 6549SOL    HW231107   3.433   2.652  15.167 -0.0337  1.8811  0.0993
 6550SOL     OW31108   1.835   3.274   5.716  0.1784  0.0997 -0.1451
 6550SOL    HW131109   1.855   3.188   5.751  0.9726  0.0613 -0.6929
 6550SOL    HW231110   1.742   3.281   5.739  0.2864 -0.1544  0.3389
 6551SOL     OW31111   4.022   3.574   4.746 -0.0285  0.1551  0.1948
 6551SOL    HW131112   3.948   3.605   4.799  0.4651  0.2668  0.8134
 6551SOL    HW231113   4.020   3.481   4.768 -0.9295 -0.5638 -2.9878
 6552SOL     OW31114   4.667   1.703   9.273 -0.6046  0.1732  0.1982
 6552SOL    HW131115   4.650   1.637   9.206  0.5925  1.0132 -0.9430
 6552SOL    HW231116   0.001   1.764   9.228  0.5605 -2.5418 -1.9744
 6553SOL     OW31117   3.961   2.118   7.652  0.0550  0.0759  0.7908
 6553SOL    HW131118   4.048   2.088   7.625 -0.5862  0.1861 -1.3497
 6553SOL    HW231119   3.936   2.038   7.698  2.1654  0.6799  2.9719
 6554SOL     OW31120   2.463   2.988   3.977  0.1189  0.8091  0.2757
 6554SOL    HW131121   2.392   3.012   4.037 -0.0221  1.7557 -0.2622
 6554SOL    HW231122   2.541   3.007   4.030  0.0286  0.9005  0.3765
 6555SOL     OW31123   3.615   0.316  13.689  0.5512  0.1684  0.2536
 6555SOL    HW131124   3.617   0.376  13.763  0.9323  0.2464  0.1823
 6555SOL    HW231125   3.528   0.343  13.660  0.5587 -0.2478 -0.1543
 6556SOL     OW31126   2.275   3.445   3.470 -0.2181 -0.0478 -0.1969
 6556SOL    HW131127   2.275   3.381   3.399 -1.2547 -2.0366  1.6353
 6556SOL    HW231128   2.355   3.494   3.450 -0.1278  0.4075  1.3079
 6557SOL     OW31129   0.247   1.248  14.652  0.5497  0.4629 -0.4952
 6557SOL    HW131130   0.195   1.312  14.701 -3.3806 -2.8636 -0.2925
 6557SOL    HW231131   0.227   1.287  14.566 -2.2591 -0.3146 -0.1932
 6558SOL     OW31132   2.467   0.257  12.193 -0.7208  0.0326  0.2772
 6558SOL    HW131133   2.495   0.349  12.202  1.6273 -0.6855  0.4849
 6558SOL    HW231134   2.391   0.244  12.250 -0.7010 -1.4221 -0.0342
 6559SOL     OW31135   3.540   1.074   7.983 -0.3829  0.3017 -0.4327
 6559SOL    HW131136   3.459   1.118   8.007 -0.0159  1.2515 -0.9674
 6559SOL    HW231137   3.553   1.117   7.899 -1.0821  0.8529 -0.2542
 6560SOL     OW31138   2.582   3.199   6.849  0.2469  0.0939 -0.1011
 6560SOL    HW131139   2.645   3.271   6.847 -0.3722  0.5636 -3.1926
 6560SOL    HW231140   2.509   3.228   6.904  1.2277  2.8743 -0.2683
 6561SOL     OW31141   2.994   0.100   5.815  0.5502  0.0597 -0.0646
 6561SOL    HW131142   3.037   0.185   5.803  1.2685 -0.4039 -0.7573
 6561SOL    HW231143   2.921   0.096   5.753 -0.5665  1.8990  1.1354
 6562SOL     OW31144   0.100   0.370  13.051  0.6936 -0.1526  0.0019
 6562SOL    HW131145   0.007   0.390  13.046  1.0983  1.4844 -0.9506
 6562SOL    HW231146   0.145   0.407  12.975  1.1103  2.6458  1.6269
 6563SOL     OW31147   0.952   1.409   5.533  0.0170 -0.0693  0.7098
 6563SOL    HW131148   0.977   1.501   5.527 -0.7973  0.2080  1.4799
 6563SOL    HW231149   1.015   1.376   5.598  1.8406  0.1997 -0.9369
 6564SOL     OW31150   1.355   2.840   0.784 -0.3752  0.3824  0.1394
 6564SOL    HW131151   1.396   2.766   0.829 -0.9247  0.7000  1.1520
 6564SOL    HW231152   1.282   2.859   0.843 -1.0454 -2.5347  0.2331
 6565SOL     OW31153   2.183   2.785   2.495  0.0585  0.5171 -0.7435
 6565SOL    HW131154   2.259   2.838   2.472 -0.2582  1.4946  0.4544
 6565SOL    HW231155   2.206   2.727   2.567 -0.4820  0.4833 -0.5971
 6566SOL     OW31156   1.557   0.681   8.295 -0.0756  0.2922 -0.2915
 6566SOL    HW131157   1.508   0.639   8.225 -2.9376 -0.3782  2.1146
 6566SOL    HW231158   1.639   0.705   8.253 -0.2673 -0.0870 -0.8841
 6567SOL     OW31159   1.420   4.038  16.733  0.4595 -0.0415  0.2460
 6567SOL    HW131160   1.326   4.037  16.750 -0.0103 -0.1651 -2.2451
 6567SOL    HW231161   1.434   3.982  16.656  2.6207  1.2744 -0.3182
 6568SOL     OW31162   0.168   4.115   6.418  0.1499 -0.2422  0.7268
 6568SOL    HW131163   0.080   4.121   6.380  0.1861 -1.1049  0.5093
 6568SOL    HW231164   0.216   4.177   6.364 -0.0889 -0.8768 -0.2042
 6569SOL     OW31165   2.204   3.982   2.565  0.8950 -0.1700 -0.2735
 6569SOL    HW131166   2.152   3.974   2.485  1.5931 -1.5925 -0.5947
 6569SOL    HW231167   2.204   3.891   2.595  0.7600  0.2406  0.9645
 6570SOL     OW31168   2.772   1.049   5.176 -1.0432  0.2478 -0.4862
 6570SOL    HW131169   2.795   1.040   5.083 -1.2098  0.5547 -0.5573
 6570SOL    HW231170   2.817   1.131   5.198 -0.8791 -0.1152  0.5202
 6571SOL     OW31171   1.727   2.956   7.736 -0.2510 -0.6436 -0.1321
 6571SOL    HW131172   1.799   3.017   7.752 -3.7206  2.9578  1.7975
 6571SOL    HW231173   1.769   2.881   7.777  3.0540  1.1803 -0.1471
 6572SOL     OW31174   0.946   2.373   5.200 -0.0421  0.1595 -0.2554
 6572SOL    HW131175   0.962   2.286   5.165  0.6597 -0.0843  0.6830
 6572SOL    HW231176   0.865   2.370   5.251 -0.2285 -2.5837 -0.7211
 6573SOL     OW31177   0.072   2.576   5.661 -0.4832  0.7095 -0.4205
 6573SOL    HW131178   0.060   2.578   5.566  1.4070  1.4876 -0.6566
 6573SOL    HW231179   0.013   2.645   5.691 -0.5514  0.5929 -0.2905
 6574SOL     OW31180   2.583   4.031   7.140  0.0128 -0.2195 -0.4611
 6574SOL    HW131181   2.561   4.029   7.233  1.9881 -0.5777 -0.0026
 6574SOL    HW231182   2.507   4.078   7.106  0.5125 -0.7053 -2.2337
 6575SOL     OW31183   1.230   2.369   5.289 -0.1776 -0.0977  0.4266
 6575SOL    HW131184   1.142   2.382   5.256 -0.0995  0.0539  0.2756
 6575SOL    HW231185   1.282   2.360   5.209 -0.6822 -0.4876  0.1457
 6576SOL     OW31186   1.591   3.722  15.285  0.1546 -0.1651 -0.0130
 6576SOL    HW131187   1.577   3.634  15.250  0.8537  0.3009 -1.4331
 6576SOL    HW231188   1.511   3.736  15.335 -1.1494  1.2615 -2.5145
 6577SOL     OW31189   1.641   0.552   4.960  0.6995 -0.1081  0.0463
 6577SOL    HW131190   1.597   0.582   4.880 -1.3057 -1.8422  0.5224
 6577SOL    HW231191   1.649   0.637   5.004  2.6242  1.2833 -2.9814
 6578SOL     OW31192   1.447   3.900  10.880 -0.0022  0.2444  0.0042
 6578SOL    HW131193   1.378   3.834  10.888  1.1563 -1.1938 -1.8400
 6578SOL    HW231194   1.525   3.862  10.841  0.4678 -1.2990  2.4600
 6579SOL     OW31195   4.705   0.675   3.275  0.1935 -0.2500 -0.4746
 6579SOL    HW131196   4.670   0.586   3.270  0.2601 -0.3260  0.5146
 6579SOL    HW231197   0.074   0.653   3.267  0.4866  0.6872  0.3708
 6580SOL     OW31198   4.251   3.567   5.093 -0.2108 -0.4692  0.3036
 6580SOL    HW131199   4.326   3.540   5.039  1.3071  2.1284  1.0783
 6580SOL    HW231200   4.257   3.662   5.085 -0.9849 -0.7802 -3.7910
 6581SOL     OW31201   0.912   0.062   6.396 -0.2273  0.1070  0.0612
 6581SOL    HW131202   0.903   0.158   6.402  3.0400  0.5455 -1.6846
 6581SOL    HW231203   0.937   0.053   6.304  0.2400 -1.1384  0.3196
 6582SOL     OW31204   0.136   3.364   7.035  0.1639  0.0696  0.0703
 6582SOL    HW131205   0.179   3.341   6.952 -2.1212  0.3154 -1.1970
 6582SOL    HW231206   0.053   3.322   7.012 -1.7159  2.7997  1.8115
 6583SOL     OW31207   3.488   1.127  15.320 -0.4800 -0.6929 -0.1150
 6583SOL    HW131208   3.536   1.179  15.256  0.1235 -0.1440  0.7747
 6583SOL    HW231209   3.523   1.174  15.396  1.8753 -1.4490 -0.7362
 6584SOL     OW31210   0.497   0.535   6.661  0.7696 -0.6083  0.6780
 6584SOL    HW131211   0.476   0.589   6.584 -2.2360 -0.4622  1.5828
 6584SOL    HW231212   0.524   0.451   6.625  0.3480 -0.8054  0.8268
 6585SOL     OW31213   2.647   0.633   8.492 -0.0286 -0.2570 -0.1867
 6585SOL    HW131214   2.618   0.722   8.508  0.3920 -0.2419  0.4872
 6585SOL    HW231215   2.562   0.588   8.495  0.8530 -1.8409  1.2863
 6586SOL     OW31216   4.278   4.132   4.971 -0.1100  0.5754  0.2141
 6586SOL    HW131217   4.268   4.226   4.952  0.5245  0.0485 -2.7691
 6586SOL    HW231218   4.354   4.123   5.028 -1.2778 -3.9666  1.0421
 6587SOL     OW31219   2.226   1.168  15.200  0.2059 -0.9867 -0.0268
 6587SOL    HW131220   2.278   1.236  15.242  0.5465 -0.3549 -1.4619
 6587SOL    HW231221   2.261   1.173  15.111  1.6354  0.1447  0.5909
 6588SOL     OW31222   2.823   1.068   4.479  0.0822  0.4824  0.1308
 6588SOL    HW131223   2.850   1.024   4.399 -2.0043  0.0267 -0.3156
 6588SOL    HW231224   2.793   1.151   4.442  1.2375  1.4858  1.4058
 6589SOL     OW31225   3.994   1.861  11.350  0.3747 -0.3805 -0.2836
 6589SOL    HW131226   3.955   1.776  11.334  0.2467  0.0109 -1.9728
 6589SOL    HW231227   4.028   1.865  11.440  0.1138  0.8094 -0.2281
 6590SOL     OW31228   4.672   4.416   1.047  0.3738  0.3291  0.5006
 6590SOL    HW131229   4.686   4.323   1.063 -0.2472  0.5167  2.1449
 6590SOL    HW231230   4.641   4.445   1.133 -0.4707  0.0683  0.2847
 6591SOL     OW31231   2.456   0.387   8.977  0.2249 -0.2153  0.0452
 6591SOL    HW131232   2.399   0.372   8.901 -1.2219  1.2285  0.8612
 6591SOL    HW231233   2.441   0.478   9.002  1.5229 -0.1808  0.6973
 6592SOL     OW31234   2.901   4.650   8.243 -0.4876  0.1924 -0.3204
 6592SOL    HW131235   2.870   4.564   8.215 -3.2176  0.9035  0.5013
 6592SOL    HW231236   2.907   4.637   8.338 -0.3073  0.9046 -0.2293
 6593SOL     OW31237   1.379   2.394   8.407  0.2773  0.3962  0.2972
 6593SOL    HW131238   1.367   2.306   8.443  0.4714  0.7256  1.1742
 6593SOL    HW231239   1.463   2.381   8.364  0.0434  0.4838 -0.1834
 6594SOL     OW31240   0.782   1.715   4.647 -0.3792 -0.3123 -0.0495
 6594SOL    HW131241   0.758   1.807   4.638  1.4680  0.0870 -0.8300
 6594SOL    HW231242   0.772   1.684   4.557  0.2777 -0.3086 -0.1251
 6595SOL     OW31243   1.351   2.431   9.014  0.2322 -0.0033  0.4926
 6595SOL    HW131244   1.292   2.485   9.067  1.9397  2.1445  0.2180
 6595SOL    HW231245   1.427   2.441   9.072 -0.8805 -0.8317  2.0911
 6596SOL     OW31246   1.357   2.215   5.681  0.7551  0.3365 -0.2897
 6596SOL    HW131247   1.309   2.136   5.658  0.6135 -0.2462  2.0814
 6596SOL    HW231248   1.370   2.195   5.774  0.2419 -0.1290 -0.3210
 6597SOL     OW31249   1.916   4.377   3.230  0.4329  0.1622 -0.4159
 6597SOL    HW131250   1.902   4.286   3.203  3.3366 -0.1803 -0.7805
 6597SOL    HW231251   1.910   4.376   3.326 -0.1301 -0.1565 -0.4531
 6598SOL     OW31252   2.815   2.087  17.149 -0.3770 -0.1146 -0.4609
 6598SOL    HW131253   2.760   2.108  17.224 -0.2506  0.2798 -0.4758
 6598SOL    HW231254   2.806   2.168  17.098 -0.3227 -0.1391 -0.5093
 6599SOL     OW31255   1.595   2.222   2.756 -0.4835  0.0215 -0.3954
 6599SOL    HW131256   1.585   2.133   2.789 -0.1186 -0.1660 -0.7888
 6599SOL    HW231257   1.512   2.239   2.711  0.8809 -0.2414 -3.0056
 6600SOL     OW31258   3.121   0.166   3.549 -0.3678  0.6083  0.3682
 6600SOL    HW131259   3.171   0.247   3.540 -0.1391  0.3103 -0.9560
 6600SOL    HW231260   3.075   0.187   3.630  0.5140 -1.3004  1.3668
 6601SOL     OW31261   3.020   4.067  11.232 -0.0649 -0.3705  0.1882
 6601SOL    HW131262   3.103   4.090  11.274 -1.2096  0.3285  2.0646
 6601SOL    HW231263   3.042   4.043  11.142 -0.9543  0.3599 -0.2253
 6602SOL     OW31264   2.393   0.032   4.833  0.1931 -0.3406  0.0181
 6602SOL    HW131265   2.390   0.005   4.741  0.4948  0.7531 -0.3158
 6602SOL    HW231266   2.440   4.682   4.870  1.8130  0.8039  0.2940
 6603SOL     OW31267   3.494   3.500  10.087 -0.0637  0.1014  0.8461
 6603SOL    HW131268   3.497   3.592  10.113 -1.1857 -0.1013  1.7131
 6603SOL    HW231269   3.432   3.458  10.147 -1.0560  0.4341  0.0487
 6604SOL     OW31270   0.555   4.433   6.586  0.6295  0.2262  0.5240
 6604SOL    HW131271   0.588   4.482   6.661  1.5084 -2.5922  2.0117
 6604SOL    HW231272   0.583   4.344   6.608  0.7353  0.0866 -0.1954
 6605SOL     OW31273   0.992   1.965   3.153 -0.2042 -0.0135  0.0660
 6605SOL    HW131274   1.016   2.028   3.221  1.1289 -0.5991  0.1351
 6605SOL    HW231275   1.064   1.902   3.156  0.1333  0.3734  0.1124
 6606SOL     OW31276   1.811   3.627  14.302  0.1674  0.2191  0.0475
 6606SOL    HW131277   1.844   3.549  14.347 -2.0128  1.1207  3.1506
 6606SOL    HW231278   1.760   3.603  14.225 -1.7184  1.6135  0.8743
 6607SOL     OW31279   1.769   2.800   1.790  0.0781 -0.0684 -0.4310
 6607SOL    HW131280   1.846   2.838   1.833 -0.6579 -1.7228  2.3201
 6607SOL    HW231281   1.743   2.857   1.717  2.1457  1.9928  0.4300
 6608SOL     OW31282   4.110   3.111  16.940  0.1859 -0.3115 -0.4484
 6608SOL    HW131283   4.017   3.109  16.918 -0.4543  0.7793  2.0689
 6608SOL    HW231284   4.112   3.072  17.027  1.3359 -1.7317 -1.1190
 6609SOL     OW31285   3.707   0.888  16.948 -0.0425  0.0444 -0.4112
 6609SOL    HW131286   3.726   0.968  16.997 -3.0394  0.2857  0.3927
 6609SOL    HW231287   3.746   0.825  17.009  1.5898  1.0695 -0.3830
 6610SOL     OW31288   0.129   3.405   4.395 -0.1251  0.5625 -0.2207
 6610SOL    HW131289   0.075   3.330   4.370 -0.6217  0.6132  0.6830
 6610SOL    HW231290   0.081   3.414   4.478  0.1011 -1.0074  0.0640
 6611SOL     OW31291   0.246   4.174   4.378 -0.1589 -0.1910 -0.0292
 6611SOL    HW131292   0.334   4.137   4.366 -0.4157 -0.7732 -0.1151
 6611SOL    HW231293   0.190   4.097   4.366 -0.0668 -0.7131  2.9363
 6612SOL     OW31294   0.902   1.256  16.788  0.3329 -0.6192  0.3011
 6612SOL    HW131295   0.850   1.330  16.822 -0.5294 -1.2709  0.4160
 6612SOL    HW231296   0.906   1.198  16.864 -0.8642 -1.6841 -0.4543
 6613SOL     OW31297   3.738   1.364   2.403 -0.3359  0.3199 -0.0759
 6613SOL    HW131298   3.808   1.417   2.441  0.2349  0.2623 -1.0549
 6613SOL    HW231299   3.705   1.419   2.332 -0.1041  1.4012  0.6424
 6614SOL     OW31300   2.023   2.636   5.897  0.5715  0.0056  0.2523
 6614SOL    HW131301   2.034   2.563   5.837 -3.5967  0.1524 -0.6780
 6614SOL    HW231302   2.099   2.691   5.877  1.0222 -1.3038 -1.5227
 6615SOL     OW31303   2.900   0.895   9.088 -0.8183 -0.5916  0.1183
 6615SOL    HW131304   2.876   0.806   9.063 -0.7750 -0.2450 -1.1286
 6615SOL    HW231305   2.981   0.914   9.040 -1.7774  3.3951  0.0507
 6616SOL     OW31306   2.916   1.079   2.215 -0.6003 -0.5150 -0.0700
 6616SOL    HW131307   2.888   1.000   2.169 -2.7628  0.1417  0.1169
 6616SOL    HW231308   2.970   1.107   2.141 -0.3074  1.3563  0.8505
 6617SOL     OW31309   3.815   2.547   1.914 -0.3154 -0.1254 -0.3846
 6617SOL    HW131310   3.793   2.469   1.966  2.1288  0.9479  2.2651
 6617SOL    HW231311   3.726   2.568   1.886 -0.4308 -0.3936 -0.2226
 6618SOL     OW31312   0.835   1.073   5.003 -0.1193 -0.0996 -0.1364
 6618SOL    HW131313   0.819   1.002   4.941  0.8528  0.0852 -0.5964
 6618SOL    HW231314   0.816   1.025   5.084 -3.4492  1.0655 -0.2092
 6619SOL     OW31315   3.180   4.240   1.154  0.6255  0.3611 -0.2897
 6619SOL    HW131316   3.245   4.175   1.128 -0.8963 -1.2964  0.0410
 6619SOL    HW231317   3.120   4.184   1.204  0.3940  0.4671 -0.4504
 6620SOL     OW31318   4.538   0.271   2.300 -0.4769  0.1506 -0.3997
 6620SOL    HW131319   4.564   0.346   2.352  0.2690  0.4363 -1.1802
 6620SOL    HW231320   4.508   0.307   2.217 -3.1445  2.0999  1.4175
 6621SOL     OW31321   1.793   1.509   7.245  0.0650  0.2259 -0.1917
 6621SOL    HW131322   1.728   1.454   7.200  0.0015  1.6617 -1.8332
 6621SOL    HW231323   1.754   1.515   7.332 -1.5548 -0.7543 -0.8542
 6622SOL     OW31324   0.783   3.975   2.661  0.1793 -0.2804 -0.1997
 6622SOL    HW131325   0.761   4.053   2.712  0.2644 -2.2672  2.9240
 6622SOL    HW231326   0.788   4.023   2.579  0.5026  1.4885  0.8663
 6623SOL     OW31327   3.178   1.303  13.239  0.1077 -0.2017 -0.3823
 6623SOL    HW131328   3.100   1.357  13.233  1.0747  1.2723  0.3971
 6623SOL    HW231329   3.180   1.293  13.334 -1.6149  2.7028 -0.0458
 6624SOL     OW31330   2.921   0.081   6.327 -0.0080  0.1006 -0.1287
 6624SOL    HW131331   2.966   0.075   6.242  2.4513  1.6559  1.0624
 6624SOL    HW231332   2.858   0.010   6.312 -0.8133  0.9659 -0.8581
 6625SOL     OW31333   3.485   1.898  15.203  0.1448 -0.2859 -0.0443
 6625SOL    HW131334   3.534   1.819  15.226 -1.0823 -1.1693 -0.5053
 6625SOL    HW231335   3.515   1.925  15.116  0.0298  0.7626  0.2418
 6626SOL     OW31336   2.585   1.649   3.203 -0.3478 -0.5387 -0.0509
 6626SOL    HW131337   2.673   1.613   3.195 -0.4421 -0.6054 -0.7701
 6626SOL    HW231338   2.610   1.709   3.274 -3.0669  1.6464 -0.9053
 6627SOL     OW31339   2.955   0.382  10.316  0.2698  0.1228  0.4149
 6627SOL    HW131340   2.925   0.456  10.368 -0.7990 -0.1739  0.2248
 6627SOL    HW231341   3.038   0.366  10.360  0.8991  0.7691 -0.5571
 6628SOL     OW31342   0.790   1.685   6.163 -0.1633 -0.0671  0.2352
 6628SOL    HW131343   0.859   1.749   6.179  0.1244  0.1100 -1.7083
 6628SOL    HW231344   0.818   1.641   6.083  0.3883 -1.3245  1.1241
 6629SOL     OW31345   1.201   2.363  10.202  0.3098 -0.4631  0.6956
 6629SOL    HW131346   1.275   2.379  10.142 -1.4923 -0.0270 -1.3969
 6629SOL    HW231347   1.245   2.380  10.285  0.2834  0.9202  0.4262
 6630SOL     OW31348   2.748   2.139   8.011  0.1575  0.5042 -0.0080
 6630SOL    HW131349   2.748   2.223   8.057 -1.9624  0.4671  0.0659
 6630SOL    HW231350   2.771   2.084   8.086  3.3458 -1.3507 -2.3835
 6631SOL     OW31351   4.471   1.127   4.174 -0.4192  0.0387  0.5147
 6631SOL    HW131352   4.537   1.090   4.232 -0.2870 -1.0121 -0.3155
 6631SOL    HW231353   4.445   1.209   4.217 -0.8922  0.0309  0.2483
 6632SOL     OW31354   0.631   2.022  12.871  0.1497 -0.0982 -0.2025
 6632SOL    HW131355   0.603   2.086  12.806 -0.8283 -0.4308 -0.1230
 6632SOL    HW231356   0.626   1.943  12.816 -0.3926 -0.1058 -0.1443
 6633SOL     OW31357   2.949   0.407   4.352 -0.0242 -0.8056  0.0583
 6633SOL    HW131358   3.036   0.446   4.362 -0.8034  1.0507 -0.3641
 6633SOL    HW231359   2.910   0.473   4.293  0.0593  0.9024  1.9235
 6634SOL     OW31360   4.258   4.473  16.905 -0.3951 -0.2002 -0.3414
 6634SOL    HW131361   4.329   4.448  16.846  0.3188  1.9469 -0.3976
 6634SOL    HW231362   4.188   4.415  16.874 -0.8636  0.1446  0.0733
 6635SOL     OW31363   2.560   1.017  13.154 -0.8622  0.2047 -0.2644
 6635SOL    HW131364   2.622   0.998  13.084 -0.7564 -2.8794  0.6654
 6635SOL    HW231365   2.521   0.932  13.174 -0.4663 -0.1140 -0.8811
 6636SOL     OW31366   2.966   4.515   6.070  0.1622 -0.3578  0.4828
 6636SOL    HW131367   2.983   4.609   6.066  0.5317 -0.5450 -2.5438
 6636SOL    HW231368   2.949   4.497   6.162 -0.2643  0.7143  0.6154
 6637SOL     OW31369   2.306   1.807   6.667 -0.1134  0.2990  0.5354
 6637SOL    HW131370   2.227   1.759   6.640 -0.6668  1.7057 -0.3713
 6637SOL    HW231371   2.264   1.893   6.674 -1.3429 -0.1988 -0.6949
 6638SOL     OW31372   1.726   4.639  16.851 -0.4893  0.8208  0.2176
 6638SOL    HW131373   1.703   4.680  16.767  1.0457 -0.8095 -0.9930
 6638SOL    HW231374   1.817   4.663  16.866 -0.4078  1.5776 -1.5105
 6639SOL     OW31375   3.048   1.558  17.629  0.1714  0.8028  0.3136
 6639SOL    HW131376   3.041   1.611   0.010  0.9653  1.5768 -0.1382
 6639SOL    HW231377   2.957   1.537  17.609  0.7707 -3.1375  1.6914
 6640SOL     OW31378   0.907   1.004   8.966 -0.0956  0.3729 -0.0493
 6640SOL    HW131379   0.974   0.940   8.944 -1.7137 -1.5327  0.5752
 6640SOL    HW231380   0.944   1.042   9.045 -1.0058 -3.1970  2.1084
 6641SOL     OW31381   2.802   1.231   5.856  1.0609  0.0659 -1.3186
 6641SOL    HW131382   2.810   1.144   5.894 -0.7969  0.0500 -0.9689
 6641SOL    HW231383   2.881   1.233   5.802  2.0942 -0.7399  0.1647
 6642SOL     OW31384   1.321   2.545   4.954  0.6168 -0.0119 -0.7150
 6642SOL    HW131385   1.390   2.520   5.016  2.0928  2.3809 -1.4169
 6642SOL    HW231386   1.291   2.625   4.996  1.8941  0.6474 -1.0827
 6643SOL     OW31387   4.418   1.509   6.398 -0.1080 -0.4189 -0.7369
 6643SOL    HW131388   4.452   1.564   6.469  0.9212 -1.4276 -0.4430
 6643SOL    HW231389   4.357   1.452   6.443  0.6241 -1.1777 -0.7009
 6644SOL     OW31390   0.535   1.711   3.486  0.3265  0.2511 -0.0830
 6644SOL    HW131391   0.602   1.778   3.475  1.4224 -0.4530  2.4321
 6644SOL    HW231392   0.565   1.646   3.422  3.2478  0.2643  1.2770
 6645SOL     OW31393   3.290   4.382   6.186  0.3150 -0.1215  0.3998
 6645SOL    HW131394   3.219   4.413   6.244  0.3120  0.8135 -0.1041
 6645SOL    HW231395   3.341   4.460   6.166 -1.0746  0.5510 -0.4816
 6646SOL     OW31396   1.383   0.422   3.397 -0.0917  0.5814  0.1278
 6646SOL    HW131397   1.378   0.346   3.339  1.1713  0.0106  0.7738
 6646SOL    HW231398   1.476   0.420   3.418  0.2842 -1.1656 -1.7061
 6647SOL     OW31399   1.938   3.537   0.811  0.1017  0.6418 -0.4664
 6647SOL    HW131400   1.909   3.579   0.892 -1.6716  1.3315 -1.4349
 6647SOL    HW231401   1.887   3.586   0.746  1.8843  0.3299 -2.0812
 6648SOL     OW31402   2.447   1.975  15.720 -0.3300 -0.4323  0.5065
 6648SOL    HW131403   2.498   2.021  15.653 -1.6499 -1.0392 -0.9172
 6648SOL    HW231404   2.495   1.893  15.709  1.2211  0.1616  2.7792
 6649SOL     OW31405   0.368   2.830   7.842  0.0895 -0.0759  0.2934
 6649SOL    HW131406   0.341   2.901   7.783 -2.4719 -0.9532  0.4215
 6649SOL    HW231407   0.304   2.760   7.834 -0.1357 -0.1370  2.7564
 6650SOL     OW31408   1.047   1.415   4.935 -0.3016  0.0787  0.2441
 6650SOL    HW131409   1.135   1.379   4.932  1.2666  3.8598  1.4756
 6650SOL    HW231410   1.030   1.384   5.024 -0.7161 -1.1337 -0.2594
 6651SOL     OW31411   1.315   0.297   6.757 -0.2445 -0.3510 -0.9021
 6651SOL    HW131412   1.243   0.276   6.698 -1.5113  0.3210  0.4072
 6651SOL    HW231413   1.323   0.215   6.806  1.7305 -0.0232 -0.6703
 6652SOL     OW31414   0.801   3.092  15.218  0.4739  0.0513  0.4404
 6652SOL    HW131415   0.759   3.037  15.152  0.3053  1.3874 -0.5636
 6652SOL    HW231416   0.862   3.023  15.244 -1.3712 -1.8069 -0.1889
 6653SOL     OW31417   3.076   1.389   3.283 -0.0935  0.0553 -0.2869
 6653SOL    HW131418   3.137   1.364   3.213  0.0336  0.1843 -0.2215
 6653SOL    HW231419   3.123   1.467   3.313  0.5138 -0.2824 -0.3601
 6654SOL     OW31420   0.935   1.552   3.033 -0.1475 -0.5411 -0.2441
 6654SOL    HW131421   0.869   1.550   2.963  0.2829  1.1324 -0.6938
 6654SOL    HW231422   0.902   1.616   3.096  0.1065 -2.0940  1.4490
 6655SOL     OW31423   3.185   0.522  15.233 -0.4712  0.2658  0.3929
 6655SOL    HW131424   3.114   0.524  15.168 -0.3837 -0.2968  0.2856
 6655SOL    HW231425   3.194   0.427  15.239  0.6397  0.3253 -0.2912
 6656SOL     OW31426   1.609   2.052  15.863 -0.0676 -0.3990  0.1799
 6656SOL    HW131427   1.651   2.135  15.842  0.6328 -0.6012  0.7546
 6656SOL    HW231428   1.608   2.056  15.959  0.9653  0.6383  0.1576
 6657SOL     OW31429   4.095   1.294  11.616 -0.1278 -0.3601  0.1787
 6657SOL    HW131430   4.169   1.354  11.630  0.2701 -0.7256 -0.3778
 6657SOL    HW231431   4.127   1.256  11.534 -0.9213 -0.1282 -0.2426
 6658SOL     OW31432   1.634   2.530   7.860  0.1376 -0.4334  0.2502
 6658SOL    HW131433   1.633   2.535   7.956  1.0578 -1.7042  0.3135
 6658SOL    HW231434   1.543   2.505   7.844 -0.1185  0.9091 -0.3770
 6659SOL     OW31435   0.835   0.462   5.075  0.1135 -0.1332 -0.9610
 6659SOL    HW131436   0.816   0.407   4.998 -0.6062 -1.4334  0.1395
 6659SOL    HW231437   0.744   0.480   5.100  0.5015  0.4106  0.0421
 6660SOL     OW31438   3.480   2.261   7.388  0.1294 -0.0779  0.2327
 6660SOL    HW131439   3.422   2.185   7.392 -0.1163  0.1149  0.3771
 6660SOL    HW231440   3.546   2.237   7.453 -1.1543 -0.3417  1.4604
 6661SOL     OW31441   1.308   1.265   6.221  0.0119 -0.1295 -0.0647
 6661SOL    HW131442   1.231   1.290   6.273 -1.6448 -1.7997 -1.7451
 6661SOL    HW231443   1.374   1.326   6.255  1.8331 -1.0542 -1.9372
 6662SOL     OW31444   2.508   3.730   2.628  0.1797  0.1868 -0.2837
 6662SOL    HW131445   2.535   3.756   2.540 -0.4601  2.7842  0.3031
 6662SOL    HW231446   2.583   3.674   2.649 -1.7832 -1.1132  3.1734
 6663SOL     OW31447   2.992   2.764   7.016  0.7624  0.0329  0.5904
 6663SOL    HW131448   2.924   2.775   6.950  1.6912  1.9296 -0.0218
 6663SOL    HW231449   3.070   2.734   6.969  1.0178  0.3953  0.7894
 6664SOL     OW31450   3.265   4.193   3.643  0.1058  0.1396  0.3547
 6664SOL    HW131451   3.266   4.213   3.737  1.8730  1.6071  0.0083
 6664SOL    HW231452   3.317   4.269   3.618 -0.5785  0.2370 -0.7535
 6665SOL     OW31453   0.934   1.194   3.927 -0.0612  0.4486  0.4290
 6665SOL    HW131454   1.024   1.215   3.953 -0.2321  1.1848  0.4338
 6665SOL    HW231455   0.897   1.282   3.932  0.6135  0.9442 -3.2969
 6666SOL     OW31456   2.492   1.820  14.093 -0.2886  0.6569 -0.1326
 6666SOL    HW131457   2.562   1.767  14.057  2.3319  3.7559  0.4155
 6666SOL    HW231458   2.429   1.756  14.127  0.3120 -0.0418 -0.3473
 6667SOL     OW31459   1.804   2.794   5.815 -0.4398  0.7296  0.0427
 6667SOL    HW131460   1.853   2.740   5.877  0.3642  0.9135 -0.4204
 6667SOL    HW231461   1.760   2.728   5.762 -0.3554 -0.1879  1.1277
 6668SOL     OW31462   0.776   3.379   3.883 -0.3705  0.1015 -0.0132
 6668SOL    HW131463   0.814   3.410   3.966 -1.5920 -1.5312  1.1536
 6668SOL    HW231464   0.810   3.289   3.882  0.9927  0.6080 -0.2255
 6669SOL     OW31465   4.661   0.956   6.334  0.5161 -0.1196 -0.3681
 6669SOL    HW131466   4.628   1.042   6.308  1.3386  0.3199  0.0528
 6669SOL    HW231467   4.645   0.971   6.427 -1.6776  0.9091 -0.9046
 6670SOL     OW31468   3.152   2.554   5.129  0.2189  0.0473  0.4475
 6670SOL    HW131469   3.085   2.493   5.158 -0.9959  0.9688 -0.4574
 6670SOL    HW231470   3.122   2.581   5.043 -0.6302  0.0549  0.7485
 6671SOL     OW31471   0.950   2.704   4.608 -0.0360  0.3840  0.0237
 6671SOL    HW131472   0.946   2.742   4.520 -1.5972  0.9493  0.3338
 6671SOL    HW231473   1.039   2.722   4.638 -1.1750  1.0344  2.9419
 6672SOL     OW31474   1.191   3.393   5.943  0.3800  0.4722  0.2531
 6672SOL    HW131475   1.266   3.450   5.955  1.3113 -0.6556 -0.2963
 6672SOL    HW231476   1.171   3.358   6.030 -1.8489  1.9542  0.3382
 6673SOL     OW31477   0.890   3.692  17.353  0.0029 -0.1398  0.1049
 6673SOL    HW131478   0.806   3.719  17.316 -0.1217  1.0171  1.2062
 6673SOL    HW231479   0.854   3.648  17.430 -2.1626 -0.3062 -0.9946
 6674SOL     OW31480   2.211   4.643   1.761  0.2873 -0.4861  0.0380
 6674SOL    HW131481   2.288   4.598   1.727  0.2282 -0.3632 -0.2650
 6674SOL    HW231482   2.157   4.669   1.685 -2.2470 -0.1324  1.9627
 6675SOL     OW31483   1.697   3.240   1.655  0.5358  0.5838 -0.3582
 6675SOL    HW131484   1.692   3.179   1.728  1.4443  1.4211  0.4078
 6675SOL    HW231485   1.614   3.226   1.610  1.1372 -1.5345 -0.7694
 6676SOL     OW31486   4.214   3.348   8.495  0.4038 -0.4401 -0.3456
 6676SOL    HW131487   4.292   3.347   8.441  0.5481 -0.0530 -0.1464
 6676SOL    HW231488   4.195   3.255   8.509  2.6786 -0.5589  1.9103
 6677SOL     OW31489   3.371   2.144   6.966 -0.0410  0.4484  0.2044
 6677SOL    HW131490   3.438   2.189   7.019  0.5364 -1.3778  1.0269
 6677SOL    HW231491   3.301   2.210   6.965 -0.1761  0.3094  0.4862
 6678SOL     OW31492   4.057   1.153   0.439 -0.8453 -0.2215 -0.4880
 6678SOL    HW131493   4.150   1.153   0.461 -1.6396  1.4126  2.9227
 6678SOL    HW231494   4.042   1.245   0.461 -1.2296 -0.4908  0.3856
 6679SOL     OW31495   4.056   0.761   2.946 -0.5598 -0.2289 -0.3283
 6679SOL    HW131496   4.134   0.712   2.971 -0.5201 -1.0453 -2.0317
 6679SOL    HW231497   3.998   0.691   2.915 -0.8862 -1.0396  2.1491
 6680SOL     OW31498   3.222   4.305   8.378 -0.2554  0.2405 -0.4832
 6680SOL    HW131499   3.177   4.221   8.384 -0.0592  0.2365  0.9009
 6680SOL    HW231500   3.280   4.279   8.449 -1.1745 -3.9678 -1.2835
 6681SOL     OW31501   2.289   1.661   3.204 -0.3416  0.1384  0.2385
 6681SOL    HW131502   2.286   1.755   3.184 -0.5634  0.1228  0.2039
 6681SOL    HW231503   2.382   1.645   3.220 -0.9692 -1.8100  1.8888
 6682SOL     OW31504   1.594   3.719   6.341  0.9169  0.1004  0.1247
 6682SOL    HW131505   1.685   3.700   6.319  0.9134  0.9716 -0.6358
 6682SOL    HW231506   1.581   3.801   6.294 -1.4650  0.5803  1.6292
 6683SOL     OW31507   2.157   4.537   4.377 -0.2413 -0.5163  0.3766
 6683SOL    HW131508   2.140   4.517   4.469 -1.3656  0.1020  0.3095
 6683SOL    HW231509   2.171   4.632   4.380 -2.4432 -0.1947  0.2628
 6684SOL     OW31510   0.335   1.097  14.053 -0.1814  0.2033 -0.2371
 6684SOL    HW131511   0.315   1.004  14.070  0.3494  0.1693  0.2031
 6684SOL    HW231512   0.323   1.135  14.140 -0.1409  1.3111 -0.7187
 6685SOL     OW31513   2.049   0.112   0.732  0.0519  0.6757  0.0400
 6685SOL    HW131514   1.967   0.063   0.744 -0.8460  2.5581  1.5924
 6685SOL    HW231515   2.043   0.126   0.638 -0.1348 -0.4289 -0.1139
 6686SOL     OW31516   1.987   1.843   6.836  0.1754 -0.3421  0.4637
 6686SOL    HW131517   1.913   1.892   6.800 -2.2286 -2.6823  2.2840
 6686SOL    HW231518   2.059   1.896   6.800 -0.4120  0.5805  0.6641
 6687SOL     OW31519   2.792   2.217   8.470 -0.1444  0.5492  0.5529
 6687SOL    HW131520   2.742   2.244   8.547 -1.2646 -0.8317  0.3019
 6687SOL    HW231521   2.846   2.294   8.449 -1.9420  1.6035 -0.1908
 6688SOL     OW31522   2.794   3.249   3.056 -0.9359 -0.0854  0.1382
 6688SOL    HW131523   2.880   3.238   3.098 -1.4742 -1.3039  0.9034
 6688SOL    HW231524   2.771   3.170   3.008  0.8178 -1.4860  1.6014
 6689SOL     OW31525   1.379   4.472   3.519  0.0646  0.2552  0.0054
 6689SOL    HW131526   1.352   4.552   3.474 -1.2882 -1.0094 -1.4564
 6689SOL    HW231527   1.390   4.410   3.447 -1.1956  2.2836 -1.9250
 6690SOL     OW31528   3.921   2.146   3.252  0.1762 -0.6526 -0.2197
 6690SOL    HW131529   3.920   2.067   3.197  0.5857 -1.1773  0.5280
 6690SOL    HW231530   3.847   2.195   3.216  0.2405 -0.0114  0.5330
 6691SOL     OW31531   0.522   1.236  14.670 -0.1293 -0.2114 -0.4400
 6691SOL    HW131532   0.526   1.299  14.599 -1.3689  2.7693  2.1240
 6691SOL    HW231533   0.427   1.224  14.669 -0.1659 -0.2944  1.9198
 6692SOL     OW31534   1.034   0.262   7.016 -0.0995 -0.4244  0.2588
 6692SOL    HW131535   1.108   0.313   7.048 -0.6554  0.3037  0.4154
 6692SOL    HW231536   1.010   0.315   6.939 -2.8865 -0.9863  0.7446
 6693SOL     OW31537   1.121   0.890   7.166 -0.8160  0.4912 -0.0389
 6693SOL    HW131538   1.120   0.936   7.082 -1.1938 -2.2944 -1.5692
 6693SOL    HW231539   1.211   0.856   7.163 -0.4227  1.6815 -2.2358
 6694SOL     OW31540   3.040   1.215   6.183  0.4524  0.2454 -0.4934
 6694SOL    HW131541   3.111   1.151   6.181  0.6277  0.5644 -3.7565
 6694SOL    HW231542   3.056   1.272   6.258  1.6818 -1.0912  0.2594
 6695SOL     OW31543   4.552   4.601   8.642 -0.2937  0.2063 -0.2170
 6695SOL    HW131544   4.610   4.536   8.681 -2.5837 -1.9630 -0.4037
 6695SOL    HW231545   4.578   4.598   8.550  1.2171 -2.1594  0.2784
 6696SOL     OW31546   0.467   3.396  17.631 -0.3320  0.9179  0.4401
 6696SOL    HW131547   0.439   3.305  17.636  0.5936  0.6736  1.3065
 6696SOL    HW231548   0.525   3.393   0.010 -1.7708  2.4825  1.5920
 6697SOL     OW31549   2.478   0.166  16.393 -0.4783 -0.4016 -0.0422
 6697SOL    HW131550   2.554   0.221  16.374  0.1896 -1.4005 -0.2682
 6697SOL    HW231551   2.441   0.146  16.307  0.0914  1.2624 -0.6660
 6698SOL     OW31552   2.058   3.885   8.115 -0.5885 -0.1007  0.3972
 6698SOL    HW131553   2.050   3.790   8.116  1.2999 -0.2503  0.9299
 6698SOL    HW231554   2.076   3.917   8.203 -0.2882  3.9322 -1.1347
 6699SOL     OW31555   0.781   0.030   5.851 -0.0674 -0.3106 -0.7356
 6699SOL    HW131556   0.744   0.104   5.899  1.2580 -0.6804  0.8632
 6699SOL    HW231557   0.743   4.681   5.899  0.6498 -1.3374 -1.7312
 6700SOL     OW31558   4.552   2.987  16.201 -0.5864  0.1161 -0.0712
 6700SOL    HW131559   4.543   2.908  16.255 -3.0542 -0.0270 -0.7124
 6700SOL    HW231560   4.459   3.001  16.186 -0.5089  0.9746  0.2579
 6701SOL     OW31561   0.193   2.778  12.406 -0.7528  0.2361 -0.5417
 6701SOL    HW131562   0.152   2.835  12.471 -0.8337 -0.2674 -0.1443
 6701SOL    HW231563   0.218   2.840  12.338 -1.8858 -1.4586 -2.4861
 6702SOL     OW31564   3.556   1.531  10.073 -0.5205  0.3528  0.0831
 6702SOL    HW131565   3.494   1.514  10.002 -1.1757 -0.7582  0.9335
 6702SOL    HW231566   3.500   1.500  10.145  0.5413 -2.3424 -0.2959
 6703SOL     OW31567   0.920   0.090   8.558  0.3707 -0.0388 -0.2206
 6703SOL    HW131568   0.986   0.159   8.562 -0.9681  1.2277  0.6057
 6703SOL    HW231569   0.874   0.107   8.641 -1.1377  2.4200 -1.5722
 6704SOL     OW31570   4.551   3.741  15.115 -0.1876  0.2519  0.0420
 6704SOL    HW131571   4.579   3.830  15.094  0.5779  0.2987  1.2559
 6704SOL    HW231572   4.614   3.685  15.070 -0.2546 -0.0592  0.3340
 6705SOL     OW31573   4.030   3.078   2.496  0.0415 -0.1519  0.1044
 6705SOL    HW131574   4.123   3.079   2.518  0.1565  0.1358 -0.3953
 6705SOL    HW231575   4.008   3.165   2.527  0.9537 -0.4139  1.4616
 6706SOL     OW31576   3.996   2.677   3.966 -0.2070 -0.7343  0.1282
 6706SOL    HW131577   3.985   2.724   4.049 -3.3165 -2.0752  0.4608
 6706SOL    HW231578   4.027   2.746   3.907 -0.2358  0.4800  1.5473
 6707SOL     OW31579   3.945   4.677   6.864  0.0552  0.1258  0.0918
 6707SOL    HW131580   3.962   4.596   6.818  3.2636  0.9348 -0.1949
 6707SOL    HW231581   3.874   4.721   6.817 -0.1967 -1.5552 -1.0646
 6708SOL     OW31582   0.640   3.492   8.983  0.3421  0.2297 -0.0275
 6708SOL    HW131583   0.685   3.498   9.068 -1.2608  0.6349  0.7981
 6708SOL    HW231584   0.620   3.585   8.971 -2.0318 -0.2092  0.4898
 6709SOL     OW31585   1.953   1.224  14.112 -0.0284 -0.2132 -0.2761
 6709SOL    HW131586   1.924   1.304  14.067 -1.7579  0.6754  2.4713
 6709SOL    HW231587   2.036   1.262  14.141  0.0358  2.2108 -3.5867
 6710SOL     OW31588   2.207   4.324   0.568 -0.4365  0.1711  0.1917
 6710SOL    HW131589   2.151   4.349   0.494  2.0584  0.3983 -1.6472
 6710SOL    HW231590   2.212   4.408   0.614 -0.7431 -0.0067  0.5455
 6711SOL     OW31591   0.430   0.771   6.859  0.0998 -0.2819 -0.6166
 6711SOL    HW131592   0.440   0.863   6.884 -1.1144  0.2963 -2.2720
 6711SOL    HW231593   0.490   0.764   6.785  1.2108  0.3211  0.2265
 6712SOL     OW31594   0.744   0.509   6.151  0.2621  0.3010 -0.3093
 6712SOL    HW131595   0.655   0.523   6.119 -0.2917 -2.0235  0.1914
 6712SOL    HW231596   0.766   0.598   6.180  3.0010 -0.6303  0.4652
 6713SOL     OW31597   2.413   1.159   3.054 -0.1832 -0.6101  0.0562
 6713SOL    HW131598   2.400   1.109   2.973 -0.7296 -0.0003 -0.2334
 6713SOL    HW231599   2.357   1.233   3.029  2.0819  1.7411  1.9771
 6714SOL     OW31600   3.433   4.227   7.925 -0.2304  0.2024  0.1747
 6714SOL    HW131601   3.433   4.267   8.012  2.3984  1.9464 -0.6227
 6714SOL    HW231602   3.438   4.133   7.939  0.1604  0.1109 -0.5806
 6715SOL     OW31603   1.744   0.797   8.109 -0.4041 -0.7436 -0.5294
 6715SOL    HW131604   1.722   0.809   8.017  0.0416 -2.0631 -0.8188
 6715SOL    HW231605   1.803   0.725   8.086 -1.4423 -1.8214  0.1143
 6716SOL     OW31606   2.081   4.017   4.231 -0.4672 -0.0365 -0.3340
 6716SOL    HW131607   2.094   4.057   4.145 -0.1709  0.4317 -0.0703
 6716SOL    HW231608   1.992   4.049   4.250 -0.8639  0.0413 -2.3575
 6717SOL     OW31609   3.018   4.265   2.079 -0.6235 -0.3889  0.6300
 6717SOL    HW131610   3.088   4.302   2.026 -2.2107 -0.6916 -1.6479
 6717SOL    HW231611   2.941   4.252   2.025 -0.7096 -0.4937  0.7772
 6718SOL     OW31612   2.272   1.226   9.037  0.0606 -0.5558  0.0652
 6718SOL    HW131613   2.224   1.268   9.108 -1.9301  0.2563 -1.7455
 6718SOL    HW231614   2.297   1.296   8.978  0.0629 -1.1536 -0.6409
 6719SOL     OW31615   4.637   2.507   4.859 -0.2124  0.2704 -0.3752
 6719SOL    HW131616   4.722   2.543   4.884 -0.3260 -0.9305  1.6988
 6719SOL    HW231617   4.633   2.528   4.765 -0.0636 -0.1912 -0.4833
 6720SOL     OW31618   1.641   3.368   7.640  0.0411  0.1921 -0.1743
 6720SOL    HW131619   1.651   3.452   7.686 -1.5099  0.8663 -1.0721
 6720SOL    HW231620   1.734   3.346   7.648 -0.0119  0.9029  2.5455
 6721SOL     OW31621   2.558   1.874   3.420 -0.4850 -0.3475  0.0238
 6721SOL    HW131622   2.564   1.843   3.510 -1.5060 -0.4524  0.0513
 6721SOL    HW231623   2.618   1.949   3.415  1.0757 -1.6385 -0.7418
 6722SOL     OW31624   2.128   1.662  16.626 -0.8799 -0.0108 -0.4184
 6722SOL    HW131625   2.156   1.728  16.689 -1.9019 -0.1168  0.1433
 6722SOL    HW231626   2.150   1.713  16.548  0.4005 -0.3327 -0.2793
 6723SOL     OW31627   2.370   4.040   5.821 -0.3377 -0.2902 -0.6295
 6723SOL    HW131628   2.305   4.110   5.821  0.7066  0.6588 -2.7573
 6723SOL    HW231629   2.421   4.053   5.901  1.1032  1.3180 -1.8055
 6724SOL     OW31630   0.032   3.966   2.851 -0.0888  0.6019 -0.1494
 6724SOL    HW131631   0.024   3.949   2.757 -1.4033  1.1416 -0.1317
 6724SOL    HW231632   4.687   3.911   2.889  0.0536  1.5004  1.3928
 6725SOL     OW31633   3.936   0.793   0.734 -0.1400 -0.1713  0.0524
 6725SOL    HW131634   3.972   0.857   0.794 -0.6308 -0.6335  0.8523
 6725SOL    HW231635   3.964   0.826   0.649 -0.9967 -1.0925 -0.5942
 6726SOL     OW31636   3.780   3.929   2.634 -1.1867  0.0596  0.2978
 6726SOL    HW131637   3.713   3.968   2.578 -0.4925  1.1097  0.1998
 6726SOL    HW231638   3.725   3.884   2.698 -0.0117 -1.1370  0.4612
 6727SOL     OW31639   2.538   2.332   9.877  0.3131 -0.2768 -0.4570
 6727SOL    HW131640   2.487   2.362   9.802  0.0835  1.2259  0.2820
 6727SOL    HW231641   2.469   2.304   9.937 -1.3728  1.4647 -1.5690
 6728SOL     OW31642   1.579   2.718   4.092 -0.1244  0.2789 -0.3547
 6728SOL    HW131643   1.583   2.623   4.080 -0.6926  0.1206  0.7665
 6728SOL    HW231644   1.547   2.729   4.181 -0.7795  2.5352 -0.8614
 6729SOL     OW31645   4.143   1.360   9.422  0.5231 -0.6577  0.4028
 6729SOL    HW131646   4.136   1.350   9.517 -1.7933 -0.7094  0.2265
 6729SOL    HW231647   4.198   1.437   9.411  0.7288 -0.6221  1.6910
 6730SOL     OW31648   2.601   1.399   9.098  0.0569  0.3503 -0.0905
 6730SOL    HW131649   2.529   1.425   9.156  0.2951  1.6150 -0.3606
 6730SOL    HW231650   2.544   1.351   9.038 -0.1318  0.5668 -0.0866
 6731SOL     OW31651   1.600   3.345   1.099  0.0584 -0.3298 -0.2951
 6731SOL    HW131652   1.614   3.359   1.005 -0.4486 -0.5920 -0.4142
 6731SOL    HW231653   1.687   3.353   1.136 -0.8849  1.7466  1.5030
 6732SOL     OW31654   0.474   2.427   2.271  0.1522 -0.1623 -0.0715
 6732SOL    HW131655   0.497   2.367   2.201 -2.1406 -1.8343  0.6311
 6732SOL    HW231656   0.465   2.512   2.228 -3.4494 -1.0643 -1.1006
 6733SOL     OW31657   0.974   3.755   2.243  0.1664 -0.0408 -0.0048
 6733SOL    HW131658   1.035   3.737   2.171 -1.6833 -1.0514 -1.3433
 6733SOL    HW231659   0.991   3.848   2.254 -1.1904  0.0253  1.5117
 6734SOL     OW31660   3.230   4.202   9.562 -0.0464 -0.0458 -0.2673
 6734SOL    HW131661   3.306   4.184   9.617 -1.7972 -1.4293  1.7086
 6734SOL    HW231662   3.176   4.248   9.625 -1.1245 -0.3571 -0.9631
 6735SOL     OW31663   4.196   2.239   8.246 -0.6590  0.6762 -0.4144
 6735SOL    HW131664   4.208   2.188   8.327 -0.5087 -0.3971 -1.1154
 6735SOL    HW231665   4.284   2.276   8.242 -0.5842  0.6933  1.3305
 6736SOL     OW31666   2.186   4.224   7.266 -0.0652 -0.5077 -0.0934
 6736SOL    HW131667   2.163   4.307   7.309  0.3165 -0.2486 -0.3930
 6736SOL    HW231668   2.200   4.160   7.336 -1.8524 -0.4707  0.2993
 6737SOL     OW31669   1.181   2.432  12.119  0.3847  0.2962 -0.3957
 6737SOL    HW131670   1.250   2.497  12.133  0.3799  0.2107  0.0177
 6737SOL    HW231671   1.106   2.490  12.135  0.1968 -0.3628  1.0315
 6738SOL     OW31672   1.017   3.254   2.566  0.0960 -0.3876 -0.3220
 6738SOL    HW131673   1.088   3.227   2.623  0.5555  1.0731 -0.2132
 6738SOL    HW231674   1.017   3.342   2.603  0.8299 -0.5307  0.0044
 6739SOL     OW31675   4.502   4.586   7.605 -0.2582  0.1345  0.4699
 6739SOL    HW131676   4.427   4.639   7.633  2.3679  3.6271  0.9185
 6739SOL    HW231677   4.566   4.651   7.575  1.9883 -1.3858  1.9400
 6740SOL     OW31678   0.407   1.355   2.917 -0.3532 -0.9876 -0.5563
 6740SOL    HW131679   0.358   1.436   2.903 -1.8120 -1.8885 -0.6903
 6740SOL    HW231680   0.378   1.328   3.004  0.4514 -0.1193 -0.0238
 6741SOL     OW31681   3.711   3.887   9.244  0.4110 -0.1042  0.1303
 6741SOL    HW131682   3.754   3.850   9.321  0.6158  1.5956  0.8229
 6741SOL    HW231683   3.787   3.918   9.195 -0.1578  0.6368 -0.2848
 6742SOL     OW31684   3.956   1.451  16.809  0.7101 -0.1244 -0.0826
 6742SOL    HW131685   3.896   1.482  16.877  1.1253  0.4749  0.0101
 6742SOL    HW231686   3.892   1.393  16.768 -0.3986 -0.5228  2.2134
 6743SOL     OW31687   1.279   2.296   7.566 -0.3191 -0.0353  0.0625
 6743SOL    HW131688   1.337   2.220   7.560 -0.9476 -0.3284 -2.0309
 6743SOL    HW231689   1.301   2.352   7.492 -0.9941  1.8469  1.2885
 6744SOL     OW31690   4.074   1.559  12.241  0.1792  0.3462 -0.2570
 6744SOL    HW131691   4.099   1.554  12.149 -1.0400 -1.7237 -0.4772
 6744SOL    HW231692   4.019   1.481  12.248 -0.8690  1.2131  1.1342
 6745SOL     OW31693   4.631   1.137   4.924  0.4603  0.1427  0.2690
 6745SOL    HW131694   4.581   1.212   4.955  0.8554  1.1723 -1.6517
 6745SOL    HW231695   4.698   1.169   4.864  1.5411 -0.3590  1.1948
 6746SOL     OW31696   0.301   1.136   2.756 -0.5789  0.5249 -0.4849
 6746SOL    HW131697   0.321   1.222   2.794 -0.6078 -0.1419  1.0140
 6746SOL    HW231698   0.289   1.160   2.664  0.2486 -1.8006 -1.1827
 6747SOL     OW31699   0.774   2.379   8.991  0.4298 -0.0265 -0.0601
 6747SOL    HW131700   0.687   2.410   9.018 -0.3513 -2.5572  0.2912
 6747SOL    HW231701   0.798   2.329   9.069 -0.1410 -0.6336 -0.2728
 6748SOL     OW31702   3.450   1.607   5.048  0.3401 -0.4244 -0.5831
 6748SOL    HW131703   3.428   1.672   4.981  3.8437 -0.0354 -1.3771
 6748SOL    HW231704   3.420   1.655   5.125 -0.5091  0.7461 -1.6543
 6749SOL     OW31705   0.565   3.415   3.548 -0.3185 -0.1336  0.1186
 6749SOL    HW131706   0.478   3.433   3.514 -0.4167  0.1449  0.5083
 6749SOL    HW231707   0.621   3.412   3.470  1.9598 -0.0163  1.7387
 6750SOL     OW31708   2.616   0.397   3.638  0.3235  0.2664  0.3592
 6750SOL    HW131709   2.626   0.480   3.684  0.3339  0.7422 -0.5105
 6750SOL    HW231710   2.591   0.435   3.554 -0.4881  0.2808  0.6076
 6751SOL     OW31711   0.810   0.379   7.664 -0.4797 -0.3302  0.4411
 6751SOL    HW131712   0.886   0.437   7.660 -0.4507 -0.2667  1.7560
 6751SOL    HW231713   0.811   0.345   7.575  1.3191  0.0411  0.3152
 6752SOL     OW31714   1.381   4.046  13.090  0.0945 -0.1493 -0.5187
 6752SOL    HW131715   1.329   3.977  13.047 -0.7608  0.1761 -0.0157
 6752SOL    HW231716   1.459   4.000  13.120  1.0284  2.2302  0.6928
 6753SOL     OW31717   3.804   0.879   7.765  0.3597 -0.5480  0.0543
 6753SOL    HW131718   3.729   0.929   7.732  0.6954 -0.1281 -0.0783
 6753SOL    HW231719   3.832   0.923   7.845  0.9469  0.4139 -0.6733
 6754SOL     OW31720   3.703   3.435  13.462 -0.7260  0.0779 -1.0724
 6754SOL    HW131721   3.731   3.369  13.525 -2.6980 -0.5096 -0.8137
 6754SOL    HW231722   3.638   3.483  13.513 -1.2928 -2.9594  1.0729
 6755SOL     OW31723   3.641   0.665   2.302 -0.0014  0.4360  0.5779
 6755SOL    HW131724   3.690   0.583   2.300  0.1695  0.6159 -2.4937
 6755SOL    HW231725   3.707   0.722   2.263  1.6664 -2.1349 -0.3412
 6756SOL     OW31726   1.679   3.794   5.766 -0.6410  0.4392  0.1001
 6756SOL    HW131727   1.585   3.803   5.750 -0.7956 -2.4997 -0.6611
 6756SOL    HW231728   1.689   3.709   5.723  0.2445  0.7810 -0.3700
 6757SOL     OW31729   4.204   2.497   3.606  0.4771 -0.1799 -0.0446
 6757SOL    HW131730   4.213   2.402   3.598 -2.8491 -0.7953  3.6414
 6757SOL    HW231731   4.198   2.508   3.701  0.4756 -1.2893  0.0853
 6758SOL     OW31732   1.958   4.719  16.737  0.1414 -0.0801  0.1425
 6758SOL    HW131733   1.959   0.039  16.653 -1.1572  1.6672  1.0519
 6758SOL    HW231734   1.982   4.628  16.718  0.7699 -0.4582  2.7408
 6759SOL     OW31735   4.673   4.219   5.105  0.4700 -0.3085 -0.4688
 6759SOL    HW131736   4.605   4.157   5.134  0.0644  0.7764  0.9066
 6759SOL    HW231737   4.715   4.176   5.031 -2.4222  0.4179 -2.5331
 6760SOL     OW31738   2.893   4.655   7.463 -0.7534  0.2210  0.3929
 6760SOL    HW131739   2.872   4.566   7.438 -1.0682 -0.1469  1.9774
 6760SOL    HW231740   2.817   4.712   7.451 -1.2529 -0.3897  0.6753
 6761SOL     OW31741   2.202   1.867   5.624 -0.0924 -0.2669 -0.1155
 6761SOL    HW131742   2.119   1.915   5.618 -1.0131 -1.4901  2.8766
 6761SOL    HW231743   2.164   1.779   5.625  0.2889 -0.4454 -1.4572
 6762SOL     OW31744   2.378   0.010  13.526  0.0919 -0.2640  0.0361
 6762SOL    HW131745   2.317   0.082  13.510  1.3401  0.3015 -2.1889
 6762SOL    HW231746   2.456   0.067  13.529 -0.0892  0.0664 -1.6965
 6763SOL     OW31747   4.530   4.307   6.153  0.0670 -0.0729  0.0034
 6763SOL    HW131748   4.475   4.246   6.103  0.0501 -1.3220  1.5551
 6763SOL    HW231749   4.473   4.383   6.164 -1.2371 -0.5485 -3.2271
 6764SOL     OW31750   2.465   3.379   2.264  0.0644 -0.5116 -0.4220
 6764SOL    HW131751   2.456   3.286   2.287 -0.4812 -0.2231  0.5236
 6764SOL    HW231752   2.472   3.387   2.169 -0.7550  0.8322 -0.3635
 6765SOL     OW31753   3.576   3.440   9.836 -0.1549  0.1141  0.5019
 6765SOL    HW131754   3.545   3.443   9.927 -1.1769 -0.4034  0.1791
 6765SOL    HW231755   3.651   3.499   9.840 -0.6247  0.7127  0.4045
 6766SOL     OW31756   0.942   3.886  10.543 -0.7344  0.0578 -0.0783
 6766SOL    HW131757   0.910   3.799  10.521 -1.3486  0.3281 -0.2811
 6766SOL    HW231758   0.863   3.937  10.563  0.3462  1.6466  0.1817
 6767SOL     OW31759   0.856   0.762   1.619  0.2954  0.2236  0.7103
 6767SOL    HW131760   0.949   0.739   1.612 -0.0831 -1.2253  0.4549
 6767SOL    HW231761   0.870   0.856   1.612 -1.8550  0.3375 -2.1513
 6768SOL     OW31762   3.988   4.176  16.056 -0.1223 -0.2953 -0.1297
 6768SOL    HW131763   3.947   4.109  16.001 -0.2678  0.4900 -0.9801
 6768SOL    HW231764   3.988   4.243  15.987  1.6777 -0.6881 -0.4969
 6769SOL     OW31765   1.774   3.344   2.716  0.4100  0.1897 -1.1211
 6769SOL    HW131766   1.853   3.397   2.725  2.2831 -2.6500 -0.9019
 6769SOL    HW231767   1.803   3.258   2.746  0.5623  0.4276 -0.5914
 6770SOL     OW31768   3.726   1.116   3.728  0.5198  0.4043  0.3311
 6770SOL    HW131769   3.684   1.120   3.814  0.7185  0.1041  0.4409
 6770SOL    HW231770   3.653   1.094   3.671  1.2208  1.4497 -0.9795
 6771SOL     OW31771   3.773   1.157  17.031 -0.2122 -0.0016  0.3488
 6771SOL    HW131772   3.712   1.125  17.097  1.7414 -1.0135  1.6373
 6771SOL    HW231773   3.734   1.244  17.021  0.4785  0.0881 -1.5078
 6772SOL     OW31774   3.700   1.897   3.351  0.1303  0.2762 -0.2858
 6772SOL    HW131775   3.751   1.877   3.429 -1.2826 -1.1250  0.2969
 6772SOL    HW231776   3.716   1.820   3.296  0.3534 -0.2953  0.5947
 6773SOL     OW31777   3.027   4.489   8.433  0.4070 -0.8317  0.0975
 6773SOL    HW131778   2.984   4.443   8.505  0.1071  1.0927  1.1634
 6773SOL    HW231779   3.091   4.431   8.392  0.2043 -1.9375  1.3605
 6774SOL     OW31780   3.305   4.489  11.136  0.4086 -0.5881 -0.0917
 6774SOL    HW131781   3.270   4.536  11.061 -1.8540 -0.3844  1.0898
 6774SOL    HW231782   3.351   4.417  11.094 -0.2051  0.2504 -2.1877
 6775SOL     OW31783   3.144   3.101  11.047  0.2502 -0.4443 -0.5518
 6775SOL    HW131784   3.226   3.058  11.072  1.0676  0.4158 -1.7641
 6775SOL    HW231785   3.098   3.027  11.008  1.5272 -1.7263  0.3701
 6776SOL     OW31786   2.653   3.009   2.932 -0.2473 -0.0401 -0.6909
 6776SOL    HW131787   2.575   2.954   2.933  0.6827 -1.3647 -0.9472
 6776SOL    HW231788   2.664   3.005   2.837  0.9293 -0.0741 -0.5483
 6777SOL     OW31789   0.037   2.038  10.891  0.0900 -0.1088  0.3680
 6777SOL    HW131790   0.120   2.074  10.920 -0.4007  1.3370 -0.0078
 6777SOL    HW231791   4.710   2.056  10.970  0.5361 -0.0621  0.6409
 6778SOL     OW31792   1.669   0.473  17.100  0.0533 -0.2089 -0.0922
 6778SOL    HW131793   1.634   0.519  17.176  0.9896  3.4347 -1.8656
 6778SOL    HW231794   1.696   0.550  17.050 -0.0710 -0.1103 -0.0059
 6779SOL     OW31795   3.004   4.613   5.597 -0.2929  0.1929  0.4452
 6779SOL    HW131796   2.967   4.542   5.545 -1.2244  0.0476  1.3128
 6779SOL    HW231797   2.975   4.684   5.538 -1.2303  0.2978  1.0344
 6780SOL     OW31798   3.099   2.761   3.074  0.2760  0.2867  0.1388
 6780SOL    HW131799   3.104   2.688   3.013  0.1305  0.6426 -0.3011
 6780SOL    HW231800   3.034   2.823   3.040 -0.5515  0.1584  1.5111
 6781SOL     OW31801   0.867   4.099   9.874  0.2247 -0.6587  0.0855
 6781SOL    HW131802   0.883   4.040   9.799  3.4084  0.3453 -0.0408
 6781SOL    HW231803   0.829   4.041   9.940  3.6115  0.0045  2.6412
 6782SOL     OW31804   0.469   4.123  14.675 -0.2279  0.0962  0.3122
 6782SOL    HW131805   0.474   4.028  14.672  0.9079  0.2066 -1.2500
 6782SOL    HW231806   0.536   4.142  14.740  1.7224  0.0784 -1.6671
 6783SOL     OW31807   0.337   4.435   8.348  0.6321  0.1084 -0.0503
 6783SOL    HW131808   0.424   4.399   8.367 -0.1220 -0.0396  2.9725
 6783SOL    HW231809   0.299   4.452   8.434 -2.0916  1.6841 -1.5807
 6784SOL     OW31810   3.393   3.482   5.055 -0.0970 -0.0410 -0.0258
 6784SOL    HW131811   3.307   3.478   5.015  0.2178  3.1851 -0.9825
 6784SOL    HW231812   3.446   3.458   4.979  1.3809  0.8060  0.7472
 6785SOL     OW31813   4.719   0.955  10.463  0.5022  0.5056 -0.0933
 6785SOL    HW131814   4.634   0.998  10.449  0.2738  0.3414  0.7759
 6785SOL    HW231815   0.005   0.938  10.370 -0.6557  2.1783 -0.5290
 6786SOL     OW31816   0.221   2.645   6.999  0.0481  0.1869 -0.0772
 6786SOL    HW131817   0.240   2.612   6.911 -0.4027  0.4811 -0.2846
 6786SOL    HW231818   0.305   2.687   7.016  1.0568 -2.0405  0.4218
 6787SOL     OW31819   2.151   2.296   4.287  0.2193 -0.3041  0.0477
 6787SOL    HW131820   2.084   2.261   4.229 -0.2386 -1.4566  1.2888
 6787SOL    HW231821   2.197   2.214   4.304  1.6297  0.3167 -0.7548
 6788SOL     OW31822   2.165   4.551   5.985 -0.6592 -0.2934 -0.6392
 6788SOL    HW131823   2.116   4.517   5.910 -1.1704  0.2652 -0.5659
 6788SOL    HW231824   2.150   4.480   6.046  0.6894  0.0552  0.0861
 6789SOL     OW31825   3.765   2.385  15.173  0.0294  0.2730 -0.0699
 6789SOL    HW131826   3.716   2.418  15.249 -1.0932 -0.5742 -0.4330
 6789SOL    HW231827   3.756   2.468  15.127  0.6312  0.7156  0.6069
 6790SOL     OW31828   0.104   2.361   7.351  0.4022 -0.3606  0.7548
 6790SOL    HW131829   0.024   2.319   7.381  0.6039 -0.1423  1.5817
 6790SOL    HW231830   0.082   2.372   7.258 -0.5318 -2.0894  0.7693
 6791SOL     OW31831   1.555   2.155   8.122 -0.0411  0.0994 -0.3827
 6791SOL    HW131832   1.585   2.226   8.179  1.7333 -0.4637 -0.6033
 6791SOL    HW231833   1.477   2.194   8.083 -0.1995  0.2150  0.0544
 6792SOL     OW31834   1.853   2.329  11.726  0.2808  0.4868  0.4889
 6792SOL    HW131835   1.822   2.417  11.744 -0.1211  0.4290  0.1015
 6792SOL    HW231836   1.770   2.282  11.711 -0.4243  1.7470  0.4628
 6793SOL     OW31837   0.359   1.845   9.163  0.0126 -0.5044  0.7094
 6793SOL    HW131838   0.425   1.833   9.230  1.7963  1.6839 -0.6465
 6793SOL    HW231839   0.409   1.866   9.084 -0.2945  2.6629  1.3344
 6794SOL     OW31840   1.465   0.620   4.763  0.0248  0.3732  0.5587
 6794SOL    HW131841   1.389   0.612   4.821 -1.4628 -1.9552 -1.6828
 6794SOL    HW231842   1.435   0.573   4.685 -0.9509  0.1996  1.0343
 6795SOL     OW31843   4.526   3.983   1.274 -0.3617 -0.1091  0.2828
 6795SOL    HW131844   4.477   4.064   1.263 -1.3162 -0.8591 -1.1280
 6795SOL    HW231845   4.536   3.957   1.182 -0.0117  1.0057  0.0101
 6796SOL     OW31846   4.675   1.865   3.778  0.3898  0.0616  0.0702
 6796SOL    HW131847   4.675   1.787   3.722  3.0016 -0.2924  0.5602
 6796SOL    HW231848   0.029   1.842   3.828  0.8324  0.8759 -0.2468
 6797SOL     OW31849   3.500   1.649  15.978  0.1406  0.2900  0.3534
 6797SOL    HW131850   3.553   1.574  16.004 -0.3854  0.0497  0.7243
 6797SOL    HW231851   3.484   1.637  15.884 -2.5792 -0.9037  0.9579
 6798SOL     OW31852   3.099   4.399  11.290  0.1265  0.0070  0.2432
 6798SOL    HW131853   3.152   4.320  11.289  0.1511  0.0594 -3.1174
 6798SOL    HW231854   3.146   4.460  11.232  2.5202  0.3172  2.5433
 6799SOL     OW31855   0.775   3.804   7.298 -0.0349  0.0267 -0.3990
 6799SOL    HW131856   0.689   3.832   7.330  0.4290  0.6827  0.2768
 6799SOL    HW231857   0.829   3.818   7.376  1.2389 -1.6374 -0.9933
 6800SOL     OW31858   3.255   2.319   1.724 -0.6465 -1.1376  0.0630
 6800SOL    HW131859   3.272   2.405   1.687 -0.8021 -1.0848  0.1151
 6800SOL    HW231860   3.306   2.267   1.662  0.2447 -0.1837  0.0047
 6801SOL     OW31861   0.825   1.876   8.154  0.5179  0.1600  1.0817
 6801SOL    HW131862   0.789   1.829   8.080  1.6816  0.8113  0.1012
 6801SOL    HW231863   0.873   1.948   8.113  1.1505  0.9400  3.1681
 6802SOL     OW31864   4.649   2.683  10.823 -0.2737  0.4111  0.2463
 6802SOL    HW131865   4.595   2.699  10.747  0.3737 -1.2846 -0.5666
 6802SOL    HW231866   4.719   2.625  10.792 -0.1014  1.4044 -1.2257
 6803SOL     OW31867   1.976   1.960  12.640 -0.5676 -0.6525  0.4513
 6803SOL    HW131868   2.018   2.038  12.677 -1.9709  0.3163 -0.0297
 6803SOL    HW231869   1.900   1.940  12.695 -0.5035  0.8331  1.0711
 6804SOL     OW31870   0.360   3.526   4.539  0.2013  0.1120  0.6526
 6804SOL    HW131871   0.418   3.472   4.484  0.3463  0.2678  0.6514
 6804SOL    HW231872   0.274   3.518   4.497  0.8894  1.1924 -0.9744
 6805SOL     OW31873   0.937   3.868   5.130 -0.2623 -0.3179  0.1183
 6805SOL    HW131874   0.896   3.797   5.081  0.3597  1.5828 -3.1480
 6805SOL    HW231875   0.904   3.948   5.088 -0.6364 -0.3810  0.2939
 6806SOL     OW31876   4.445   3.319   8.345 -0.0738  0.1056  0.0492
 6806SOL    HW131877   4.500   3.365   8.281 -0.9222 -1.1090 -1.5245
 6806SOL    HW231878   4.499   3.242   8.358  0.2831  0.6536  1.8470
 6807SOL     OW31879   2.619   2.735   0.507 -0.2627  0.4714 -0.4111
 6807SOL    HW131880   2.658   2.659   0.549  0.3315  0.8812 -0.2190
 6807SOL    HW231881   2.526   2.713   0.499 -0.0039 -0.0506 -2.1465
 6808SOL     OW31882   3.112   2.022   0.650  0.1899 -0.0791 -0.0585
 6808SOL    HW131883   3.103   2.068   0.567  0.1457  2.1989  1.1925
 6808SOL    HW231884   3.043   1.955   0.645 -1.0806  0.9595  3.1517
 6809SOL     OW31885   1.998   0.539   2.597  0.3637  0.2061 -0.0607
 6809SOL    HW131886   1.992   0.466   2.660  3.3608  0.2799  0.3332
 6809SOL    HW231887   1.922   0.596   2.610 -0.3817 -0.6142 -0.8541
 6810SOL     OW31888   0.795   1.911   6.314 -0.3020 -0.2623  0.3151
 6810SOL    HW131889   0.732   1.958   6.370 -0.5980  0.6457 -0.7671
 6810SOL    HW231890   0.828   1.843   6.372  2.1047  0.2594 -0.4457
 6811SOL     OW31891   1.325   2.913   3.654  0.3174 -0.1446 -0.7575
 6811SOL    HW131892   1.233   2.917   3.627  0.2891  1.6574 -0.4458
 6811SOL    HW231893   1.329   2.834   3.707 -1.7025 -0.4457 -1.0581
 6812SOL     OW31894   4.121   2.648   5.683 -0.1566  0.0953  0.7354
 6812SOL    HW131895   4.191   2.585   5.697  0.7280  0.8277 -0.3141
 6812SOL    HW231896   4.158   2.736   5.691  3.8052 -1.1145 -3.6452
 6813SOL     OW31897   4.414   2.270   6.570 -0.3516 -0.3226  0.4234
 6813SOL    HW131898   4.333   2.321   6.579 -1.0628 -1.0668 -1.7326
 6813SOL    HW231899   4.394   2.204   6.503 -1.6157  3.8061 -3.2431
 6814SOL     OW31900   0.151   0.322   6.188  0.1896  0.3702  0.4378
 6814SOL    HW131901   0.210   0.320   6.263  0.7468 -0.6682 -0.0285
 6814SOL    HW231902   0.066   0.340   6.229  0.5462  0.5616  1.0911
 6815SOL     OW31903   4.309   0.225   2.450  0.6869  0.2162  0.0938
 6815SOL    HW131904   4.276   0.198   2.364 -1.2034 -0.9659  1.1819
 6815SOL    HW231905   4.402   0.222   2.428  0.7571  0.8218  0.2946
 6816SOL     OW31906   2.271   0.952  17.409 -0.2757 -0.6535  0.4591
 6816SOL    HW131907   2.313   1.038  17.403 -1.7752 -0.0226 -1.1469
 6816SOL    HW231908   2.244   0.960  17.501  0.0618  1.8391  0.3411
 6817SOL     OW31909   1.628   3.385   7.029 -0.0418  0.3361 -0.4492
 6817SOL    HW131910   1.533   3.384   7.036 -0.1783  1.1066 -2.3323
 6817SOL    HW231911   1.640   3.426   7.115 -3.0088 -0.6331  0.4292
 6818SOL     OW31912   2.025   1.751   2.622 -0.4150 -0.2094 -0.0681
 6818SOL    HW131913   2.044   1.659   2.636 -3.5970 -1.1137 -1.8481
 6818SOL    HW231914   2.110   1.790   2.601  0.6493 -3.0743 -1.1066
 6819SOL     OW31915   2.545   1.013  16.357  0.3742  0.4081  0.2307
 6819SOL    HW131916   2.576   1.061  16.434 -0.9467 -1.3472  1.8410
 6819SOL    HW231917   2.609   0.942  16.363  1.1492  1.2249  1.7506
 6820SOL     OW31918   3.249   3.032  15.931 -0.4206  0.2770 -0.6466
 6820SOL    HW131919   3.201   3.111  15.955  0.4648  0.3550  0.8559
 6820SOL    HW231920   3.331   3.041  15.979  0.9549  0.5713 -3.0599
 6821SOL     OW31921   3.711   0.561  10.276 -0.3328  0.2126 -0.0540
 6821SOL    HW131922   3.674   0.639  10.317 -0.1781  0.0898  0.3152
 6821SOL    HW231923   3.785   0.597  10.227 -2.1400  1.5920 -1.7812
 6822SOL     OW31924   3.320   3.153  16.229 -0.1828 -0.5260  0.6076
 6822SOL    HW131925   3.303   3.067  16.268 -1.5141 -0.9717 -0.9456
 6822SOL    HW231926   3.374   3.130  16.154 -0.4204 -0.1856  0.3318
 6823SOL     OW31927   1.978   0.596   2.322  0.2730 -0.3297 -0.0184
 6823SOL    HW131928   2.010   0.684   2.343 -0.1826 -0.0988 -0.2684
 6823SOL    HW231929   2.007   0.546   2.397  0.2979 -1.3621 -0.7206
 6824SOL     OW31930   4.477   4.423   8.213  0.0120  0.0047 -0.2282
 6824SOL    HW131931   4.493   4.394   8.123 -1.2052 -1.6306  0.0803
 6824SOL    HW231932   4.394   4.383   8.240  0.1281  2.1039  3.2315
 6825SOL     OW31933   4.141   3.120  13.839  0.4607  0.4653 -0.0109
 6825SOL    HW131934   4.157   3.141  13.746 -3.0044  1.0534 -0.4853
 6825SOL    HW231935   4.108   3.032  13.825  0.2665  0.5426 -0.0406
 6826SOL     OW31936   0.562   1.568   7.062 -0.1181 -0.4237 -0.5534
 6826SOL    HW131937   0.568   1.658   7.093 -0.3420 -0.5348 -0.1874
 6826SOL    HW231938   0.649   1.563   7.021  0.1182 -1.6422  0.0852
 6827SOL     OW31939   1.429   2.977   1.064 -0.1614  0.1165 -0.2164
 6827SOL    HW131940   1.514   2.966   1.022 -0.0777 -1.1452  0.2854
 6827SOL    HW231941   1.442   3.061   1.107  4.6833 -0.3614 -0.7782
 6828SOL     OW31942   3.013   2.575   4.880  0.1232 -0.2916 -0.5622
 6828SOL    HW131943   2.976   2.551   4.796  0.6029 -0.3000 -0.7733
 6828SOL    HW231944   2.999   2.497   4.935  2.3311 -1.2309 -1.3295
 6829SOL     OW31945   2.525   4.083   4.848  0.6733 -0.3331 -0.1868
 6829SOL    HW131946   2.536   3.989   4.833  2.1054 -0.7852  3.8327
 6829SOL    HW231947   2.436   4.074   4.882  1.0925 -0.8295  0.7791
 6830SOL     OW31948   3.985   4.149   6.440  0.5439 -0.1803  0.5507
 6830SOL    HW131949   3.895   4.145   6.472 -0.1990 -0.7053 -1.6123
 6830SOL    HW231950   3.965   4.115   6.353 -3.3706  1.6472  0.7288
 6831SOL     OW31951   4.600   2.264   7.460  0.0144  0.2729 -0.2161
 6831SOL    HW131952   4.593   2.221   7.545  1.5244  1.2844  0.3946
 6831SOL    HW231953   4.562   2.347   7.486  1.1698  0.5255  0.6202
 6832SOL     OW31954   3.425   1.416  13.188  0.3666  0.0497  0.2344
 6832SOL    HW131955   3.449   1.325  13.200  1.8587  0.5284  0.8247
 6832SOL    HW231956   3.330   1.403  13.185  0.2977  0.3734  0.9144
 6833SOL     OW31957   1.028   1.101  10.976 -0.1514  0.0555 -0.0338
 6833SOL    HW131958   0.974   1.119  11.053  0.4437  1.0429  0.1461
 6833SOL    HW231959   1.000   1.011  10.962 -0.8917  0.3904 -0.7798
 6834SOL     OW31960   1.555   2.311  16.292 -0.3032  0.1541 -0.1573
 6834SOL    HW131961   1.473   2.266  16.270 -0.4439  0.7441 -0.8205
 6834SOL    HW231962   1.577   2.270  16.375  1.2331 -0.3285 -0.7874
 6835SOL     OW31963   0.753   3.761  14.603  0.0989  0.2116  0.0774
 6835SOL    HW131964   0.815   3.738  14.672 -0.7538 -0.1033  0.7459
 6835SOL    HW231965   0.691   3.810  14.656 -1.0552 -0.6185 -0.5061
 6836SOL     OW31966   0.029   3.706  15.433  0.4026 -0.4583  0.4024
 6836SOL    HW131967   0.088   3.745  15.369 -1.1137 -0.7818 -1.1957
 6836SOL    HW231968   0.058   3.618  15.411  2.7143  0.4718 -0.1993
 6837SOL     OW31969   4.698   0.640   3.811 -0.2266 -0.3380  0.4372
 6837SOL    HW131970   0.038   0.707   3.836  1.2274 -0.8844 -1.8226
 6837SOL    HW231971   4.664   0.684   3.733  0.0690 -1.8271 -0.5087
 6838SOL     OW31972   0.006   3.989   8.060 -0.0198  0.1847  0.4584
 6838SOL    HW131973   0.041   3.989   7.971  0.9885  1.9394  0.8522
 6838SOL    HW231974   4.639   4.018   8.050  0.3303  1.6061  1.3921
 6839SOL     OW31975   2.789   1.781  17.672 -0.1542  0.1830 -0.0122
 6839SOL    HW131976   2.694   1.784  17.673 -0.1389  0.4484  0.6195
 6839SOL    HW231977   2.793   1.690  17.641  0.6234 -0.1908  1.1470
 6840SOL     OW31978   2.980   0.588   5.401  0.4863  0.4169 -0.3410
 6840SOL    HW131979   2.951   0.651   5.335 -2.5482  2.0311  2.5198
 6840SOL    HW231980   2.950   0.627   5.484 -0.3225 -0.1397 -0.3753
 6841SOL     OW31981   1.490   1.020   2.620  0.1736  0.0811  0.2012
 6841SOL    HW131982   1.524   1.019   2.530  0.5019  1.2324  0.3019
 6841SOL    HW231983   1.559   1.078   2.654 -0.1930 -0.0159  1.1066
 6842SOL     OW31984   1.775   4.113  14.293  0.0292  0.4437  0.0222
 6842SOL    HW131985   1.864   4.122  14.326 -0.1109  2.0212 -0.0001
 6842SOL    HW231986   1.769   4.024  14.260  1.5464  0.1937  0.4268
 6843SOL     OW31987   1.906   0.132   5.705  0.2507  0.5005  0.0764
 6843SOL    HW131988   1.821   0.175   5.713  0.6299  1.3316 -0.3595
 6843SOL    HW231989   1.941   0.119   5.794 -0.1714  0.6424  0.2606
 6844SOL     OW31990   4.598   0.743   1.140  0.1234  0.0956  0.1399
 6844SOL    HW131991   4.575   0.776   1.054  2.2670  0.7298 -0.2038
 6844SOL    HW231992   4.674   0.689   1.116 -0.2656  0.1840 -1.2838
 6845SOL     OW31993   1.120   4.626  13.261  0.5287 -0.1379 -0.4507
 6845SOL    HW131994   1.103   4.592  13.349 -3.4145  0.3605 -0.9985
 6845SOL    HW231995   1.072   4.709  13.260  4.6840  2.2622  1.9299
 6846SOL     OW31996   2.767   4.583   7.076  0.5312 -0.0814  0.1383
 6846SOL    HW131997   2.745   4.665   7.033 -1.2511  0.0019  1.1962
 6846SOL    HW231998   2.780   4.611   7.167 -1.9029 -0.5132  0.6193
 6847SOL     OW31999   1.515   4.253   0.611  0.0657  0.3095  0.2412
 6847SOL    HW132000   1.585   4.317   0.625 -0.6497  0.8897  1.1539
 6847SOL    HW232001   1.432   4.301   0.609  0.3972  0.8572 -1.0944
 6848SOL     OW32002   2.870   0.999   6.008  0.0148  0.1454 -0.5036
 6848SOL    HW132003   2.941   0.987   6.072 -1.9949 -1.6366  1.4089
 6848SOL    HW232004   2.889   0.927   5.948  1.6444  0.5909 -0.5156
 6849SOL     OW32005   4.017   2.614   8.734  0.1872 -0.2163  0.0718
 6849SOL    HW132006   4.016   2.522   8.708  0.4307  0.3431 -1.8702
 6849SOL    HW232007   3.942   2.655   8.692  0.3874  1.8673  1.7365
 6850SOL     OW32008   2.871   3.750  12.268 -0.1763 -0.3291 -0.2849
 6850SOL    HW132009   2.918   3.666  12.267 -3.8233 -2.3798 -2.2920
 6850SOL    HW232010   2.948   3.806  12.270 -0.5874  0.2324 -0.4137
 6851SOL     OW32011   2.581   4.437   2.890 -0.9999 -0.0854 -0.0125
 6851SOL    HW132012   2.637   4.363   2.913  0.5553  1.1914  0.3458
 6851SOL    HW232013   2.510   4.386   2.852 -1.0277  1.5233 -2.1482
 6852SOL     OW32014   2.710   1.534   2.918 -0.4247  0.1979 -0.3604
 6852SOL    HW132015   2.712   1.459   2.978  2.1642  0.6560  0.1472
 6852SOL    HW232016   2.803   1.559   2.913  0.5035 -3.0632  0.8197
 6853SOL     OW32017   3.689   1.102   1.977 -0.0271  0.7509  0.0941
 6853SOL    HW132018   3.766   1.099   1.921  1.8076 -0.9779  2.7133
 6853SOL    HW232019   3.664   1.010   1.969  3.1211 -0.2458  1.7517
 6854SOL     OW32020   1.193   2.908   3.946  0.9968 -0.1562 -0.8156
 6854SOL    HW132021   1.112   2.866   3.918  0.3842 -0.6194  1.7061
 6854SOL    HW232022   1.256   2.852   3.901  0.2210  0.0024 -2.0912
 6855SOL     OW32023   2.234   4.518   1.359  0.1753 -0.6336  0.3658
 6855SOL    HW132024   2.146   4.526   1.323 -0.6526 -2.9773  1.9001
 6855SOL    HW232025   2.290   4.531   1.282  1.7084 -3.5096  1.0125
 6856SOL     OW32026   1.850   0.965   2.594 -0.3250 -0.0997  0.7155
 6856SOL    HW132027   1.860   0.874   2.621  0.4459 -0.1592  0.2238
 6856SOL    HW232028   1.774   0.950   2.536  0.5585  1.4371 -0.8284
 6857SOL     OW32029   3.458   3.017   1.373 -0.6068 -0.1564  0.1813
 6857SOL    HW132030   3.444   3.077   1.446 -0.2818 -0.4397  0.4795
 6857SOL    HW232031   3.501   3.080   1.315 -0.3958 -0.3414  0.1352
 6858SOL     OW32032   2.309   2.188   8.082  0.3057  0.7193 -0.2768
 6858SOL    HW132033   2.289   2.215   8.171  3.0724 -0.1634  0.6008
 6858SOL    HW232034   2.239   2.236   8.036 -0.8490 -1.2573 -0.5668
 6859SOL     OW32035   1.956   4.104  13.349 -0.6032  0.1145 -0.1038
 6859SOL    HW132036   1.878   4.075  13.395  0.1044 -0.1814  0.8999
 6859SOL    HW232037   2.013   4.027  13.353 -0.1872  0.5490  1.9734
 6860SOL     OW32038   2.285   2.934   3.771  0.1625 -0.2464 -0.2498
 6860SOL    HW132039   2.250   3.016   3.735  0.5322 -0.0596 -0.1911
 6860SOL    HW232040   2.329   2.970   3.849 -0.2490  0.8718 -0.5318
 6861SOL     OW32041   2.925   3.851   1.638  0.6231 -0.2388 -0.5953
 6861SOL    HW132042   2.846   3.902   1.618  0.7488  0.1102 -0.1913
 6861SOL    HW232043   2.999   3.911   1.635 -1.0030  1.9092  2.2187
 6862SOL     OW32044   2.731   1.861   3.845 -0.3474  0.2091 -0.1313
 6862SOL    HW132045   2.815   1.870   3.801 -0.5238 -1.0477 -0.7263
 6862SOL    HW232046   2.669   1.828   3.780  0.9469 -1.1830 -0.6501
 6863SOL     OW32047   2.902   0.256  13.810  0.3889 -0.0170  0.3630
 6863SOL    HW132048   2.823   0.267  13.864 -0.7137  1.3948 -1.5186
 6863SOL    HW232049   2.882   0.308  13.732  0.4236 -1.6390 -0.7249
 6864SOL     OW32050   4.721   1.837  13.192  0.2816 -0.0554 -0.0595
 6864SOL    HW132051   4.697   1.914  13.141 -0.3187 -0.4194 -0.3248
 6864SOL    HW232052   4.676   1.765  13.147  2.2559 -1.8813  0.9040
 6865SOL     OW32053   2.464   3.803  14.402 -0.1928  0.2353 -0.1080
 6865SOL    HW132054   2.393   3.781  14.463 -0.9446  0.9875 -0.6996
 6865SOL    HW232055   2.415   3.795  14.320  0.4627 -1.1109 -0.3602
 6866SOL     OW32056   0.010   3.875   2.567  0.0295  0.0147  0.5010
 6866SOL    HW132057   4.684   3.887   2.486  0.2159  2.8240  0.8268
 6866SOL    HW232058   0.101   3.868   2.540 -0.2377  1.6823 -0.8404
 6867SOL     OW32059   3.706   4.483   0.597  0.0459  0.7699 -0.1706
 6867SOL    HW132060   3.719   4.542   0.522  2.1229  0.8022  0.2397
 6867SOL    HW232061   3.687   4.404   0.547  1.0727  0.1187  0.4992
 6868SOL     OW32062   2.788   2.633   7.861  0.1759 -0.1999  0.2539
 6868SOL    HW132063   2.827   2.554   7.823 -0.5277 -1.6645  2.5375
 6868SOL    HW232064   2.720   2.640   7.794  3.3167  1.2163 -2.8040
 6869SOL     OW32065   4.410   1.813   8.387 -0.8300  0.7463 -0.2894
 6869SOL    HW132066   4.437   1.904   8.398  4.4108 -0.9585  0.8900
 6869SOL    HW232067   4.417   1.791   8.480  1.0149 -3.9237 -1.5022
 6870SOL     OW32068   3.579   4.147   9.203 -0.2293  0.1304  0.0557
 6870SOL    HW132069   3.641   4.079   9.228  1.0980  0.7445 -1.4951
 6870SOL    HW232070   3.558   4.171   9.293 -0.6557  0.8215 -0.2294
 6871SOL     OW32071   4.251   2.014   1.919 -0.4811  0.6628  0.1954
 6871SOL    HW132072   4.177   1.998   1.977 -0.7079  0.7918 -0.0611
 6871SOL    HW232073   4.313   2.054   1.981 -0.7313 -0.7587  1.3605
 6872SOL     OW32074   1.248   2.406   2.406 -0.1747  0.1745 -0.3341
 6872SOL    HW132075   1.302   2.329   2.389 -1.3492 -0.9799  1.1556
 6872SOL    HW232076   1.159   2.371   2.418  0.7767 -2.4774 -0.9430
 6873SOL     OW32077   1.778   1.551   6.874 -0.3493  0.5362  0.2340
 6873SOL    HW132078   1.734   1.588   6.798 -0.5672  0.0469  0.1211
 6873SOL    HW232079   1.707   1.527   6.934 -0.0844 -0.1906  0.2586
 6874SOL     OW32080   1.131   1.379  11.959  0.2714 -0.1918 -0.0932
 6874SOL    HW132081   1.137   1.460  12.008  1.3591 -0.6824  0.5831
 6874SOL    HW232082   1.224   1.357  11.957 -0.4245 -3.0686 -1.5627
 6875SOL     OW32083   3.893   1.720  15.397  0.8669  0.2346  0.4013
 6875SOL    HW132084   3.984   1.735  15.420  1.5547 -1.2064 -1.3860
 6875SOL    HW232085   3.861   1.809  15.378 -1.3653 -1.1088 -2.2281
 6876SOL     OW32086   0.581   4.323   7.380 -0.6121 -0.3711  0.3033
 6876SOL    HW132087   0.577   4.410   7.339  0.3201 -0.0379  0.9156
 6876SOL    HW232088   0.486   4.311   7.373 -0.8727  0.0740  2.8989
 6877SOL     OW32089   1.390   3.494  16.499  0.1967  0.6758 -0.4572
 6877SOL    HW132090   1.443   3.440  16.556  0.5748 -2.1389 -3.4732
 6877SOL    HW232091   1.306   3.456  16.524  1.8326 -1.5849  1.4922
 6878SOL     OW32092   1.252   1.482   8.709  0.2788  0.1678 -0.0144
 6878SOL    HW132093   1.342   1.504   8.734  0.2546 -0.3985  0.5812
 6878SOL    HW232094   1.233   1.546   8.641  2.7124  0.5910 -0.3055
 6879SOL     OW32095   1.211   3.131   3.035  0.8094 -0.1186  0.0918
 6879SOL    HW132096   1.196   3.066   3.103 -1.8751 -0.1187 -0.4734
 6879SOL    HW232097   1.216   3.209   3.090 -1.3406 -1.5778  2.3479
 6880SOL     OW32098   1.882   2.243   2.666  0.3629  0.1604  0.4025
 6880SOL    HW132099   1.899   2.149   2.660 -0.4411  0.1087 -1.2318
 6880SOL    HW232100   1.799   2.240   2.713 -0.0620  2.2384 -0.1970
 6881SOL     OW32101   1.882   3.700  11.450 -0.1113 -0.2727 -0.2833
 6881SOL    HW132102   1.865   3.672  11.360  3.8856 -0.9217 -0.8447
 6881SOL    HW232103   1.797   3.707  11.494  0.8270  4.3318  0.8353
 6882SOL     OW32104   1.984   1.805   2.073  0.5042  0.3971 -0.0923
 6882SOL    HW132105   2.069   1.825   2.114  0.3281  0.7495  0.0995
 6882SOL    HW232106   1.974   1.884   2.021 -2.4117 -1.0984 -1.7857
 6883SOL     OW32107   3.310   2.762   2.001 -0.6393 -0.4690  0.1853
 6883SOL    HW132108   3.304   2.752   1.906 -0.4241  0.2261  0.0929
 6883SOL    HW232109   3.324   2.856   2.013  0.5546 -0.8050  1.4324
 6884SOL     OW32110   3.192   4.591   4.632  0.7722  0.2813  0.0706
 6884SOL    HW132111   3.100   4.615   4.633  0.6987 -0.1023  1.4693
 6884SOL    HW232112   3.200   4.562   4.541  1.3179  1.0999 -0.1478
 6885SOL     OW32113   1.787   3.209   2.204  0.6754  0.1480  0.1296
 6885SOL    HW132114   1.814   3.196   2.295 -0.0230 -0.2374  0.2857
 6885SOL    HW232115   1.698   3.173   2.210  1.2949 -1.4238  0.0604
 6886SOL     OW32116   4.198   4.665   5.640  0.1059  0.7339  0.0916
 6886SOL    HW132117   4.211   4.694   5.550  0.1935 -0.0986 -0.1660
 6886SOL    HW232118   4.183   0.024   5.684 -0.1761  0.1889  1.0362
 6887SOL     OW32119   4.560   1.934  11.892  0.0412 -0.1026  0.5528
 6887SOL    HW132120   4.604   1.858  11.931 -0.0371 -0.5092 -0.1425
 6887SOL    HW232121   4.611   2.011  11.915  0.8934 -0.0605 -1.4636
 6888SOL     OW32122   2.722   3.156   8.851  0.4985  0.0063  1.0015
 6888SOL    HW132123   2.755   3.182   8.937 -0.1931  2.0482  0.6374
 6888SOL    HW232124   2.734   3.061   8.851 -1.4093 -0.2171 -1.8263
 6889SOL     OW32125   3.960   4.473   2.694 -0.2271 -0.1473  0.5881
 6889SOL    HW132126   3.959   4.568   2.697  0.4697 -0.1540  0.8323
 6889SOL    HW232127   3.981   4.457   2.786  1.0250  1.8710  0.6349
 6890SOL     OW32128   1.684   1.914   8.170 -0.3734  0.2642  0.2025
 6890SOL    HW132129   1.630   1.989   8.145  2.6391  2.5100  0.3953
 6890SOL    HW232130   1.763   1.959   8.199 -0.0111  0.2125 -0.7077
 6891SOL     OW32131   2.308   4.368  13.894  0.1772 -0.4332 -0.0565
 6891SOL    HW132132   2.271   4.441  13.845  0.5015  1.0255  1.8784
 6891SOL    HW232133   2.297   4.398  13.984 -1.0253  2.5832 -1.2319
 6892SOL     OW32134   3.934   1.812   5.005 -0.2638 -0.8918  0.5287
 6892SOL    HW132135   3.899   1.794   4.918 -0.8367 -1.0419  0.7913
 6892SOL    HW232136   3.993   1.887   5.000 -0.3553 -0.7678  1.2960
 6893SOL     OW32137   4.196   1.536  11.994  0.1998 -0.0021  0.1128
 6893SOL    HW132138   4.165   1.555  11.906 -0.2941 -0.0507  0.2737
 6893SOL    HW232139   4.237   1.617  12.026 -0.1375  0.2219 -0.0147
 6894SOL     OW32140   1.902   2.165   8.030 -0.4962 -0.4971 -0.3279
 6894SOL    HW132141   1.985   2.136   8.066 -0.1233  0.5454 -0.3684
 6894SOL    HW232142   1.867   2.219   8.100 -0.6879 -1.0215 -0.0157
 6895SOL     OW32143   4.294   1.667  11.632 -0.1655  1.0239 -0.7819
 6895SOL    HW132144   4.200   1.670  11.647  0.1505  0.9801  1.1233
 6895SOL    HW232145   4.329   1.735  11.690 -2.4751  2.3181 -0.9151
 6896SOL     OW32146   2.400   2.414   4.357 -0.3442  0.1331 -0.6347
 6896SOL    HW132147   2.308   2.422   4.332 -0.7576  2.4102  1.6247
 6896SOL    HW232148   2.438   2.436   4.272 -0.5519  0.3424 -0.6746
 6897SOL     OW32149   1.494   0.066   8.346 -0.6000 -0.3948  0.1473
 6897SOL    HW132150   1.517   0.157   8.363 -3.4714  0.6261 -1.3793
 6897SOL    HW232151   1.408   0.066   8.389 -1.0095  4.6450 -0.7037
 6898SOL     OW32152   4.010   4.597   4.264  0.3406  0.6642  0.3273
 6898SOL    HW132153   4.039   4.507   4.282  1.7015  1.0238 -0.0891
 6898SOL    HW232154   3.959   4.563   4.191 -0.8230  1.2352  0.8794
 6899SOL     OW32155   1.083   0.287  11.293  0.2905  0.4607 -0.6342
 6899SOL    HW132156   1.094   0.381  11.304  1.5814  0.1119  1.1554
 6899SOL    HW232157   1.051   0.283  11.383  1.9891  0.6050 -0.0066
 6900SOL     OW32158   1.424   4.094   2.756 -0.2015  0.7696 -0.0555
 6900SOL    HW132159   1.386   4.113   2.670 -2.7918 -3.2757  0.1840
 6900SOL    HW232160   1.370   4.016   2.772 -2.0113  2.0693  0.1890
 6901SOL     OW32161   1.905   2.718  13.120  0.2965  0.4902 -0.2099
 6901SOL    HW132162   1.854   2.659  13.063  0.6750 -0.2894  0.2562
 6901SOL    HW232163   1.905   2.790  13.057  1.1778 -0.2946 -1.1210
 6902SOL     OW32164   3.596   1.876   2.817 -0.0727  0.1640  0.1643
 6902SOL    HW132165   3.661   1.811   2.845  0.1420 -0.0251 -0.7867
 6902SOL    HW232166   3.584   1.855   2.724 -0.7068 -0.8114  0.4651
 6903SOL     OW32167   1.986   1.129  14.973 -0.2697 -0.5300  0.0430
 6903SOL    HW132168   2.074   1.101  14.998 -0.8547 -0.7565  1.8434
 6903SOL    HW232169   2.000   1.210  14.924  2.1101 -1.2415 -0.4646
 6904SOL     OW32170   0.499   4.139   4.558 -0.0163 -0.0338  0.6789
 6904SOL    HW132171   0.416   4.096   4.581  0.4362 -0.5045  1.4255
 6904SOL    HW232172   0.482   4.232   4.542  1.8673  0.0241 -0.9203
 6905SOL     OW32173   3.516   3.645  12.308  0.3606 -0.5820  0.1373
 6905SOL    HW132174   3.579   3.574  12.303 -1.3441 -1.9796 -1.2629
 6905SOL    HW232175   3.439   3.589  12.319 -1.1172  1.4946  0.4622
 6906SOL     OW32176   3.365   1.489   6.554  0.2496 -0.3762  0.6775
 6906SOL    HW132177   3.371   1.578   6.587 -0.8751 -0.2940  0.6893
 6906SOL    HW232178   3.310   1.457   6.626 -0.2434  0.5173  0.6983
 6907SOL     OW32179   2.738   2.992  15.172  0.1642 -0.1421  0.0400
 6907SOL    HW132180   2.773   3.081  15.166 -0.9944  0.3180  0.1480
 6907SOL    HW232181   2.816   2.940  15.152  1.0726  1.1488  0.2053
 6908SOL     OW32182   2.846   0.348   8.556 -0.1285 -0.1825 -0.4112
 6908SOL    HW132183   2.803   0.305   8.630  1.7930 -3.3768 -1.1618
 6908SOL    HW232184   2.790   0.307   8.490 -0.3551 -0.4183 -0.0743
 6909SOL     OW32185   0.726   0.745   5.872 -0.0068 -0.5046  0.4311
 6909SOL    HW132186   0.699   0.812   5.935 -0.5023 -0.5221  0.2388
 6909SOL    HW232187   0.795   0.786   5.821  1.0311 -0.1464  2.1165
 6910SOL     OW32188   1.849   4.678  10.068 -0.0713  0.0162  0.0014
 6910SOL    HW132189   1.841   4.710   9.978  1.8911 -0.2379 -0.2646
 6910SOL    HW232190   1.910   0.014  10.110 -0.6200 -0.2629  1.2063
 6911SOL     OW32191   4.318   4.459   5.774  0.4627  0.1566 -0.0774
 6911SOL    HW132192   4.262   4.505   5.711 -0.2300 -0.2125  0.2740
 6911SOL    HW232193   4.379   4.532   5.788  0.5373  0.7149 -3.2768
 6912SOL     OW32194   3.619   3.742  11.061  0.0047 -0.1041  0.0581
 6912SOL    HW132195   3.661   3.668  11.105 -0.4967 -1.0752 -1.1133
 6912SOL    HW232196   3.691   3.804  11.048 -2.3560  3.2321  2.6692
 6913SOL     OW32197   4.284   4.674   5.374 -0.0827 -0.0133  0.4926
 6913SOL    HW132198   4.373   4.655   5.345 -0.7438 -0.8211 -0.9735
 6913SOL    HW232199   4.234   4.618   5.315 -0.8331 -2.0369  3.0703
 6914SOL     OW32200   1.096   0.120   2.287 -0.3385 -0.2220  0.0247
 6914SOL    HW132201   1.136   0.174   2.219 -0.4688  0.6044  0.6032
 6914SOL    HW232202   1.022   0.080   2.242  0.0460 -0.2721 -0.5688
 6915SOL     OW32203   3.337   2.490   2.604 -0.5343 -0.1195  0.3810
 6915SOL    HW132204   3.400   2.483   2.532 -0.9883  1.7119 -0.1795
 6915SOL    HW232205   3.324   2.585   2.610 -1.2598 -0.1310 -0.8861
 6916SOL     OW32206   4.415   3.529  14.970 -0.3718 -0.1141 -0.1507
 6916SOL    HW132207   4.487   3.467  14.966  0.0780  0.3205  1.0644
 6916SOL    HW232208   4.443   3.577  15.048  1.9132 -0.0553 -1.0068
 6917SOL     OW32209   4.342   3.926   2.686 -0.0003 -0.0950  0.1088
 6917SOL    HW132210   4.433   3.957   2.686 -0.4113  1.1062  0.7560
 6917SOL    HW232211   4.348   3.850   2.627  0.5676 -0.1167  0.1891
 6918SOL     OW32212   1.825   1.929  17.031 -0.2348  0.0094 -0.5601
 6918SOL    HW132213   1.845   1.918  16.938 -0.3125  1.0554 -0.7006
 6918SOL    HW232214   1.884   2.000  17.057  0.3158 -0.7507  0.2758
 6919SOL     OW32215   0.045   2.960   6.013  0.2033 -0.1871  0.0197
 6919SOL    HW132216   0.037   2.887   5.952 -0.8919  0.6130 -0.7851
 6919SOL    HW232217   0.118   3.006   5.973  1.4519 -1.8619  0.3573
 6920SOL     OW32218   1.852   2.841  13.848 -0.4421 -0.5580  0.0597
 6920SOL    HW132219   1.911   2.766  13.846  0.8393  0.4223  0.9769
 6920SOL    HW232220   1.767   2.802  13.869  0.1500 -2.0390 -0.2779
 6921SOL     OW32221   4.539   1.158   8.691 -0.3998  0.6085  0.2028
 6921SOL    HW132222   4.476   1.090   8.669  0.0708  1.0265 -2.3989
 6921SOL    HW232223   4.543   1.205   8.607  0.5049 -0.2639 -0.2465
 6922SOL     OW32224   0.765   3.213   6.876 -0.3406 -0.2019 -0.0104
 6922SOL    HW132225   0.840   3.256   6.916 -0.5622 -2.0720  2.3865
 6922SOL    HW232226   0.774   3.122   6.902  0.6553  0.2410  1.1743
 6923SOL     OW32227   2.358   0.661  14.246  0.7299 -0.5039  0.2896
 6923SOL    HW132228   2.279   0.637  14.295 -0.9327 -0.1315 -2.2454
 6923SOL    HW232229   2.423   0.652  14.316  0.8481  0.6066  0.3124
 6924SOL     OW32230   3.025   2.336   9.611 -0.1064  0.1301  0.5551
 6924SOL    HW132231   2.951   2.376   9.656 -0.5251  0.3308 -0.3353
 6924SOL    HW232232   3.051   2.400   9.545  2.2854 -0.3003  1.0700
 6925SOL     OW32233   1.229   1.775  17.517  0.5430 -0.4067 -0.3361
 6925SOL    HW132234   1.310   1.792  17.566  1.2656 -1.6902 -1.0832
 6925SOL    HW232235   1.188   1.862  17.519  0.4979 -0.3989 -1.5912
 6926SOL     OW32236   0.035   1.380  13.129  0.2247  0.0676  0.2993
 6926SOL    HW132237   0.099   1.445  13.099 -0.5670  0.5625 -0.3224
 6926SOL    HW232238   4.717   1.425  13.201 -0.8244 -0.3045 -0.0871
 6927SOL     OW32239   1.159   4.404   4.869  0.6847 -0.0152  0.8412
 6927SOL    HW132240   1.208   4.368   4.795 -0.5857  0.7833 -0.3777
 6927SOL    HW232241   1.144   4.491   4.833  2.4912  0.7353  1.9231
 6928SOL     OW32242   1.465   2.527   4.731  0.4458 -0.2203  0.6555
 6928SOL    HW132243   1.401   2.526   4.803 -1.4657 -0.3409 -1.0385
 6928SOL    HW232244   1.475   2.621   4.719 -0.9536 -0.2369 -0.7575
 6929SOL     OW32245   3.832   1.908   7.810 -1.0022 -0.0023  0.1870
 6929SOL    HW132246   3.742   1.922   7.842 -0.5873  0.2186  1.2565
 6929SOL    HW232247   3.868   1.854   7.881  0.2300  1.3700  0.5974
 6930SOL     OW32248   0.963   3.514   2.654 -0.3977  0.4711 -0.2804
 6930SOL    HW132249   1.002   3.576   2.593  0.1040 -0.6466 -1.0886
 6930SOL    HW232250   0.908   3.579   2.698 -2.0584 -1.7972  0.9980
 6931SOL     OW32251   4.659   4.660   7.932 -0.3034 -0.8674 -0.7106
 6931SOL    HW132252   4.593   4.709   7.882 -1.8583 -1.4316  0.7961
 6931SOL    HW232253   4.660   4.716   8.010  1.8643 -1.6246 -0.1967
 6932SOL     OW32254   0.242   1.952  10.291  0.5828  0.2190  0.0465
 6932SOL    HW132255   0.231   2.010  10.216 -0.3311 -1.1204 -0.8543
 6932SOL    HW232256   0.167   1.971  10.347  1.6974 -1.2682  2.0584
 6933SOL     OW32257   4.202   1.329  11.046 -0.3350  0.3627  0.1564
 6933SOL    HW132258   4.244   1.340  11.131 -1.0494  1.7950  0.3257
 6933SOL    HW232259   4.238   1.247  11.012  0.4537  0.6965  0.1916
 6934SOL     OW32260   1.835   3.947   3.856  0.1652  0.5372 -0.5860
 6934SOL    HW132261   1.816   4.040   3.846 -2.0711 -0.1457 -2.6987
 6934SOL    HW232262   1.866   3.943   3.947 -1.5211  2.2041  0.0668
 6935SOL     OW32263   0.352   1.970   8.354 -0.5206 -0.7486  0.0983
 6935SOL    HW132264   0.340   2.051   8.403 -3.7783 -1.3312  0.2896
 6935SOL    HW232265   0.277   1.968   8.295 -0.4952 -1.9220  0.1058
 6936SOL     OW32266   4.003   2.262   0.054  0.8808 -0.5936  0.1541
 6936SOL    HW132267   4.033   2.229   0.139  1.7888  0.3126  0.1868
 6936SOL    HW232268   4.078   2.232   0.002  1.3368  1.9139 -0.6345
 6937SOL     OW32269   4.410   2.240   2.638 -0.7365 -0.6136 -0.1044
 6937SOL    HW132270   4.381   2.331   2.645  0.8059 -0.1182 -0.1702
 6937SOL    HW232271   4.333   2.200   2.678 -1.7266  0.7652 -0.6436
 6938SOL     OW32272   2.464   2.721  14.485  0.1213 -0.5410  0.2703
 6938SOL    HW132273   2.517   2.800  14.496 -1.4215  0.3260  1.4674
 6938SOL    HW232274   2.501   2.682  14.406  0.9232 -0.2341  0.5011
 6939SOL     OW32275   3.444   3.791  17.386 -0.1153 -0.8103  0.8035
 6939SOL    HW132276   3.480   3.702  17.385 -0.0104 -0.7719  0.9618
 6939SOL    HW232277   3.355   3.784  17.353 -0.7057 -2.4671  2.7314
 6940SOL     OW32278   2.307   4.524  13.359 -0.2657  0.8102  0.0070
 6940SOL    HW132279   2.343   4.590  13.419  1.5837 -1.2853  1.2285
 6940SOL    HW232280   2.325   4.565  13.275  2.2165 -0.7484 -0.2242
 6941SOL     OW32281   2.445   4.193   1.764  0.5716 -0.1322 -0.1479
 6941SOL    HW132282   2.496   4.273   1.780 -1.8492  1.0483  1.7324
 6941SOL    HW232283   2.471   4.147   1.844  1.3133 -0.1414 -0.3958
 6942SOL     OW32284   4.463   2.026   2.927 -0.0082  0.1361 -0.1327
 6942SOL    HW132285   4.383   2.055   2.883 -0.6906  0.3418  1.2499
 6942SOL    HW232286   4.464   2.082   3.004  1.0228  0.5714 -0.4604
 6943SOL     OW32287   1.483   2.406  14.331  0.3846 -0.1142 -0.0231
 6943SOL    HW132288   1.405   2.458  14.352 -0.4336 -1.4204  0.2053
 6943SOL    HW232289   1.440   2.320  14.325 -0.4629  0.3491 -0.5238
 6944SOL     OW32290   3.830   2.914   5.385  0.6720 -0.0237  0.5958
 6944SOL    HW132291   3.765   2.917   5.315 -0.2060  0.4022  1.4206
 6944SOL    HW232292   3.906   2.939   5.333  0.1262  1.8367  0.6831
 6945SOL     OW32293   1.539   1.771   8.715 -0.0173  0.2505  0.1149
 6945SOL    HW132294   1.492   1.688   8.720  0.4749 -0.0850 -0.6768
 6945SOL    HW232295   1.485   1.825   8.772 -1.8961 -0.3066 -1.1336
 6946SOL     OW32296   1.576   2.598  11.360  0.6525 -0.8625  0.0330
 6946SOL    HW132297   1.536   2.550  11.433 -1.2550  2.1658  0.9749
 6946SOL    HW232298   1.499   2.624  11.309 -1.2263 -3.1732  1.7350
 6947SOL     OW32299   0.956   0.067   3.006  0.9119  0.6808 -0.1713
 6947SOL    HW132300   0.893   0.110   2.948  0.0348  0.4713  0.6458
 6947SOL    HW232301   0.900   0.046   3.081  1.4066  2.5985  0.7303
 6948SOL     OW32302   4.655   1.280   7.860  0.5307 -0.4191  0.0007
 6948SOL    HW132303   4.655   1.208   7.922 -0.6654 -1.9192 -1.7223
 6948SOL    HW232304   4.651   1.234   7.776  2.0880  1.7749 -1.2824
 6949SOL     OW32305   2.893   3.349   0.588  0.0333  0.2713 -0.2672
 6949SOL    HW132306   2.978   3.377   0.621 -1.1337  1.8692  1.4443
 6949SOL    HW232307   2.837   3.387   0.656 -0.9854 -0.3089 -0.7858
 6950SOL     OW32308   4.680   4.676   1.672  0.4436 -0.1205 -0.3402
 6950SOL    HW132309   0.014   4.692   1.598  0.1744  0.7037 -0.3660
 6950SOL    HW232310   4.606   0.005   1.642  0.1693  0.9063  2.1120
 6951SOL     OW32311   1.778   0.023   0.785  0.4230 -0.0479 -0.0949
 6951SOL    HW132312   1.750   0.106   0.822  1.0744 -0.2807  0.9105
 6951SOL    HW232313   1.692   4.720   0.753  0.9031  0.9831 -2.2619
 6952SOL     OW32314   0.169   0.734   2.248  0.2469  0.5220 -0.5752
 6952SOL    HW132315   0.250   0.766   2.289  1.5884 -0.4134 -2.5202
 6952SOL    HW232316   0.172   0.646   2.285 -1.8993 -0.4734 -2.7828
 6953SOL     OW32317   0.523   2.758   5.992 -0.5692  0.2878  0.0358
 6953SOL    HW132318   0.534   2.843   5.950  0.7691 -0.1116 -0.4311
 6953SOL    HW232319   0.477   2.712   5.922  0.3805 -2.6560  1.3370
 6954SOL     OW32320   0.754   3.224   3.630 -0.0527  0.0443  0.0909
 6954SOL    HW132321   0.789   3.311   3.650 -1.0348  0.5018 -0.2015
 6954SOL    HW232322   0.664   3.252   3.618 -0.0878  0.7749  2.1776
 6955SOL     OW32323   0.129   2.924   7.530 -0.5829  0.3503  0.5439
 6955SOL    HW132324   0.090   2.847   7.489  1.5579  0.3664 -1.5127
 6955SOL    HW232325   0.079   2.931   7.612  0.4323 -0.5820  1.2331
 6956SOL     OW32326   0.073   3.249  16.760  0.1179 -0.0741  0.6997
 6956SOL    HW132327   0.116   3.236  16.844  2.2347  1.5508 -0.1226
 6956SOL    HW232328   4.707   3.237  16.789  0.0402 -0.0805  0.4537
 6957SOL     OW32329   4.705   4.350   9.229 -0.1929  0.3217 -0.0352
 6957SOL    HW132330   0.017   4.438   9.238  2.4677 -0.7599  0.1729
 6957SOL    HW232331   0.044   4.323   9.161  1.3520 -0.7401  1.8206
 6958SOL     OW32332   2.582   3.025   8.015 -0.3915  0.1438  0.9579
 6958SOL    HW132333   2.661   3.046   7.966 -0.2888 -0.5118  0.8413
 6958SOL    HW232334   2.539   2.990   7.937  0.2844  3.1176 -0.7203
 6959SOL     OW32335   3.892   3.745   7.075  0.4180 -0.2866  0.2594
 6959SOL    HW132336   3.838   3.803   7.129  0.6266  0.0172  0.1420
 6959SOL    HW232337   3.846   3.664   7.099 -0.8126  0.9900  2.2259
 6960SOL     OW32338   2.360   0.651   9.069 -0.5182 -0.7817 -0.5668
 6960SOL    HW132339   2.436   0.693   9.112 -0.9908 -1.6830  1.1503
 6960SOL    HW232340   2.302   0.648   9.145 -1.0403 -1.1640 -0.9849
 6961SOL     OW32341   2.774   2.444  17.578  0.4942 -0.6638 -0.4617
 6961SOL    HW132342   2.765   2.384  17.653 -3.3420  0.3736 -0.0860
 6961SOL    HW232343   2.759   2.528  17.622  2.2291  1.7206 -4.4601
 6962SOL     OW32344   2.562   2.899  16.211  0.5075 -0.0453  0.2205
 6962SOL    HW132345   2.620   2.975  16.209 -0.3884  0.6267 -0.6911
 6962SOL    HW232346   2.484   2.938  16.169 -0.2953 -1.2040  0.6302
 6963SOL     OW32347   2.684   3.401   4.666 -0.2653  0.3124 -0.7315
 6963SOL    HW132348   2.621   3.434   4.602 -2.7602 -1.4661  0.7805
 6963SOL    HW232349   2.680   3.307   4.649  1.3392  0.4061 -1.5276
 6964SOL     OW32350   3.672   4.507   4.333 -0.0775 -0.4557  0.0001
 6964SOL    HW132351   3.707   4.477   4.249  0.5083 -1.8232  0.7390
 6964SOL    HW232352   3.756   4.519   4.377  0.9060 -3.0560 -1.1669
 6965SOL     OW32353   2.982   1.918   9.141  0.5465 -0.2103 -0.0320
 6965SOL    HW132354   2.975   1.901   9.047  0.6224 -0.0952 -0.0581
 6965SOL    HW232355   2.955   2.009   9.150 -1.3889 -0.4946 -2.8844
 6966SOL     OW32356   4.373   0.129  15.366  0.4648 -0.1720  0.1207
 6966SOL    HW132357   4.352   0.140  15.459  0.8037 -3.0001  0.5478
 6966SOL    HW232358   4.352   0.218  15.340  3.1567  0.7392  1.1220
 6967SOL     OW32359   3.695   2.309   1.978 -0.2353  0.0809  0.2346
 6967SOL    HW132360   3.610   2.273   1.952 -0.4603 -1.2921  2.8565
 6967SOL    HW232361   3.750   2.232   1.990  2.6451  2.3104  1.3874
 6968SOL     OW32362   0.250   1.073   5.993  0.2617  0.1393  0.1081
 6968SOL    HW132363   0.344   1.084   5.978  1.2295 -3.9179  3.0723
 6968SOL    HW232364   0.219   1.039   5.909  0.5355  1.9666 -0.7224
 6969SOL     OW32365   0.379   4.057  15.005  0.5625 -0.5528 -0.0443
 6969SOL    HW132366   0.412   3.968  15.015  1.7110  0.2557  3.3275
 6969SOL    HW232367   0.454   4.102  14.968 -0.1868  0.2340 -0.6180
 6970SOL     OW32368   2.370   1.439   8.911  0.4236  0.8115 -0.2777
 6970SOL    HW132369   2.347   1.510   8.972 -0.5392  0.7288 -0.5525
 6970SOL    HW232370   2.387   1.485   8.829 -0.1389  0.8588 -0.3650
 6971SOL     OW32371   3.047   1.850   9.435 -0.1694  0.1620 -0.6872
 6971SOL    HW132372   3.030   1.847   9.529  1.8169 -2.3266 -0.4061
 6971SOL    HW232373   3.130   1.895   9.419  0.4175 -0.6233  0.1453
 6972SOL     OW32374   1.395   0.049   7.421 -0.4894 -0.1814 -0.8289
 6972SOL    HW132375   1.384   0.054   7.326 -2.4686 -0.8283 -0.6260
 6972SOL    HW232376   1.468   0.110   7.435 -0.7142  0.5190 -2.6260
 6973SOL     OW32377   2.542   3.228   8.183 -0.5759  0.3445 -0.5459
 6973SOL    HW132378   2.632   3.258   8.166 -0.2456 -1.1078 -1.3666
 6973SOL    HW232379   2.528   3.164   8.113 -0.0362 -0.5629  0.1578
 6974SOL     OW32380   0.896   0.347  17.120  0.4472  0.6443 -0.1582
 6974SOL    HW132381   0.834   0.390  17.060 -3.2785 -1.8586  1.9311
 6974SOL    HW232382   0.970   0.390  17.078  0.3742  0.0536 -0.8917
 6975SOL     OW32383   3.504   2.089   8.692  0.0297 -0.4054 -0.6073
 6975SOL    HW132384   3.450   2.132   8.625  0.7261 -0.2329 -1.0595
 6975SOL    HW232385   3.461   2.118   8.772  1.4478  0.2826 -0.0994
 6976SOL     OW32386   1.448   1.591   3.358  0.7875  0.1338  0.8657
 6976SOL    HW132387   1.540   1.592   3.385  2.0575 -1.1704 -3.4488
 6976SOL    HW232388   1.409   1.667   3.400 -1.2636 -0.7970  0.6148
 6977SOL     OW32389   2.358   1.133   9.772  0.1095  0.6109 -0.3013
 6977SOL    HW132390   2.401   1.174   9.697  1.6493 -1.2526 -0.4266
 6977SOL    HW232391   2.270   1.147   9.738 -0.6330 -0.7487  1.0803
 6978SOL     OW32392   4.297   3.007   5.424 -0.1385 -0.6691  0.1392
 6978SOL    HW132393   4.361   3.031   5.492  0.2815  1.0178 -0.8598
 6978SOL    HW232394   4.214   2.992   5.469 -1.4700 -2.0977 -2.7742
 6979SOL     OW32395   0.243   0.567   3.154  0.0872 -0.4881  0.4216
 6979SOL    HW132396   0.273   0.477   3.165 -0.4375 -0.3783  2.7313
 6979SOL    HW232397   0.286   0.608   3.229  0.4734 -2.1176  1.0798
 6980SOL     OW32398   3.492   3.092  16.036  0.4110 -0.8740 -0.0065
 6980SOL    HW132399   3.560   3.119  16.097 -1.0757 -0.1442  1.3285
 6980SOL    HW232400   3.537   3.094  15.951  0.0386  1.7245 -0.1338
 6981SOL     OW32401   2.231   3.770   5.246  0.5780 -0.6851  0.0037
 6981SOL    HW132402   2.272   3.684   5.251  1.1079 -0.3748  0.8799
 6981SOL    HW232403   2.257   3.784   5.155 -1.2668  0.1072 -0.4002
 6982SOL     OW32404   1.257   2.356   3.758 -0.6320  0.5004  0.2058
 6982SOL    HW132405   1.306   2.387   3.834 -2.0074  1.9228  0.5121
 6982SOL    HW232406   1.245   2.439   3.710  1.2767  1.1782  0.9067
 6983SOL     OW32407   0.272   4.057   2.833 -0.4978 -0.7913  0.0476
 6983SOL    HW132408   0.278   4.071   2.738 -1.0805  1.2628  0.3048
 6983SOL    HW232409   0.188   4.011   2.843 -0.6080 -0.7887 -0.8093
 6984SOL     OW32410   2.063   2.615  13.625  0.2975 -0.5410  0.1324
 6984SOL    HW132411   1.970   2.635  13.612  0.3617 -0.3752 -0.0782
 6984SOL    HW232412   2.094   2.611  13.534 -3.2867  1.1273 -1.1684
 6985SOL     OW32413   3.896   4.276  16.482 -0.3414 -0.1910 -0.0422
 6985SOL    HW132414   3.909   4.328  16.561 -1.2024  0.5969 -0.4156
 6985SOL    HW232415   3.801   4.268  16.485 -0.1883 -1.2328  1.7622
 6986SOL     OW32416   3.324   1.317  14.297  0.8160  0.0664  0.0483
 6986SOL    HW132417   3.378   1.372  14.354 -1.1146  1.0363  0.9314
 6986SOL    HW232418   3.383   1.299  14.223 -0.6015  2.0967 -1.5852
 6987SOL     OW32419   0.394   0.078  16.868  0.4546 -0.2945 -0.3718
 6987SOL    HW132420   0.396   0.171  16.846  1.9960  0.0316  1.1767
 6987SOL    HW232421   0.303   0.074  16.895  0.2290 -0.5212 -1.1422
 6988SOL     OW32422   4.238   0.112   2.689  0.2157  0.3571 -0.4910
 6988SOL    HW132423   4.197   0.034   2.652 -2.1033  0.7981  1.1479
 6988SOL    HW232424   4.256   0.160   2.607 -1.5557  1.9991  0.0838
 6989SOL     OW32425   2.389   3.535   7.279  0.7167 -0.6387 -0.2895
 6989SOL    HW132426   2.360   3.471   7.344  0.4091 -1.1588 -0.9407
 6989SOL    HW232427   2.468   3.497   7.240  0.1242 -1.1928 -0.9544
 6990SOL     OW32428   2.786   4.610   5.750 -0.6166  0.4297 -0.1080
 6990SOL    HW132429   2.874   4.616   5.712  0.1615 -0.8805  1.5115
 6990SOL    HW232430   2.743   4.690   5.721 -1.7973 -0.0137  0.4146
 6991SOL     OW32431   0.595   3.272   7.805 -0.2763  0.1368  0.0351
 6991SOL    HW132432   0.644   3.282   7.723 -1.1725  0.1338 -0.5044
 6991SOL    HW232433   0.651   3.327   7.859 -0.1464  1.5525 -1.5368
 6992SOL     OW32434   2.984   4.361   1.707 -0.1479  0.3098 -0.0225
 6992SOL    HW132435   2.965   4.329   1.619 -1.6109 -0.5094  0.6053
 6992SOL    HW232436   2.993   4.455   1.692 -0.4106 -0.0015 -2.1781
 6993SOL     OW32437   4.700   2.534  12.498 -0.0392 -0.1554  0.1633
 6993SOL    HW132438   0.071   2.525  12.492 -0.3455 -2.3634 -1.1992
 6993SOL    HW232439   4.675   2.488  12.578  2.9076 -1.7506  0.1423
 6994SOL     OW32440   4.690   0.432   0.398 -0.3710  0.3651 -0.5895
 6994SOL    HW132441   0.041   0.472   0.442  0.0104 -0.6788 -0.2899
 6994SOL    HW232442   4.678   0.476   0.314  0.2809 -0.0934 -0.9288
 6995SOL     OW32443   2.021   1.220   3.320 -0.1444  0.0571 -0.1841
 6995SOL    HW132444   2.015   1.312   3.292  1.4260  0.1240 -0.2928
 6995SOL    HW232445   2.115   1.206   3.315  0.0062  0.8630  0.3623
 6996SOL     OW32446   2.346   3.045  16.100 -0.3896  0.0094  0.0999
 6996SOL    HW132447   2.279   3.105  16.069  0.5293  0.6451 -0.6740
 6996SOL    HW232448   2.422   3.083  16.055  0.5189  0.3400  1.8799
 6997SOL     OW32449   3.425   1.454   4.414  0.2838  0.4554  0.2867
 6997SOL    HW132450   3.466   1.411   4.489  0.8815  0.7648  0.1355
 6997SOL    HW232451   3.349   1.496   4.453 -0.0394  0.5681 -0.4605
 6998SOL     OW32452   1.481   3.335   2.032  0.2676  0.1523  0.9068
 6998SOL    HW132453   1.484   3.382   1.949 -2.3379 -0.7246  0.3067
 6998SOL    HW232454   1.552   3.271   2.022 -0.4973 -0.1647 -2.5475
 6999SOL     OW32455   3.981   2.360   8.641 -0.6590 -0.0294  0.1560
 6999SOL    HW132456   3.909   2.332   8.698 -0.0375 -0.3008  0.8080
 6999SOL    HW232457   4.041   2.292   8.671  0.8184  0.7726 -1.0273
 7000SOL     OW32458   2.231   2.787   4.504  0.0449  0.5582 -0.0845
 7000SOL    HW132459   2.254   2.866   4.552 -3.2209  1.6118 -0.2483
 7000SOL    HW232460   2.150   2.830   4.477 -1.3437 -0.9649  1.6683
 7001SOL     OW32461   1.212   3.248   5.679 -0.4118 -0.5249 -0.0631
 7001SOL    HW132462   1.237   3.183   5.744 -1.5191 -2.2941 -1.3977
 7001SOL    HW232463   1.177   3.312   5.741 -1.3222  0.6588 -1.7844
 7002SOL     OW32464   2.993   0.784  12.561 -0.0515 -0.0904 -0.3095
 7002SOL    HW132465   3.062   0.786  12.627  1.0409 -0.4392 -1.4302
 7002SOL    HW232466   2.972   0.691  12.571 -1.4361  0.5140  2.1167
 7003SOL     OW32467   4.066   0.433   6.680  0.6058  0.7816 -0.0992
 7003SOL    HW132468   4.117   0.440   6.599  0.5878  0.5991 -0.1261
 7003SOL    HW232469   4.133   0.419   6.746 -1.7944 -1.0458  1.9562
 7004SOL     OW32470   4.091   3.689  14.680 -0.6085 -0.8202 -0.2913
 7004SOL    HW132471   4.064   3.768  14.633  0.1000  0.7678  1.9569
 7004SOL    HW232472   4.141   3.647  14.610 -1.4919 -1.1443 -0.7270
 7005SOL     OW32473   2.595   4.373   3.702  0.3691  0.5473 -0.1619
 7005SOL    HW132474   2.688   4.387   3.687  0.6880 -1.2206  0.1415
 7005SOL    HW232475   2.594   4.278   3.713 -2.4640  0.5575 -0.2868
 7006SOL     OW32476   2.826   2.248   2.364 -0.5812  0.1847 -0.7533
 7006SOL    HW132477   2.881   2.208   2.431 -0.0202  0.7806 -0.8593
 7006SOL    HW232478   2.777   2.312   2.417 -0.4365  2.1733 -3.0151
 7007SOL     OW32479   3.819   3.303   2.583  0.3776 -0.0079 -0.4731
 7007SOL    HW132480   3.845   3.244   2.654  1.2389  0.8488 -0.0710
 7007SOL    HW232481   3.747   3.256   2.541 -2.1101  4.3403 -1.0743
 7008SOL     OW32482   2.273   2.235   8.844 -0.5116 -0.1367  0.1262
 7008SOL    HW132483   2.216   2.200   8.913 -0.0261 -0.8569  0.1641
 7008SOL    HW232484   2.206   2.270   8.785  0.5833  2.0559  0.1705
 7009SOL     OW32485   4.388   2.187  16.009  0.0787 -0.5424 -0.3843
 7009SOL    HW132486   4.308   2.186  16.061  0.2866  0.0177 -0.0499
 7009SOL    HW232487   4.386   2.278  15.980 -0.4735 -0.4135  0.0703
 7010SOL     OW32488   1.575   2.246   3.585  0.2684  0.3797  0.0264
 7010SOL    HW132489   1.518   2.182   3.628  0.3755  1.0157  1.1176
 7010SOL    HW232490   1.634   2.183   3.544  1.5704  0.9086  1.0849
 7011SOL     OW32491   2.490   4.517  14.330  0.5665 -0.3999 -0.3361
 7011SOL    HW132492   2.438   4.593  14.303 -0.4183 -0.8827  0.1996
 7011SOL    HW232493   2.457   4.459  14.261 -0.1505  0.4644 -0.7263
 7012SOL     OW32494   4.054   1.033   0.862 -0.0271 -0.0557 -0.3530
 7012SOL    HW132495   4.021   1.106   0.913 -1.4723  0.0857 -1.5223
 7012SOL    HW232496   4.144   1.027   0.897 -0.3538 -0.2332  0.4610
 7013SOL     OW32497   4.622   0.964   8.204  0.4184  0.4951 -0.0286
 7013SOL    HW132498   4.669   1.010   8.135 -1.1781  2.2039  0.0104
 7013SOL    HW232499   4.533   0.970   8.168  1.6290  2.7602 -2.5846
 7014SOL     OW32500   2.314   0.693   2.073  0.0997 -0.2592 -0.1442
 7014SOL    HW132501   2.296   0.654   2.159  1.4664  0.0677  0.2957
 7014SOL    HW232502   2.276   0.780   2.071  0.5185 -0.0931 -0.8899
 7015SOL     OW32503   3.455   0.905   9.078  0.0264  0.0100  0.3066
 7015SOL    HW132504   3.474   0.954   9.157 -2.9234 -0.6429  1.4418
 7015SOL    HW232505   3.449   0.981   9.021 -1.0186  0.9072  1.6127
 7016SOL     OW32506   3.155   4.025  10.977  0.8137 -0.2405 -0.1787
 7016SOL    HW132507   3.209   3.948  10.960  0.4457 -0.7166  0.7855
 7016SOL    HW232508   3.202   4.097  10.936 -0.1591  0.5452  0.1075
 7017SOL     OW32509   2.075   1.827   7.589  0.2413  0.2682 -0.0376
 7017SOL    HW132510   2.131   1.904   7.589  2.0399 -1.0115 -2.8090
 7017SOL    HW232511   2.009   1.859   7.650 -0.3260  0.9641 -1.0200
 7018SOL     OW32512   0.783   1.174   8.122 -0.3464 -0.2090  0.2714
 7018SOL    HW132513   0.774   1.232   8.198 -1.7817 -1.3311  0.9530
 7018SOL    HW232514   0.859   1.123   8.153 -0.5882 -1.3368 -0.9702
 7019SOL     OW32515   4.162   4.419   0.401  0.1037  0.0556 -0.7949
 7019SOL    HW132516   4.170   4.508   0.367 -0.5857 -0.0481 -1.2443
 7019SOL    HW232517   4.089   4.384   0.349  0.4170 -3.1158  0.8917
 7020SOL     OW32518   2.011   0.426  16.841 -0.1132 -0.5306  0.2178
 7020SOL    HW132519   2.055   0.508  16.819 -0.5535  0.1033  1.6334
 7020SOL    HW232520   2.073   0.408  16.912  1.1893 -0.8766 -1.0254
 7021SOL     OW32521   3.139   1.890  11.489 -0.0983  0.0736  0.0090
 7021SOL    HW132522   3.113   1.954  11.556 -1.7458 -0.5617 -0.0075
 7021SOL    HW232523   3.192   1.948  11.434 -0.4670 -1.3658 -1.8670
 7022SOL     OW32524   3.620   0.075   7.129  0.3333  0.2161  0.7832
 7022SOL    HW132525   3.534   0.087   7.089  0.2444  2.0083  1.5010
 7022SOL    HW232526   3.666   0.159   7.118 -0.5149  0.5658 -0.1173
 7023SOL     OW32527   3.942   2.799   6.034  0.0678  0.3272 -0.6301
 7023SOL    HW132528   3.893   2.881   6.022 -0.4768 -0.0169 -0.7724
 7023SOL    HW232529   4.017   2.829   6.086 -0.8108  1.0738  0.2084
 7024SOL     OW32530   0.635   2.661   6.858 -0.0399 -0.1402 -0.2443
 7024SOL    HW132531   0.550   2.702   6.869 -1.1280 -2.5039  0.2575
 7024SOL    HW232532   0.612   2.569   6.841 -0.5934  0.1614 -1.1020
 7025SOL     OW32533   0.587   2.390   3.269 -0.9022  0.1816  0.0470
 7025SOL    HW132534   0.666   2.351   3.231 -1.8267 -0.6244 -1.0669
 7025SOL    HW232535   0.529   2.314   3.278  0.6622 -1.0291 -0.2750
 7026SOL     OW32536   2.340   0.958   8.923 -0.2289  0.3176 -0.0234
 7026SOL    HW132537   2.337   1.001   9.009 -0.3959  0.8878 -0.3199
 7026SOL    HW232538   2.435   0.946   8.913  0.3602  3.8186  1.1568
 7027SOL     OW32539   1.869   0.200  13.748 -0.3571 -0.2834  0.1839
 7027SOL    HW132540   1.858   0.186  13.654  0.4659  0.2251  0.0202
 7027SOL    HW232541   1.854   0.111  13.779  2.4339 -0.8133 -0.0190
 7028SOL     OW32542   1.385   0.547   6.728  0.1525 -0.4310  0.1016
 7028SOL    HW132543   1.371   0.453   6.739 -1.6280  0.1187  2.4554
 7028SOL    HW232544   1.386   0.557   6.632 -0.3049  1.7455  0.3400
 7029SOL     OW32545   3.168   1.659   5.203 -0.4018 -0.5204 -0.2531
 7029SOL    HW132546   3.109   1.691   5.135 -0.7907  1.1230  0.8524
 7029SOL    HW232547   3.165   1.573   5.163 -0.4071 -0.2739 -0.7759
 7030SOL     OW32548   3.187   1.615  15.900  0.1547  0.2341  0.4184
 7030SOL    HW132549   3.104   1.647  15.866 -0.4416  0.5646  2.1498
 7030SOL    HW232550   3.242   1.621  15.822 -1.8480 -1.3336 -1.0985
 7031SOL     OW32551   3.539   3.728   2.473 -0.1578  0.4674 -0.3103
 7031SOL    HW132552   3.479   3.786   2.519 -1.1445 -1.5753  0.9503
 7031SOL    HW232553   3.575   3.796   2.415  0.4248 -0.2105 -0.7345
 7032SOL     OW32554   1.491   2.130   7.326 -0.2072  0.5779  0.3170
 7032SOL    HW132555   1.524   2.207   7.373  2.4528  0.0444 -0.7061
 7032SOL    HW232556   1.567   2.106   7.274 -0.6143 -1.0724  0.4815
 7033SOL     OW32557   0.942   2.696   7.708  0.1615  0.4163  0.4231
 7033SOL    HW132558   0.852   2.711   7.681  0.3867  0.6416 -0.1870
 7033SOL    HW232559   0.986   2.714   7.625  0.7432 -0.7954  0.4553
 7034SOL     OW32560   2.907   2.004   4.382 -0.2964  0.2568  0.2665
 7034SOL    HW132561   2.935   2.068   4.317  1.1431 -1.6490 -0.9756
 7034SOL    HW232562   2.954   2.048   4.453  2.0929 -1.7732 -0.0425
 7035SOL     OW32563   3.732   0.322   6.174 -0.1958  0.0789 -0.1603
 7035SOL    HW132564   3.708   0.266   6.100 -1.0267 -1.2855  1.1329
 7035SOL    HW232565   3.662   0.297   6.233 -0.0694 -2.3096 -0.9993
 7036SOL     OW32566   4.289   3.287   4.544 -0.2265 -0.0289  0.1412
 7036SOL    HW132567   4.289   3.368   4.492  1.2003  0.7537  1.3920
 7036SOL    HW232568   4.274   3.315   4.634  2.7940  0.3870  0.5080
 7037SOL     OW32569   4.456   1.897   3.951  0.3975  0.3339  0.6713
 7037SOL    HW132570   4.494   1.912   4.038 -0.8472  3.8931  0.6210
 7037SOL    HW232571   4.535   1.865   3.907  0.7371 -1.4720  2.5853
 7038SOL     OW32572   2.584   1.933  13.386  0.5220 -0.0799  0.2207
 7038SOL    HW132573   2.662   1.902  13.339 -1.2962 -4.0444 -0.1536
 7038SOL    HW232574   2.522   1.907  13.318 -1.6720 -1.5900  2.7615
 7039SOL     OW32575   1.163   2.432  14.402  0.5863  0.6998 -0.7770
 7039SOL    HW132576   1.197   2.415  14.490  0.6810  1.4648 -0.6632
 7039SOL    HW232577   1.114   2.351  14.387 -0.0174  1.1590 -1.2721
 7040SOL     OW32578   0.294   0.314   6.411 -0.2535 -0.1879  1.1015
 7040SOL    HW132579   0.324   0.402   6.432  0.6174 -0.3000  0.3305
 7040SOL    HW232580   0.342   0.261   6.474  1.3729  2.6238  2.2276
 7041SOL     OW32581   4.652   2.346   2.726  0.0467  0.3598 -0.8493
 7041SOL    HW132582   4.644   2.398   2.646  0.2545 -0.0622 -1.1420
 7041SOL    HW232583   4.606   2.265   2.708 -1.6602  0.5814  2.5686
 7042SOL     OW32584   3.213   2.666   7.409  0.0522  0.3802  0.4528
 7042SOL    HW132585   3.243   2.595   7.353 -0.9282  0.3990 -0.1093
 7042SOL    HW232586   3.207   2.622   7.494  0.5551 -0.3555  0.1050
 7043SOL     OW32587   0.689   3.451   6.344 -0.0966 -0.2826  0.5356
 7043SOL    HW132588   0.601   3.423   6.320 -0.5491  1.5748  0.0632
 7043SOL    HW232589   0.742   3.435   6.266 -0.1193  0.0872  0.4461
 7044SOL     OW32590   2.530   1.849   4.520 -0.0511  0.4533 -0.1145
 7044SOL    HW132591   2.600   1.798   4.479 -1.1192  0.5880 -2.0893
 7044SOL    HW232592   2.560   1.940   4.526 -1.5433  0.7766  2.6965
 7045SOL     OW32593   1.941   4.205   1.212 -0.0511  0.4355 -0.0925
 7045SOL    HW132594   1.918   4.170   1.298  0.3618  0.5408  0.0585
 7045SOL    HW232595   2.030   4.174   1.196 -0.4225 -0.4467 -0.4655
 7046SOL     OW32596   2.220   3.732   5.631 -0.2393 -0.0252 -0.6301
 7046SOL    HW132597   2.243   3.639   5.626 -4.1713 -1.1005  1.3828
 7046SOL    HW232598   2.126   3.723   5.644  0.1848 -0.0846  2.4298
 7047SOL     OW32599   1.225   3.438   7.272 -0.5918  0.5708  0.0338
 7047SOL    HW132600   1.220   3.533   7.280  2.3930  0.6080  1.6090
 7047SOL    HW232601   1.274   3.410   7.350  1.0044  1.4932 -0.6342
 7048SOL     OW32602   3.253   0.514  13.807 -0.2514 -0.1821 -0.7508
 7048SOL    HW132603   3.254   0.581  13.875 -3.9874 -0.6192 -0.2547
 7048SOL    HW232604   3.198   0.563  13.746 -0.1052 -3.1845 -3.2982
 7049SOL     OW32605   0.411   1.098   5.593 -0.3482  0.0282  1.0047
 7049SOL    HW132606   0.493   1.056   5.568 -1.2409 -1.4592  0.5991
 7049SOL    HW232607   0.439   1.187   5.615  0.8263  0.5392 -2.5155
 7050SOL     OW32608   3.493   4.012  16.961 -0.2086  0.2624  0.1978
 7050SOL    HW132609   3.455   4.037  17.046 -2.6633 -0.4468 -0.7051
 7050SOL    HW232610   3.415   4.023  16.907  1.3451 -0.4563 -2.2036
 7051SOL     OW32611   1.643   4.374   2.670 -0.1162 -0.8100  0.0567
 7051SOL    HW132612   1.619   4.397   2.759 -0.6892 -3.4974  0.6008
 7051SOL    HW232613   1.555   4.377   2.632 -0.2176 -0.0367  0.3721
 7052SOL     OW32614   2.570   3.776   4.463 -0.1680  0.5100 -0.2110
 7052SOL    HW132615   2.622   3.857   4.460 -1.8469  1.5623 -1.1138
 7052SOL    HW232616   2.542   3.776   4.555  0.2808 -1.0274 -0.0800
 7053SOL     OW32617   3.909   1.441  15.381  0.0191  0.1119  0.2806
 7053SOL    HW132618   3.996   1.401  15.381  0.3360  0.8001 -0.5635
 7053SOL    HW232619   3.926   1.532  15.357  2.9421 -0.6904 -0.7095
 7054SOL     OW32620   4.689   1.583  13.325  0.0198 -0.5302  0.1167
 7054SOL    HW132621   0.039   1.611  13.377 -0.1791  0.6177 -0.2298
 7054SOL    HW232622   4.621   1.587  13.392 -0.1132 -1.6070  0.0577
 7055SOL     OW32623   0.331   2.642   6.707 -0.3407 -0.4531 -0.1300
 7055SOL    HW132624   0.313   2.653   6.613  0.0643  1.8265  0.0521
 7055SOL    HW232625   0.329   2.734   6.732  2.2051 -0.1469 -1.0195
 7056SOL     OW32626   4.228   2.966  16.277  0.2156  0.4085 -0.1033
 7056SOL    HW132627   4.218   3.013  16.194  0.3566 -0.7899 -0.8062
 7056SOL    HW232628   4.234   2.875  16.247  0.2657  1.0397 -2.0315
 7057SOL     OW32629   0.390   4.417  17.389 -0.2914  0.2405  0.2902
 7057SOL    HW132630   0.403   4.418  17.484  1.5867  0.7035  0.0282
 7057SOL    HW232631   0.353   4.503  17.373 -0.0400  0.0287 -1.4118
 7058SOL     OW32632   4.184   2.692  14.185 -0.1342  0.7150 -0.1987
 7058SOL    HW132633   4.230   2.704  14.102 -0.7480 -1.0875 -0.8056
 7058SOL    HW232634   4.247   2.741  14.238 -0.0131 -0.4742  0.7508
 7059SOL     OW32635   3.107   1.078  12.694 -0.0307 -0.0157  0.2816
 7059SOL    HW132636   3.130   1.103  12.605  2.5495  0.9324  1.2268
 7059SOL    HW232637   3.153   0.994  12.703  0.0355 -0.0497 -0.3977
 7060SOL     OW32638   1.607   3.790  13.864  0.2464 -0.3340  0.3081
 7060SOL    HW132639   1.616   3.701  13.829  2.3042 -0.5311  1.3601
 7060SOL    HW232640   1.699   3.816  13.867  0.6599 -1.5531 -1.4425
 7061SOL     OW32641   1.237   2.625   4.268  0.1049  0.1107 -0.0351
 7061SOL    HW132642   1.316   2.657   4.225  0.0687  0.0338 -0.1587
 7061SOL    HW232643   1.224   2.693   4.334 -0.1067  2.1738 -2.2251
 7062SOL     OW32644   1.722   1.317   7.670  0.2643  0.1191  0.4813
 7062SOL    HW132645   1.693   1.392   7.618 -2.1711  0.6039  2.5536
 7062SOL    HW232646   1.721   1.355   7.758  2.4991 -2.0380  1.4366
 7063SOL     OW32647   4.320   1.795   8.085  0.7748  0.7682  0.0969
 7063SOL    HW132648   4.330   1.715   8.033 -1.1615  1.1116 -0.7905
 7063SOL    HW232649   4.403   1.807   8.132  0.4999  0.0362  0.7661
 7064SOL     OW32650   2.279   0.589  10.006 -0.1988 -0.1131 -0.1216
 7064SOL    HW132651   2.224   0.546   9.941 -0.2972  0.4261 -0.3946
 7064SOL    HW232652   2.328   0.652   9.954  0.9652 -1.9981 -1.3009
 7065SOL     OW32653   0.519   0.323  15.769  0.4802  0.5451 -0.8790
 7065SOL    HW132654   0.587   0.388  15.786  0.8439  0.1510 -0.8012
 7065SOL    HW232655   0.556   0.287  15.688  1.3829  0.3681 -0.3910
 7066SOL     OW32656   3.887   0.832   8.539 -0.3269 -0.3737 -0.7737
 7066SOL    HW132657   3.828   0.866   8.606  1.6468 -0.8758  1.2205
 7066SOL    HW232658   3.961   0.820   8.598 -1.8104 -0.3973  1.0539
 7067SOL     OW32659   3.722   4.275   6.795  0.1506 -0.4929 -0.0656
 7067SOL    HW132660   3.681   4.190   6.780 -1.3716 -0.1901  2.4430
 7067SOL    HW232661   3.727   4.276   6.891 -0.6123  0.3368 -0.0376
 7068SOL     OW32662   1.487   4.623  15.733 -0.4645 -0.0078 -1.0809
 7068SOL    HW132663   1.479   4.605  15.826  1.7340  2.1468 -0.4640
 7068SOL    HW232664   1.507   4.716  15.719  1.5828 -0.2709  0.1161
 7069SOL     OW32665   2.838   1.943   1.900  0.1413 -0.2235  0.2975
 7069SOL    HW132666   2.868   1.953   1.990 -0.6281 -0.7686  0.6123
 7069SOL    HW232667   2.877   1.861   1.869 -0.3700 -0.2635 -0.2469
 7070SOL     OW32668   4.000   0.986   6.878  0.7440  0.3845  0.5614
 7070SOL    HW132669   4.021   0.916   6.816 -1.9466  2.3457 -2.5794
 7070SOL    HW232670   3.963   0.936   6.950  0.5083  1.1075  0.9426
 7071SOL     OW32671   4.614   3.638   2.656  0.2139 -0.5075  0.5784
 7071SOL    HW132672   4.629   3.722   2.612 -1.3940 -0.8661 -0.6396
 7071SOL    HW232673   4.596   3.657   2.749 -0.5157 -0.2283  0.3831
 7072SOL     OW32674   3.687   4.064  12.207  0.2897  0.2457 -0.4702
 7072SOL    HW132675   3.626   4.009  12.158  0.9738 -0.3079 -0.7148
 7072SOL    HW232676   3.767   4.015  12.184  0.5676  1.1313 -1.3844
 7073SOL     OW32677   1.699   2.231   6.668  0.0096 -0.5963  0.1199
 7073SOL    HW132678   1.741   2.151   6.700 -1.0421 -0.8943  0.7692
 7073SOL    HW232679   1.766   2.269   6.611 -1.2088 -1.0400 -1.6039
 7074SOL     OW32680   0.537   4.337   5.212  0.0168 -0.0237  0.0953
 7074SOL    HW132681   0.528   4.426   5.247  0.2223  0.1916 -0.3975
 7074SOL    HW232682   0.563   4.289   5.291  1.8243  1.2506  0.2889
 7075SOL     OW32683   0.547   3.511   3.803 -0.0478 -0.2786  0.3853
 7075SOL    HW132684   0.624   3.462   3.833 -0.1905 -0.8312 -0.1444
 7075SOL    HW232685   0.546   3.494   3.709  2.5321  0.8801  0.1479
 7076SOL     OW32686   1.873   0.283   0.860  0.1534 -0.7031 -0.0643
 7076SOL    HW132687   1.946   0.248   0.809  0.1906 -2.0125  0.8837
 7076SOL    HW232688   1.920   0.307   0.939  1.7093  1.8069 -1.7415
 7077SOL     OW32689   0.022   0.064   6.618 -0.2790  0.0647 -0.7991
 7077SOL    HW132690   4.651   0.069   6.617 -0.2867 -0.1150 -0.9532
 7077SOL    HW232691   0.055   0.060   6.708 -0.0630  2.5559 -0.7763
 7078SOL     OW32692   0.668   4.015   4.748 -0.4435 -0.0954 -0.1023
 7078SOL    HW132693   0.665   4.074   4.823 -2.8159  0.8616 -0.9457
 7078SOL    HW232694   0.611   4.063   4.688  0.3562  0.9815  0.0147
 7079SOL     OW32695   2.526   3.025  17.177  0.1028  0.5785 -0.0941
 7079SOL    HW132696   2.436   2.995  17.164 -0.0401  0.7736  0.4568
 7079SOL    HW232697   2.512   3.110  17.135  0.6484 -0.1639 -1.7634
 7080SOL     OW32698   2.415   1.692   4.180 -0.6032  0.0539  0.1726
 7080SOL    HW132699   2.409   1.784   4.153 -0.0906 -0.1263 -0.5475
 7080SOL    HW232700   2.504   1.666   4.154 -0.8402  0.4266 -1.0318
 7081SOL     OW32701   4.184   4.258   9.980 -0.7267 -0.5343  0.2772
 7081SOL    HW132702   4.171   4.347  10.010 -1.2100  0.1951 -2.0904
 7081SOL    HW232703   4.116   4.211  10.028 -0.8075 -0.4367  0.2584
 7082SOL     OW32704   4.568   1.290  12.698  0.0997  0.1326  0.1111
 7082SOL    HW132705   4.478   1.260  12.682  0.1424  2.4742 -4.6478
 7082SOL    HW232706   4.596   1.257  12.783  1.0329  1.2560  0.2285
 7083SOL     OW32707   1.440   0.223   2.894 -0.3051 -0.0601 -0.2194
 7083SOL    HW132708   1.405   0.291   2.837 -0.7062  0.0600  0.1632
 7083SOL    HW232709   1.374   0.154   2.887  1.4001 -1.6713 -0.4056
 7084SOL     OW32710   4.425   2.500  10.898 -0.4647  0.3634 -0.1637
 7084SOL    HW132711   4.451   2.460  10.815  0.0514 -3.4918  1.8669
 7084SOL    HW232712   4.483   2.575  10.889 -0.6642  0.2960 -2.1373
 7085SOL     OW32713   3.737   4.208   4.163 -0.0916  1.1438  0.1045
 7085SOL    HW132714   3.739   4.136   4.226  0.7330  1.7571  0.7806
 7085SOL    HW232715   3.741   4.165   4.078 -1.7296  0.2960  0.4650
 7086SOL     OW32716   2.773   4.267   3.003 -0.2142  0.0652  0.0817
 7086SOL    HW132717   2.726   4.236   3.080 -0.5162 -0.5270 -0.3331
 7086SOL    HW232718   2.832   4.330   3.044 -0.3877  1.6637 -2.1065
 7087SOL     OW32719   1.443   1.243   5.359  0.0792  0.3418  0.3420
 7087SOL    HW132720   1.499   1.290   5.421  0.4726  0.5017 -0.1304
 7087SOL    HW232721   1.411   1.320   5.311  0.2822  0.9155  1.1210
 7088SOL     OW32722   2.125   3.015   1.610 -0.3212 -0.0792  0.5662
 7088SOL    HW132723   2.148   3.107   1.597  2.5658 -1.1520 -1.8345
 7088SOL    HW232724   2.055   3.021   1.675  0.0944  0.0685  1.0001
 7089SOL     OW32725   3.424   4.156   2.301 -0.0738 -0.0184  0.1188
 7089SOL    HW132726   3.344   4.138   2.350 -0.8197  2.3090 -0.2424
 7089SOL    HW232727   3.448   4.242   2.336  0.7141 -0.3493  0.3754
 7090SOL     OW32728   1.307   2.245   2.719  0.0072  0.6414 -0.4277
 7090SOL    HW132729   1.254   2.166   2.701  1.6569 -0.2387 -1.4135
 7090SOL    HW232730   1.249   2.286   2.782 -0.9875  0.3704 -1.1517
 7091SOL     OW32731   4.645   3.114  14.148  0.1693  0.0927 -0.5174
 7091SOL    HW132732   4.564   3.154  14.115  0.6172  1.5644  0.1523
 7091SOL    HW232733   4.709   3.171  14.106 -0.3890  0.0071 -1.4872
 7092SOL     OW32734   4.576   1.430   7.531 -0.1400  0.1941  0.0716
 7092SOL    HW132735   4.654   1.478   7.559 -0.2143  0.9754 -1.0704
 7092SOL    HW232736   4.573   1.462   7.441 -0.0385  0.1655  0.0585
 7093SOL     OW32737   1.034   0.749   2.437  0.4532  0.5328 -0.0564
 7093SOL    HW132738   0.983   0.721   2.360 -0.5246  0.3427  0.6567
 7093SOL    HW232739   1.079   0.667   2.456 -0.3033  0.3604  0.9673
 7094SOL     OW32740   1.931   4.253   8.258  0.2505  0.3127 -0.1538
 7094SOL    HW132741   1.843   4.265   8.223 -0.2755  0.5064  1.2252
 7094SOL    HW232742   1.939   4.333   8.311  0.8155  0.7428 -0.8896
 7095SOL     OW32743   0.801   0.766   3.334  0.4559 -0.0498 -0.2266
 7095SOL    HW132744   0.748   0.822   3.390  1.3917  2.2813 -1.6748
 7095SOL    HW232745   0.836   0.705   3.400  1.7909  2.3420  1.2601
 7096SOL     OW32746   3.312   1.263   5.781  0.2991 -0.8012 -0.6022
 7096SOL    HW132747   3.287   1.348   5.745  2.2974 -0.6373 -1.6427
 7096SOL    HW232748   3.290   1.267   5.873 -0.1103 -0.4227 -0.7196
 7097SOL     OW32749   0.490   0.943   2.720  0.0702  0.2521 -0.6184
 7097SOL    HW132750   0.520   0.972   2.634  1.8617  4.7440  1.4765
 7097SOL    HW232751   0.426   1.010   2.743 -1.1376 -0.0736 -3.0717
 7098SOL     OW32752   2.689   0.444   4.786  0.7505  0.2067 -0.1314
 7098SOL    HW132753   2.767   0.498   4.770  1.0807  0.2363  1.5676
 7098SOL    HW232754   2.625   0.507   4.820  0.1656 -1.0165  1.0056
 7099SOL     OW32755   0.942   1.621   8.743  0.5336  0.6408 -0.4382
 7099SOL    HW132756   0.904   1.584   8.823  1.8610  1.2604  0.4800
 7099SOL    HW232757   0.866   1.665   8.704  0.8493 -0.0049 -1.7769
 7100SOL     OW32758   4.096   3.274   7.048  0.2590  0.0076 -0.7586
 7100SOL    HW132759   4.079   3.186   7.014 -0.9732 -0.1565  0.3009
 7100SOL    HW232760   4.073   3.324   6.969  0.0093  0.3172 -0.4877
 7101SOL     OW32761   1.172   3.373   1.456 -0.1952  0.2203  0.5662
 7101SOL    HW132762   1.221   3.325   1.389 -0.7946  0.3414  0.0433
 7101SOL    HW232763   1.103   3.416   1.406  0.2916  0.6542  0.2687
 7102SOL     OW32764   0.009   1.370   6.452  0.2358  0.0613 -0.0144
 7102SOL    HW132765   4.679   1.315   6.395 -0.5901 -0.3327  1.1403
 7102SOL    HW232766   4.697   1.352   6.539 -0.3065  0.2220 -0.2055
 7103SOL     OW32767   3.104   0.807   9.478 -0.0816  0.0232 -0.1442
 7103SOL    HW132768   3.036   0.832   9.541  1.5262  0.3708  1.4705
 7103SOL    HW232769   3.061   0.820   9.394  2.2270  1.9026 -1.0258
 7104SOL     OW32770   4.519   3.288   0.565 -0.3711 -0.6038  0.0157
 7104SOL    HW132771   4.438   3.279   0.616 -1.8388  0.7513 -2.0496
 7104SOL    HW232772   4.557   3.201   0.575  1.1249  0.1520  0.7967
 7105SOL     OW32773   4.708   1.237   3.343 -0.0984 -0.2117  0.5192
 7105SOL    HW132774   0.076   1.217   3.322  0.0480  1.2087 -0.1646
 7105SOL    HW232775   4.666   1.210   3.262  2.0863  1.8544 -1.3167
 7106SOL     OW32776   3.093   2.388   2.640  0.2632  0.5770  0.4677
 7106SOL    HW132777   3.184   2.411   2.628  0.4453 -1.1498 -1.4568
 7106SOL    HW232778   3.037   2.441   2.583 -0.3197  0.2741  0.7534
 7107SOL     OW32779   2.959   0.200  12.634  0.1260 -0.1731 -0.6349
 7107SOL    HW132780   2.886   0.139  12.640 -1.0550  1.1431 -1.5478
 7107SOL    HW232781   3.031   0.156  12.589  0.2266  1.1758 -1.7843
 7108SOL     OW32782   2.099   4.030   3.308  0.4078 -0.0353 -0.4570
 7108SOL    HW132783   2.028   3.975   3.274 -0.5164  0.4762  0.6491
 7108SOL    HW232784   2.183   4.002   3.271 -0.0194 -1.9669  0.0493
 7109SOL     OW32785   0.202   4.509  13.871 -0.4383 -0.6523 -0.1127
 7109SOL    HW132786   0.255   4.497  13.950  0.7467 -0.6539 -0.9076
 7109SOL    HW232787   0.121   4.551  13.901  0.7750  0.7104  1.2604
 7110SOL     OW32788   3.188   4.123   2.412  0.1949  0.0321  0.1996
 7110SOL    HW132789   3.178   4.209   2.454  0.7152 -0.2252  0.8416
 7110SOL    HW232790   3.123   4.070   2.458 -0.8459  2.8297  1.9445
 7111SOL     OW32791   4.532   1.415   1.281  0.0901  0.1762  0.7794
 7111SOL    HW132792   4.511   1.341   1.338  0.6443 -1.7351 -1.4689
 7111SOL    HW232793   4.595   1.365   1.228 -0.3097 -0.0834  0.5433
 7112SOL     OW32794   3.931   0.584   8.988 -0.0645  0.3608 -0.3549
 7112SOL    HW132795   3.928   0.638   9.067 -2.6865 -1.1419  0.5687
 7112SOL    HW232796   4.024   0.566   8.981 -0.2486 -1.3578  1.3856
 7113SOL     OW32797   1.918   1.524  15.762  0.1229  0.5075 -0.2258
 7113SOL    HW132798   1.889   1.525  15.670  1.5095 -1.1860 -0.6845
 7113SOL    HW232799   1.838   1.550  15.808  0.1518  0.7252 -0.2976
 7114SOL     OW32800   3.955   4.008  16.865 -0.0004  0.1187  0.1664
 7114SOL    HW132801   3.897   4.001  16.940  0.6150 -0.4357  0.5915
 7114SOL    HW232802   3.903   3.978  16.791  1.3298  1.2685 -1.2332
 7115SOL     OW32803   3.581   1.347   0.185 -0.1356  0.2909  1.0361
 7115SOL    HW132804   3.570   1.365   0.278  1.7912 -0.2788  1.3749
 7115SOL    HW232805   3.506   1.292   0.164  0.5470  0.4511 -1.8040
 7116SOL     OW32806   2.837   4.066  12.742  0.5191  0.2494  0.3950
 7116SOL    HW132807   2.807   3.982  12.707 -1.2286  1.7975 -1.8921
 7116SOL    HW232808   2.815   4.057  12.834  0.8443 -0.5302  0.3937
 7117SOL     OW32809   1.380   1.720  15.744 -0.2581  0.0300 -0.0426
 7117SOL    HW132810   1.401   1.783  15.676 -0.6981  2.8416  2.4547
 7117SOL    HW232811   1.348   1.776  15.814 -0.3619  1.1013 -0.9450
 7118SOL     OW32812   0.206   4.177   3.808 -0.3087 -0.3509 -0.5051
 7118SOL    HW132813   0.214   4.174   3.903  1.6585  0.4343 -0.6536
 7118SOL    HW232814   0.199   4.084   3.787  0.9334 -0.5231 -0.1317
 7119SOL     OW32815   1.675   0.240  15.122  0.3458 -0.2435  0.2519
 7119SOL    HW132816   1.760   0.198  15.136  1.4861  2.5062  1.5781
 7119SOL    HW232817   1.702   0.323  15.084  1.6470 -1.2051 -0.9175
 7120SOL     OW32818   2.909   2.564   3.314 -0.4046 -0.4100  0.0752
 7120SOL    HW132819   2.935   2.646   3.273 -1.2075 -0.0117  0.3571
 7120SOL    HW232820   2.876   2.602   3.396 -3.5169 -1.9181 -0.4733
 7121SOL     OW32821   4.249   4.013   7.881 -0.2880 -0.1592  0.0387
 7121SOL    HW132822   4.303   3.934   7.872 -2.2808 -1.8721  2.9060
 7121SOL    HW232823   4.209   4.034   7.797 -2.0044  0.9507  1.1143
 7122SOL     OW32824   3.699   2.237  17.598  0.2461  0.3291  0.1522
 7122SOL    HW132825   3.756   2.209  17.669  1.0987  0.4130 -0.4940
 7122SOL    HW232826   3.731   2.327  17.584  2.3091 -0.7702 -2.1548
 7123SOL     OW32827   4.486   0.388  12.109  0.1348 -0.3189  0.1430
 7123SOL    HW132828   4.495   0.332  12.032  1.9317  1.0402 -0.6234
 7123SOL    HW232829   4.502   0.473  12.069  0.4814 -0.5022 -0.1038
 7124SOL     OW32830   3.672   4.185   3.863  0.3981 -0.6055  0.2414
 7124SOL    HW132831   3.606   4.124   3.895 -0.3642 -0.2146 -0.5932
 7124SOL    HW232832   3.636   4.180   3.774  0.3837  0.0773  0.2105
 7125SOL     OW32833   1.845   3.435   2.060 -0.2806 -0.2275  0.5450
 7125SOL    HW132834   1.924   3.460   2.108 -0.6669  1.6900  0.1686
 7125SOL    HW232835   1.812   3.359   2.108  0.9562 -0.2060  1.4251
 7126SOL     OW32836   1.003   4.696   6.169  0.1018 -0.0497 -0.4390
 7126SOL    HW132837   1.097   4.714   6.167  0.2625 -0.5855  3.4241
 7126SOL    HW232838   0.997   4.611   6.124  1.1289 -0.2320 -0.2361
 7127SOL     OW32839   2.907   2.425   5.104  0.2570  0.5015 -0.0909
 7127SOL    HW132840   2.833   2.484   5.118 -0.0080  0.4520 -1.3054
 7127SOL    HW232841   2.865   2.345   5.134  0.6073  0.3771  0.0655
 7128SOL     OW32842   3.104   0.390  11.201  0.2020 -0.8550  0.4847
 7128SOL    HW132843   3.167   0.443  11.251 -0.0871 -0.3968  0.3628
 7128SOL    HW232844   3.021   0.420  11.238  0.4031 -0.8865  0.9647
 7129SOL     OW32845   1.865   4.314   3.504  0.1501 -0.1671  0.5767
 7129SOL    HW132846   1.795   4.377   3.522  1.5736  1.3308  0.8845
 7129SOL    HW232847   1.814   4.241   3.469 -1.8038  0.5189  1.9532
 7130SOL     OW32848   0.867   3.131   4.177 -0.1395 -0.1554 -0.0388
 7130SOL    HW132849   0.955   3.095   4.164  0.8108  2.4845 -0.7525
 7130SOL    HW232850   0.882   3.217   4.215  1.4218 -0.1432 -0.7042
 7131SOL     OW32851   1.962   2.266  10.394  0.2002  0.0221  0.4649
 7131SOL    HW132852   1.984   2.229  10.479 -1.4059  1.9876  1.7130
 7131SOL    HW232853   1.955   2.358  10.420 -0.0768  0.3956 -0.9176
 7132SOL     OW32854   3.593   2.691  15.465  0.0928  0.4005 -0.2986
 7132SOL    HW132855   3.522   2.716  15.406 -0.3513 -1.0175 -0.3894
 7132SOL    HW232856   3.562   2.601  15.478 -2.1190  1.1417 -0.5337
 7133SOL     OW32857   2.991   2.657   7.262  0.7289  0.1289  0.1658
 7133SOL    HW132858   3.056   2.695   7.320  2.6710  0.9180 -2.4938
 7133SOL    HW232859   2.997   2.707   7.180  0.1981 -0.6259 -0.3343
 7134SOL     OW32860   0.864   4.172  14.776 -0.6688 -0.7091 -0.4448
 7134SOL    HW132861   0.885   4.108  14.709  1.3330 -0.2164 -0.2919
 7134SOL    HW232862   0.913   4.137  14.851  1.2946  2.5948 -0.1685
 7135SOL     OW32863   3.442   1.652   7.354 -0.2577  0.0196 -0.1821
 7135SOL    HW132864   3.411   1.727   7.406 -2.3807 -2.2233  1.7487
 7135SOL    HW232865   3.463   1.697   7.272  1.7947  0.8324  0.7798
 7136SOL     OW32866   0.619   2.056   8.829 -0.4689 -0.0501 -1.1018
 7136SOL    HW132867   0.543   2.008   8.860  0.8879 -1.6853 -0.3456
 7136SOL    HW232868   0.619   2.114   8.905 -0.8566 -0.7748 -0.5504
 7137SOL     OW32869   1.559   2.971   5.616 -0.0564 -0.5643  0.2102
 7137SOL    HW132870   1.654   2.970   5.609 -0.1321 -0.7067 -0.8061
 7137SOL    HW232871   1.523   2.977   5.527  0.7826 -1.0178 -0.1544
 7138SOL     OW32872   0.126   2.189   8.475 -0.4356 -0.7364 -0.0329
 7138SOL    HW132873   0.062   2.144   8.419 -2.1410  1.5905  0.0885
 7138SOL    HW232874   0.086   2.185   8.562  0.4420 -1.0231  0.3591
 7139SOL     OW32875   4.150   3.784   3.994  0.0378  0.3936 -0.1591
 7139SOL    HW132876   4.210   3.785   3.919  1.8043 -0.6026  1.2427
 7139SOL    HW232877   4.071   3.789   3.940  0.6891 -0.8640 -1.2379
 7140SOL     OW32878   1.820   1.352  16.117  0.3975 -0.6775  0.0222
 7140SOL    HW132879   1.907   1.360  16.079  0.8247  1.4876  1.4504
 7140SOL    HW232880   1.823   1.422  16.182 -2.3873 -0.1291 -0.4231
 7141SOL     OW32881   1.368   2.394  17.619 -0.0120  0.0600 -0.0596
 7141SOL    HW132882   1.375   2.299  17.620  0.9553  0.1174 -1.9506
 7141SOL    HW232883   1.382   2.419  17.528  1.5280  0.5531  0.3189
 7142SOL     OW32884   3.683   4.024   6.121 -0.1894  0.0964  0.2081
 7142SOL    HW132885   3.764   3.981   6.148  1.0761  1.6893 -1.0427
 7142SOL    HW232886   3.627   4.004   6.196 -0.6872 -0.8354 -0.4079
 7143SOL     OW32887   0.039   3.658   4.360  0.1242  0.3039  0.3361
 7143SOL    HW132888   4.669   3.641   4.364  0.0492  0.5622 -0.3545
 7143SOL    HW232889   0.075   3.575   4.328  0.0389  0.5810 -0.4756
 7144SOL     OW32890   3.773   4.256  12.464  0.6773  0.2010 -0.3426
 7144SOL    HW132891   3.756   4.176  12.414  0.1993 -0.7178  1.2883
 7144SOL    HW232892   3.684   4.289  12.460  0.3609 -0.2733  2.4089
 7145SOL     OW32893   3.767   3.963   7.237 -0.3712  0.3459  0.1760
 7145SOL    HW132894   3.674   3.980   7.253 -0.2510  0.1864  1.0184
 7145SOL    HW232895   3.803   4.041   7.280  2.5128 -1.2649  0.6455
 7146SOL     OW32896   3.696   0.200  10.531 -0.2394 -0.3511  0.5629
 7146SOL    HW132897   3.713   0.224  10.440  2.2593 -2.5937  0.4269
 7146SOL    HW232898   3.607   0.232  10.540  0.1973  1.0500 -0.1820
 7147SOL     OW32899   1.294   4.281  11.435 -0.0561 -0.0396 -0.0665
 7147SOL    HW132900   1.287   4.246  11.346 -0.3745  1.0486 -0.4706
 7147SOL    HW232901   1.344   4.212  11.479 -1.7460 -0.2684  1.4979
 7148SOL     OW32902   3.996   3.565   3.411  0.1393  0.2235 -0.5747
 7148SOL    HW132903   3.954   3.648   3.391 -1.4689  0.6892  4.8276
 7148SOL    HW232904   3.930   3.514   3.458  1.1845  1.5208  2.2751
 7149SOL     OW32905   2.216   1.056   4.865  0.4895 -0.0230  0.1794
 7149SOL    HW132906   2.277   1.054   4.792  0.0625 -0.6395 -0.1644
 7149SOL    HW232907   2.248   1.134   4.910  0.8607 -1.2967  2.1656
 7150SOL     OW32908   0.383   4.499   2.891  0.4928 -0.1732  0.0150
 7150SOL    HW132909   0.394   4.469   2.981  1.3445 -0.0083 -0.0328
 7150SOL    HW232910   0.288   4.510   2.890  0.3064 -1.7984  2.3858
 7151SOL     OW32911   0.939   2.302   0.374 -0.6298 -0.2724 -0.3561
 7151SOL    HW132912   0.950   2.287   0.467 -0.8641 -1.7350 -0.5618
 7151SOL    HW232913   0.956   2.395   0.357  0.9622 -0.4931  0.0209
 7152SOL     OW32914   2.134   0.376   6.106 -0.6929  0.4814 -0.0280
 7152SOL    HW132915   2.173   0.425   6.034  2.1543 -3.2154 -0.9537
 7152SOL    HW232916   2.210   0.379   6.163  0.1122 -0.0830 -1.0910
 7153SOL     OW32917   4.268   4.430   4.901 -0.2571  0.1252 -0.3420
 7153SOL    HW132918   4.313   4.403   4.820 -0.0425  0.6641 -0.4026
 7153SOL    HW232919   4.320   4.509   4.916  2.1715 -1.9311  1.9336
 7154SOL     OW32920   2.331   1.244   2.004  0.0980  0.3509  0.2411
 7154SOL    HW132921   2.410   1.296   2.022  0.4561 -0.7544  1.8576
 7154SOL    HW232922   2.322   1.238   1.909  2.1382 -1.1016  0.1417
 7155SOL     OW32923   3.134   2.030   7.897  0.6353  0.1064  0.3365
 7155SOL    HW132924   3.131   1.995   7.808  0.5317 -2.0436  1.2028
 7155SOL    HW232925   3.060   2.092   7.898  0.7264  0.2163  0.2270
 7156SOL     OW32926   3.085   0.102   9.808 -0.0623  0.0666  0.5131
 7156SOL    HW132927   3.042   0.157   9.743 -0.3075 -3.0290 -1.9052
 7156SOL    HW232928   3.009   0.066   9.854 -0.2475 -1.0351 -0.6816
 7157SOL     OW32929   0.314   3.277   5.985 -0.4959  0.5615 -1.0745
 7157SOL    HW132930   0.289   3.212   5.920 -2.2231  1.4814 -1.3093
 7157SOL    HW232931   0.275   3.356   5.948 -0.4551  0.5288 -1.1874
 7158SOL     OW32932   1.151   4.196   9.829  0.5816  0.0237 -0.0126
 7158SOL    HW132933   1.222   4.137   9.855 -1.8640 -1.8867  2.2729
 7158SOL    HW232934   1.089   4.135   9.791  0.5183 -1.3129  2.2267
 7159SOL     OW32935   1.100   1.964   6.229 -0.1850  0.4745  0.2233
 7159SOL    HW132936   1.079   1.951   6.322 -0.5472  0.1233  0.0951
 7159SOL    HW232937   1.013   1.986   6.196  0.1907  0.4578 -0.7735
 7160SOL     OW32938   0.962   0.576   5.512  0.4365  0.2120 -0.0381
 7160SOL    HW132939   0.986   0.654   5.461 -0.0192 -2.3294 -4.1411
 7160SOL    HW232940   1.012   0.514   5.460  1.2306 -0.1339  1.1508
 7161SOL     OW32941   4.165   0.226   3.438 -0.0620  0.9235  0.1101
 7161SOL    HW132942   4.136   0.279   3.512 -1.4822  0.2529  0.0269
 7161SOL    HW232943   4.090   0.169   3.424  0.6941 -0.5097  1.8430
 7162SOL     OW32944   1.246   3.040   7.686  0.0996 -0.3875  0.2558
 7162SOL    HW132945   1.333   3.057   7.650 -0.9967  2.4477 -1.0286
 7162SOL    HW232946   1.227   2.955   7.647 -0.1923  1.4492 -3.5595
 7163SOL     OW32947   1.869   4.015   0.714  0.2265 -0.3963 -0.1556
 7163SOL    HW132948   1.934   3.978   0.774 -0.1554 -0.6606  0.0856
 7163SOL    HW232949   1.905   4.104   0.726  0.5550 -0.6873  1.0285
 7164SOL     OW32950   0.343   2.100  16.207  0.4689  0.3022  0.1306
 7164SOL    HW132951   0.359   2.077  16.116  2.7267  2.6160 -0.0706
 7164SOL    HW232952   0.325   2.193  16.194  0.7890  0.2806 -0.4708
 7165SOL     OW32953   1.314   1.892   0.616  0.2811  0.3602  0.4990
 7165SOL    HW132954   1.290   1.809   0.659  0.8800 -0.1339 -0.1108
 7165SOL    HW232955   1.389   1.920   0.669  0.4036 -0.8008  0.9557
 7166SOL     OW32956   0.219   2.011   5.372  0.7371  0.1372  0.3943
 7166SOL    HW132957   0.296   1.955   5.379  0.7544  0.0353 -0.7406
 7166SOL    HW232958   0.185   2.004   5.462 -0.6631  0.3000 -0.1244
 7167SOL     OW32959   2.442   3.186   0.469  0.6689  0.3826 -0.3892
 7167SOL    HW132960   2.536   3.194   0.481  0.6698 -2.5926  1.3745
 7167SOL    HW232961   2.416   3.124   0.536 -0.5953  1.1534 -0.1458
 7168SOL     OW32962   4.247   1.205   5.477  0.2907 -0.7610 -0.0925
 7168SOL    HW132963   4.230   1.111   5.467  2.0172 -1.0618 -0.2169
 7168SOL    HW232964   4.241   1.238   5.388  1.6066  0.0450  0.1206
 7169SOL     OW32965   4.419   3.080   4.381  0.7900 -0.1881 -0.0115
 7169SOL    HW132966   4.378   3.143   4.440  1.0171  0.5698 -0.6652
 7169SOL    HW232967   4.402   3.116   4.294 -3.0634 -1.5806  0.1518
 7170SOL     OW32968   0.171   4.351   7.931 -0.1072  0.3069  0.0372
 7170SOL    HW132969   0.180   4.266   7.887  0.2485  1.1379 -1.4876
 7170SOL    HW232970   0.242   4.399   7.887 -0.7038  1.3423  0.2198
 7171SOL     OW32971   1.970   1.850   1.366  0.0645 -0.0928  0.0644
 7171SOL    HW132972   1.962   1.755   1.350 -0.2362 -0.0626  0.0310
 7171SOL    HW232973   1.956   1.854   1.460 -2.9853 -0.5182 -0.3615
 7172SOL     OW32974   3.000   3.583   3.785 -0.1756 -0.3821 -0.0241
 7172SOL    HW132975   3.002   3.594   3.880  0.5680  3.1232 -0.4561
 7172SOL    HW232976   2.908   3.601   3.765 -0.2036  2.4538  2.6305
 7173SOL     OW32977   0.822   3.021  10.801  0.6048 -0.2484 -0.1089
 7173SOL    HW132978   0.791   3.099  10.848  1.5430  0.0598 -0.0056
 7173SOL    HW232979   0.754   2.958  10.827  1.1738 -0.8069  0.0051
 7174SOL     OW32980   1.951   2.567   4.036 -0.4334  0.0878 -0.5970
 7174SOL    HW132981   1.888   2.632   4.006 -1.4048 -0.9179 -0.7001
 7174SOL    HW232982   1.987   2.614   4.112 -1.4901 -0.3422  0.1726
 7175SOL     OW32983   4.435   0.768   5.608 -0.9643 -0.3959 -0.2430
 7175SOL    HW132984   4.446   0.731   5.696  0.0993 -0.6372 -0.4767
 7175SOL    HW232985   4.463   0.700   5.547  0.4401 -0.0890  0.0615
 7176SOL     OW32986   1.203   1.251   2.636  0.1134 -0.0335 -0.3549
 7176SOL    HW132987   1.235   1.195   2.706  1.0491  2.2922  1.0698
 7176SOL    HW232988   1.109   1.235   2.644 -0.0604  1.1448  0.0018
 7177SOL     OW32989   1.368   0.605   2.469  0.4069 -0.3032  0.0315
 7177SOL    HW132990   1.462   0.599   2.453  0.7847  3.8959  0.9268
 7177SOL    HW232991   1.360   0.699   2.456 -0.1120 -0.7137 -2.7430
 7178SOL     OW32992   4.635   0.989  14.684  0.4587  0.2338 -0.1619
 7178SOL    HW132993   4.543   0.966  14.677  0.3560  0.4690  0.4066
 7178SOL    HW232994   4.633   1.077  14.646  0.3140  0.8427  1.2497
 7179SOL     OW32995   1.632   4.717  16.335 -0.4903  0.6293 -0.3021
 7179SOL    HW132996   1.596   4.633  16.307 -0.4557  0.4656  0.1504
 7179SOL    HW232997   1.698   4.681  16.394 -0.0626 -0.6446 -1.5711
 7180SOL     OW32998   1.775   2.126   5.151 -0.1431  0.0749 -0.2950
 7180SOL    HW132999   1.851   2.141   5.207 -1.9887  1.8939  1.7488
 7180SOL    HW233000   1.785   2.179   5.072  4.1083 -0.5210 -0.1407
 7181SOL     OW33001   3.057   2.135   4.995  0.1406  0.3257  0.4102
 7181SOL    HW133002   3.112   2.190   4.939 -0.3614  0.5275  0.1179
 7181SOL    HW233003   3.109   2.118   5.073 -2.2858 -2.0891  1.5068
 7182SOL     OW33004   0.359   2.173  12.365  0.2530 -0.2727  0.4148
 7182SOL    HW133005   0.335   2.218  12.284 -2.0643 -1.0551  0.6475
 7182SOL    HW233006   0.397   2.246  12.414  0.1437  0.6393 -0.8523
 7183SOL     OW33007   1.735   0.929   2.128  0.2984 -0.2211 -0.1867
 7183SOL    HW133008   1.670   0.999   2.130  0.3443 -0.2814  2.7645
 7183SOL    HW233009   1.808   0.980   2.092 -0.8386  0.2329 -1.8723
 7184SOL     OW33010   0.894   4.093   3.871 -0.3582 -0.5829 -0.0223
 7184SOL    HW133011   0.865   4.126   3.786  0.2179  2.2637  0.8943
 7184SOL    HW233012   0.899   4.172   3.924  0.2836 -2.1930  2.3089
 7185SOL     OW33013   4.105   2.236   9.418 -0.1697 -0.2858 -0.2415
 7185SOL    HW133014   4.153   2.172   9.365 -0.5139 -0.0064 -0.8920
 7185SOL    HW233015   4.020   2.196   9.399 -1.2387  1.4082  0.8998
 7186SOL     OW33016   1.994   3.778   0.107  0.0608 -0.1567 -0.0968
 7186SOL    HW133017   1.907   3.798   0.141  0.7489 -0.1805  1.6897
 7186SOL    HW233018   1.970   3.724   0.032 -0.0843 -0.8695  0.4574
 7187SOL     OW33019   0.062   0.888   2.583  0.0279  0.9336  0.7184
 7187SOL    HW133020   0.120   0.851   2.516  0.0939  0.7031  0.9041
 7187SOL    HW233021   4.721   0.928   2.525 -0.6647 -0.9675  0.1892
 7188SOL     OW33022   2.183   4.486  17.481  0.2236 -0.3980 -0.3787
 7188SOL    HW133023   2.122   4.432  17.530 -1.4305  2.1721  0.3859
 7188SOL    HW233024   2.261   4.485  17.536 -0.8047  1.6514  1.0828
 7189SOL     OW33025   3.749   1.049   2.773  0.1124 -0.7278 -0.0625
 7189SOL    HW133026   3.839   1.044   2.740 -0.1258  3.4728 -1.2842
 7189SOL    HW233027   3.707   0.970   2.736  1.1268 -0.6861 -1.2950
 7190SOL     OW33028   0.794   0.286  10.841 -0.5141 -0.2163  0.0603
 7190SOL    HW133029   0.752   0.213  10.887  0.1755 -1.4475 -1.2505
 7190SOL    HW233030   0.880   0.298  10.881 -0.4098 -1.7279  0.2883
 7191SOL     OW33031   0.268   4.108   3.541  0.8174 -1.0226 -0.5348
 7191SOL    HW133032   0.265   4.176   3.609 -1.7653 -3.2446  1.6140
 7191SOL    HW233033   0.229   4.034   3.588  0.8003 -0.7221 -0.0744
 7192SOL     OW33034   4.165   2.548   4.291 -0.4306 -0.0064 -0.2892
 7192SOL    HW133035   4.078   2.587   4.295 -1.2407 -1.7696 -0.7580
 7192SOL    HW233036   4.194   2.563   4.381  1.6593 -0.3720 -0.9114
 7193SOL     OW33037   2.705   1.898   7.798  0.2937  0.0224  0.5268
 7193SOL    HW133038   2.685   1.835   7.867 -0.5737 -0.9425 -0.6170
 7193SOL    HW233039   2.680   1.851   7.719 -0.6130 -0.1361  0.9140
 7194SOL     OW33040   4.269   0.140  17.520 -0.2705 -0.1179  0.4755
 7194SOL    HW133041   4.292   0.123  17.611  1.0395 -0.6891  0.0397
 7194SOL    HW233042   4.302   0.228  17.503 -0.4010  0.1774  1.7535
 7195SOL     OW33043   4.564   4.042   6.540  0.7865 -0.1851  0.0212
 7195SOL    HW133044   4.542   3.981   6.470  2.1166 -0.5652 -0.0687
 7195SOL    HW233045   4.598   4.110   6.482 -0.2798 -1.8580 -2.5485
 7196SOL     OW33046   1.197   4.651   0.966  0.7240 -0.5752 -0.1641
 7196SOL    HW133047   1.205   4.689   0.878  1.6096  1.1992  0.6935
 7196SOL    HW233048   1.279   4.607   0.984 -0.0288 -2.0625 -0.3735
 7197SOL     OW33049   2.573   0.638  13.103  0.3018 -0.3866  0.4132
 7197SOL    HW133050   2.570   0.653  13.009 -0.5172 -1.7758  0.2084
 7197SOL    HW233051   2.662   0.607  13.122  0.7545 -0.9653 -2.7229
 7198SOL     OW33052   1.621   3.497   0.866 -0.2906 -0.4564  0.2837
 7198SOL    HW133053   1.612   3.526   0.957 -1.1597  0.3809 -0.0719
 7198SOL    HW233054   1.531   3.494   0.833 -0.4052 -0.2095  0.5739
 7199SOL     OW33055   0.845   3.272   0.991  0.2892 -0.6589  0.0556
 7199SOL    HW133056   0.805   3.227   0.917 -2.1686 -0.8213  1.4647
 7199SOL    HW233057   0.820   3.361   0.968  0.2325 -0.4761  0.8212
 7200SOL     OW33058   0.220   1.304   5.366 -0.5950  0.2177 -0.5995
 7200SOL    HW133059   0.136   1.304   5.411  0.4165  1.2855  1.2848
 7200SOL    HW233060   0.251   1.384   5.408 -0.6853 -0.7211  1.2105
 7201SOL     OW33061   4.289   1.732   2.886 -0.4030 -0.5268 -0.0921
 7201SOL    HW133062   4.265   1.697   2.972 -0.4984 -0.1492  0.0347
 7201SOL    HW233063   4.384   1.727   2.894 -0.4328 -0.7205  0.1321
 7202SOL     OW33064   1.341   0.875   2.334  0.5854 -0.4536 -0.5556
 7202SOL    HW133065   1.406   0.944   2.322 -1.1410  0.7549 -2.9300
 7202SOL    HW233066   1.326   0.835   2.249  1.8844  0.9748 -1.4572
 7203SOL     OW33067   0.086   1.089   4.087  0.0434 -0.7195  0.0667
 7203SOL    HW133068   0.067   1.023   4.154 -1.1397 -0.1008  0.3454
 7203SOL    HW233069   0.153   1.045   4.035  2.0109 -0.3812  2.3218
 7204SOL     OW33070   4.280   1.487   3.653 -0.0113 -0.8162  0.3345
 7204SOL    HW133071   4.336   1.547   3.603  1.0245 -2.3561 -0.3581
 7204SOL    HW233072   4.329   1.463   3.731 -0.3145 -2.8906 -0.1154
 7205SOL     OW33073   4.480   1.022   5.917 -0.2224 -0.3254 -0.2080
 7205SOL    HW133074   4.407   1.020   5.979 -0.3976  0.7296 -0.3759
 7205SOL    HW233075   4.447   1.075   5.844 -1.0936 -1.1839 -0.4338
 7206SOL     OW33076   0.490   1.386  15.034 -0.9043  0.3283 -0.1173
 7206SOL    HW133077   0.476   1.294  15.014  1.8561 -0.1204  0.0282
 7206SOL    HW233078   0.455   1.439  14.962 -1.3982  0.3446  0.1336
 7207SOL     OW33079   3.346   3.908  11.271  0.6658 -0.0973 -0.5560
 7207SOL    HW133080   3.427   3.925  11.320 -0.5663  0.6136  1.2032
 7207SOL    HW233081   3.297   3.962  11.333  0.9636 -1.1787  0.6125
 7208SOL     OW33082   4.613   3.097   0.914  0.1040  0.3633  0.3062
 7208SOL    HW133083   4.525   3.083   0.946  1.2174 -2.0204  2.2655
 7208SOL    HW233084   4.633   3.188   0.939 -0.0805  0.8501 -1.2843
 7209SOL     OW33085   2.812   0.654   9.018 -0.1882 -0.1077  0.0738
 7209SOL    HW133086   2.807   0.627   8.927 -1.9583  0.2478  0.0585
 7209SOL    HW233087   2.798   0.574   9.070 -1.2718  0.4580  0.6656
 7210SOL     OW33088   0.733   0.442  16.924  0.0107  0.4237  0.2325
 7210SOL    HW133089   0.647   0.466  16.890 -0.3441 -0.5415  0.4325
 7210SOL    HW233090   0.784   0.447  16.844 -1.5522  1.8626 -0.6763
 7211SOL     OW33091   3.938   2.193   6.981  0.2078 -0.1070 -0.0744
 7211SOL    HW133092   3.910   2.182   7.072  2.0660 -0.2896  0.4847
 7211SOL    HW233093   4.014   2.136   6.970 -0.3848 -0.8693 -0.2489
 7212SOL     OW33094   4.618   2.394  12.764 -0.2450  0.2148  0.5288
 7212SOL    HW133095   4.563   2.322  12.732  2.0733 -1.0085 -0.6762
 7212SOL    HW233096   4.648   2.356  12.847 -1.4287 -0.5313  0.6224
 7213SOL     OW33097   3.264   2.130  14.293 -0.0565 -0.3872  0.0534
 7213SOL    HW133098   3.307   2.197  14.345 -0.9605  1.1813 -1.2162
 7213SOL    HW233099   3.180   2.175  14.284 -0.0027  0.0568  1.7882
 7214SOL     OW33100   1.254   2.338   9.622  0.1291  0.2321  0.3142
 7214SOL    HW133101   1.269   2.297   9.707  2.4610  1.5511  0.5474
 7214SOL    HW233102   1.163   2.369   9.621 -0.9936 -3.0600  1.2445
 7215SOL     OW33103   1.941   0.588   8.095  0.3321 -0.0828 -0.4410
 7215SOL    HW133104   1.913   0.503   8.130  1.0432 -0.8044 -1.6478
 7215SOL    HW233105   1.970   0.619   8.181 -0.5502  0.7030 -0.4243
 7216SOL     OW33106   1.935   4.710   1.024 -0.1037  0.3877 -0.4928
 7216SOL    HW133107   1.883   0.010   0.947 -1.7617 -0.0743  0.4854
 7216SOL    HW233108   1.929   0.060   1.084 -0.0909 -0.2251  0.2669
 7217SOL     OW33109   1.895   0.903   3.999  0.2635 -0.0534  0.1314
 7217SOL    HW133110   1.899   0.991   4.036  1.2369 -0.2426  0.4644
 7217SOL    HW233111   1.880   0.915   3.905 -0.7054 -0.6398  0.2151
 7218SOL     OW33112   3.213   4.208   0.195 -0.3315 -0.2246 -0.0835
 7218SOL    HW133113   3.294   4.256   0.178  0.0531 -0.3432  1.4451
 7218SOL    HW233114   3.244   4.169   0.276 -0.1330  2.3324  1.0739
 7219SOL     OW33115   2.379   3.217  14.832  0.1357 -0.4282 -0.3379
 7219SOL    HW133116   2.339   3.293  14.874 -1.3804 -2.7164  2.3952
 7219SOL    HW233117   2.437   3.181  14.900  0.5132  3.2650  1.2771
 7220SOL     OW33118   2.414   1.040   9.204 -0.2482 -0.2983 -0.1927
 7220SOL    HW133119   2.337   1.090   9.177 -1.4322 -3.1781 -2.1516
 7220SOL    HW233120   2.468   1.101   9.255 -1.1149  1.4959 -1.4155
 7221SOL     OW33121   2.158   1.361  14.194  0.3027  0.1056 -0.0980
 7221SOL    HW133122   2.251   1.358  14.218  0.5721  1.9595 -0.8777
 7221SOL    HW233123   2.145   1.449  14.157 -0.1061  0.1084  0.0571
 7222SOL     OW33124   1.185   2.352  13.466  0.4103 -0.3543  0.0423
 7222SOL    HW133125   1.098   2.316  13.481  0.1004  0.7510  0.9309
 7222SOL    HW233126   1.172   2.382  13.376  0.6406  2.6071  0.9890
 7223SOL     OW33127   3.417   1.951   3.254 -0.5094 -0.2721 -0.2237
 7223SOL    HW133128   3.414   1.954   3.158 -1.5759  1.0430 -0.1542
 7223SOL    HW233129   3.510   1.956   3.272 -0.5579 -2.3573  0.6211
 7224SOL     OW33130   3.826   1.098   8.574 -0.7473 -0.1917  0.4295
 7224SOL    HW133131   3.845   1.185   8.610 -1.0470 -0.5754  1.5343
 7224SOL    HW233132   3.912   1.060   8.594 -0.8632 -1.0961 -0.8544
 7225SOL     OW33133   3.513   1.020   2.285 -0.6290  0.1513  0.4184
 7225SOL    HW133134   3.478   0.937   2.317 -0.4007  0.6057  1.8472
 7225SOL    HW233135   3.521   1.009   2.190  1.5783  0.0070  0.6330
 7226SOL     OW33136   2.613   0.580   4.153 -0.0909  0.4318 -0.4522
 7226SOL    HW133137   2.565   0.497   4.151 -0.0588  0.4058 -0.1283
 7226SOL    HW233138   2.544   0.639   4.123  1.3634  2.7052  0.7201
 7227SOL     OW33139   0.208   3.032   5.155 -0.3424 -0.3555 -0.3273
 7227SOL    HW133140   0.187   2.955   5.207  0.0746  0.5789  1.2258
 7227SOL    HW233141   0.120   3.058   5.127  0.6421  1.6717 -1.5355
 7228SOL     OW33142   4.102   0.391   7.352  0.0191  0.7822  0.2445
 7228SOL    HW133143   4.018   0.436   7.358 -0.9464 -1.1162  0.7672
 7228SOL    HW233144   4.111   0.352   7.439  1.0868 -1.4761 -0.8758
 7229SOL     OW33145   1.059   3.091  12.028  0.4787  0.2300  0.0862
 7229SOL    HW133146   1.127   3.156  12.007 -0.0754  1.2596  1.5491
 7229SOL    HW233147   1.120   3.029  12.067 -1.5626 -1.1339  1.0529
 7230SOL     OW33148   1.783   2.688  15.785  0.1140  0.5923  0.3416
 7230SOL    HW133149   1.702   2.665  15.829  0.3945 -0.7124  0.1705
 7230SOL    HW233150   1.775   2.783  15.796  0.6956  0.7705 -0.6904
 7231SOL     OW33151   3.419   2.490   4.278  0.0588 -0.6211 -0.3154
 7231SOL    HW133152   3.325   2.504   4.286  0.0961 -1.7771  2.0556
 7231SOL    HW233153   3.437   2.400   4.252  0.4393 -0.4066 -0.7930
 7232SOL     OW33154   4.078   0.175   7.158 -0.2405 -0.3983  0.3183
 7232SOL    HW133155   4.018   0.229   7.107  0.2910 -0.9591 -0.8866
 7232SOL    HW233156   4.089   0.242   7.226 -1.3017 -1.1369  1.2184
 7233SOL     OW33157   1.910   4.313   2.560  0.1041  0.0502 -0.3010
 7233SOL    HW133158   1.822   4.323   2.598 -0.4213  0.6659 -1.6743
 7233SOL    HW233159   1.963   4.299   2.639  0.9633 -1.7882 -1.2134
 7234SOL     OW33160   3.571   2.121   5.735  0.4426  0.1771  0.2283
 7234SOL    HW133161   3.547   2.207   5.703  1.2405  0.4790  0.4465
 7234SOL    HW233162   3.490   2.073   5.757  0.2686 -0.9678 -2.9054
 7235SOL     OW33163   4.435   0.202   7.386 -0.3348 -0.6916  0.0330
 7235SOL    HW133164   4.485   0.279   7.358 -3.0972  0.2256 -2.3821
 7235SOL    HW233165   4.445   0.216   7.480  0.3259  0.6649 -0.2413
 7236SOL     OW33166   0.373   2.591   3.003 -0.6462 -0.5144 -0.3397
 7236SOL    HW133167   0.381   2.499   3.025 -0.6663 -0.3707  0.2637
 7236SOL    HW233168   0.334   2.588   2.916  0.3205  0.1231 -0.7988
 7237SOL     OW33169   0.618   2.516   2.647 -0.3497  0.0644  0.1769
 7237SOL    HW133170   0.677   2.543   2.717 -0.7373  2.0807 -0.2645
 7237SOL    HW233171   0.571   2.595   2.619  0.2875 -0.5035 -2.4183
 7238SOL     OW33172   3.525   1.335   6.781  0.0196  0.2644 -0.1715
 7238SOL    HW133173   3.522   1.370   6.871  0.5512  1.6048 -0.6669
 7238SOL    HW233174   3.484   1.405   6.730 -2.0450 -0.7574  0.1210
 7239SOL     OW33175   0.332   0.781   2.474  0.1349  0.0372 -0.2061
 7239SOL    HW133176   0.363   0.870   2.457 -1.0329  0.5968  0.5440
 7239SOL    HW233177   0.330   0.776   2.570  1.8564 -0.9822 -0.2289
 7240SOL     OW33178   0.136   0.603   0.537  0.3987  0.2226 -0.0039
 7240SOL    HW133179   0.164   0.691   0.512 -2.1334  0.4004 -2.2198
 7240SOL    HW233180   0.219   0.568   0.570  0.3856  0.0494 -0.1534
 7241SOL     OW33181   4.237   1.697   7.703 -0.1689  0.8869 -0.5744
 7241SOL    HW133182   4.227   1.780   7.751 -0.1065  1.1528 -1.0212
 7241SOL    HW233183   4.145   1.674   7.689 -0.3226  1.7295 -0.9565
 7242SOL     OW33184   0.631   4.006   8.747 -0.2550 -0.3047 -0.3007
 7242SOL    HW133185   0.602   3.934   8.691 -0.6893 -1.4094  1.3550
 7242SOL    HW233186   0.726   3.997   8.736  0.2423  1.3465  2.6757
 7243SOL     OW33187   2.024   4.148  14.649  0.6898 -0.4473  0.2606
 7243SOL    HW133188   2.051   4.155  14.557  1.5861 -0.6457  0.5072
 7243SOL    HW233189   2.109   4.137  14.691  0.9014 -1.8578 -0.5257
 7244SOL     OW33190   0.687   0.725   4.128  0.2355  0.2083  0.6242
 7244SOL    HW133191   0.723   0.806   4.091 -0.5977  0.6005  0.6552
 7244SOL    HW233192   0.765   0.678   4.158  0.7973 -0.0446 -1.2432
 7245SOL     OW33193   2.353   1.153  12.036  0.6191  0.0735 -0.1619
 7245SOL    HW133194   2.374   1.103  12.115  1.1445 -0.8443 -0.8841
 7245SOL    HW233195   2.405   1.108  11.969 -0.0869 -1.2708  0.1838
 7246SOL     OW33196   3.890   1.460  11.543 -0.3665 -0.0769 -0.8299
 7246SOL    HW133197   3.967   1.441  11.597 -1.8408  1.2348  1.7519
 7246SOL    HW233198   3.862   1.376  11.506 -0.6025 -0.8751  1.1734
 7247SOL     OW33199   2.308   0.433   7.115 -0.4442  0.1061  0.3207
 7247SOL    HW133200   2.314   0.435   7.020 -0.1045  0.0789  0.3404
 7247SOL    HW233201   2.400   0.440   7.140 -0.5753 -2.6643  1.6339
 7248SOL     OW33202   2.073   0.844   2.373 -0.1076 -0.0393  0.3166
 7248SOL    HW133203   2.048   0.917   2.317  1.4669  0.1379 -0.1562
 7248SOL    HW233204   2.041   0.885   2.454  0.3596  1.7644 -0.4033
 7249SOL     OW33205   1.530   4.672   0.714 -0.1082  0.5623 -0.2956
 7249SOL    HW133206   1.488   4.672   0.628 -1.1853 -0.7838  0.2191
 7249SOL    HW233207   1.452   4.678   0.768  1.7042  1.1632  2.2360
 7250SOL     OW33208   0.210   4.524  11.247 -0.2455 -0.7959 -0.0548
 7250SOL    HW133209   0.264   4.446  11.234  0.5425 -0.2150 -0.2402
 7250SOL    HW233210   0.132   4.482  11.285 -1.8308 -0.0017 -2.4781
 7251SOL     OW33211   0.203   1.491   4.740 -0.1142 -0.4700  0.0851
 7251SOL    HW133212   0.192   1.537   4.657 -2.2027  1.1867  1.2840
 7251SOL    HW233213   0.270   1.548   4.776 -1.2372 -0.3464  1.9677
 7252SOL     OW33214   3.259   4.322  14.083 -0.3216  0.7415  0.0072
 7252SOL    HW133215   3.225   4.238  14.112 -0.7061  0.2416 -1.9197
 7252SOL    HW233216   3.303   4.357  14.161  0.0529 -2.4102  1.1909
 7253SOL     OW33217   1.051   0.234   7.428 -0.3505  0.1611  0.4619
 7253SOL    HW133218   1.131   0.281   7.403 -0.4664  0.0753 -0.0587
 7253SOL    HW233219   0.987   0.298   7.397  0.6863  1.3521  0.7858
 7254SOL     OW33220   2.782   0.327   6.579 -0.6288  0.8183  0.1130
 7254SOL    HW133221   2.773   0.322   6.674  2.6588 -0.0087  0.3626
 7254SOL    HW233222   2.845   0.397   6.564  0.1276  0.1412  0.1642
 7255SOL     OW33223   4.029   4.327   5.923 -0.4947  0.9347 -0.1749
 7255SOL    HW133224   4.027   4.421   5.943 -1.3340  1.3836 -2.3519
 7255SOL    HW233225   4.021   4.293   6.012  0.6518 -0.1686 -0.5008
 7256SOL     OW33226   4.353   1.523   9.447 -0.5906  0.4652  0.0231
 7256SOL    HW133227   4.365   1.618   9.450 -0.7820  0.4835  0.2160
 7256SOL    HW233228   4.364   1.509   9.541 -1.2660  0.9463  0.1715
 7257SOL     OW33229   4.661   1.531   6.918 -0.3098  0.2764  0.5024
 7257SOL    HW133230   4.710   1.448   6.912 -1.3380 -0.2437 -0.7101
 7257SOL    HW233231   0.001   1.585   6.965 -0.4574  0.2251  0.7638
 7258SOL     OW33232   0.189   2.185  13.035  0.1177 -0.0340  0.0740
 7258SOL    HW133233   0.110   2.217  12.992  0.8703  2.7888  0.7968
 7258SOL    HW233234   0.229   2.263  13.073 -1.2116  0.6681 -0.0045
 7259SOL     OW33235   0.578   3.144   0.948 -0.2183 -0.2923 -0.6465
 7259SOL    HW133236   0.516   3.142   1.022  0.6384  0.4180  0.0883
 7259SOL    HW233237   0.565   3.232   0.913  4.6371  0.8684  0.4429
 7260SOL     OW33238   0.037   3.808   5.153  0.6172  0.9537 -0.0677
 7260SOL    HW133239   0.119   3.795   5.105 -0.4619 -2.0125 -1.1292
 7260SOL    HW233240   4.697   3.746   5.117 -0.3184  2.0398 -0.2713
 7261SOL     OW33241   3.891   3.502   2.760 -0.4601 -0.3848 -0.0408
 7261SOL    HW133242   3.865   3.462   2.677 -1.0349 -1.8330  0.8336
 7261SOL    HW233243   3.813   3.556   2.774 -0.2535 -0.1912  0.3495
 7262SOL     OW33244   0.893   1.666   9.786  0.5203 -0.1237  0.2531
 7262SOL    HW133245   0.889   1.632   9.696  2.7961 -0.1220  0.1617
 7262SOL    HW233246   0.838   1.743   9.771 -1.1685 -1.3484  0.1017
 7263SOL     OW33247   1.219   4.379  10.979 -0.0581 -0.0096  0.1811
 7263SOL    HW133248   1.220   4.475  10.982 -0.2105  0.0233 -0.9376
 7263SOL    HW233249   1.131   4.359  10.947 -0.2949  0.6716  0.4022
 7264SOL     OW33250   4.147   3.422   2.042 -0.1447  0.3995 -0.3718
 7264SOL    HW133251   4.155   3.378   1.958 -1.3695  0.6571 -0.6242
 7264SOL    HW233252   4.053   3.428   2.062  0.3611 -0.0473  2.0866
 7265SOL     OW33253   0.259   4.382   6.630 -0.3375 -0.0758  0.1743
 7265SOL    HW133254   0.263   4.466   6.677 -0.4010  0.2673 -0.4302
 7265SOL    HW233255   0.347   4.346   6.636  0.7532  2.3058 -1.6968
 7266SOL     OW33256   4.718   2.980   3.394  0.1840  0.0618 -0.4043
 7266SOL    HW133257   4.666   2.917   3.345 -0.1426 -0.9268  1.1938
 7266SOL    HW233258   0.082   2.948   3.376 -0.5984 -1.6154 -1.2200
 7267SOL     OW33259   0.486   3.118   6.139 -0.1595  0.2890  0.2240
 7267SOL    HW133260   0.415   3.157   6.089  1.8406  0.9537 -2.1225
 7267SOL    HW233261   0.526   3.064   6.071 -0.3652  0.4770 -0.0479
 7268SOL     OW33262   2.647   3.516   5.301 -0.1276  0.3087  0.5508
 7268SOL    HW133263   2.640   3.557   5.215  2.0004 -1.5390 -0.5131
 7268SOL    HW233264   2.737   3.485   5.304  0.6861  2.6039 -0.1571
 7269SOL     OW33265   3.316   2.514   7.610  0.3238 -0.3016 -0.0076
 7269SOL    HW133266   3.356   2.432   7.638 -0.3308 -0.5040  0.3344
 7269SOL    HW233267   3.382   2.540   7.545  0.4431 -0.7284 -0.0538
 7270SOL     OW33268   0.253   2.812   6.184  0.8640 -0.4147  0.0316
 7270SOL    HW133269   0.167   2.779   6.155  0.7080  1.1880 -1.3469
 7270SOL    HW233270   0.298   2.813   6.099 -1.3671 -1.5270 -1.1785
 7271SOL     OW33271   0.136   4.443  17.620 -0.4159 -0.0959 -0.2630
 7271SOL    HW133272   0.168   4.381  17.554 -2.9523 -0.9345 -0.7090
 7271SOL    HW233273   0.204   4.510  17.617 -1.0646  0.5759 -0.1020
 7272SOL     OW33274   2.984   0.615   8.000 -0.1568  0.1295 -0.3524
 7272SOL    HW133275   3.070   0.657   8.009  0.7107 -1.9446  0.9625
 7272SOL    HW233276   3.020   0.536   8.039 -0.4047 -0.3584 -1.1062
 7273SOL     OW33277   3.014   3.445   3.230  0.2177 -0.3720  0.0385
 7273SOL    HW133278   3.011   3.445   3.134 -1.7974 -0.1478  0.0892
 7273SOL    HW233279   3.004   3.353   3.254 -0.8433 -0.0535  0.7866
 7274SOL     OW33280   4.629   1.877   6.122 -1.2162  0.2840  0.3455
 7274SOL    HW133281   4.549   1.928   6.137 -1.8231 -0.7632  0.6355
 7274SOL    HW233282   4.632   1.811   6.191  0.0541  0.6981  0.6950
 7275SOL     OW33283   3.927   4.670   0.239  0.8103 -0.2787 -0.1856
 7275SOL    HW133284   3.956   0.022   0.190 -0.1817  1.9620  2.7185
 7275SOL    HW233285   3.843   4.697   0.276  0.5268  0.3297 -1.2966
 7276SOL     OW33286   3.778   3.410   6.166 -0.5147  0.0470 -0.3132
 7276SOL    HW133287   3.781   3.440   6.257 -0.9443 -0.6269 -0.0843
 7276SOL    HW233288   3.685   3.404   6.144 -0.5977  0.2691 -0.0168
 7277SOL     OW33289   1.795   2.887  12.433 -0.4396  0.2476 -0.7428
 7277SOL    HW133290   1.842   2.918  12.511 -1.3379 -2.3463  0.8409
 7277SOL    HW233291   1.867   2.829  12.405  0.6355  1.1081  0.2144
 7278SOL     OW33292   0.958   3.986   7.456 -0.1171  1.0288 -0.1073
 7278SOL    HW133293   0.971   4.013   7.365 -2.3410  2.2039 -0.0646
 7278SOL    HW233294   0.905   4.054   7.497 -0.0866  1.5350 -0.8954
 7279SOL     OW33295   1.892   4.037   7.286 -0.7250 -0.2827  0.7781
 7279SOL    HW133296   1.986   4.020   7.295 -0.6473 -0.3777 -0.1562
 7279SOL    HW233297   1.862   3.965   7.341 -2.3497 -1.1692 -1.2630
 7280SOL     OW33298   0.923   4.213   5.852  0.6951 -0.3218 -0.1919
 7280SOL    HW133299   0.895   4.126   5.825 -0.4844  0.0868 -0.3097
 7280SOL    HW233300   0.864   4.256   5.789 -0.5327 -0.7742  0.6499
 7281SOL     OW33301   4.513   1.160  16.099 -0.1843  0.6144 -0.7515
 7281SOL    HW133302   4.494   1.070  16.127  0.2232  0.4230 -1.1060
 7281SOL    HW233303   4.608   1.154  16.094 -0.2001 -1.0835  0.7926
 7282SOL     OW33304   2.146   1.596   4.175  0.2024 -0.2346  0.4399
 7282SOL    HW133305   2.241   1.596   4.190  0.2574  0.0664  0.1023
 7282SOL    HW233306   2.130   1.677   4.125  1.3850 -0.5790 -0.4944
 7283SOL     OW33307   4.337   0.204   3.234  0.3775  0.0387  0.5213
 7283SOL    HW133308   4.303   0.270   3.175  1.0463  0.2092  0.3210
 7283SOL    HW233309   4.269   0.210   3.301 -0.9560 -0.5865 -0.7615
 7284SOL     OW33310   3.033   1.483   4.347 -0.5539  0.4478 -0.6062
 7284SOL    HW133311   3.102   1.485   4.413 -1.2199  1.5920  0.0473
 7284SOL    HW233312   3.076   1.430   4.280 -2.5863 -0.3256 -1.3094
 7285SOL     OW33313   0.911   0.809  13.610  0.2421  0.2915  0.1898
 7285SOL    HW133314   0.996   0.838  13.644  0.2467 -2.2237  2.2931
 7285SOL    HW233315   0.884   0.883  13.555  2.1767  0.6692 -0.2601
 7286SOL     OW33316   0.642   0.113  11.237 -0.1037 -0.7240  0.1247
 7286SOL    HW133317   0.657   0.142  11.147  1.4080 -0.4660  0.4633
 7286SOL    HW233318   0.575   0.047  11.220  1.0411 -1.7993 -0.2101
 7287SOL     OW33319   1.754   0.254  10.463 -0.5105  0.1592 -0.2743
 7287SOL    HW133320   1.687   0.192  10.435 -0.9525 -0.6320  2.6050
 7287SOL    HW233321   1.753   0.241  10.558  0.3043 -1.2763 -0.4566
 7288SOL     OW33322   0.593   0.079   4.338 -0.4152 -0.2130  0.0290
 7288SOL    HW133323   0.533   0.025   4.286 -0.1634  2.0680 -2.7068
 7288SOL    HW233324   0.610   0.139   4.264  2.0794 -0.4971  0.3824
 7289SOL     OW33325   0.152   1.969   8.163 -0.3121 -0.2937 -0.2155
 7289SOL    HW133326   0.189   1.927   8.085 -0.5663  1.6708 -1.4111
 7289SOL    HW233327   0.078   1.910   8.177  0.8228 -1.9293 -1.1443
 7290SOL     OW33328   4.373   1.325   8.904  0.3352  0.2202  0.1267
 7290SOL    HW133329   4.461   1.330   8.867  0.7438 -0.0112  1.0779
 7290SOL    HW233330   4.375   1.386   8.977  1.6272  0.5656 -0.2068
 7291SOL     OW33331   4.515   2.495   4.385 -0.2559 -0.1619  0.2701
 7291SOL    HW133332   4.493   2.500   4.292  0.2358 -0.4616  0.1369
 7291SOL    HW233333   4.449   2.543   4.435 -2.7855 -1.1418 -2.1586
 7292SOL     OW33334   1.770   0.343   8.183 -0.4776  0.1953 -0.0700
 7292SOL    HW133335   1.699   0.363   8.244 -0.9549  1.2869 -0.9841
 7292SOL    HW233336   1.823   0.278   8.229 -0.2607 -0.1905 -0.8614
 7293SOL     OW33337   1.782   1.646   4.662 -0.0834  0.0131  0.0176
 7293SOL    HW133338   1.732   1.622   4.739 -0.6900  1.5718  0.1014
 7293SOL    HW233339   1.711   1.667   4.602 -2.2755 -1.3830  2.1545
 7294SOL     OW33340   3.532   4.621   4.675 -0.7140  0.1674  0.7938
 7294SOL    HW133341   3.492   4.624   4.588 -1.4918 -2.7875  1.0349
 7294SOL    HW233342   3.577   4.536   4.675  3.3739  2.3488 -1.8610
 7295SOL     OW33343   2.117   2.495   5.351  0.2799 -0.0607  0.2076
 7295SOL    HW133344   2.210   2.501   5.331  0.3639  0.8747  0.8683
 7295SOL    HW233345   2.092   2.574   5.304  1.5444  0.7968  0.9973
 7296SOL     OW33346   2.675   3.695   2.072 -0.0676 -0.2083 -0.0140
 7296SOL    HW133347   2.586   3.697   2.038  0.3044  0.2691 -0.9738
 7296SOL    HW233348   2.721   3.751   2.009  0.4743 -1.7341 -0.9791
 7297SOL     OW33349   3.979   2.531   6.688 -0.3899  0.1880  0.3454
 7297SOL    HW133350   3.915   2.501   6.752 -0.0206  1.4583  1.2976
 7297SOL    HW233351   3.946   2.619   6.675 -0.6118  0.0840  0.2088
 7298SOL     OW33352   4.497   1.368   4.320  0.1759  0.3434  0.0282
 7298SOL    HW133353   4.422   1.425   4.339  0.3202  0.8311 -0.8493
 7298SOL    HW233354   4.507   1.320   4.402 -0.4406  0.2344  0.0412
 7299SOL     OW33355   2.987   2.616  16.204 -0.0305  0.2412  0.1616
 7299SOL    HW133356   2.935   2.536  16.206  0.4808 -0.1017 -0.1428
 7299SOL    HW233357   3.069   2.573  16.229  0.4462  0.4830 -1.0117
 7300SOL     OW33358   3.007   1.698  13.087  0.3038  0.4157 -0.1982
 7300SOL    HW133359   2.952   1.776  13.099  0.8470  0.9290 -1.0695
 7300SOL    HW233360   3.016   1.705  12.992 -0.6097  1.9999 -0.1769
 7301SOL     OW33361   3.500   4.519   9.668 -0.1317  0.2412 -0.1916
 7301SOL    HW133362   3.461   4.606   9.677  1.8395  1.2736 -1.6447
 7301SOL    HW233363   3.454   4.481   9.593 -1.5445 -0.1367  0.8734
 7302SOL     OW33364   0.438   4.438   7.008 -0.3029  0.2262 -0.5604
 7302SOL    HW133365   0.399   4.371   6.952 -0.4781  0.1993 -0.4087
 7302SOL    HW233366   0.533   4.424   7.002 -0.5409 -1.3422 -0.7862
 7303SOL     OW33367   0.843   2.203   4.206 -0.5507  0.0219  0.2896
 7303SOL    HW133368   0.813   2.267   4.271 -0.9280 -0.3106  0.4404
 7303SOL    HW233369   0.761   2.193   4.159  0.6941 -1.1068 -1.6476
 7304SOL     OW33370   0.209   0.578   9.807 -0.0366 -0.3619  0.7622
 7304SOL    HW133371   0.211   0.672   9.792  1.3859 -0.3285  1.1930
 7304SOL    HW233372   0.289   0.575   9.859  0.5142 -3.1827 -0.2224
 7305SOL     OW33373   2.404   1.542   2.535  0.7207 -0.2048 -0.0491
 7305SOL    HW133374   2.378   1.463   2.582 -2.1066 -0.2470 -1.7426
 7305SOL    HW233375   2.476   1.509   2.481  1.7557  0.7410  0.7573
 7306SOL     OW33376   3.093   3.605  15.289 -0.3791 -0.3375 -0.4939
 7306SOL    HW133377   3.166   3.607  15.227 -1.1915  1.8445 -1.3828
 7306SOL    HW233378   3.139   3.625  15.370 -1.5972  0.3428  0.0215
 7307SOL     OW33379   2.253   3.314  15.713 -0.2543 -0.0270  0.0341
 7307SOL    HW133380   2.302   3.317  15.795 -0.3307 -0.9855  0.1151
 7307SOL    HW233381   2.319   3.272  15.657 -0.4840  0.7902 -0.8567
 7308SOL     OW33382   3.672   1.827  11.228 -0.1643 -0.0914 -0.0382
 7308SOL    HW133383   3.717   1.762  11.282 -1.6904 -0.6684  0.5497
 7308SOL    HW233384   3.718   1.820  11.144  1.0853 -1.8046  0.8013
 7309SOL     OW33385   0.682   0.237   3.905  0.1565  0.7831  0.7807
 7309SOL    HW133386   0.753   0.271   3.851 -0.9265 -0.8609 -1.7415
 7309SOL    HW233387   0.606   0.246   3.847 -1.6425  0.5221  3.0967
 7310SOL     OW33388   0.086   0.015   1.212 -0.3903 -0.3289 -0.3325
 7310SOL    HW133389   4.718   0.042   1.214 -0.1142  0.3930  2.3331
 7310SOL    HW233390   0.096   4.708   1.122 -2.4461 -1.6193 -0.1110
 7311SOL     OW33391   4.578   3.490   0.716 -0.0279  0.2470 -0.5514
 7311SOL    HW133392   4.594   3.447   0.800 -0.6363  3.2586  1.1157
 7311SOL    HW233393   4.569   3.411   0.664  1.9555  0.3897 -1.1303
 7312SOL     OW33394   3.255   2.283   3.053  0.1009  0.1862 -0.1827
 7312SOL    HW133395   3.300   2.300   2.971 -2.6320  0.0116 -1.7426
 7312SOL    HW233396   3.197   2.217   3.015  1.1906 -0.5354 -0.5861
 7313SOL     OW33397   2.805   1.274   8.164 -0.3164  0.2876  0.4821
 7313SOL    HW133398   2.756   1.192   8.154 -1.5037  1.3282 -2.2442
 7313SOL    HW233399   2.737   1.341   8.154 -0.3269  0.2144  0.0812
 7314SOL     OW33400   4.388   0.097  13.731 -0.2556 -0.0640  0.0171
 7314SOL    HW133401   4.390   0.161  13.802  0.0426 -0.8820  0.7575
 7314SOL    HW233402   4.318   0.039  13.761  0.5732 -1.5647 -0.9569
 7315SOL     OW33403   2.410   2.053  16.320 -0.3018 -0.3541  0.1331
 7315SOL    HW133404   2.404   2.037  16.226  0.6471 -1.1080  0.1993
 7315SOL    HW233405   2.466   1.980  16.347 -3.0497 -1.5164  2.6600
 7316SOL     OW33406   4.548   4.401   2.559 -0.1370  0.1782  0.4822
 7316SOL    HW133407   4.519   4.486   2.523 -0.3934 -0.4483 -0.7939
 7316SOL    HW233408   4.476   4.380   2.619 -0.0794  1.1029  0.8762
 7317SOL     OW33409   4.090   0.875   8.983 -0.1580  0.1174 -0.0607
 7317SOL    HW133410   4.014   0.865   9.040 -0.7655 -0.6763 -1.0073
 7317SOL    HW233411   4.116   0.967   8.996 -0.8979  0.0961  1.6423
 7318SOL     OW33412   3.388   4.593   7.862 -0.1019  0.0512  0.2007
 7318SOL    HW133413   3.430   4.678   7.872  0.8385 -0.4174  0.2050
 7318SOL    HW233414   3.431   4.545   7.791 -0.3536 -0.1496  0.1828
 7319SOL     OW33415   1.128   0.720   8.536 -0.0157 -0.0783 -0.0684
 7319SOL    HW133416   1.107   0.684   8.450 -0.6193  1.7635 -0.6767
 7319SOL    HW233417   1.193   0.657   8.567 -1.9327 -1.2172  1.7353
 7320SOL     OW33418   1.663   1.849   6.953  0.2657 -0.3283  0.0935
 7320SOL    HW133419   1.606   1.795   7.008  3.4680 -2.4315  1.3374
 7320SOL    HW233420   1.734   1.870   7.014 -0.0454 -1.0673  0.7073
 7321SOL     OW33421   2.590   2.749  17.223  0.8035  0.2286  0.0516
 7321SOL    HW133422   2.615   2.724  17.135 -0.8532  2.1900 -0.9832
 7321SOL    HW233423   2.578   2.844  17.216 -0.8168  0.0816  0.8181
 7322SOL     OW33424   0.422   0.799   6.254  0.1374 -0.0883  0.0950
 7322SOL    HW133425   0.422   0.791   6.159 -0.1930  2.3280 -0.1014
 7322SOL    HW233426   0.517   0.795   6.270  0.1641  0.7243  0.1497
 7323SOL     OW33427   2.936   3.993   4.798 -0.3435 -0.4622 -0.4724
 7323SOL    HW133428   2.899   4.021   4.882  2.2190  1.0078  0.1787
 7323SOL    HW233429   2.872   4.033   4.739 -0.6566  0.0033  0.1742
 7324SOL     OW33430   0.695   3.650   6.829 -0.5765  0.1415 -0.0015
 7324SOL    HW133431   0.620   3.614   6.875 -2.0835  0.9190 -1.8552
 7324SOL    HW233432   0.702   3.595   6.751 -0.5869  0.9076 -0.5399
 7325SOL     OW33433   0.387   3.449   2.863  0.2820  0.5861 -0.4216
 7325SOL    HW133434   0.414   3.361   2.837  1.4053  1.9827 -3.9860
 7325SOL    HW233435   0.320   3.420   2.925  2.4417 -0.0708  1.5896
 7326SOL     OW33436   2.276   0.149   7.110 -0.0255 -0.0420 -0.0805
 7326SOL    HW133437   2.345   0.123   7.171  0.2782  0.4455 -0.2139
 7326SOL    HW233438   2.268   0.243   7.120 -0.5672 -0.0506 -0.4534
 7327SOL     OW33439   0.512   0.927  11.050  0.0512  0.5153 -0.1322
 7327SOL    HW133440   0.472   0.909  11.135  1.2470  2.5101  0.8403
 7327SOL    HW233441   0.431   0.943  11.000 -0.3157  1.6045  0.8174
 7328SOL     OW33442   1.878   3.674   6.387 -0.2828  0.5755  0.3694
 7328SOL    HW133443   1.895   3.752   6.333  2.5087 -0.1493  0.2034
 7328SOL    HW233444   1.894   3.716   6.471  0.2306  0.3062  0.4063
 7329SOL     OW33445   1.392   2.618   6.878  0.0479  0.3119  0.0439
 7329SOL    HW133446   1.345   2.539   6.904  0.6472  0.2829  1.0511
 7329SOL    HW233447   1.327   2.669   6.828  1.2256  0.0331 -1.7590
 7330SOL     OW33448   3.416   3.868   2.715  0.6436  0.5186  0.0434
 7330SOL    HW133449   3.499   3.861   2.762  0.1171  2.8453  1.3123
 7330SOL    HW233450   3.397   3.961   2.729 -0.1028  0.4153 -0.3049
 7331SOL     OW33451   2.209   3.946   8.616  0.1975 -0.2397  0.2550
 7331SOL    HW133452   2.178   4.022   8.566  1.1832  0.0972  0.1413
 7331SOL    HW233453   2.215   3.879   8.548 -1.1230 -0.5709  0.4752
 7332SOL     OW33454   2.269   3.635   6.419  0.1629  0.5243  0.5235
 7332SOL    HW133455   2.233   3.687   6.347 -0.7443 -0.6440  0.1379
 7332SOL    HW233456   2.310   3.564   6.369 -3.6079  0.1880 -2.1164
 7333SOL     OW33457   1.861   4.616   7.071 -0.0691 -1.0195  0.7060
 7333SOL    HW133458   1.881   4.524   7.056  0.2285 -0.5933 -1.4523
 7333SOL    HW233459   1.940   4.641   7.119  2.0251  0.4869 -3.5312
 7334SOL     OW33460   3.220   2.861  13.694  0.2322  0.3703 -0.3012
 7334SOL    HW133461   3.234   2.777  13.737  2.9710  1.6753  1.3665
 7334SOL    HW233462   3.232   2.914  13.773 -0.0997  0.9900 -0.6614
 7335SOL     OW33463   4.590   0.522   6.225  0.0969 -0.6164  0.1514
 7335SOL    HW133464   4.676   0.529   6.267 -0.3305  0.8171  0.7786
 7335SOL    HW233465   4.574   0.616   6.217 -2.7837 -1.1396 -0.1375
 7336SOL     OW33466   0.568   3.143  15.411 -0.0572  0.8567 -0.0440
 7336SOL    HW133467   0.615   3.062  15.388 -0.0023  0.5989  0.9902
 7336SOL    HW233468   0.636   3.176  15.470  0.5236  1.3477 -0.9691
 7337SOL     OW33469   1.463   4.516   2.880  0.3153  0.2306 -0.3977
 7337SOL    HW133470   1.375   4.505   2.917  0.6847  2.9621  1.3069
 7337SOL    HW233471   1.454   4.589   2.819 -1.6942  1.4198  1.2794
 7338SOL     OW33472   0.292   1.915  12.387 -0.2620  0.2213 -0.0173
 7338SOL    HW133473   0.299   2.009  12.372 -0.3313  0.3397  0.6990
 7338SOL    HW233474   0.344   1.902  12.465 -0.8423  0.0905  0.3512
 7339SOL     OW33475   4.476   2.921   4.008  0.5560 -0.2147  0.0277
 7339SOL    HW133476   4.524   2.886   4.083  0.0089  1.1435  1.0220
 7339SOL    HW233477   4.459   2.847   3.950  0.1976  0.6048 -0.9202
 7340SOL     OW33478   1.734   3.507   8.624  0.2650  0.2675  0.7701
 7340SOL    HW133479   1.810   3.448   8.622  0.5608  0.8015 -2.9956
 7340SOL    HW233480   1.665   3.461   8.673 -1.1444  0.3322 -1.1920
 7341SOL     OW33481   0.506   2.660   8.146 -0.3461 -0.0164 -0.3029
 7341SOL    HW133482   0.505   2.605   8.068 -1.7913  0.0818 -0.3518
 7341SOL    HW233483   0.534   2.601   8.216  2.9994  0.5497 -1.1368
 7342SOL     OW33484   2.241   2.523   1.854  0.8402  0.1415 -0.9357
 7342SOL    HW133485   2.304   2.452   1.872  1.4620  0.7606 -0.6796
 7342SOL    HW233486   2.221   2.560   1.940 -0.9782 -0.3582 -1.1434
 7343SOL     OW33487   1.877   2.632   8.717 -0.4561 -0.3157  0.2035
 7343SOL    HW133488   1.827   2.707   8.684  0.8708 -0.5642 -2.3587
 7343SOL    HW233489   1.964   2.670   8.706 -1.2048  0.8712 -1.6591
 7344SOL     OW33490   0.123   0.084   3.768 -0.3134  0.5901 -0.2894
 7344SOL    HW133491   0.078   0.168   3.765 -0.3918  0.4907 -2.3052
 7344SOL    HW233492   0.190   0.092   3.836 -1.9549  0.8798  1.3025
 7345SOL     OW33493   2.119   2.652   6.832  0.7200  0.2240  0.1329
 7345SOL    HW133494   2.208   2.663   6.798  1.3864  1.5330  2.2652
 7345SOL    HW233495   2.074   2.634   6.750  0.6821  1.6174 -0.1662
 7346SOL     OW33496   1.631   1.539  15.690 -0.6727  0.0735 -0.6758
 7346SOL    HW133497   1.635   1.606  15.758 -1.8014  0.9545 -1.4862
 7346SOL    HW233498   1.611   1.463  15.744  0.9342 -0.1527 -0.3832
 7347SOL     OW33499   2.394   1.654   8.706 -0.2644  0.6679 -0.5658
 7347SOL    HW133500   2.320   1.631   8.650 -0.4477 -0.2213  0.0444
 7347SOL    HW233501   2.467   1.672   8.646  1.2455 -1.4948  0.6039
 7348SOL     OW33502   4.341   3.294  16.289 -0.4054  0.9353 -0.3015
 7348SOL    HW133503   4.423   3.311  16.335  0.6242 -2.1289 -1.0380
 7348SOL    HW233504   4.292   3.252  16.359 -1.1943  1.9889 -0.2112
 7349SOL     OW33505   3.085   2.594   7.758 -0.0733 -0.7518 -0.4052
 7349SOL    HW133506   3.166   2.557   7.722  0.4704  1.2184 -1.1773
 7349SOL    HW233507   3.096   2.689   7.755  0.7740 -1.0097 -4.5175
 7350SOL     OW33508   2.740   3.659  15.108  0.5668  0.1496 -0.3303
 7350SOL    HW133509   2.796   3.669  15.032  0.1953  1.1033 -0.4828
 7350SOL    HW233510   2.775   3.734  15.156  0.7228  0.1589 -0.4605
 7351SOL     OW33511   0.304   1.569  13.924  0.1259 -0.3158  0.4288
 7351SOL    HW133512   0.281   1.659  13.900 -0.3255 -0.2689  1.0432
 7351SOL    HW233513   0.393   1.572  13.887  0.2273 -1.3632  0.5880
 7352SOL     OW33514   2.928   1.693   8.211  0.4572 -0.0730  0.2474
 7352SOL    HW133515   2.940   1.643   8.131  1.2533  1.8518 -0.8458
 7352SOL    HW233516   2.978   1.773   8.192  2.0311 -1.3820 -1.1158
 7353SOL     OW33517   1.721   0.252  10.724  0.1584  0.5356 -0.3086
 7353SOL    HW133518   1.634   0.278  10.755  0.2701  1.8710 -1.1269
 7353SOL    HW233519   1.730   0.171  10.775  1.9461  0.5738 -0.5517
 7354SOL     OW33520   1.442   2.338   6.612  0.1121 -0.2220 -0.3396
 7354SOL    HW133521   1.511   2.280   6.646 -0.8446 -0.1088  1.8052
 7354SOL    HW233522   1.445   2.323   6.518 -1.7335 -3.3928  0.1133
 7355SOL     OW33523   3.873   3.421   2.143 -0.0119  0.1305 -0.1322
 7355SOL    HW133524   3.848   3.332   2.170  3.8891 -1.2500 -0.9544
 7355SOL    HW233525   3.794   3.474   2.137 -0.0459  0.2606  1.3366
 7356SOL     OW33526   2.456   0.821   2.677 -0.0883 -0.7038  0.5128
 7356SOL    HW133527   2.368   0.791   2.654 -0.5594 -0.4284  1.9791
 7356SOL    HW233528   2.453   0.911   2.646  0.8574 -1.2350 -1.1175
 7357SOL     OW33529   1.984   0.191   4.540 -0.3117 -0.3378 -0.7600
 7357SOL    HW133530   2.018   0.213   4.627 -0.5452 -2.2005 -0.1915
 7357SOL    HW233531   2.057   0.145   4.499  0.1221 -3.4085  3.3726
 7358SOL     OW33532   2.551   4.056  16.862  0.3773 -0.1139  0.0875
 7358SOL    HW133533   2.512   4.033  16.778 -1.6172 -1.0454  1.2640
 7358SOL    HW233534   2.512   3.995  16.925 -1.2634 -0.0937 -0.8869
 7359SOL     OW33535   2.204   0.185   3.910  0.0205  0.1511 -0.8867
 7359SOL    HW133536   2.137   0.132   3.868  0.6375 -1.9004  0.7400
 7359SOL    HW233537   2.228   0.249   3.843 -2.1459  1.0133 -0.8404
 7360SOL     OW33538   1.661   3.269   4.050  0.4346 -0.4351  0.0764
 7360SOL    HW133539   1.712   3.251   3.971 -0.4280 -0.4608 -0.4747
 7360SOL    HW233540   1.621   3.184   4.069 -0.0088  0.0148  1.1222
 7361SOL     OW33541   2.032   4.101  15.095 -0.4140 -0.0798  0.4075
 7361SOL    HW133542   2.067   4.179  15.137 -2.2761  0.4964  0.9180
 7361SOL    HW233543   2.091   4.035  15.132  2.2555  2.3119  0.3579
 7362SOL     OW33544   1.164   2.053  17.043 -0.1671 -0.0276 -0.8269
 7362SOL    HW133545   1.207   2.021  17.122  0.7334  1.4094 -0.7259
 7362SOL    HW233546   1.096   1.987  17.033 -1.3143  0.9132  0.7902
 7363SOL     OW33547   3.609   4.216   2.679  0.0943  0.0989  0.3685
 7363SOL    HW133548   3.652   4.199   2.595 -1.6627 -0.3096 -0.4609
 7363SOL    HW233549   3.530   4.164   2.664  1.7194 -2.2114 -0.2212
 7364SOL     OW33550   0.934   4.562  13.595  0.1124  0.1506  0.1247
 7364SOL    HW133551   0.844   4.586  13.617  0.5720  0.0297  2.1397
 7364SOL    HW233552   0.911   4.497  13.529 -0.3449  1.4360 -0.9716
 7365SOL     OW33553   0.332   3.593  14.781 -0.0526 -0.3180  0.6386
 7365SOL    HW133554   0.385   3.514  14.794 -0.1281 -0.2614  1.3288
 7365SOL    HW233555   0.283   3.563  14.705 -1.5554 -2.5304  2.4517
 7366SOL     OW33556   1.686   1.123   6.215 -0.2784  0.1601 -0.3042
 7366SOL    HW133557   1.737   1.043   6.211 -1.0351 -0.2289 -2.2030
 7366SOL    HW233558   1.600   1.088   6.239 -1.2487  2.8107  0.1200
 7367SOL     OW33559   2.887   1.470  13.917 -0.0045  0.2154  0.1583
 7367SOL    HW133560   2.977   1.475  13.885 -0.0841  1.1345  0.0603
 7367SOL    HW233561   2.829   1.436  13.849 -1.2923  1.3116  0.7107
 7368SOL     OW33562   2.757   1.107  11.822 -0.1642 -0.0577 -0.0986
 7368SOL    HW133563   2.704   1.185  11.838 -2.0513 -1.7562  1.9335
 7368SOL    HW233564   2.846   1.132  11.848 -0.7979 -0.6019  2.5515
 7369SOL     OW33565   0.245   3.787   4.966 -0.4512  0.3210  0.2794
 7369SOL    HW133566   0.258   3.795   4.871 -1.1661 -0.5228  0.1041
 7369SOL    HW233567   0.286   3.702   4.979 -1.8927 -0.6843 -1.6164
 7370SOL     OW33568   0.696   3.025   7.199  0.1829 -0.1715  0.1876
 7370SOL    HW133569   0.640   3.033   7.276 -0.5715 -0.3427 -0.3439
 7370SOL    HW233570   0.714   3.119   7.190  0.8012 -0.3151 -0.1003
 7371SOL     OW33571   0.534   0.222   7.256  0.5790  0.1726 -0.0691
 7371SOL    HW133572   0.527   0.154   7.189 -1.2623  1.8275 -1.5496
 7371SOL    HW233573   0.521   0.171   7.336 -1.9987 -0.1662 -0.6966
 7372SOL     OW33574   2.932   3.463   6.070 -0.3652  0.8577 -0.2567
 7372SOL    HW133575   2.973   3.549   6.068  2.2738 -0.3102  2.6408
 7372SOL    HW233576   2.841   3.492   6.079 -0.9461 -0.3914 -2.2354
 7373SOL     OW33577   2.433   0.362  15.909  0.1380 -0.0172 -0.0699
 7373SOL    HW133578   2.443   0.370  15.814 -1.5694 -1.0168 -0.3295
 7373SOL    HW233579   2.408   0.454  15.921  0.5833  0.0852  0.0602
 7374SOL     OW33580   3.267   1.665   5.467  0.1126  0.0746 -0.0597
 7374SOL    HW133581   3.334   1.732   5.459 -1.1189  1.5146  1.5878
 7374SOL    HW233582   3.239   1.662   5.376  0.6206 -0.1903 -0.2061
 7375SOL     OW33583   1.593   2.113   6.281  0.2749  0.8785 -0.5194
 7375SOL    HW133584   1.649   2.188   6.303  1.6682  0.4240 -2.4950
 7375SOL    HW233585   1.631   2.089   6.196  1.2361 -1.1044  0.4595
 7376SOL     OW33586   4.410   0.591   4.070 -0.1050  0.1628 -0.2620
 7376SOL    HW133587   4.375   0.503   4.087 -1.3141  0.5476 -0.7815
 7376SOL    HW233588   4.447   0.618   4.154  2.0493 -0.2872 -1.0617
 7377SOL     OW33589   3.830   2.149   2.668 -0.3403  0.6841 -0.8061
 7377SOL    HW133590   3.801   2.075   2.614 -0.9465 -2.3981  3.7245
 7377SOL    HW233591   3.872   2.206   2.605 -0.2755  3.3623  1.6604
 7378SOL     OW33592   1.916   3.157  15.360 -0.6795 -0.2003  0.2014
 7378SOL    HW133593   1.894   3.069  15.330 -2.7732  0.4083 -0.0494
 7378SOL    HW233594   1.855   3.169  15.433 -0.0075 -0.2129  0.7610
 7379SOL     OW33595   2.777   1.782   4.406  0.2358 -0.1738 -0.4843
 7379SOL    HW133596   2.793   1.733   4.325  0.9740  0.6408 -0.8350
 7379SOL    HW233597   2.830   1.862   4.404  0.1916 -0.1814 -2.0382
 7380SOL     OW33598   2.191   0.189   2.960 -0.0665 -0.3691  0.1057
 7380SOL    HW133599   2.276   0.200   2.916  0.1700  1.1759  0.9751
 7380SOL    HW233600   2.207   0.100   2.994  0.8972  0.1448  1.0056
 7381SOL     OW33601   3.155   3.377   4.640 -0.2003  0.3142 -0.0191
 7381SOL    HW133602   3.148   3.282   4.638  1.1473  0.1751  2.3021
 7381SOL    HW233603   3.081   3.412   4.690 -0.2506  0.6281 -0.3111
 7382SOL     OW33604   0.714   0.927   8.732  0.4944  0.0962 -0.1832
 7382SOL    HW133605   0.677   1.014   8.716 -0.7240 -0.4538 -0.3491
 7382SOL    HW233606   0.752   0.937   8.819 -0.9282  0.7825  0.3560
 7383SOL     OW33607   0.623   3.997   9.621  0.4507 -0.3297  0.1890
 7383SOL    HW133608   0.610   3.974   9.529 -0.1985  1.4308 -0.1454
 7383SOL    HW233609   0.706   3.951   9.632  0.2625 -0.6309  0.3660
 7384SOL     OW33610   2.105   1.266  12.095 -0.5216 -0.0115  0.0146
 7384SOL    HW133611   2.048   1.196  12.063  0.7515 -1.1917  0.2835
 7384SOL    HW233612   2.191   1.245  12.059 -0.6814  0.2473 -0.5127
 7385SOL     OW33613   2.999   2.055  11.630 -0.2146  0.5668 -0.0629
 7385SOL    HW133614   2.916   2.063  11.583 -0.4687 -1.5655  0.0139
 7385SOL    HW233615   2.983   2.114  11.703  1.4394  0.1167  0.6556
 7386SOL     OW33616   0.378   0.815  14.064 -0.0860  0.3218  0.6065
 7386SOL    HW133617   0.408   0.809  13.973 -0.8759 -0.6198  0.3948
 7386SOL    HW233618   0.462   0.812  14.108  0.6938 -1.2912 -0.9894
 7387SOL     OW33619   3.676   1.705   9.694 -0.5330 -0.2392  0.0413
 7387SOL    HW133620   3.691   1.639   9.761  1.2696  0.7391  0.6113
 7387SOL    HW233621   3.651   1.773   9.757 -0.5812 -0.6058  0.4164
 7388SOL     OW33622   2.214   1.932   9.707  0.3900 -0.4561 -0.0608
 7388SOL    HW133623   2.150   1.910   9.775  0.5333  1.2441  0.6295
 7388SOL    HW233624   2.289   1.964   9.757  0.4811 -1.2903  0.3374
 7389SOL     OW33625   1.443   3.839   6.507  0.5792 -0.4775 -0.4773
 7389SOL    HW133626   1.418   3.778   6.577  2.4985 -0.0249  0.6008
 7389SOL    HW233627   1.500   3.787   6.450 -2.1160 -1.1812 -2.5006
 7390SOL     OW33628   1.876   3.338   4.538  0.1652 -0.0093  0.2885
 7390SOL    HW133629   1.872   3.421   4.586 -0.2864  1.3748 -2.1233
 7390SOL    HW233630   1.792   3.354   4.495  0.9618 -0.0187 -1.2682
 7391SOL     OW33631   0.951   2.197   8.702 -0.1172  0.0566  0.0084
 7391SOL    HW133632   1.044   2.212   8.688  0.0353  0.5046  1.4516
 7391SOL    HW233633   0.928   2.271   8.758  0.2622  0.3541 -0.2314
 7392SOL     OW33634   3.289   0.058   7.130  0.1721  0.3762 -0.2693
 7392SOL    HW133635   3.227   4.720   7.090  0.6945 -1.6362  2.0739
 7392SOL    HW233636   3.243   0.091   7.207 -1.5942  0.7620 -1.4936
 7393SOL     OW33637   2.549   3.716   3.997 -0.3873  0.0089  0.3327
 7393SOL    HW133638   2.462   3.676   3.995  0.3296 -1.4699 -1.2454
 7393SOL    HW233639   2.593   3.636   4.024 -0.2897  0.0027  0.1557
 7394SOL     OW33640   0.355   0.546  14.781  0.6684 -0.4445  0.9740
 7394SOL    HW133641   0.373   0.622  14.837  0.7482  0.3299 -0.0815
 7394SOL    HW233642   0.305   0.580  14.707 -0.4311 -0.0270  1.9037
 7395SOL     OW33643   3.278   3.517  12.315 -0.1160 -0.4649  0.4435
 7395SOL    HW133644   3.321   3.446  12.266  1.3632  1.7662 -1.4908
 7395SOL    HW233645   3.191   3.528  12.277  0.1105  1.1720  0.3933
 7396SOL     OW33646   3.257   0.656   6.531  0.5462 -0.1347  0.2046
 7396SOL    HW133647   3.238   0.709   6.453  0.4676  2.0598  1.7141
 7396SOL    HW233648   3.235   0.719   6.600  4.3547 -0.5659  1.8547
 7397SOL     OW33649   2.918   1.969   2.162  0.2872  0.9940 -0.0577
 7397SOL    HW133650   2.981   2.041   2.172  1.4544 -0.3344  2.2213
 7397SOL    HW233651   2.904   1.944   2.254  1.3370 -1.3086 -0.5235
 7398SOL     OW33652   2.363   0.678   8.204 -0.4801 -0.0229  0.3285
 7398SOL    HW133653   2.429   0.619   8.165  0.0073  1.2980 -0.8375
 7398SOL    HW233654   2.403   0.760   8.176  1.2182 -0.8921  0.1857
 7399SOL     OW33655   2.253   2.152   2.446  0.3809 -0.5498 -0.4689
 7399SOL    HW133656   2.224   2.202   2.370 -3.4798  1.5816  2.3946
 7399SOL    HW233657   2.348   2.155   2.434  0.2931  2.0438 -0.4727
 7400SOL     OW33658   0.086   2.107   6.873  0.7397  0.4951 -0.2716
 7400SOL    HW133659   0.140   2.186   6.868  1.8242 -0.1560  1.1189
 7400SOL    HW233660   0.026   2.120   6.799  0.5198  1.9344  0.1688
 7401SOL     OW33661   0.788   1.604   3.609  0.1176  0.3185  0.6089
 7401SOL    HW133662   0.702   1.565   3.625  0.2849 -0.6206 -0.7935
 7401SOL    HW233663   0.815   1.557   3.530  2.2576  1.5261  0.6075
 7402SOL     OW33664   2.045   3.101  15.742  0.0621  0.2189 -0.6935
 7402SOL    HW133665   2.123   3.151  15.715 -0.3532  0.4729 -1.4260
 7402SOL    HW233666   2.037   3.024  15.686 -2.2871 -1.1041  1.4970
 7403SOL     OW33667   1.934   3.442  15.018 -0.7855 -0.0420 -0.1490
 7403SOL    HW133668   1.878   3.378  14.976  0.5462 -0.8254 -0.7359
 7403SOL    HW233669   1.937   3.504  14.945 -2.9219 -1.1672 -1.1685
 7404SOL     OW33670   3.329   1.127   7.087  0.8893 -0.7874  0.2191
 7404SOL    HW133671   3.238   1.117   7.059  1.4154 -2.0267 -1.0559
 7404SOL    HW233672   3.324   1.222   7.096 -0.9277 -1.0339  1.8058
 7405SOL     OW33673   3.564   1.984   0.877 -0.2693 -0.1649 -0.3688
 7405SOL    HW133674   3.508   1.910   0.902 -1.8254  1.5563  1.2638
 7405SOL    HW233675   3.512   2.042   0.822 -1.5271 -1.4875 -0.5727
 7406SOL     OW33676   0.464   4.585  11.748  0.2673 -0.4595 -0.0167
 7406SOL    HW133677   0.536   4.641  11.719 -0.1825  0.3772  0.4586
 7406SOL    HW233678   0.499   4.555  11.832  0.4577 -0.4813 -0.1058
 7407SOL     OW33679   0.382   2.388   5.609 -0.1752  0.0942 -0.1193
 7407SOL    HW133680   0.300   2.349   5.578  0.0926 -0.5143 -0.0556
 7407SOL    HW233681   0.407   2.315   5.665  1.2452 -0.6401 -1.7222
 7408SOL     OW33682   3.161   3.175   5.050  0.3241  0.1453  0.0082
 7408SOL    HW133683   3.181   3.140   5.137  0.7997  4.9414  1.8566
 7408SOL    HW233684   3.115   3.110   4.997  0.4037  1.0654 -1.1692
 7409SOL     OW33685   0.545   0.476   1.407  0.3937 -0.1736  0.1152
 7409SOL    HW133686   0.509   0.558   1.440 -0.6745 -0.9619  0.9184
 7409SOL    HW233687   0.603   0.516   1.342 -1.1787  1.9151 -0.0131
 7410SOL     OW33688   0.273   0.386   1.037  0.6488  0.5640  0.4523
 7410SOL    HW133689   0.361   0.422   1.029  0.6560 -0.0685 -2.2661
 7410SOL    HW233690   0.265   0.335   0.956  1.7479 -1.6243  1.7150
 7411SOL     OW33691   0.130   4.272  13.493 -0.0215 -0.5624 -0.1373
 7411SOL    HW133692   0.067   4.284  13.423 -0.9781 -2.4262  0.3768
 7411SOL    HW233693   0.207   4.252  13.440  0.0384  0.9475 -0.5981
 7412SOL     OW33694   2.300   2.257  11.725  0.3226 -0.6530 -0.0688
 7412SOL    HW133695   2.284   2.164  11.742 -0.2541 -1.0670 -3.0192
 7412SOL    HW233696   2.395   2.253  11.731  0.2937 -1.2704 -0.0449
 7413SOL     OW33697   3.838   1.743  13.284 -0.2526  0.5144  0.1599
 7413SOL    HW133698   3.904   1.687  13.325 -1.0229 -1.8120 -1.7489
 7413SOL    HW233699   3.884   1.826  13.281 -0.7355  0.8070  0.7543
 7414SOL     OW33700   1.672   4.033   0.539 -0.1295 -0.3170 -0.1746
 7414SOL    HW133701   1.749   4.038   0.596 -1.7532  2.4482  1.8106
 7414SOL    HW233702   1.636   4.121   0.555  1.1869  0.1122  0.4051
 7415SOL     OW33703   0.823   2.837  11.367  0.0676  0.1446 -0.5120
 7415SOL    HW133704   0.884   2.786  11.315  1.1690 -1.4962  2.4070
 7415SOL    HW233705   0.772   2.883  11.300 -0.8058  1.5701  1.1342
 7416SOL     OW33706   1.035   1.177   3.082 -0.2335  0.0455 -0.4060
 7416SOL    HW133707   1.061   1.119   3.153 -1.3398  0.5892  0.4401
 7416SOL    HW233708   0.940   1.180   3.068 -0.1942  0.6018 -0.5812
 7417SOL     OW33709   3.162   2.588  15.149 -0.2755  0.4722  0.3522
 7417SOL    HW133710   3.103   2.574  15.075 -0.0953 -1.4074  0.5759
 7417SOL    HW233711   3.101   2.577  15.223  2.0791  1.8567  2.5135
 7418SOL     OW33712   4.044   3.111   8.497  0.4805 -0.2588  0.1635
 7418SOL    HW133713   4.073   3.066   8.577 -0.9131 -1.3370  0.0779
 7418SOL    HW233714   4.072   3.044   8.434  1.1436  1.6912 -1.5799
 7419SOL     OW33715   3.832   0.932   4.854 -0.0838  0.1293 -0.2861
 7419SOL    HW133716   3.791   0.879   4.922  0.9186  0.6740  0.7331
 7419SOL    HW233717   3.780   0.912   4.776  1.4388  3.0518 -2.0386
 7420SOL     OW33718   3.967   0.604  10.272  0.0313  0.1033  0.2805
 7420SOL    HW133719   3.996   0.587  10.182 -1.4496 -0.4978 -0.0759
 7420SOL    HW233720   4.007   0.688  10.295  1.6135 -0.4986 -0.2590
 7421SOL     OW33721   2.860   4.166   6.349  0.2087  0.1131  0.2754
 7421SOL    HW133722   2.813   4.148   6.430  0.2244  1.0377  0.4918
 7421SOL    HW233723   2.940   4.117   6.368  0.3058  0.3030  0.3608
 7422SOL     OW33724   3.759   0.703   5.501 -0.5468  0.0320  0.4095
 7422SOL    HW133725   3.781   0.690   5.594  0.6104 -0.2752  0.0936
 7422SOL    HW233726   3.845   0.739   5.479 -0.8773  0.8868  0.5129
 7423SOL     OW33727   3.724   0.822  15.535 -0.2690 -0.1855 -0.3804
 7423SOL    HW133728   3.817   0.803  15.520 -0.4768 -1.8049  0.3867
 7423SOL    HW233729   3.742   0.843  15.627 -0.7072 -1.2992 -0.0387
 7424SOL     OW33730   2.099   0.190   9.049 -0.6834 -0.1185 -0.2620
 7424SOL    HW133731   2.046   0.166   8.973  0.5616 -1.1767 -0.7995
 7424SOL    HW233732   2.147   0.108   9.064 -0.4183  0.0244 -0.3224
 7425SOL     OW33733   1.591   1.861   4.487 -0.2302  0.1179 -0.4817
 7425SOL    HW133734   1.507   1.847   4.530  0.5304 -1.0562  0.6119
 7425SOL    HW233735   1.569   1.932   4.426  0.8441  1.2445  0.4527
 7426SOL     OW33736   3.270   0.152   9.418 -0.0890 -0.3309 -0.2936
 7426SOL    HW133737   3.365   0.148   9.418 -0.0009  2.2894 -0.4999
 7426SOL    HW233738   3.250   0.245   9.408 -0.1371 -0.1120  1.7621
 7427SOL     OW33739   4.425   0.226   0.244  0.5134 -0.3164 -0.3871
 7427SOL    HW133740   4.440   0.273   0.326  0.5715  0.8268 -1.0574
 7427SOL    HW233741   4.395   0.291   0.181  2.8529 -0.5854 -1.7721
 7428SOL     OW33742   3.738   2.759   8.170 -0.4046 -0.3647  0.3367
 7428SOL    HW133743   3.833   2.742   8.170 -0.2676  0.3853  0.1475
 7428SOL    HW233744   3.734   2.727   8.080  0.1312 -2.1783  0.9460
 7429SOL     OW33745   0.598   1.601   3.236 -0.1511 -0.3658 -0.7596
 7429SOL    HW133746   0.654   1.660   3.186 -0.0293  2.6402  2.9752
 7429SOL    HW233747   0.657   1.531   3.265  0.8711  0.2410 -1.3698
 7430SOL     OW33748   2.012   4.132   4.574  0.5154  0.0356 -0.3003
 7430SOL    HW133749   2.098   4.160   4.607 -0.5858  0.6797  2.0115
 7430SOL    HW233750   2.012   4.176   4.488  0.5596  2.7244  1.0626
 7431SOL     OW33751   3.559   1.272   7.566  0.1765 -0.2965  0.8949
 7431SOL    HW133752   3.485   1.251   7.509  1.3456 -0.0202 -0.7392
 7431SOL    HW233753   3.585   1.362   7.546 -2.6188  0.2615 -0.1915
 7432SOL     OW33754   2.963   3.178  16.304 -0.1764  0.0366  0.0841
 7432SOL    HW133755   3.010   3.246  16.352 -0.2071 -0.5527  0.9462
 7432SOL    HW233756   2.886   3.226  16.273 -0.7364 -0.7252  0.2877
 7433SOL     OW33757   2.706   2.445   2.523  0.0481  0.1556  0.1247
 7433SOL    HW133758   2.656   2.441   2.604  0.6523  0.3118  0.5077
 7433SOL    HW233759   2.640   2.472   2.459  0.2946 -0.4829 -0.4042
 7434SOL     OW33760   1.682   0.952  13.137  0.5147 -0.4186  0.5221
 7434SOL    HW133761   1.747   0.919  13.199  1.2430  1.4163  0.7230
 7434SOL    HW233762   1.705   1.045  13.131 -2.5741  0.4541  2.3473
 7435SOL     OW33763   4.041   4.131   0.961  0.3135 -0.0730  0.0824
 7435SOL    HW133764   3.954   4.162   0.934  0.6109 -1.3750 -2.3987
 7435SOL    HW233765   4.095   4.186   0.905 -1.0980  1.0715 -0.1746
 7436SOL     OW33766   1.158   1.059   5.988 -0.1219 -0.8054 -0.2928
 7436SOL    HW133767   1.103   1.044   6.065  1.6001  1.6095  1.4046
 7436SOL    HW233768   1.197   1.139   6.023 -1.0630 -1.3238  1.9524
 7437SOL     OW33769   1.288   0.971   4.239  0.4064 -0.1839  0.1442
 7437SOL    HW133770   1.332   0.894   4.202 -1.5020 -0.2193 -2.0853
 7437SOL    HW233771   1.355   1.038   4.224 -1.0111  1.3266  0.4912
 7438SOL     OW33772   4.369   3.215   9.770  0.4708  0.3724 -0.1423
 7438SOL    HW133773   4.426   3.244   9.698 -0.7246 -1.7113 -1.9291
 7438SOL    HW233774   4.299   3.174   9.719 -0.9201  0.7794  1.4281
 7439SOL     OW33775   1.334   2.114   1.784 -0.4967 -0.2695 -0.2608
 7439SOL    HW133776   1.412   2.119   1.838 -1.3832 -1.8233  1.1996
 7439SOL    HW233777   1.322   2.205   1.757  2.1035  0.4512  1.1037
 7440SOL     OW33778   4.529   4.140   7.929 -0.5269 -0.4480 -0.2695
 7440SOL    HW133779   4.579   4.222   7.940 -1.4465  0.0036  0.5386
 7440SOL    HW233780   4.447   4.166   7.888 -0.5733  0.5838  0.4739
 7441SOL     OW33781   2.233   2.671   8.420 -0.0700 -0.0838  0.1199
 7441SOL    HW133782   2.280   2.723   8.485  1.4702 -0.4985 -0.6513
 7441SOL    HW233783   2.199   2.738   8.362  1.0972  0.9776  0.6637
 7442SOL     OW33784   1.114   3.329   6.203  0.1788 -0.4935 -0.0358
 7442SOL    HW133785   1.132   3.300   6.293  0.7611  1.0254  0.3503
 7442SOL    HW233786   1.028   3.294   6.182  0.3379 -0.2084 -1.1442
 7443SOL     OW33787   1.175   3.418  15.243  0.1548  0.2278  0.5147
 7443SOL    HW133788   1.091   3.373  15.239 -0.1117  0.9006 -1.7912
 7443SOL    HW233789   1.145   3.506  15.267  1.0333  0.9394 -0.9865
 7444SOL     OW33790   1.497   3.821   1.576  0.0998  0.0313 -0.0710
 7444SOL    HW133791   1.572   3.813   1.636  0.8449 -1.1849 -1.1707
 7444SOL    HW233792   1.449   3.898   1.606  0.9169  0.7589 -0.6330
 7445SOL     OW33793   4.312   1.320   7.630 -0.2492  0.1777 -0.1817
 7445SOL    HW133794   4.309   1.292   7.721 -0.5739 -1.0302 -0.5614
 7445SOL    HW233795   4.394   1.370   7.636 -0.2694  0.1663  0.2158
 7446SOL     OW33796   0.484   3.744   8.680  0.3222  0.0609  0.1295
 7446SOL    HW133797   0.450   3.655   8.692  0.0802  0.3724  1.7566
 7446SOL    HW233798   0.446   3.766   8.595  1.0403  0.2767 -0.1359
 7447SOL     OW33799   2.986   1.215   3.471  0.2478 -0.3173 -0.1037
 7447SOL    HW133800   3.036   1.287   3.433  1.2539 -0.3220  1.2142
 7447SOL    HW233801   3.023   1.224   3.559  3.2613  0.8621 -1.4995
 7448SOL     OW33802   1.701   1.600   2.473 -0.1018 -0.0760 -0.1235
 7448SOL    HW133803   1.658   1.615   2.557 -0.0216 -0.3256 -0.0370
 7448SOL    HW233804   1.684   1.684   2.431 -1.4930 -1.2336 -1.8372
 7449SOL     OW33805   2.513   0.441   6.506  0.0352  0.0822 -0.5958
 7449SOL    HW133806   2.574   0.375   6.474  0.1597  0.6180 -1.4636
 7449SOL    HW233807   2.505   0.416   6.598  1.0282 -0.6895 -0.7160
 7450SOL     OW33808   4.280   4.290  17.559 -0.2152  0.0724  0.4004
 7450SOL    HW133809   4.193   4.269  17.526  0.0402  0.0891 -0.3016
 7450SOL    HW233810   4.269   4.383  17.577  0.3337  0.9661 -3.8088
 7451SOL     OW33811   3.014   2.404   4.534  0.2674  0.6280 -0.3127
 7451SOL    HW133812   3.005   2.494   4.502 -1.2423  0.4115 -0.5202
 7451SOL    HW233813   2.953   2.416   4.607  0.1095 -0.9773 -0.1933
 7452SOL     OW33814   3.778   1.710  15.736 -0.0054  0.6217 -0.9626
 7452SOL    HW133815   3.798   1.740  15.825  1.5963  1.2619 -1.5592
 7452SOL    HW233816   3.729   1.788  15.711 -2.3131 -1.3375 -2.6363
 7453SOL     OW33817   0.269   0.258  10.585 -0.0207 -0.1426  0.1807
 7453SOL    HW133818   0.201   0.200  10.550 -1.5946  1.3433  0.7368
 7453SOL    HW233819   0.234   0.260  10.674 -0.0731  0.7086  0.1393
 7454SOL     OW33820   2.244   0.765   7.365 -0.6901 -0.1767 -0.2175
 7454SOL    HW133821   2.274   0.837   7.310 -0.7286 -0.1316 -0.1802
 7454SOL    HW233822   2.315   0.701   7.375 -0.3032  0.2566 -0.2214
 7455SOL     OW33823   1.420   4.609   3.226  0.3046  0.1556 -0.3029
 7455SOL    HW133824   1.492   4.623   3.165 -0.5291 -1.4391 -1.6514
 7455SOL    HW233825   1.414   4.513   3.222 -0.7856  0.0355  4.0522
 7456SOL     OW33826   3.648   3.932   3.290  0.3276  0.0255  0.1207
 7456SOL    HW133827   3.725   3.876   3.304  1.2633  0.4283 -3.6116
 7456SOL    HW233828   3.578   3.867   3.295  0.8062 -0.5299 -0.5257
 7457SOL     OW33829   2.298   0.942   4.478  0.5244 -0.3600 -0.3949
 7457SOL    HW133830   2.318   0.961   4.386 -0.3956 -2.0744 -0.9667
 7457SOL    HW233831   2.324   1.022   4.523  1.7875 -1.5334  0.9549
 7458SOL     OW33832   1.090   1.334   6.705 -0.2458 -0.1206  1.0968
 7458SOL    HW133833   0.997   1.326   6.728 -0.6324 -0.0463 -0.4461
 7458SOL    HW233834   1.111   1.427   6.714  1.2013 -0.3325 -0.0169
 7459SOL     OW33835   3.069   3.702  14.839  0.0385  0.7018  0.1256
 7459SOL    HW133836   3.040   3.636  14.901  1.1605  0.2170  0.1339
 7459SOL    HW233837   3.083   3.649  14.761 -1.5911 -0.1784  0.4410
 7460SOL     OW33838   3.257   1.728   8.874 -0.0981 -0.2707 -0.1355
 7460SOL    HW133839   3.291   1.639   8.875 -0.7589 -0.5316 -0.4196
 7460SOL    HW233840   3.162   1.721   8.884 -0.1110  0.7831  0.5177
 7461SOL     OW33841   1.193   4.038   9.083  0.5716  0.3305  0.2106
 7461SOL    HW133842   1.251   3.964   9.099 -0.1412 -0.2708  0.0429
 7461SOL    HW233843   1.157   4.012   8.998 -0.7610  1.0849  0.5396
 7462SOL     OW33844   1.429   2.143  14.228  0.7144 -0.9063 -0.0001
 7462SOL    HW133845   1.412   2.057  14.267  3.7135 -1.8791 -0.8726
 7462SOL    HW233846   1.499   2.121  14.167  0.9894  1.6851 -0.5958
 7463SOL     OW33847   0.372   2.310   3.031  0.4624  0.6938 -0.1801
 7463SOL    HW133848   0.297   2.317   2.973 -0.5739  0.1566  1.0798
 7463SOL    HW233849   0.330   2.262   3.103  0.9741  1.3118  0.5334
 7464SOL     OW33850   2.948   0.549  13.425  0.1962  0.6802  0.1958
 7464SOL    HW133851   2.896   0.597  13.360 -1.4529  0.0812  1.0775
 7464SOL    HW233852   3.002   0.496  13.367  0.8286  1.7398 -0.2020
 7465SOL     OW33853   3.402   4.393   3.469  0.4211  0.2890  0.3975
 7465SOL    HW133854   3.311   4.386   3.440  0.0541  0.7773  1.4040
 7465SOL    HW233855   3.428   4.465   3.413 -0.5312 -0.6061 -1.1893
 7466SOL     OW33856   4.303   4.444   4.228 -0.2178 -0.0055  0.7664
 7466SOL    HW133857   4.271   4.447   4.138  1.7804  0.2781  0.0804
 7466SOL    HW233858   4.237   4.378   4.249  2.8430 -3.1472  0.3569
 7467SOL     OW33859   0.981   4.191   2.959  0.2124 -0.4900  0.0909
 7467SOL    HW133860   0.899   4.219   2.918  0.5219  2.0433  1.2024
 7467SOL    HW233861   1.032   4.272   2.963 -0.6268  0.1501 -2.1484
 7468SOL     OW33862   0.197   3.844   3.218  0.0505  0.0982 -0.4492
 7468SOL    HW133863   0.287   3.811   3.220  0.9397  2.6526  1.5527
 7468SOL    HW233864   0.189   3.831   3.124  0.3332 -0.9464 -0.3336
 7469SOL     OW33865   4.313   0.668   2.018 -0.3500 -0.3477  0.0543
 7469SOL    HW133866   4.372   0.635   1.950  0.9436  0.3906  0.8051
 7469SOL    HW233867   4.362   0.747   2.041 -0.6869 -0.4182  1.0051
 7470SOL     OW33868   0.521   3.507  14.558  0.1749 -0.2617  0.2813
 7470SOL    HW133869   0.577   3.507  14.635  0.0259 -1.2787  0.3805
 7470SOL    HW233870   0.547   3.592  14.520 -0.3898 -0.5416 -0.7502
 7471SOL     OW33871   2.150   2.800   4.822 -0.1115  0.1084 -0.0471
 7471SOL    HW133872   2.214   2.822   4.754  0.9868  0.0666  0.9790
 7471SOL    HW233873   2.119   2.890   4.833  0.0704  0.0690  0.7490
 7472SOL     OW33874   0.961   3.148  14.369  0.1573  0.2960 -0.1070
 7472SOL    HW133875   0.949   3.138  14.274  1.3025 -1.2353 -0.0835
 7472SOL    HW233876   0.871   3.153  14.401  0.7222  1.9467  1.2177
 7473SOL     OW33877   2.615   1.712   7.977  0.1124  0.1596  0.0510
 7473SOL    HW133878   2.578   1.715   8.065  0.6236  0.4978  0.2557
 7473SOL    HW233879   2.591   1.623   7.948 -0.2231  0.6300 -1.1218
 7474SOL     OW33880   1.270   3.674   3.228  0.4963  0.4017 -0.1150
 7474SOL    HW133881   1.357   3.664   3.265  0.7773  0.9494 -0.6265
 7474SOL    HW233882   1.224   3.743   3.276 -1.7163 -1.1095 -0.0736
 7475SOL     OW33883   3.564   3.026   8.576  0.2238 -0.4602 -0.5077
 7475SOL    HW133884   3.593   2.965   8.509 -1.6373 -0.9483 -0.8673
 7475SOL    HW233885   3.539   3.104   8.526  4.3955  1.2224  0.0606
 7476SOL     OW33886   0.610   1.480   0.662 -0.1307 -0.4182  0.2492
 7476SOL    HW133887   0.606   1.510   0.753 -0.4884 -0.3153  0.1996
 7476SOL    HW233888   0.640   1.391   0.677  0.1020 -0.1529  1.3536
 7477SOL     OW33889   1.628   1.718   0.728 -0.0858 -0.1591  0.4209
 7477SOL    HW133890   1.613   1.701   0.635  0.4290  2.0588 -0.0738
 7477SOL    HW233891   1.723   1.730   0.723 -0.2976  0.6831 -1.5628
 7478SOL     OW33892   3.492   3.473   5.316  0.4311 -0.2024 -0.6763
 7478SOL    HW133893   3.487   3.491   5.222  0.4255  0.2001 -0.5988
 7478SOL    HW233894   3.469   3.380   5.310 -0.8221  0.0165  0.9507
 7479SOL     OW33895   0.163   2.442   8.373 -0.3621 -0.2662 -0.1983
 7479SOL    HW133896   0.165   2.357   8.416  0.2073  0.3922  1.0858
 7479SOL    HW233897   0.199   2.421   8.287 -0.1358 -2.0450  0.3298
 7480SOL     OW33898   2.126   3.312   6.761  0.0979  0.4708  0.2283
 7480SOL    HW133899   2.080   3.393   6.741 -0.8483  0.1273  0.9669
 7480SOL    HW233900   2.200   3.348   6.809  0.8396  1.0577 -1.3852
 7481SOL     OW33901   2.451   1.855   8.910 -0.1653 -0.2407 -0.2221
 7481SOL    HW133902   2.429   1.793   8.840 -1.1803 -0.2552  0.1208
 7481SOL    HW233903   2.543   1.834   8.928 -0.7956 -0.9391  2.1854
 7482SOL     OW33904   2.545   1.924   6.664  0.3751  0.5475 -0.0663
 7482SOL    HW133905   2.462   1.878   6.658  0.7285 -0.0341 -0.4487
 7482SOL    HW233906   2.517   2.005   6.707  0.6991  1.3772 -1.4141
 7483SOL     OW33907   4.415   2.561   1.889 -0.4935 -0.4042 -0.0803
 7483SOL    HW133908   4.395   2.480   1.937 -1.7426 -1.0517 -1.6625
 7483SOL    HW233909   4.453   2.511   1.817  2.3652  1.3137  0.2687
 7484SOL     OW33910   1.673   1.845  10.226  0.0346 -0.1485  0.0230
 7484SOL    HW133911   1.629   1.916  10.274  0.9436  0.5622 -0.2159
 7484SOL    HW233912   1.613   1.771  10.241  1.8443 -0.8871  3.5778
 7485SOL     OW33913   0.718   1.285   2.327 -0.1872 -0.0052  0.0921
 7485SOL    HW133914   0.695   1.286   2.234  0.2572  3.7750  0.0134
 7485SOL    HW233915   0.735   1.191   2.330  5.6780  1.0999  0.3642
 7486SOL     OW33916   1.981   3.562   3.045  0.0763 -0.1275 -0.0468
 7486SOL    HW133917   2.049   3.622   3.075 -0.7038  1.7519 -2.0162
 7486SOL    HW233918   1.900   3.605   3.071 -1.2700 -1.3300 -2.2494
 7487SOL     OW33919   3.482   0.885   1.996  0.3482 -0.2230 -0.2647
 7487SOL    HW133920   3.496   0.791   1.984  1.1932 -0.1562  0.1909
 7487SOL    HW233921   3.397   0.901   1.957  0.0892  0.0653  0.4233
 7488SOL     OW33922   2.049   0.576   3.308  0.0608  0.3000  0.0791
 7488SOL    HW133923   2.022   0.599   3.219 -3.7361  1.8302  1.6147
 7488SOL    HW233924   2.018   0.487   3.319 -1.6684  0.9724  0.6745
 7489SOL     OW33925   0.424   4.293  11.488 -0.0996 -0.2232 -0.5254
 7489SOL    HW133926   0.422   4.197  11.483 -1.1663 -0.3033  1.4829
 7489SOL    HW233927   0.428   4.303  11.393 -1.4286  2.3950 -0.2853
 7490SOL     OW33928   4.546   1.752   4.479  0.4776 -0.3191  0.0860
 7490SOL    HW133929   4.488   1.688   4.522 -1.0722  0.2504 -1.1612
 7490SOL    HW233930   4.599   1.687   4.434  1.0329 -0.2743  0.6788
 7491SOL     OW33931   1.505   3.374   9.910  0.3792 -0.3926 -0.5256
 7491SOL    HW133932   1.546   3.332   9.986  1.0684 -0.4009 -0.8923
 7491SOL    HW233933   1.421   3.383   9.954  0.6011 -1.9649  0.2171
 7492SOL     OW33934   2.231   4.636  13.774  0.0021 -0.7416  0.2580
 7492SOL    HW133935   2.145   4.667  13.745  0.7919 -1.2911 -2.6233
 7492SOL    HW233936   2.292   4.660  13.704 -1.6120  1.5291 -0.3803
 7493SOL     OW33937   4.030   0.479   1.737  0.1193 -0.7626 -0.6295
 7493SOL    HW133938   3.939   0.484   1.707  0.4113  2.9682 -0.9270
 7493SOL    HW233939   4.077   0.514   1.661 -0.8906 -0.4893 -1.1333
 7494SOL     OW33940   3.001   1.056   8.292  0.3153 -0.2099  0.1457
 7494SOL    HW133941   3.086   1.072   8.250 -0.2641  0.1028 -0.8996
 7494SOL    HW233942   2.936   1.098   8.236 -1.0135  0.4548  2.2092
 7495SOL     OW33943   0.030   1.627   3.645  0.0979 -0.1265 -0.6496
 7495SOL    HW133944   0.125   1.624   3.648 -0.0216 -2.5759  0.6161
 7495SOL    HW233945   0.009   1.596   3.733  1.5850  1.2468  0.1868
 7496SOL     OW33946   3.452   3.729   3.235  0.1252 -0.1540 -0.3129
 7496SOL    HW133947   3.385   3.796   3.223  0.7004  0.0694 -2.1712
 7496SOL    HW233948   3.410   3.672   3.300  2.1674 -0.4869  0.7139
 7497SOL     OW33949   2.052   1.507   2.710  0.0821  0.5508  0.0838
 7497SOL    HW133950   1.979   1.473   2.659 -0.6169 -0.5772  1.8351
 7497SOL    HW233951   2.017   1.494   2.798 -0.9487 -1.8791 -0.7003
 7498SOL     OW33952   2.231   4.205   0.850 -0.3994  0.5644 -0.2627
 7498SOL    HW133953   2.289   4.281   0.842  0.9167 -0.5379 -1.2918
 7498SOL    HW233954   2.200   4.215   0.760 -0.8921 -0.2009 -0.1722
 7499SOL     OW33955   3.317   4.021   1.781  0.2590  0.8942 -0.2009
 7499SOL    HW133956   3.306   4.073   1.861  0.3542  0.7543 -0.0980
 7499SOL    HW233957   3.247   4.057   1.726  0.4027  0.6010 -0.5738
 7500SOL     OW33958   3.548   4.362   8.836 -0.2018 -0.2879  0.3288
 7500SOL    HW133959   3.470   4.332   8.792  0.2216 -2.9729  1.4350
 7500SOL    HW233960   3.568   4.424   8.765  0.7675  1.0931  1.7993
 7501SOL     OW33961   4.178   4.362   5.265 -0.3379 -0.0039 -0.3601
 7501SOL    HW133962   4.106   4.314   5.224  0.4304 -1.7927  0.3837
 7501SOL    HW233963   4.153   4.449   5.234 -0.3291 -0.2425 -1.0328
 7502SOL     OW33964   4.386   2.695   3.877  0.0192 -0.2449 -0.0789
 7502SOL    HW133965   4.397   2.602   3.856 -1.7036  0.1404 -2.7173
 7502SOL    HW233966   4.317   2.713   3.813 -0.0021 -1.5159 -0.4217
 7503SOL     OW33967   1.718   2.723   4.532 -0.2770  0.3584 -0.5169
 7503SOL    HW133968   1.780   2.667   4.486 -0.8291 -0.7169  0.0438
 7503SOL    HW233969   1.764   2.712   4.615  0.5320 -0.2480 -1.0465
 7504SOL     OW33970   3.869   3.545  11.335 -0.0392  0.1928 -0.3970
 7504SOL    HW133971   3.824   3.482  11.390 -0.0109  0.3196 -0.2286
 7504SOL    HW233972   3.960   3.527  11.360  0.1264  1.5545 -0.0068
 7505SOL     OW33973   4.329   3.878   0.603  0.1567 -0.4449  0.2712
 7505SOL    HW133974   4.348   3.787   0.623 -0.8766 -0.4014  1.4565
 7505SOL    HW233975   4.285   3.896   0.686  0.4569  0.1485  0.3021
 7506SOL     OW33976   2.894   4.457   7.712 -0.2938 -0.0024 -0.2932
 7506SOL    HW133977   2.974   4.506   7.733 -0.1286  0.0842 -1.1421
 7506SOL    HW233978   2.828   4.499   7.768 -0.9700  0.1858 -1.2358
 7507SOL     OW33979   0.775   4.505   4.162 -0.1688  0.6154  1.1355
 7507SOL    HW133980   0.801   4.577   4.105 -0.4568 -0.5496 -0.4847
 7507SOL    HW233981   0.708   4.465   4.106  1.9708  1.3709 -1.9596
 7508SOL     OW33982   2.508   1.061   2.326 -0.6841 -0.4630  0.6213
 7508SOL    HW133983   2.571   0.989   2.326 -0.3484 -0.1954 -1.5860
 7508SOL    HW233984   2.451   1.037   2.253  0.9423 -1.5875 -0.2912
 7509SOL     OW33985   1.486   3.963   7.059  1.1180  0.3224  0.1540
 7509SOL    HW133986   1.463   3.883   7.012 -2.6387  1.7708 -0.4675
 7509SOL    HW233987   1.570   3.934   7.096  0.3135  0.1516  1.8543
 7510SOL     OW33988   4.449   0.412   2.101 -0.3457 -0.3365 -0.3761
 7510SOL    HW133989   4.488   0.494   2.132  0.7624 -2.0437  2.6479
 7510SOL    HW233990   4.362   0.449   2.084  0.3139  0.6160 -1.6994
 7511SOL     OW33991   1.258   1.142   8.856 -0.7180  0.4774  0.4081
 7511SOL    HW133992   1.314   1.118   8.781  0.4862 -1.1650  1.8402
 7511SOL    HW233993   1.208   1.061   8.863 -0.0170 -0.0740 -0.8726
 7512SOL     OW33994   3.927   2.037   8.073  0.1115  0.2460  0.5173
 7512SOL    HW133995   4.007   2.087   8.056  1.3080 -2.0386 -0.6514
 7512SOL    HW233996   3.946   1.944   8.058 -2.4037 -0.0662 -0.8080
 7513SOL     OW33997   2.138   2.540   2.311  0.1944 -0.0811 -0.0906
 7513SOL    HW133998   2.080   2.521   2.385 -1.3520 -0.9336 -1.5117
 7513SOL    HW233999   2.071   2.528   2.243 -1.3713  0.5260  1.3344
 7514SOL     OW34000   1.181   1.867   3.622 -0.1110  0.2156 -0.1660
 7514SOL    HW134001   1.107   1.817   3.655  0.2447  0.9110  1.6587
 7514SOL    HW234002   1.153   1.951   3.657 -0.3354 -0.5888  1.5646
 7515SOL     OW34003   1.477   3.895   8.330 -0.5269 -0.2742 -0.1497
 7515SOL    HW134004   1.451   3.939   8.411  0.2360 -0.8383  0.4030
 7515SOL    HW234005   1.529   3.821   8.362  1.1091  0.9163 -0.0401
 7516SOL     OW34006   1.501   1.570   4.594  0.1560 -0.1075 -0.3339
 7516SOL    HW134007   1.465   1.645   4.641 -1.9260 -1.6299  0.5241
 7516SOL    HW234008   1.438   1.569   4.521  0.7537 -1.3915 -0.8292
 7517SOL     OW34009   1.744   1.784   2.956  0.0180  0.7126  0.1720
 7517SOL    HW134010   1.828   1.751   2.985 -0.0154  2.4104  2.2551
 7517SOL    HW234011   1.754   1.806   2.863  0.8685  0.7800  0.2829
 7518SOL     OW34012   1.261   0.363   4.065 -0.7820 -0.6805 -0.2650
 7518SOL    HW134013   1.166   0.364   4.073 -0.5979  1.9999  1.3912
 7518SOL    HW234014   1.271   0.446   4.019  0.2545 -0.3936  0.4857
 7519SOL     OW34015   4.400   3.830  13.013 -0.4232 -0.1100 -0.2061
 7519SOL    HW134016   4.307   3.815  12.994 -0.3942  0.4038 -0.7490
 7519SOL    HW234017   4.428   3.881  12.937  2.0724 -0.6833  0.3279
 7520SOL     OW34018   1.671   2.628   5.399 -0.1341 -0.0657 -0.3594
 7520SOL    HW134019   1.666   2.672   5.483 -0.9821 -2.2500  0.7237
 7520SOL    HW234020   1.766   2.620   5.394 -0.1061 -0.8329  1.5159
 7521SOL     OW34021   1.046   4.490   0.615  0.0728 -0.0861 -0.4615
 7521SOL    HW134022   1.008   4.433   0.547 -1.1137  2.1659 -1.6840
 7521SOL    HW234023   0.979   4.499   0.682  1.4820 -0.0544  0.9188
 7522SOL     OW34024   0.625   2.462   9.935 -0.0473  0.2319 -0.4610
 7522SOL    HW134025   0.570   2.494   9.864 -0.0920  1.7482  0.2460
 7522SOL    HW234026   0.660   2.541   9.978  0.7084  0.8228 -2.1663
 7523SOL     OW34027   3.920   3.904  12.169 -0.6352  0.6898  0.1965
 7523SOL    HW134028   3.934   3.891  12.075  0.3429  0.6428  0.3468
 7523SOL    HW234029   3.905   3.815  12.201 -2.1806  0.7676 -0.3554
 7524SOL     OW34030   1.414   1.111   3.019 -0.3674  0.5593  0.1384
 7524SOL    HW134031   1.359   1.147   2.949 -0.0099  1.1960  0.1849
 7524SOL    HW234032   1.355   1.041   3.046 -0.3940  0.8085  0.7175
 7525SOL     OW34033   0.515   4.125   7.692 -0.1915  0.2300  0.0129
 7525SOL    HW134034   0.602   4.134   7.654 -0.7747 -1.5398 -1.7444
 7525SOL    HW234035   0.454   4.112   7.619 -2.6257  0.5543  1.9822
 7526SOL     OW34036   3.612   0.806  10.700 -0.2656 -0.1402 -0.9313
 7526SOL    HW134037   3.651   0.878  10.750 -1.2921 -0.5070  0.3994
 7526SOL    HW234038   3.528   0.801  10.745 -1.0063 -1.6860 -2.4960
 7527SOL     OW34039   1.953   4.704   4.079 -0.3545 -0.1291  0.2373
 7527SOL    HW134040   1.938   4.614   4.052 -0.6601  0.5853 -1.9662
 7527SOL    HW234041   2.047   4.719   4.086  0.0182 -1.7523 -1.2579
 7528SOL     OW34042   3.185   0.416   5.459 -0.1148  0.1514  0.7789
 7528SOL    HW134043   3.122   0.488   5.457  0.2923  0.4494 -0.6865
 7528SOL    HW234044   3.214   0.411   5.368 -1.7588 -1.8312  0.3710
 7529SOL     OW34045   0.237   3.315   8.273 -0.6121  0.2395  0.1828
 7529SOL    HW134046   0.249   3.240   8.215  2.1373 -0.3828  1.5723
 7529SOL    HW234047   0.310   3.368   8.243 -1.6099  0.8173 -1.2009
 7530SOL     OW34048   3.765   3.953  17.029 -0.3359 -0.2876  0.7356
 7530SOL    HW134049   3.705   3.930  17.100 -1.9597  0.9873 -0.2191
 7530SOL    HW234050   3.692   3.978  16.972 -0.3567 -0.5091  0.6641
 7531SOL     OW34051   4.328   3.375   9.989 -0.3197 -0.4913 -0.0233
 7531SOL    HW134052   4.350   3.289  10.023  0.1644 -0.1166  0.6090
 7531SOL    HW234053   4.340   3.376   9.894 -0.6492 -0.9781 -0.0660
 7532SOL     OW34054   2.926   1.220   5.320 -0.0892 -0.4995 -0.3967
 7532SOL    HW134055   3.019   1.219   5.297 -0.1944  0.3668 -0.8794
 7532SOL    HW234056   2.912   1.315   5.327  0.0457 -0.7613  3.0722
 7533SOL     OW34057   4.556   0.734  16.316 -0.3869 -0.5285  0.3124
 7533SOL    HW134058   4.549   0.770  16.227  0.4088  0.3259  0.5984
 7533SOL    HW234059   4.620   0.665  16.300  1.7148  1.4484  0.2043
 7534SOL     OW34060   2.799   1.755  16.659  0.1476  0.0942  0.1752
 7534SOL    HW134061   2.834   1.748  16.570  0.1687 -2.2912  0.3780
 7534SOL    HW234062   2.774   1.847  16.670  1.4845  0.4987 -0.1942
 7535SOL     OW34063   0.911   2.810  16.669  0.1922  0.3329  0.6231
 7535SOL    HW134064   0.865   2.745  16.615 -1.8284  3.2453 -1.1439
 7535SOL    HW234065   1.002   2.791  16.643  0.9614  3.3991  1.0476
 7536SOL     OW34066   1.838   0.794   6.237 -0.4248 -0.7073 -0.3402
 7536SOL    HW134067   1.751   0.829   6.220  0.6483  2.2719  0.4157
 7536SOL    HW234068   1.821   0.724   6.300  0.9070 -0.3419  0.4194
 7537SOL     OW34069   2.380   3.496   2.782 -0.3478  0.2642 -0.6749
 7537SOL    HW134070   2.418   3.461   2.863  0.9277 -0.7204 -1.7049
 7537SOL    HW234071   2.452   3.506   2.720 -1.8237  0.6269 -2.3326
 7538SOL     OW34072   2.911   2.138   9.436  0.3020 -0.5583 -0.2413
 7538SOL    HW134073   2.994   2.111   9.475 -0.3882  0.8038  2.1456
 7538SOL    HW234074   2.914   2.228   9.469 -2.9418  0.5699 -3.0168
 7539SOL     OW34075   3.111   2.871  17.263 -0.2768 -0.0320  0.1293
 7539SOL    HW134076   3.189   2.821  17.288 -0.1658 -0.2000 -0.5278
 7539SOL    HW234077   3.095   2.857  17.169  1.6362  1.7336 -0.4734
 7540SOL     OW34078   4.217   2.504   5.422  0.9650  0.1441  0.5152
 7540SOL    HW134079   4.194   2.428   5.474  1.8806 -0.3996  0.1280
 7540SOL    HW234080   4.219   2.570   5.491 -0.5265 -0.4006  1.0735
 7541SOL     OW34081   0.885   1.478   8.060 -0.4138 -1.1354 -1.1148
 7541SOL    HW134082   0.908   1.458   8.150 -0.2151 -0.0939 -0.9346
 7541SOL    HW234083   0.799   1.436   8.053 -0.1678 -1.6382 -1.0935
 7542SOL     OW34084   4.536   0.185   6.252  0.4700  0.0929  0.3944
 7542SOL    HW134085   4.586   0.249   6.303  1.3616  0.5713 -1.0558
 7542SOL    HW234086   4.472   0.240   6.207  0.8799  2.5884  2.8682
 7543SOL     OW34087   3.338   2.143   6.381 -0.4514  0.7455  0.2460
 7543SOL    HW134088   3.419   2.129   6.430  0.6228  0.7345 -1.5383
 7543SOL    HW234089   3.341   2.068   6.321 -3.4931  2.1841 -1.7349
 7544SOL     OW34090   3.910   0.622   6.993 -0.4631 -0.0379  0.0401
 7544SOL    HW134091   3.944   0.700   6.949 -0.1182 -0.5816 -0.6479
 7544SOL    HW234092   3.818   0.645   7.004 -1.1475 -3.3542  1.2207
 7545SOL     OW34093   0.534   3.030   5.866 -0.3430 -0.3871 -0.0717
 7545SOL    HW134094   0.441   3.038   5.845 -0.3130 -1.0570 -0.4728
 7545SOL    HW234095   0.572   3.084   5.797  1.9657  1.0279  2.2994
 7546SOL     OW34096   0.460   1.350   9.664 -0.4302  0.3251 -0.6208
 7546SOL    HW134097   0.426   1.417   9.724  2.1521 -1.5241  2.8594
 7546SOL    HW234098   0.531   1.317   9.719 -1.5553  0.0909  0.6939
 7547SOL     OW34099   2.433   3.351   6.246  0.1207 -0.6046  0.0590
 7547SOL    HW134100   2.432   3.263   6.209  1.6176 -1.3297  1.7351
 7547SOL    HW234101   2.368   3.345   6.316 -0.2289 -0.1547 -0.2271
 7548SOL     OW34102   3.833   3.950   8.703 -0.0468 -0.6304  0.0579
 7548SOL    HW134103   3.819   3.856   8.709  0.3639 -0.5728  1.9439
 7548SOL    HW234104   3.905   3.962   8.641 -0.8721 -2.3269 -1.2200
 7549SOL     OW34105   1.648   2.398   1.653  0.3600 -0.4518 -0.0670
 7549SOL    HW134106   1.683   2.373   1.568  0.0901  3.6555 -1.3853
 7549SOL    HW234107   1.591   2.472   1.633 -1.5947 -1.6344  1.1809
 7550SOL     OW34108   0.239   3.796  10.235  0.0750 -0.2394  0.1036
 7550SOL    HW134109   0.281   3.750  10.308  1.2022 -0.8230 -0.8945
 7550SOL    HW234110   0.181   3.727  10.203  0.3339 -0.2712 -0.3072
 7551SOL     OW34111   2.427   1.966   7.980 -0.5907 -0.3778  0.2338
 7551SOL    HW134112   2.496   1.965   7.914 -2.0932 -0.4991 -1.3397
 7551SOL    HW234113   2.432   2.040   8.040 -1.2806 -0.8085  0.8307
 7552SOL     OW34114   0.844   0.675   3.075 -0.3426  0.0887 -0.0498
 7552SOL    HW134115   0.763   0.712   3.039  0.6294  2.3432  0.1369
 7552SOL    HW234116   0.850   0.714   3.162 -0.0118  0.8827 -0.4284
 7553SOL     OW34117   0.408   0.418   3.931  0.4594  0.1264  0.4597
 7553SOL    HW134118   0.333   0.372   3.969  0.8250 -1.9910 -1.3984
 7553SOL    HW234119   0.405   0.376   3.845 -1.7089  0.4586  0.3884
 7554SOL     OW34120   3.467   0.489   8.220  0.1637  0.4971 -0.4763
 7554SOL    HW134121   3.511   0.473   8.137 -0.9048 -0.3673 -0.8664
 7554SOL    HW234122   3.446   0.580   8.197  1.4178  0.1615 -2.9440
 7555SOL     OW34123   3.745   4.689   7.758 -0.1383 -0.3298 -0.0350
 7555SOL    HW134124   3.711   4.600   7.769 -3.0162  0.4729 -2.4645
 7555SOL    HW234125   3.688   4.703   7.682  0.3007 -0.8901 -0.4775
 7556SOL     OW34126   0.488   1.523  13.049 -0.4118  0.6534 -0.4021
 7556SOL    HW134127   0.426   1.568  13.106  0.9859 -0.9817  2.4065
 7556SOL    HW234128   0.550   1.595  13.038  1.8981 -1.5092 -1.5243
 7557SOL     OW34129   0.677   2.754  12.905 -0.6491  0.1805  0.5453
 7557SOL    HW134130   0.744   2.740  12.973  0.6010  0.3117 -0.6594
 7557SOL    HW234131   0.687   2.687  12.837  0.7211  0.4684  0.4631
 7558SOL     OW34132   3.781   3.719   3.097 -0.2344  0.1527  0.4964
 7558SOL    HW134133   3.723   3.643   3.094 -2.1965  1.6482  1.4101
 7558SOL    HW234134   3.834   3.705   3.176 -0.9820 -1.2260  0.7603
 7559SOL     OW34135   2.587   1.619  11.793  0.6101  0.0530  0.0309
 7559SOL    HW134136   2.552   1.626  11.705  1.1738  0.7831 -0.1320
 7559SOL    HW234137   2.650   1.547  11.788 -0.5265 -0.8521 -1.1264
 7560SOL     OW34138   0.628   3.786   3.016 -0.1033 -0.1106  0.1759
 7560SOL    HW134139   0.566   3.778   2.944 -1.2338  2.7930  0.8435
 7560SOL    HW234140   0.710   3.799   2.970 -0.8756  1.7875 -0.6745
 7561SOL     OW34141   3.674   0.018  15.453  0.0475 -0.6766 -1.0059
 7561SOL    HW134142   3.688   4.669  15.392  1.2747 -1.1428 -0.1686
 7561SOL    HW234143   3.605   0.060  15.402 -1.7518 -2.1650  0.2338
 7562SOL     OW34144   1.038   2.199   7.572  0.5433  0.0118  0.2756
 7562SOL    HW134145   1.069   2.115   7.607  2.8521  1.6495  2.0802
 7562SOL    HW234146   1.125   2.235   7.558  0.3924 -0.5020 -1.9966
 7563SOL     OW34147   0.050   0.092  13.029  0.5925  0.0639  0.2572
 7563SOL    HW134148   0.072   0.180  13.060 -1.7134  1.5830 -2.4946
 7563SOL    HW234149   0.098   0.042  13.096  0.7580 -0.5010 -0.2864
 7564SOL     OW34150   1.197   4.094   3.334  0.6378  0.5731 -0.1377
 7564SOL    HW134151   1.185   4.021   3.396  0.2251  0.3604 -0.4646
 7564SOL    HW234152   1.164   4.172   3.378  0.2403 -0.5204  1.4886
 7565SOL     OW34153   0.786   4.254   8.337 -0.6574  0.4927  0.5148
 7565SOL    HW134154   0.844   4.181   8.359 -3.2495 -1.7391 -0.0413
 7565SOL    HW234155   0.712   4.216   8.289  1.1414 -1.1606 -0.9467
 7566SOL     OW34156   1.120   1.089   2.259  0.3383 -0.1844 -0.6832
 7566SOL    HW134157   1.121   1.151   2.332 -1.3970 -1.5065  0.4504
 7566SOL    HW234158   1.183   1.026   2.294 -0.2325 -1.4313 -1.9086
 7567SOL     OW34159   3.762   1.107  15.910 -0.0934 -0.1946 -0.4109
 7567SOL    HW134160   3.775   1.175  15.843 -1.5434 -1.5062 -2.0452
 7567SOL    HW234161   3.792   1.154  15.988  0.2819  0.2215 -0.8074
 7568SOL     OW34162   4.495   1.913   7.466  0.3138  0.2517 -0.2369
 7568SOL    HW134163   4.528   1.860   7.393  0.1268 -1.5519  0.9736
 7568SOL    HW234164   4.423   1.958   7.421 -0.5903 -0.8776  0.0579
 7569SOL     OW34165   2.082   2.715   7.536 -0.4132 -0.3345 -0.1109
 7569SOL    HW134166   2.102   2.728   7.629  0.5575  0.7260 -0.4641
 7569SOL    HW234167   2.120   2.629   7.515  0.1471 -0.5139  1.6245
 7570SOL     OW34168   2.289   0.024   0.876  0.0463  0.2351 -0.2484
 7570SOL    HW134169   2.216   0.085   0.874 -1.0230 -1.0495 -0.1888
 7570SOL    HW234170   2.358   0.072   0.829 -0.6265  0.5340 -0.9322
 7571SOL     OW34171   3.806   2.161   2.311 -0.0456 -0.4942 -0.4645
 7571SOL    HW134172   3.824   2.151   2.218 -1.1122 -1.9140 -0.5082
 7571SOL    HW234173   3.713   2.186   2.305 -0.0410 -0.0573  1.2127
 7572SOL     OW34174   0.557   0.358   1.136 -0.8435  0.2604  0.2268
 7572SOL    HW134175   0.630   0.419   1.151 -0.2251 -0.1616 -1.0410
 7572SOL    HW234176   0.546   0.317   1.221  1.3972  1.2328  1.0062
 7573SOL     OW34177   2.590   1.374   6.576  0.3691 -0.0636  0.0406
 7573SOL    HW134178   2.544   1.381   6.659 -0.3268 -0.4235 -0.3130
 7573SOL    HW234179   2.534   1.316   6.525  1.4256 -0.0135 -1.1962
 7574SOL     OW34180   0.502   1.296  13.303 -0.3041  0.3137 -0.1649
 7574SOL    HW134181   0.410   1.297  13.276 -0.4018 -2.6920 -0.0241
 7574SOL    HW234182   0.491   1.280  13.397  0.0664 -0.4568 -0.2499
 7575SOL     OW34183   3.106   0.050   2.974 -0.7952  0.4770 -0.0463
 7575SOL    HW134184   3.075   4.708   2.912  1.5256 -0.0884 -0.5955
 7575SOL    HW234185   3.090   0.128   2.920  0.6268 -0.2368 -1.4954
 7576SOL     OW34186   3.663   0.461   8.388  0.1684 -0.6940 -0.3955
 7576SOL    HW134187   3.705   0.541   8.358 -1.5612  0.5777  0.6100
 7576SOL    HW234188   3.572   0.461   8.359  0.4074  1.7804 -1.1030
 7577SOL     OW34189   1.994   2.477   4.403 -0.3039  0.0913 -0.2627
 7577SOL    HW134190   2.039   2.395   4.384 -0.2582  0.5715 -2.2144
 7577SOL    HW234191   2.059   2.537   4.365 -1.2873  0.5137 -1.2987
 7578SOL     OW34192   3.465   4.637   8.950 -0.2764  0.2205 -0.2307
 7578SOL    HW134193   3.480   4.556   8.997 -3.3569 -0.2302 -0.0692
 7578SOL    HW234194   3.547   4.659   8.905 -0.9620  1.2528 -0.9837
 7579SOL     OW34195   2.126   4.336  15.163  0.1034  0.7676 -0.2828
 7579SOL    HW134196   2.189   4.290  15.219  0.5824 -1.0609 -2.3074
 7579SOL    HW234197   2.091   4.397  15.227  1.6719 -0.7074  1.9959
 7580SOL     OW34198   0.139   0.293   2.162  0.2988  0.5227 -0.0714
 7580SOL    HW134199   0.156   0.350   2.237  3.2695  0.2950 -0.5731
 7580SOL    HW234200   0.227   0.271   2.130  0.8173  1.2194  0.8774
 7581SOL     OW34201   0.419   4.630  12.261 -0.1267  0.0155 -0.3335
 7581SOL    HW134202   0.462   4.667  12.338  3.1140 -1.4375 -1.4215
 7581SOL    HW234203   0.440   4.691  12.189 -0.0110  2.1681  1.5285
 7582SOL     OW34204   0.912   2.278   6.407  0.5152  0.1111 -0.1704
 7582SOL    HW134205   0.934   2.190   6.436 -1.1473 -0.3123 -0.1892
 7582SOL    HW234206   0.819   2.284   6.427  0.9077 -2.7701  2.4987
 7583SOL     OW34207   2.851   3.764   2.511 -0.2941 -0.6771  0.2210
 7583SOL    HW134208   2.905   3.695   2.472 -1.1675 -0.0431 -2.1618
 7583SOL    HW234209   2.779   3.770   2.448 -1.6157 -0.0815  1.8052
 7584SOL     OW34210   2.960   2.557   2.472 -0.4567  0.0939  0.0782
 7584SOL    HW134211   2.939   2.585   2.383 -1.1036  2.5311  0.9982
 7584SOL    HW234212   2.870   2.529   2.489 -0.0023 -2.0053 -0.9605
 7585SOL     OW34213   4.211   0.917   5.534 -0.1173  0.2857 -0.2630
 7585SOL    HW134214   4.293   0.875   5.559 -0.4005  0.7746  1.4763
 7585SOL    HW234215   4.207   0.976   5.610 -2.2101  0.9994 -0.9234
 7586SOL     OW34216   0.172   0.417   4.180 -0.3483  0.1182 -0.1955
 7586SOL    HW134217   0.260   0.394   4.208 -0.0558  0.7672 -0.5931
 7586SOL    HW234218   0.178   0.512   4.185  0.0500  0.1410 -1.2766
 7587SOL     OW34219   4.147   1.781  16.739  0.5654  0.0963 -0.2443
 7587SOL    HW134220   4.220   1.835  16.710  0.8609  0.1114  0.5431
 7587SOL    HW234221   4.130   1.830  16.819 -0.6381  0.8425 -0.9525
 7588SOL     OW34222   2.113   3.468  14.726 -0.2013  0.3445  0.4866
 7588SOL    HW134223   2.167   3.462  14.805 -0.7326  0.9723  0.8963
 7588SOL    HW234224   2.055   3.542  14.744 -0.0462  1.0327 -1.8391
 7589SOL     OW34225   2.579   1.115   4.086 -0.6430 -0.0367  0.9024
 7589SOL    HW134226   2.532   1.057   4.146  0.8093 -0.6257  1.4644
 7589SOL    HW234227   2.513   1.124   4.017  0.3851 -0.5069 -0.1404
 7590SOL     OW34228   2.849   3.905   8.055  0.1851 -0.2607  0.7413
 7590SOL    HW134229   2.810   3.942   7.976  0.5676 -3.0184 -0.7624
 7590SOL    HW234230   2.774   3.890   8.113  0.6104 -0.1827  1.3049
 7591SOL     OW34231   4.451   0.752   6.473 -0.2951 -0.9534 -0.2020
 7591SOL    HW134232   4.432   0.659   6.485 -1.2266 -0.6730  0.4840
 7591SOL    HW234233   4.536   0.758   6.517 -0.7198  0.5953  0.4052
 7592SOL     OW34234   4.269   2.711  16.197 -0.4657 -0.4122  0.2797
 7592SOL    HW134235   4.287   2.682  16.108  0.9670  0.7269  0.1916
 7592SOL    HW234236   4.217   2.633  16.218  0.4649 -1.4685 -1.3780
 7593SOL     OW34237   3.555   4.271  12.099  0.3372  0.3653  0.0937
 7593SOL    HW134238   3.512   4.309  12.175 -1.2258 -1.3437  0.0640
 7593SOL    HW234239   3.612   4.212  12.149 -0.3487 -0.3900 -0.0075
 7594SOL     OW34240   4.346   3.313   3.281  0.1555 -0.5031 -0.1021
 7594SOL    HW134241   4.295   3.239   3.314 -1.0286  0.6663  0.6490
 7594SOL    HW234242   4.282   3.378   3.253 -0.1824 -0.7477  0.1036
 7595SOL     OW34243   1.329   1.847   2.587  0.4502  0.4029  0.2268
 7595SOL    HW134244   1.330   1.824   2.493  1.9079  1.4998 -0.0202
 7595SOL    HW234245   1.245   1.892   2.592  0.3844  0.1799  0.9913
 7596SOL     OW34246   2.316   0.749   7.947  0.3047  0.3889 -0.1050
 7596SOL    HW134247   2.297   0.810   8.018  2.0999  0.4523  0.3377
 7596SOL    HW234248   2.261   0.680   7.984 -4.8424  2.7714 -3.4808
 7597SOL     OW34249   1.579   3.910  15.872  0.0373 -0.3382  0.7132
 7597SOL    HW134250   1.663   3.865  15.882  0.4302  0.3029  0.2653
 7597SOL    HW234251   1.607   3.997  15.900 -0.5806 -0.0822  0.5308
 7598SOL     OW34252   0.285   3.354   5.233  0.3006  0.4481  0.0445
 7598SOL    HW134253   0.249   3.379   5.318 -2.7232 -1.0704 -0.7652
 7598SOL    HW234254   0.232   3.276   5.213  0.9159 -0.0050  0.1995
 7599SOL     OW34255   1.234   4.430   5.150  0.5414 -1.3560 -0.1462
 7599SOL    HW134256   1.226   4.411   5.057  2.5559  3.3711 -1.2906
 7599SOL    HW234257   1.218   4.524   5.151  1.3241 -1.2094 -1.0668
 7600SOL     OW34258   0.275   2.951   3.317  0.2752  0.6140 -0.2742
 7600SOL    HW134259   0.290   2.965   3.223 -2.0553 -1.2051 -0.9190
 7600SOL    HW234260   0.365   2.940   3.349  0.7344  2.2768 -0.9804
 7601SOL     OW34261   2.982   2.329   3.695 -0.3054  0.5660 -0.4250
 7601SOL    HW134262   3.013   2.391   3.629 -0.0768  1.7320  0.7740
 7601SOL    HW234263   2.945   2.396   3.753 -0.2081 -0.7039  1.0987
 7602SOL     OW34264   0.218   1.569   6.585  0.6707 -0.4977 -0.0885
 7602SOL    HW134265   0.150   1.526   6.533 -1.3317  0.9233  1.4067
 7602SOL    HW234266   0.298   1.516   6.585  0.6003 -0.5941  0.6211
 7603SOL     OW34267   1.710   1.720  13.943  0.3245 -0.2342  0.1543
 7603SOL    HW134268   1.646   1.744  13.875  0.8942 -3.6304 -1.5466
 7603SOL    HW234269   1.770   1.791  13.922  0.8465 -0.3400  1.3062
 7604SOL     OW34270   4.271   1.560   9.056  0.3460 -0.5527 -1.0306
 7604SOL    HW134271   4.265   1.604   8.970 -0.7718  1.4062  0.0374
 7604SOL    HW234272   4.194   1.588   9.106  1.9501  0.2561  0.9495
 7605SOL     OW34273   1.196   4.563  12.528  0.2638  0.2641 -0.2834
 7605SOL    HW134274   1.131   4.554  12.597  2.3531 -1.0263  1.4852
 7605SOL    HW234275   1.281   4.563  12.571  0.2664  0.3433 -0.2881
 7606SOL     OW34276   1.308   3.494   8.627 -0.1043  0.2623  0.2640
 7606SOL    HW134277   1.257   3.421   8.594  0.3695  0.1476 -0.2025
 7606SOL    HW234278   1.381   3.454   8.674  0.8664 -0.4084 -1.8204
 7607SOL     OW34279   4.255   1.696   4.211  0.0661 -0.6909  0.3946
 7607SOL    HW134280   4.214   1.759   4.270  1.9868  2.6011 -1.7944
 7607SOL    HW234281   4.300   1.646   4.279 -1.1072 -1.1419  0.8395
 7608SOL     OW34282   3.209   4.516   2.815 -0.5706 -0.0037  0.1805
 7608SOL    HW134283   3.180   4.431   2.848  2.0229 -1.6153 -1.7033
 7608SOL    HW234284   3.303   4.505   2.830 -0.3828 -0.6602 -1.4467
 7609SOL     OW34285   0.158   3.140  16.249  0.4707 -0.6304  0.7787
 7609SOL    HW134286   0.122   3.136  16.337 -0.5430  1.6328  0.4688
 7609SOL    HW234287   0.149   3.235  16.237 -0.4269 -0.7875  0.2099
 7610SOL     OW34288   2.145   3.990   1.208  0.2448 -0.7126  0.0621
 7610SOL    HW134289   2.101   3.966   1.289 -1.5661  1.8308 -0.1719
 7610SOL    HW234290   2.221   3.932   1.205  2.9027  2.7523  0.9487
 7611SOL     OW34291   1.429   0.225  11.174  0.2111  0.1097  0.1181
 7611SOL    HW134292   1.516   0.262  11.160  0.1828  0.1747  0.1110
 7611SOL    HW234293   1.433   0.150  11.115 -3.4223  0.2355 -0.2862
 7612SOL     OW34294   3.797   3.442   7.053 -0.3152  0.3454 -0.1053
 7612SOL    HW134295   3.708   3.456   7.019  0.8299  0.5792 -2.9909
 7612SOL    HW234296   3.839   3.401   6.977  0.2472 -2.2185  1.6015
 7613SOL     OW34297   0.698   2.103   8.293  0.6876  0.0873  0.2955
 7613SOL    HW134298   0.764   2.041   8.261 -0.5774 -1.8727  1.5345
 7613SOL    HW234299   0.713   2.079   8.384  1.3157  2.6817  0.8702
 7614SOL     OW34300   0.757   2.898   5.099  0.0345 -0.2240 -0.1162
 7614SOL    HW134301   0.827   2.865   5.042 -1.4086 -2.1119 -0.8130
 7614SOL    HW234302   0.737   2.976   5.048  0.7686  0.5473  0.7703
 7615SOL     OW34303   3.519   3.092   3.575  0.1447  0.4939  0.1122
 7615SOL    HW134304   3.596   3.141   3.545  1.0717 -0.9459  0.0953
 7615SOL    HW234305   3.497   3.048   3.493  2.6342  0.8109 -0.7428
 7616SOL     OW34306   3.707   3.812   4.684  0.0761  0.1623  0.3231
 7616SOL    HW134307   3.637   3.811   4.749  0.4176 -1.7460  0.6705
 7616SOL    HW234308   3.688   3.890   4.632 -1.3883 -1.0364 -0.8989
 7617SOL     OW34309   1.423   3.357   3.391 -0.1014 -0.3185  0.3192
 7617SOL    HW134310   1.387   3.317   3.470  0.3837  2.3211  1.8661
 7617SOL    HW234311   1.491   3.296   3.363  0.0439 -0.4480  0.9501
 7618SOL     OW34312   0.563   0.521   5.764  0.2736 -0.4993 -0.3579
 7618SOL    HW134313   0.599   0.609   5.778 -0.2580  0.0581 -2.4728
 7618SOL    HW234314   0.471   0.534   5.786  0.1508  0.4307 -1.4267
 7619SOL     OW34315   2.756   1.089   5.475 -0.3790 -0.5413 -0.1693
 7619SOL    HW134316   2.760   1.154   5.545 -1.3805 -1.5490  0.8307
 7619SOL    HW234317   2.815   1.132   5.413 -0.2467  0.9924  1.0133
 7620SOL     OW34318   2.806   2.523   7.401 -0.8872  0.0656 -0.8823
 7620SOL    HW134319   2.810   2.458   7.331 -0.4270  0.2226 -1.0058
 7620SOL    HW234320   2.871   2.581   7.362 -0.8862  2.6020  2.8866
 7621SOL     OW34321   1.987   1.170   4.063  0.4145 -0.2347 -0.1565
 7621SOL    HW134322   1.923   1.239   4.080  1.2173  0.7978 -1.3052
 7621SOL    HW234323   2.058   1.207   4.117  0.9074  1.2508 -1.8233
 7622SOL     OW34324   0.812   3.540   1.850  0.1083 -0.5854 -0.2540
 7622SOL    HW134325   0.817   3.628   1.886  0.3224  0.0026 -1.7369
 7622SOL    HW234326   0.723   3.536   1.814  0.5026  0.4533 -1.3292
 7623SOL     OW34327   2.955   0.284   2.549 -0.6587 -0.3105  0.5182
 7623SOL    HW134328   2.997   0.280   2.635  0.3108 -1.0795  0.0111
 7623SOL    HW234329   2.993   0.215   2.495 -2.0687 -1.2839  0.7729
 7624SOL     OW34330   4.101   4.498   0.122  0.4415 -0.1938  0.3522
 7624SOL    HW134331   4.131   4.524   0.035  1.3092 -1.8847  0.1571
 7624SOL    HW234332   4.044   4.571   0.145 -0.2043 -0.8582  0.8516
 7625SOL     OW34333   2.455   3.188  10.629 -0.1577 -0.3943  0.9529
 7625SOL    HW134334   2.500   3.248  10.688 -0.9557  2.1256 -0.9684
 7625SOL    HW234335   2.389   3.161  10.693 -0.0921  0.6908  1.4790
 7626SOL     OW34336   2.128   3.607  16.659  0.4274  0.4369 -0.3866
 7626SOL    HW134337   2.192   3.653  16.714  0.8054 -2.3629  1.4900
 7626SOL    HW234338   2.148   3.648  16.575  3.7060 -0.2089  0.1017
 7627SOL     OW34339   0.131   0.537   5.582  0.2726 -0.4961  0.5238
 7627SOL    HW134340   0.077   0.462   5.560  1.4102 -0.9167 -0.7861
 7627SOL    HW234341   0.078   0.576   5.652  0.2625  0.4650 -0.0097
 7628SOL     OW34342   4.716   0.922   5.239 -0.4688  0.1275  0.0686
 7628SOL    HW134343   4.647   0.917   5.305 -1.0454  0.6878 -0.5046
 7628SOL    HW234344   4.677   0.977   5.171 -0.9921  0.5030  0.6777
 7629SOL     OW34345   1.066   0.306   8.587  0.2244  0.1059  0.3731
 7629SOL    HW134346   1.138   0.369   8.596  1.0954 -1.0407  1.4683
 7629SOL    HW234347   0.986   0.357   8.577  0.1595 -0.3907 -1.7122
 7630SOL     OW34348   1.371   2.230   2.990  0.2596  0.5811  0.3619
 7630SOL    HW134349   1.411   2.218   2.904  0.8155 -0.1791  0.7312
 7630SOL    HW234350   1.291   2.279   2.972 -0.4498 -0.3903  0.8890
 7631SOL     OW34351   2.734   1.660  13.514 -0.4452 -0.1852 -0.0498
 7631SOL    HW134352   2.689   1.587  13.473  0.3646  0.0603 -1.3588
 7631SOL    HW234353   2.669   1.698  13.573 -0.2008 -1.6424  1.1391
 7632SOL     OW34354   4.396   3.713   8.905  0.9148  0.4883 -0.3400
 7632SOL    HW134355   4.459   3.678   8.843  1.4385 -1.4154  1.2836
 7632SOL    HW234356   4.382   3.802   8.872  1.6011  0.3878 -0.8959
 7633SOL     OW34357   2.245   2.454   1.209  0.4181 -0.3787  0.0844
 7633SOL    HW134358   2.258   2.405   1.128  1.0876 -0.0861  0.0106
 7633SOL    HW234359   2.315   2.416   1.262 -0.6850  1.2980  2.7480
 7634SOL     OW34360   0.269   4.052   0.689  0.2293  0.1239  0.8050
 7634SOL    HW134361   0.228   3.965   0.687  3.2656 -1.2807 -0.5601
 7634SOL    HW234362   0.276   4.074   0.596 -1.5760  0.0516  0.6390
 7635SOL     OW34363   0.668   3.148  14.471 -0.0646  0.6177 -0.5114
 7635SOL    HW134364   0.589   3.139  14.524  0.3321 -0.5540 -0.1096
 7635SOL    HW234365   0.671   3.057  14.443  1.4960  1.6912 -3.7807
 7636SOL     OW34366   4.155   0.643  17.395  0.0014 -0.2275 -0.0003
 7636SOL    HW134367   4.165   0.552  17.367 -1.5636 -0.1161 -0.9504
 7636SOL    HW234368   4.126   0.614  17.482 -1.5703 -0.1136 -0.4732
 7637SOL     OW34369   2.177   3.230   0.449  0.6509 -0.1736 -0.6137
 7637SOL    HW134370   2.156   3.246   0.541  2.1879 -0.2489 -0.2526
 7637SOL    HW234371   2.269   3.206   0.454  0.3109 -1.1057  1.1929
 7638SOL     OW34372   2.647   0.106  12.429  0.8888 -0.1073 -0.0440
 7638SOL    HW134373   2.612   0.049  12.498 -2.3561 -0.7472 -2.2221
 7638SOL    HW234374   2.585   0.098  12.357 -0.1159 -2.3638  1.0834
 7639SOL     OW34375   0.667   0.475   0.466  0.2177  0.3398  0.5102
 7639SOL    HW134376   0.630   0.446   0.383  0.0215  3.4591 -0.4760
 7639SOL    HW234377   0.650   0.398   0.521  0.8231 -0.6406 -0.6816
 7640SOL     OW34378   3.407   4.152   8.219  1.1134  0.1599 -0.1868
 7640SOL    HW134379   3.339   4.124   8.157 -1.4992  0.9093  2.3490
 7640SOL    HW234380   3.362   4.229   8.253 -1.5904 -1.0955 -0.9290
 7641SOL     OW34381   1.028   4.405   8.930  0.3373 -0.5252 -0.1933
 7641SOL    HW134382   1.056   4.404   9.022  0.7358 -2.8330 -0.3500
 7641SOL    HW234383   1.110   4.432   8.888  0.0682 -1.5630 -1.3739
 7642SOL     OW34384   3.219   2.121   5.199  0.2188 -0.0202 -0.5938
 7642SOL    HW134385   3.294   2.127   5.140 -0.4244 -1.3753 -1.5618
 7642SOL    HW234386   3.262   2.118   5.284 -0.0502 -3.1310 -0.5671
 7643SOL     OW34387   2.956   3.223   4.256 -0.6547 -0.1220  0.6593
 7643SOL    HW134388   2.866   3.254   4.262 -0.3686  0.7220  0.6711
 7643SOL    HW234389   2.983   3.265   4.338  1.2879 -1.0757  0.5062
 7644SOL     OW34390   2.628   0.990  11.367 -0.2915 -0.4466  0.4039
 7644SOL    HW134391   2.651   1.078  11.338  1.2137  0.7304  5.1454
 7644SOL    HW234392   2.683   0.963  11.440 -0.0775  0.7799  0.6985
 7645SOL     OW34393   0.645   1.584   6.602 -0.3191 -0.5488 -0.1327
 7645SOL    HW134394   0.581   1.516   6.623  0.0392 -1.4639 -2.0381
 7645SOL    HW234395   0.630   1.580   6.508  0.2687 -0.9322 -0.2063
 7646SOL     OW34396   3.654   1.758   5.686  0.8162 -0.3632  0.5242
 7646SOL    HW134397   3.636   1.747   5.779 -0.5376  1.0462  0.4454
 7646SOL    HW234398   3.736   1.709   5.678  2.2053  2.1111 -0.4459
 7647SOL     OW34399   3.393   0.285   9.818  0.3219 -0.1049  0.1161
 7647SOL    HW134400   3.340   0.227   9.872 -1.2309  1.2406  0.0389
 7647SOL    HW234401   3.343   0.362   9.843  0.6093 -0.0953  0.6590
 7648SOL     OW34402   0.238   4.201  14.009  0.1943  0.6522  0.3098
 7648SOL    HW134403   0.319   4.154  14.027 -1.0329 -1.6726 -0.1767
 7648SOL    HW234404   0.244   4.210  13.913 -0.8515 -5.5383 -0.3518
 7649SOL     OW34405   4.578   4.667   8.279 -0.2243  0.5406 -0.2681
 7649SOL    HW134406   4.501   4.698   8.232  0.2158  1.4851 -0.3773
 7649SOL    HW234407   4.556   4.575   8.270 -0.6616  0.3908  2.3296
 7650SOL     OW34408   2.388   4.028  16.580  0.2739 -0.3240 -0.0365
 7650SOL    HW134409   2.410   3.942  16.615  1.7665  0.4721  0.9855
 7650SOL    HW234410   2.393   4.018  16.485  1.9012  2.8758 -0.2801
 7651SOL     OW34411   1.396   2.300   6.339 -0.6951 -0.7489  0.0220
 7651SOL    HW134412   1.345   2.290   6.259 -0.1445 -2.8785 -0.0850
 7651SOL    HW234413   1.471   2.253   6.303 -1.7608 -1.9059 -0.6908
 7652SOL     OW34414   0.355   3.757   6.729  0.1670  0.1208 -0.4063
 7652SOL    HW134415   0.445   3.764   6.695  0.2527  1.1731  0.0350
 7652SOL    HW234416   0.308   3.809   6.664 -1.3466 -0.5413  0.1696
 7653SOL     OW34417   2.356   2.073  15.270  0.6034 -0.2435  0.0206
 7653SOL    HW134418   2.395   2.105  15.352 -0.5666 -0.4197  0.6399
 7653SOL    HW234419   2.398   2.124  15.201 -0.4271  1.2995  0.5561
 7654SOL     OW34420   1.002   0.789   5.365 -0.3281  0.2612 -0.5709
 7654SOL    HW134421   1.044   0.830   5.290  0.7448  2.3049  1.1284
 7654SOL    HW234422   1.045   0.835   5.438 -1.9627 -1.7180  1.6343
 7655SOL     OW34423   3.114   0.601   4.044  0.1311  0.3072  0.0631
 7655SOL    HW134424   3.043   0.543   4.072  1.5484 -0.8789  1.2002
 7655SOL    HW234425   3.071   0.684   4.023 -0.7257 -0.4605 -1.1975
 7656SOL     OW34426   1.116   3.260   4.715  0.3021 -0.0630 -0.2800
 7656SOL    HW134427   1.127   3.333   4.776 -0.0841  0.0470 -0.3416
 7656SOL    HW234428   1.022   3.266   4.696  0.1950 -1.1387 -0.0984
 7657SOL     OW34429   3.765   2.557   4.038  0.0029 -0.5290 -0.1789
 7657SOL    HW134430   3.854   2.588   4.020 -0.2002  0.7174  0.9920
 7657SOL    HW234431   3.725   2.598   3.961  0.1456  1.0202  0.5768
 7658SOL     OW34432   1.687   4.353   4.648  0.4891 -0.3137 -0.5055
 7658SOL    HW134433   1.644   4.414   4.587 -0.4005 -1.7822 -1.3267
 7658SOL    HW234434   1.778   4.362   4.619  0.6700  0.7248  0.3795
 7659SOL     OW34435   1.557   0.279   7.445  0.5159  0.1113 -0.5884
 7659SOL    HW134436   1.587   0.311   7.360 -1.7031 -4.4026 -3.1342
 7659SOL    HW234437   1.555   0.364   7.488  3.3877  0.5090 -1.2465
 7660SOL     OW34438   3.437   3.212   4.453  0.3015 -0.0134 -0.3411
 7660SOL    HW134439   3.381   3.196   4.529 -0.8695  1.0768 -0.9616
 7660SOL    HW234440   3.380   3.167   4.390  1.1711  0.8465 -1.7396
 7661SOL     OW34441   1.088   1.236   0.044 -0.1070 -0.0202  0.5914
 7661SOL    HW134442   1.137   1.299   0.097  0.8520 -1.2012  1.1152
 7661SOL    HW234443   1.097   1.155   0.094 -0.6980  0.4231  1.4219
 7662SOL     OW34444   4.600   1.006   3.491 -0.2412 -0.5489 -0.1449
 7662SOL    HW134445   4.606   1.075   3.425  1.1647  0.5774  1.1603
 7662SOL    HW234446   4.509   0.975   3.484  0.9601 -3.9047 -1.1911
 7663SOL     OW34447   3.247   0.310  15.785 -0.0867 -0.6145 -0.1909
 7663SOL    HW134448   3.260   0.403  15.767  0.2492 -0.6250 -0.0010
 7663SOL    HW234449   3.299   0.281  15.710  1.1599  1.0545  0.0270
 7664SOL     OW34450   1.107   4.636   7.995  0.7434 -0.0704  0.1684
 7664SOL    HW134451   1.107   4.541   8.007 -0.7162 -0.5081 -3.2705
 7664SOL    HW234452   1.144   4.636   7.907  0.7475 -2.0764  0.1602
 7665SOL     OW34453   4.109   2.539   2.438  0.5115  0.6192 -0.2961
 7665SOL    HW134454   4.064   2.619   2.466 -2.4306 -0.8046 -0.9298
 7665SOL    HW234455   4.118   2.561   2.345  1.3235 -1.4699 -0.7068
 7666SOL     OW34456   0.826   1.951   0.145  0.4706  0.3516  0.1730
 7666SOL    HW134457   0.847   1.868   0.188 -0.4380  1.1499  2.1485
 7666SOL    HW234458   0.744   1.925   0.103 -0.1297 -1.1204  2.2449
 7667SOL     OW34459   1.924   4.201  12.196 -0.1138 -0.8465  0.3087
 7667SOL    HW134460   1.904   4.230  12.107  0.3345 -0.1743  0.4336
 7667SOL    HW234461   1.928   4.106  12.181  2.1983 -0.6246 -0.4557
 7668SOL     OW34462   4.719   2.456   6.812  0.0679  0.1418 -0.5520
 7668SOL    HW134463   4.633   2.496   6.808  0.9945  2.2160  0.0889
 7668SOL    HW234464   0.008   2.446   6.717 -0.1700  0.9511 -0.6623
 7669SOL     OW34465   4.581   2.247   4.468 -0.2747 -0.0605  0.3051
 7669SOL    HW134466   4.492   2.221   4.491 -0.9011  2.1392  0.3665
 7669SOL    HW234467   4.564   2.338   4.444  0.3973 -0.4649 -1.7413
 7670SOL     OW34468   4.541   4.002   9.747 -0.5797  0.0088  0.0039
 7670SOL    HW134469   4.635   3.997   9.761 -0.2032  1.1259 -2.2071
 7670SOL    HW234470   4.502   3.990   9.834  0.1751 -0.4557  0.2853
 7671SOL     OW34471   0.591   1.952   2.534 -0.1947  0.2250  0.1592
 7671SOL    HW134472   0.600   1.947   2.629  0.9286 -0.5183  0.0116
 7671SOL    HW234473   0.616   1.862   2.513 -0.7617  0.2682 -0.7187
 7672SOL     OW34474   0.275   1.222   8.973 -0.6415  0.3384 -0.3971
 7672SOL    HW134475   0.342   1.170   9.016  0.8041  0.3368 -2.6205
 7672SOL    HW234476   0.327   1.300   8.951  1.5377 -0.8860  0.4818
 7673SOL     OW34477   2.720   0.400  12.232  0.3079 -0.2598  0.3542
 7673SOL    HW134478   2.770   0.330  12.190 -1.5111 -2.3523  1.7349
 7673SOL    HW234479   2.724   0.466  12.162 -1.7836  1.2939  1.7132
 7674SOL     OW34480   3.357   3.305   2.056  0.6477  1.1773  0.3258
 7674SOL    HW134481   3.300   3.308   2.133 -1.3115 -0.3796 -1.0569
 7674SOL    HW234482   3.309   3.364   1.999 -0.6176 -0.5940 -0.4618
 7675SOL     OW34483   0.798   0.348   3.398  0.4198  0.2086 -0.3363
 7675SOL    HW134484   0.842   0.428   3.426  1.6006 -0.8887  0.9572
 7675SOL    HW234485   0.797   0.368   3.304 -1.1368 -0.5226 -0.4752
 7676SOL     OW34486   3.009   1.241   0.534  0.3220 -0.0761 -0.0295
 7676SOL    HW134487   3.055   1.227   0.617  0.7717 -0.4171 -0.3389
 7676SOL    HW234488   3.083   1.275   0.484 -0.0726 -1.9471 -1.8787
 7677SOL     OW34489   3.162   1.885   6.030  0.1594  0.1536 -0.0179
 7677SOL    HW134490   3.119   1.818   6.084  0.8820 -1.5270 -1.5392
 7677SOL    HW234491   3.105   1.884   5.953  0.7773 -0.8211 -0.4663
 7678SOL     OW34492   4.195   4.303   2.977 -0.9430  0.1499 -0.5141
 7678SOL    HW134493   4.125   4.239   2.988  0.7518 -2.2983 -4.1581
 7678SOL    HW234494   4.236   4.304   3.064 -0.0687  3.1775 -0.9396
 7679SOL     OW34495   1.080   3.389   0.495 -0.0854  0.0015 -0.5893
 7679SOL    HW134496   1.167   3.390   0.534 -0.5360  0.6101  0.4057
 7679SOL    HW234497   1.026   3.456   0.537 -1.1902  0.4494 -2.7370
 7680SOL     OW34498   1.918   4.004   2.075  0.1763 -0.1533 -0.1255
 7680SOL    HW134499   1.826   3.980   2.073 -0.1567  1.3104 -1.9054
 7680SOL    HW234500   1.919   4.084   2.127 -1.4142  0.0486 -0.4337
 7681SOL     OW34501   0.489   3.479   9.240  0.1502  0.8007  0.2375
 7681SOL    HW134502   0.580   3.482   9.212  0.2372 -3.8315  0.0119
 7681SOL    HW234503   0.494   3.401   9.296 -0.1152  2.2011  2.2383
 7682SOL     OW34504   1.168   2.794  16.349  0.4459  0.0574 -0.3430
 7682SOL    HW134505   1.122   2.716  16.318  1.5154  0.4087 -2.8073
 7682SOL    HW234506   1.150   2.852  16.275  1.2048 -0.8330 -1.2192
 7683SOL     OW34507   2.291   3.144   5.938  0.1108  0.3397  0.0929
 7683SOL    HW134508   2.257   3.160   5.850  2.4432  0.5563 -0.7738
 7683SOL    HW234509   2.381   3.174   5.922  0.7953 -2.1616 -0.6325
 7684SOL     OW34510   4.562   0.219   2.619  0.3628 -0.0912 -0.2974
 7684SOL    HW134511   4.556   0.238   2.713  1.0731 -1.6486  0.0488
 7684SOL    HW234512   4.655   0.239   2.607 -0.1208  0.2418 -3.3740
 7685SOL     OW34513   4.159   2.992   6.124  0.8297 -0.4838 -0.1946
 7685SOL    HW134514   4.106   3.070   6.107  1.2609 -0.2285 -0.3884
 7685SOL    HW234515   4.172   3.000   6.218  0.1785 -2.2844  0.0502
 7686SOL     OW34516   2.963   2.423  15.565 -0.5108  0.1939 -0.3700
 7686SOL    HW134517   2.959   2.476  15.644 -0.5329  0.6530 -0.6780
 7686SOL    HW234518   3.056   2.405  15.558 -0.8197 -0.7610 -2.2081
 7687SOL     OW34519   1.127   2.577   7.114 -0.2633  0.0350  1.1591
 7687SOL    HW134520   1.201   2.591   7.173  0.4547  2.9200 -0.4494
 7687SOL    HW234521   1.069   2.523   7.169  0.6661 -2.7708 -0.6495
 7688SOL     OW34522   2.601   0.158  11.965 -0.0094 -0.4996  0.0928
 7688SOL    HW134523   2.563   0.189  12.048 -2.6205 -2.7729 -0.2469
 7688SOL    HW234524   2.675   0.106  11.996  1.4134  1.0228 -0.8025
 7689SOL     OW34525   1.710   4.220   1.021  0.2487 -0.1832  0.2151
 7689SOL    HW134526   1.771   4.215   1.095  1.7568 -0.2704 -1.0540
 7689SOL    HW234527   1.740   4.154   0.960  0.2033 -1.9947  2.1482
 7690SOL     OW34528   1.098   0.913   4.452  0.0996 -0.0520 -0.7780
 7690SOL    HW134529   1.119   0.828   4.415  0.5006 -0.5820  0.6638
 7690SOL    HW234530   1.137   0.965   4.382  3.0769  0.0689  0.9834
 7691SOL     OW34531   2.617   3.460   7.187  0.2415  0.0440 -0.3626
 7691SOL    HW134532   2.711   3.479   7.196  0.1506  0.5778 -0.5045
 7691SOL    HW234533   2.618   3.365   7.184 -0.7975  0.0519 -1.1129
 7692SOL     OW34534   1.205   1.210   0.703  0.0875 -0.9100  0.2442
 7692SOL    HW134535   1.165   1.184   0.786  0.1468  0.0435  0.5719
 7692SOL    HW234536   1.297   1.216   0.728  0.7862  2.3529 -2.9437
 7693SOL     OW34537   2.737   3.280   9.135 -0.5814 -0.1085 -0.0352
 7693SOL    HW134538   2.789   3.202   9.153  2.3854  1.4609 -1.9424
 7693SOL    HW234539   2.685   3.272   9.215  0.5015  1.3820  0.8205
 7694SOL     OW34540   0.496   0.292   9.013  0.0589  0.0642 -0.0736
 7694SOL    HW134541   0.402   0.288   9.028 -0.1023  0.8848 -0.9226
 7694SOL    HW234542   0.524   0.202   8.996 -0.1622 -0.0008 -0.0908
 7695SOL     OW34543   0.215   2.151   3.199 -0.0512 -0.0689 -0.7861
 7695SOL    HW134544   0.253   2.149   3.287 -1.5447 -0.1149 -0.1276
 7695SOL    HW234545   0.242   2.062   3.176  1.4261  0.4700 -1.1175
 7696SOL     OW34546   1.970   1.942   8.251  0.2219  0.0345 -0.1085
 7696SOL    HW134547   2.050   1.958   8.201 -0.5123  1.6365 -0.7987
 7696SOL    HW234548   2.004   1.905   8.332 -0.4420 -1.6873 -0.6318
 7697SOL     OW34549   1.561   4.375   4.894 -0.7191  0.2392  0.2779
 7697SOL    HW134550   1.502   4.450   4.905  1.0452  1.7645 -0.7728
 7697SOL    HW234551   1.595   4.374   4.805  0.8572  1.5745  0.8720
 7698SOL     OW34552   3.526   3.073  16.740  0.0722  0.4514  0.4859
 7698SOL    HW134553   3.575   3.039  16.815  0.3442 -0.5976 -0.1633
 7698SOL    HW234554   3.462   3.123  16.790 -1.1885 -0.6771  0.0083
 7699SOL     OW34555   1.509   3.364   2.768  0.0881 -0.4192 -0.2859
 7699SOL    HW134556   1.478   3.417   2.695  0.3201  0.2057  0.0783
 7699SOL    HW234557   1.603   3.356   2.747  0.0554  2.6319 -1.5614
 7700SOL     OW34558   2.529   4.024  14.535  0.4811 -0.1358  0.1805
 7700SOL    HW134559   2.549   3.987  14.621 -0.8555  0.3636  0.7186
 7700SOL    HW234560   2.531   3.949  14.475 -0.7446  0.2252 -0.3292
 7701SOL     OW34561   1.560   0.397  16.557  0.1359 -0.7155 -0.1933
 7701SOL    HW134562   1.552   0.430  16.647  2.7674  0.7245 -0.4964
 7701SOL    HW234563   1.653   0.411  16.541 -0.1936 -0.6520 -2.0635
 7702SOL     OW34564   3.353   1.336   2.833  0.0941 -0.5934  0.4309
 7702SOL    HW134565   3.335   1.405   2.768 -1.8299 -1.0521  0.4884
 7702SOL    HW234566   3.448   1.323   2.830 -0.0779 -1.2544 -2.2366
 7703SOL     OW34567   1.539   1.368  11.396 -0.4003  1.0009  0.1850
 7703SOL    HW134568   1.518   1.326  11.479 -0.0322  1.1101  0.3341
 7703SOL    HW234569   1.589   1.437  11.438 -0.7492  2.3417 -1.6072
 7704SOL     OW34570   0.750   1.982   4.693  0.1808 -0.0423 -0.5249
 7704SOL    HW134571   0.662   2.003   4.724  0.6520 -1.3334  1.6902
 7704SOL    HW234572   0.805   2.047   4.737 -0.4876  0.1610  0.0189
 7705SOL     OW34573   3.855   3.046  16.159 -0.1034 -0.6481  0.0583
 7705SOL    HW134574   3.785   3.110  16.152 -1.3858 -2.3195 -2.3842
 7705SOL    HW234575   3.842   3.028  16.252  0.3789  3.4797  0.9238
 7706SOL     OW34576   1.967   3.514   8.387  0.0499  0.0986 -0.3608
 7706SOL    HW134577   1.894   3.529   8.447  0.3195 -2.9698  0.7383
 7706SOL    HW234578   1.990   3.424   8.411  0.0637  0.5360  1.2853
 7707SOL     OW34579   0.965   1.342   2.406  0.1101 -0.0135 -0.0340
 7707SOL    HW134580   0.965   1.280   2.479 -2.6780 -1.0012 -0.8771
 7707SOL    HW234581   0.870   1.340   2.399  0.1169  1.0216 -0.5159
 7708SOL     OW34582   3.173   2.731   6.802  0.0988  0.3304  0.6813
 7708SOL    HW134583   3.196   2.799   6.740  0.6512 -1.0127 -0.5918
 7708SOL    HW234584   3.112   2.685   6.744  0.4795  0.6475  0.0401
 7709SOL     OW34585   4.011   4.632   7.806 -0.8439  0.4829  0.2064
 7709SOL    HW134586   3.921   4.657   7.786 -0.3849  0.8127 -1.4462
 7709SOL    HW234587   4.001   4.608   7.899 -0.1778 -3.3483 -0.6957
 7710SOL     OW34588   1.741   0.853   1.201 -0.0217  0.0305 -0.0443
 7710SOL    HW134589   1.733   0.814   1.114  2.6119  0.7582 -0.6142
 7710SOL    HW234590   1.836   0.860   1.194 -0.0483  1.7381  1.3416
 7711SOL     OW34591   2.034   0.061   5.954  0.0214 -0.0017 -0.1143
 7711SOL    HW134592   2.033   0.094   6.044  3.5704  1.5023 -0.6532
 7711SOL    HW234593   2.113   0.008   5.958  0.3925  0.5966  0.4646
 7712SOL     OW34594   3.313   2.190   3.341 -0.0922 -0.0494  0.5135
 7712SOL    HW134595   3.243   2.205   3.277 -1.8953  1.0123  2.7503
 7712SOL    HW234596   3.319   2.095   3.347 -1.3000 -0.2665 -1.4080
 7713SOL     OW34597   0.188   2.527   7.535 -0.4475  0.0752 -0.0309
 7713SOL    HW134598   0.115   2.583   7.507  0.4946  1.1973 -0.2348
 7713SOL    HW234599   0.166   2.459   7.472 -1.8551  0.5236 -0.0320
 7714SOL     OW34600   0.770   1.622   4.357 -0.1257  0.3697 -0.1403
 7714SOL    HW134601   0.706   1.591   4.293  0.0961  0.5303 -0.4413
 7714SOL    HW234602   0.794   1.708   4.320  1.0912 -0.0482 -0.3349
 7715SOL     OW34603   1.644   4.153  15.961 -0.7918  0.5318 -0.0023
 7715SOL    HW134604   1.572   4.216  15.952 -0.9939  0.4247  0.8161
 7715SOL    HW234605   1.717   4.210  15.937 -1.4639  0.5763 -1.9686
 7716SOL     OW34606   4.391   4.464   0.063 -0.7049  0.1472  0.0111
 7716SOL    HW134607   4.384   4.528  17.691  3.3253  0.4998 -0.0229
 7716SOL    HW234608   4.326   4.495   0.126 -2.9657 -3.1881 -0.6390
 7717SOL     OW34609   3.798   1.217  11.449  0.1087 -0.0428 -0.6963
 7717SOL    HW134610   3.811   1.124  11.470  0.6106 -0.1511 -1.5174
 7717SOL    HW234611   3.795   1.227  11.354  3.7096 -0.2005 -0.8289
 7718SOL     OW34612   1.497   4.633  12.274 -0.0229  0.1945 -0.2764
 7718SOL    HW134613   1.415   4.680  12.287  0.7131  0.7528  2.2182
 7718SOL    HW234614   1.549   4.713  12.271 -2.1567  1.5523 -1.4758
 7719SOL     OW34615   0.923   2.819   4.885  0.1851  0.4905  0.6914
 7719SOL    HW134616   0.915   2.743   4.942  0.3402 -0.5593 -0.7055
 7719SOL    HW234617   0.852   2.801   4.824 -1.4902  0.1243  2.7542
 7720SOL     OW34618   4.350   2.852   1.174 -0.3524 -0.1320  0.2338
 7720SOL    HW134619   4.301   2.929   1.143 -1.1211  0.2917  2.5489
 7720SOL    HW234620   4.292   2.818   1.242  0.8034 -0.5598  0.9994
 7721SOL     OW34621   1.992   3.554   0.333 -0.0718  0.0075 -0.0179
 7721SOL    HW134622   2.015   3.612   0.406  0.4979 -2.1606  1.5312
 7721SOL    HW234623   1.918   3.506   0.371 -0.2152 -0.3557 -0.7630
 7722SOL     OW34624   3.717   2.629   3.771  0.4199  0.2911  0.4335
 7722SOL    HW134625   3.780   2.691   3.735 -0.2986 -1.3003 -3.5738
 7722SOL    HW234626   3.705   2.564   3.701  0.1936 -1.5982  2.2443
 7723SOL     OW34627   0.232   2.248   8.129  0.4572 -0.2180 -0.0506
 7723SOL    HW134628   0.324   2.222   8.142 -0.0051 -1.6079  0.4620
 7723SOL    HW234629   0.188   2.164   8.145  0.2572 -0.1266 -0.1252
 7724SOL     OW34630   1.637   1.916  16.347  0.0125 -0.0743 -0.4538
 7724SOL    HW134631   1.573   1.965  16.399 -0.4646 -1.6638  0.4373
 7724SOL    HW234632   1.573   1.858  16.306  0.2038  0.0397 -0.9161
 7725SOL     OW34633   0.915   1.875   4.225  0.5882 -0.0802  0.0659
 7725SOL    HW134634   0.840   1.922   4.260  2.2938  2.8335 -0.1214
 7725SOL    HW234635   0.965   1.940   4.175  1.1410 -0.3415  0.2797
 7726SOL     OW34636   2.478   0.308  16.617 -0.4169  0.2036  0.7086
 7726SOL    HW134637   2.490   0.383  16.559  0.8231  0.3520  1.1679
 7726SOL    HW234638   2.468   0.231  16.561 -0.0526  1.1368 -0.6512
 7727SOL     OW34639   3.537   4.654  15.959 -0.2666  0.2200  0.0437
 7727SOL    HW134640   3.519   0.006  16.015  1.2013  0.8794 -0.3653
 7727SOL    HW234641   3.452   4.627  15.927 -0.5460 -0.3129  1.2407
 7728SOL     OW34642   2.022   0.623   0.320 -0.4082 -0.4798 -0.0449
 7728SOL    HW134643   2.069   0.605   0.402 -0.0458  1.0025  0.0597
 7728SOL    HW234644   1.975   0.702   0.344 -0.5995 -0.8017  0.6432
 7729SOL     OW34645   4.270   4.641   3.214 -0.5674  0.1771  0.0136
 7729SOL    HW134646   4.356   4.681   3.203 -0.0190 -1.4921 -1.7497
 7729SOL    HW234647   4.213   4.706   3.173  0.9932 -0.3754 -3.0635
 7730SOL     OW34648   4.683   4.354   3.725  0.1422  0.0240  0.3037
 7730SOL    HW134649   4.627   4.341   3.801  0.8178 -0.6207  0.6846
 7730SOL    HW234650   4.680   4.268   3.684 -0.9077  0.1340  0.1474
 7731SOL     OW34651   0.822   4.574  10.926  0.1042 -0.1559 -0.3197
 7731SOL    HW134652   0.916   4.570  10.909  0.2334 -1.2393  0.6727
 7731SOL    HW234653   0.795   4.482  10.924 -1.4238  0.3098 -1.2098
 7732SOL     OW34654   4.017   4.701  12.867 -0.1779 -0.1043  0.2816
 7732SOL    HW134655   4.034   0.022  12.785 -1.5125 -0.5621 -0.2499
 7732SOL    HW234656   4.095   4.724  12.918 -0.2391  2.2741 -0.7023
 7733SOL     OW34657   0.093   4.145   8.902  0.5886 -0.0474 -0.1785
 7733SOL    HW134658   0.133   4.222   8.942 -0.7181  1.3924 -1.6134
 7733SOL    HW234659   0.098   4.090   8.979 -3.5865  1.3908  1.1250
 7734SOL     OW34660   0.513   4.442  10.746 -0.4011 -0.0498  0.1165
 7734SOL    HW134661   0.469   4.423  10.663 -1.3212 -3.6723  1.4018
 7734SOL    HW234662   0.490   4.534  10.760 -1.1813 -0.2859  0.4001
 7735SOL     OW34663   2.455   3.950   6.086 -0.3619  0.0392  0.2252
 7735SOL    HW134664   2.389   3.898   6.041 -0.7374 -1.7462  2.8098
 7735SOL    HW234665   2.525   3.886   6.072 -0.4669 -0.2213  0.8889
 7736SOL     OW34666   0.675   2.236   6.091 -0.7496 -0.3354  0.1040
 7736SOL    HW134667   0.583   2.244   6.064 -1.1227 -0.9339  1.1656
 7736SOL    HW234668   0.687   2.328   6.113 -1.6058 -0.9723  3.2333
 7737SOL     OW34669   2.709   3.437   2.407  0.0305 -0.4206  0.4136
 7737SOL    HW134670   2.690   3.521   2.367  1.7650 -0.5209 -0.6184
 7737SOL    HW234671   2.642   3.386   2.362 -0.9301  1.2483 -0.0403
 7738SOL     OW34672   2.662   4.641   2.690 -0.0220 -0.4966 -0.1497
 7738SOL    HW134673   2.735   4.619   2.631 -0.6315  0.0452 -1.1114
 7738SOL    HW234674   2.652   4.557   2.734  0.0508  0.4480  1.6489
 7739SOL     OW34675   2.282   1.535   7.107 -0.1091  0.4556 -0.3099
 7739SOL    HW134676   2.235   1.500   7.182 -0.1492 -1.1187 -1.0799
 7739SOL    HW234677   2.215   1.542   7.039 -0.3703 -1.6860 -0.2717
 7740SOL     OW34678   0.176   3.606   7.160  0.3082 -0.2664  0.6596
 7740SOL    HW134679   0.159   3.669   7.090  0.9654  0.9281  1.5812
 7740SOL    HW234680   0.161   3.526   7.110 -1.4698 -0.4435  1.4797
 7741SOL     OW34681   0.361   1.534  17.507  0.5006 -0.0260 -0.2403
 7741SOL    HW134682   0.271   1.545  17.537  0.7236  1.1569  0.0042
 7741SOL    HW234683   0.399   1.622  17.513 -0.1613  0.3113 -1.0651
 7742SOL     OW34684   2.274   3.784   5.952  0.1812  0.0943 -0.1207
 7742SOL    HW134685   2.239   3.708   5.906 -3.1267  2.0978 -0.8975
 7742SOL    HW234686   2.275   3.847   5.880 -0.7683  0.9249  0.5740
 7743SOL     OW34687   3.141   2.179   5.909 -0.3028 -0.5526  0.3646
 7743SOL    HW134688   3.082   2.133   5.850 -0.5559 -1.1659  1.1016
 7743SOL    HW234689   3.175   2.101   5.953 -0.3309 -0.0857  1.1969
 7744SOL     OW34690   2.376   2.429   8.413 -0.0631  0.1218 -0.3885
 7744SOL    HW134691   2.463   2.414   8.452  0.3161 -0.1178 -1.3190
 7744SOL    HW234692   2.362   2.518   8.443 -0.9709  0.4029 -1.6594
 7745SOL     OW34693   4.178   1.876  14.274  0.2075  0.2261 -0.1037
 7745SOL    HW134694   4.139   1.962  14.292 -2.9132 -0.6644 -2.6268
 7745SOL    HW234695   4.117   1.850  14.205 -0.5152  1.1009  0.2031
 7746SOL     OW34696   2.139   0.042   4.906 -0.0225 -0.2104  0.0715
 7746SOL    HW134697   2.101   0.123   4.870 -2.5655 -1.2930  0.3114
 7746SOL    HW234698   2.230   0.044   4.877 -0.0571  0.8106  0.0266
 7747SOL     OW34699   0.088   1.027   0.741  0.2274 -0.2741  0.1891
 7747SOL    HW134700   0.120   1.112   0.713  1.4076 -0.2506  1.6389
 7747SOL    HW234701   0.167   0.980   0.769 -1.5735 -2.0516  2.3028
 7748SOL     OW34702   1.042   0.287   3.677  0.4628  0.3020  0.0685
 7748SOL    HW134703   1.081   0.200   3.690 -1.4727 -0.5319  0.2434
 7748SOL    HW234704   1.126   0.334   3.674 -1.6870  4.0861  0.0338
 7749SOL     OW34705   0.612   4.202  14.879 -0.3571  0.1659 -0.1245
 7749SOL    HW134706   0.707   4.213  14.873 -0.2039 -1.6011 -1.0462
 7749SOL    HW234707   0.593   4.280  14.932  0.1583  0.1385  0.1009
 7750SOL     OW34708   3.285   3.298   6.297  0.0829  0.2657  0.4252
 7750SOL    HW134709   3.233   3.277   6.219  3.0783 -1.6066 -1.0914
 7750SOL    HW234710   3.268   3.224   6.355 -0.6132  1.3011  1.5607
 7751SOL     OW34711   0.477   0.999   8.978 -0.1718  0.3798  0.4739
 7751SOL    HW134712   0.393   0.954   8.976 -0.0132  0.0668  1.0932
 7751SOL    HW234713   0.499   0.996   9.071 -0.2960  2.4363  0.5847
 7752SOL     OW34714   3.527   0.854   6.750 -0.0511  0.3827 -0.5549
 7752SOL    HW134715   3.571   0.788   6.804  0.8067  2.2607  1.0236
 7752SOL    HW234716   3.552   0.934   6.795  0.4095  0.8327 -1.5955
 7753SOL     OW34717   2.392   3.888  12.484 -0.0344  0.1963 -0.6848
 7753SOL    HW134718   2.381   3.848  12.571  1.2543 -0.8852 -1.0194
 7753SOL    HW234719   2.471   3.843  12.454  0.6185 -0.3970  1.8870
 7754SOL     OW34720   1.581   3.958   5.076  0.0067  0.2045  0.1918
 7754SOL    HW134721   1.513   3.951   5.010 -0.3491 -0.9436  0.6954
 7754SOL    HW234722   1.658   3.927   5.029  0.9359  2.6490  0.0681
 7755SOL     OW34723   3.283   2.554  12.836 -0.0278 -0.2211 -0.4422
 7755SOL    HW134724   3.263   2.470  12.878 -1.9920  0.3095 -0.3167
 7755SOL    HW234725   3.316   2.528  12.750  0.4037  0.5102 -0.4985
 7756SOL     OW34726   3.274   1.833  16.042  0.1435  0.2589 -0.3249
 7756SOL    HW134727   3.362   1.803  16.062  0.9800  1.2565 -2.6075
 7756SOL    HW234728   3.235   1.762  15.991 -1.5473  0.6429  0.4100
 7757SOL     OW34729   2.123   0.975  10.679  0.1636  0.1038 -0.1416
 7757SOL    HW134730   2.142   0.946  10.768  1.8158 -0.9785 -0.8491
 7757SOL    HW234731   2.036   0.936  10.667  1.5656 -2.5052 -1.9619
 7758SOL     OW34732   3.706   0.267   2.054  0.7160 -0.4718 -0.3108
 7758SOL    HW134733   3.707   0.245   1.961  0.1829  1.3947 -0.7394
 7758SOL    HW234734   3.790   0.235   2.088 -0.4990 -1.5945  1.6824
 7759SOL     OW34735   4.056   2.796   1.951  0.3779  0.5346 -0.1503
 7759SOL    HW134736   4.046   2.887   1.979  0.0325  0.9041 -1.4838
 7759SOL    HW234737   4.101   2.793   1.866  0.5669 -1.0880  0.0025
 7760SOL     OW34738   1.339   4.658   3.902  0.3469  0.3839  0.2336
 7760SOL    HW134739   1.393   4.593   3.857  2.9961  2.2528  0.7190
 7760SOL    HW234740   1.391   0.008   3.932 -1.2482  0.6912  2.1765
 7761SOL     OW34741   2.371   2.475   7.170  0.5242  0.1547 -0.0607
 7761SOL    HW134742   2.465   2.470   7.154  0.4180  3.2983 -1.6234
 7761SOL    HW234743   2.345   2.467   7.079 -0.0247  0.8485  0.0293
 7762SOL     OW34744   3.785   0.890   6.452 -0.0786 -0.2326 -0.7371
 7762SOL    HW134745   3.694   0.883   6.482  0.5359 -3.2466  0.4111
 7762SOL    HW234746   3.824   0.920   6.534  1.4429 -2.6297 -0.5837
 7763SOL     OW34747   4.102   3.100  16.036  0.4623 -0.0207 -0.2616
 7763SOL    HW134748   4.081   3.058  15.953 -1.9163 -4.2843  2.4938
 7763SOL    HW234749   4.030   3.062  16.086  0.0083  0.1732 -0.7717
 7764SOL     OW34750   3.301   4.097  15.906  0.1853 -0.0665  0.1539
 7764SOL    HW134751   3.301   4.192  15.890  0.4592 -0.1381 -0.2752
 7764SOL    HW234752   3.347   4.076  15.824  0.4348  1.5450 -0.1148
 7765SOL     OW34753   0.976   3.923   0.482 -0.1792 -0.3427 -0.0577
 7765SOL    HW134754   1.065   3.955   0.499 -0.3610  0.0838  0.1098
 7765SOL    HW234755   0.942   3.958   0.564  0.4401  0.4499 -0.1310
 7766SOL     OW34756   4.704   2.361  15.571 -0.1070 -0.2225  0.2906
 7766SOL    HW134757   4.720   2.331  15.661 -1.5691 -1.1208  0.2576
 7766SOL    HW234758   0.062   2.336  15.531  0.6157 -0.2890  1.8084
 7767SOL     OW34759   2.291   2.510   9.149  0.6904 -0.0941  0.3970
 7767SOL    HW134760   2.331   2.578   9.203  1.8544 -0.8880  0.5424
 7767SOL    HW234761   2.204   2.503   9.189  0.2977  0.5826 -0.3372
 7768SOL     OW34762   1.621   2.875   0.329  0.4971 -0.4169  0.5097
 7768SOL    HW134763   1.585   2.828   0.404  1.0543  0.4029  1.3063
 7768SOL    HW234764   1.710   2.842   0.316  0.5191 -0.0129 -0.3695
 7769SOL     OW34765   2.593   1.448  13.396 -0.0568  0.5011 -0.1939
 7769SOL    HW134766   2.581   1.383  13.326 -2.0296  2.0737 -1.2950
 7769SOL    HW234767   2.525   1.419  13.456 -1.9723  0.7041 -2.2938
 7770SOL     OW34768   1.251   0.508   9.093 -0.0529 -0.1215  0.8014
 7770SOL    HW134769   1.224   0.542   9.179 -4.6248 -0.3696 -0.5498
 7770SOL    HW234770   1.292   0.583   9.050 -2.3562  0.3329 -0.5824
 7771SOL     OW34771   4.473   1.122   2.368  0.2266 -0.0114 -0.0325
 7771SOL    HW134772   4.436   1.211   2.371  0.4414  0.1036 -0.8979
 7771SOL    HW234773   4.550   1.125   2.312  0.0989  2.9912 -0.0926
 7772SOL     OW34774   3.065   3.762   2.790 -0.4629  0.5353 -0.2499
 7772SOL    HW134775   3.026   3.683   2.828 -0.9798  2.0262  2.2994
 7772SOL    HW234776   3.100   3.731   2.706  0.3839  0.4940  0.1119
 7773SOL     OW34777   1.025   0.794   0.645  0.3547 -0.2008  0.3494
 7773SOL    HW134778   0.949   0.740   0.665  1.0353 -1.5668 -0.7802
 7773SOL    HW234779   1.033   0.835   0.731 -2.1776 -1.8864  1.3987
 7774SOL     OW34780   3.498   1.847   7.907  0.2187  0.3227  0.2888
 7774SOL    HW134781   3.417   1.799   7.921 -0.5005  1.4823  0.1206
 7774SOL    HW234782   3.539   1.790   7.843 -0.3879 -0.4427  0.5808
 7775SOL     OW34783   1.559   1.659   0.125  0.3395 -0.4654 -0.4892
 7775SOL    HW134784   1.642   1.612   0.132  1.0407  0.6823 -1.1464
 7775SOL    HW234785   1.496   1.593   0.153  0.0787 -0.9606 -2.2420
 7776SOL     OW34786   1.823   4.479   7.641 -0.1939 -0.8642  0.4989
 7776SOL    HW134787   1.855   4.566   7.621 -0.1128 -0.7740  1.0053
 7776SOL    HW234788   1.742   4.485   7.591  0.0097  2.0458  0.5317
 7777SOL     OW34789   1.633   2.641  17.676 -0.4863  0.1715 -0.6995
 7777SOL    HW134790   1.594   2.678  17.597 -0.2720 -1.2238 -1.4589
 7777SOL    HW234791   1.588   2.695   0.043  0.6360  1.3568 -0.8974
 7778SOL     OW34792   0.967   4.379   8.071  0.5572 -0.0333  0.1029
 7778SOL    HW134793   0.990   4.353   7.982 -0.6620  0.4278 -0.3516
 7778SOL    HW234794   0.884   4.332   8.079  0.0385  0.8838  0.0655
 7779SOL     OW34795   2.739   3.804   6.503  1.4871 -0.3370  0.4966
 7779SOL    HW134796   2.717   3.897   6.509 -1.1829 -0.9557  0.0673
 7779SOL    HW234797   2.657   3.775   6.542  1.2771  0.0748  0.3591
 7780SOL     OW34798   4.517   2.023   4.784  0.3588 -0.1659  1.4424
 7780SOL    HW134799   4.442   2.030   4.843 -1.9036 -0.2797 -1.4414
 7780SOL    HW234800   4.576   2.089   4.820 -2.1713  1.2874  2.9712
 7781SOL     OW34801   0.851   2.584   0.903 -0.2123  0.0760  0.2405
 7781SOL    HW134802   0.757   2.581   0.885 -0.1597  1.4428 -0.2675
 7781SOL    HW234803   0.867   2.490   0.902 -3.1435 -0.4179  1.3776
 7782SOL     OW34804   2.347   3.989  11.512 -0.0476 -0.1790  0.3895
 7782SOL    HW134805   2.271   3.932  11.500  0.9275 -1.6478  1.2469
 7782SOL    HW234806   2.321   4.051  11.444 -1.3332 -1.0642  0.0846
 7783SOL     OW34807   4.352   0.932   0.496 -0.9073 -0.0136 -0.2313
 7783SOL    HW134808   4.354   0.910   0.403  0.7081 -1.8158  0.2376
 7783SOL    HW234809   4.428   0.989   0.499  0.0128 -1.2711  0.2590
 7784SOL     OW34810   1.408   2.180  11.156  0.8956 -0.2095 -0.2507
 7784SOL    HW134811   1.409   2.091  11.122 -0.2481  0.3325 -1.7050
 7784SOL    HW234812   1.366   2.227  11.084 -1.8215  0.4033  1.7156
 7785SOL     OW34813   4.243   3.218   8.105 -0.3267 -0.1906  0.4508
 7785SOL    HW134814   4.249   3.274   8.028  0.5596  0.1083  0.7354
 7785SOL    HW234815   4.321   3.254   8.146  0.7845 -2.4221  0.3094
 7786SOL     OW34816   2.290   4.111  14.688  0.4983  0.0974 -0.1146
 7786SOL    HW134817   2.364   4.141  14.635  1.6312  1.1047  2.0492
 7786SOL    HW234818   2.321   4.026  14.717  1.1479  0.1955 -0.5211
 7787SOL     OW34819   2.016   1.422   8.708 -0.0718  0.2629  0.3427
 7787SOL    HW134820   2.057   1.438   8.623 -1.7697 -3.1542 -1.0833
 7787SOL    HW234821   2.029   1.506   8.752  0.7906  1.1414 -1.5553
 7788SOL     OW34822   2.781   3.187   1.772  0.3858 -0.2496  0.0379
 7788SOL    HW134823   2.748   3.116   1.718  0.8890  0.1301 -0.7734
 7788SOL    HW234824   2.831   3.225   1.699  0.0604 -0.9075 -0.5232
 7789SOL     OW34825   4.257   2.615  10.053  0.6124  0.3466  0.2666
 7789SOL    HW134826   4.204   2.659   9.986  0.1411  0.4199  0.6887
 7789SOL    HW234827   4.341   2.630  10.009 -0.1711 -0.2804 -1.4431
 7790SOL     OW34828   0.519   1.713  17.247  0.2231  0.2954 -0.8456
 7790SOL    HW134829   0.520   1.728  17.342  1.6082  0.3185 -0.8642
 7790SOL    HW234830   0.543   1.620  17.244  0.3731  0.2056  2.9858
 7791SOL     OW34831   0.349   3.588  10.798  0.0822  0.3660  0.2499
 7791SOL    HW134832   0.390   3.549  10.720 -2.1148  1.8658 -1.6482
 7791SOL    HW234833   0.277   3.528  10.817 -0.7989  0.8710 -1.4571
 7792SOL     OW34834   0.716   3.368   2.533  0.3055  0.3608  0.1441
 7792SOL    HW134835   0.802   3.369   2.576  0.9192  0.9339 -1.0979
 7792SOL    HW234836   0.733   3.434   2.466 -0.0515 -2.7399 -2.9989
 7793SOL     OW34837   3.271   3.192  14.097  0.4559  0.4671  0.2992
 7793SOL    HW134838   3.359   3.177  14.132  2.1095  2.7841 -2.8494
 7793SOL    HW234839   3.257   3.115  14.043 -1.9621  0.2204  1.2739
 7794SOL     OW34840   2.489   3.361   1.173  0.1206 -0.4058  0.0139
 7794SOL    HW134841   2.512   3.268   1.172  0.1208 -0.4134  0.4755
 7794SOL    HW234842   2.473   3.386   1.083 -0.3645  0.7790  0.4339
 7795SOL     OW34843   3.327   2.183  13.314 -0.6627  0.4228 -0.0463
 7795SOL    HW134844   3.352   2.222  13.231  0.6038 -0.6598 -0.1798
 7795SOL    HW234845   3.388   2.224  13.375  0.7997 -0.4916 -0.8917
 7796SOL     OW34846   3.946   3.199   6.669 -0.2843  0.0828  0.3384
 7796SOL    HW134847   3.984   3.276   6.712 -2.4533  0.3582  1.7486
 7796SOL    HW234848   3.954   3.142   6.745  0.5530  1.2944  1.1620
 7797SOL     OW34849   2.445   2.801   3.295 -0.4776  0.3785 -0.2330
 7797SOL    HW134850   2.380   2.805   3.365  0.9888 -1.6633  1.2111
 7797SOL    HW234851   2.507   2.738   3.332  0.6688  1.0443 -1.0310
 7798SOL     OW34852   2.594   0.722   9.682 -0.0012 -0.3765  1.0101
 7798SOL    HW134853   2.670   0.770   9.715 -0.3472  0.4857  0.5630
 7798SOL    HW234854   2.628   0.633   9.680  1.1181  0.0389  1.5739
 7799SOL     OW34855   3.146   2.657  10.116  0.2071 -0.4530 -0.3037
 7799SOL    HW134856   3.217   2.721  10.126 -0.7433  0.5497  0.0469
 7799SOL    HW234857   3.072   2.706  10.152 -0.2721 -2.5374  1.4890
 7800SOL     OW34858   4.078   1.310   9.133  0.5619 -0.0305  0.0138
 7800SOL    HW134859   4.020   1.273   9.200 -0.6433  0.9569 -0.4733
 7800SOL    HW234860   4.147   1.347   9.189  1.7640  1.9619 -2.7841
 7801SOL     OW34861   0.065   4.435  15.501 -0.1159 -0.6631 -0.2875
 7801SOL    HW134862   0.018   4.378  15.440 -0.8690  1.6985 -1.9209
 7801SOL    HW234863   0.060   4.379  15.578  0.8448  0.2325  0.4195
 7802SOL     OW34864   3.794   1.152   5.469 -0.3473 -0.1280 -0.0858
 7802SOL    HW134865   3.805   1.084   5.535  0.8244  2.1894  2.1257
 7802SOL    HW234866   3.702   1.126   5.460  0.0839 -2.2573  1.6671
 7803SOL     OW34867   3.530   4.360  12.426  0.3327  0.3612  0.5630
 7803SOL    HW134868   3.450   4.355  12.478 -0.8973 -2.8913 -1.6317
 7803SOL    HW234869   3.496   4.409  12.351 -1.0905 -1.7636 -0.1828
 7804SOL     OW34870   4.364   1.576  11.000  0.4393 -0.2376 -0.5173
 7804SOL    HW134871   4.391   1.607  11.086 -1.0518 -1.0779  0.2483
 7804SOL    HW234872   4.326   1.489  11.014  0.8215 -0.0227  1.7674
 7805SOL     OW34873   3.675   4.706   3.261  0.0934 -0.0405  0.1443
 7805SOL    HW134874   3.697   4.689   3.170 -0.7790 -2.5996  0.4098
 7805SOL    HW234875   3.625   0.064   3.260 -0.1934 -0.1964  1.2279
 7806SOL     OW34876   0.793   0.046   2.571 -0.4987 -0.1488 -0.2578
 7806SOL    HW134877   0.775   0.045   2.477  1.6173 -0.3706 -0.6734
 7806SOL    HW234878   0.855   0.119   2.577  0.3076 -0.8366 -0.1051
 7807SOL     OW34879   1.521   0.109   3.713  0.4770  0.2090 -0.2079
 7807SOL    HW134880   1.506   0.151   3.798  1.3461  0.4763 -0.1797
 7807SOL    HW234881   1.594   0.053   3.741  0.0036 -0.2338  0.1397
 7808SOL     OW34882   2.344   2.913  13.267  0.2676 -0.1479  0.9926
 7808SOL    HW134883   2.303   2.878  13.346 -0.2205  0.3170  0.9396
 7808SOL    HW234884   2.297   2.853  13.208 -0.0972  1.0273  0.0996
 7809SOL     OW34885   2.257   3.919  10.315 -0.1515 -0.8832  0.4223
 7809SOL    HW134886   2.350   3.940  10.311 -0.3152 -0.5847 -1.6760
 7809SOL    HW234887   2.244   3.857  10.244  2.9682 -0.9283 -0.0853
 7810SOL     OW34888   2.387   3.950   0.257  0.1194 -0.7295 -0.5139
 7810SOL    HW134889   2.453   4.012   0.225 -1.0943  0.1169 -1.4374
 7810SOL    HW234890   2.395   3.870   0.206 -1.3708 -0.8155 -0.6115
 7811SOL     OW34891   0.803   1.078  12.996  0.2320 -0.2690 -0.4887
 7811SOL    HW134892   0.785   1.063  12.903  3.0778  0.0685 -1.0783
 7811SOL    HW234893   0.732   1.139  13.013 -0.3305 -1.5892  1.8329
 7812SOL     OW34894   4.283   1.230  13.799 -0.4626  0.6097 -0.0385
 7812SOL    HW134895   4.338   1.295  13.844 -0.2861  1.3508 -1.3124
 7812SOL    HW234896   4.279   1.261  13.709  0.1533 -0.0795 -0.3011
 7813SOL     OW34897   4.506   1.304   3.536  0.4098 -0.9565 -0.2404
 7813SOL    HW134898   4.562   1.281   3.610 -1.9621 -3.1625  0.8563
 7813SOL    HW234899   4.556   1.306   3.454  1.1403 -1.3781  0.1879
 7814SOL     OW34900   2.221   1.098  16.463  0.1207 -0.3365  0.6269
 7814SOL    HW134901   2.132   1.131  16.470 -0.2779 -1.2494 -0.1563
 7814SOL    HW234902   2.264   1.118  16.546  0.8277 -2.5268  0.7940
 7815SOL     OW34903   3.254   0.236   5.834  0.1765  0.1186 -0.3816
 7815SOL    HW134904   3.302   0.317   5.852 -1.9046  0.8881  1.7506
 7815SOL    HW234905   3.276   0.179   5.908 -0.4064 -1.6719 -1.5824
 7816SOL     OW34906   2.303   2.427   6.921 -0.1134  0.1194 -0.1607
 7816SOL    HW134907   2.291   2.476   6.840 -0.5678 -0.2820 -0.3357
 7816SOL    HW234908   2.244   2.355   6.900  0.8392 -1.4826  2.5757
 7817SOL     OW34909   3.392   3.591   6.971  0.4448  0.1165 -0.3100
 7817SOL    HW134910   3.383   3.681   6.942 -1.8822  0.4416  1.3362
 7817SOL    HW234911   3.444   3.608   7.050  0.0969 -0.8233  0.1294
 7818SOL     OW34912   3.949   1.738   8.065 -0.2926  0.2531  0.1575
 7818SOL    HW134913   4.036   1.727   8.104 -0.8979  0.9911  1.7090
 7818SOL    HW234914   3.905   1.664   8.106 -0.8813  0.2101 -0.5599
 7819SOL     OW34915   3.064   4.084   1.332  0.3728  0.4351  0.2330
 7819SOL    HW134916   2.993   4.146   1.344 -0.7807 -0.7300 -0.5128
 7819SOL    HW234917   3.016   4.001   1.325  2.6700 -0.9556  0.9566
 7820SOL     OW34918   2.607   0.927   3.165  0.1588  0.4978  0.0488
 7820SOL    HW134919   2.550   0.950   3.238  1.1867 -0.6748  1.2361
 7820SOL    HW234920   2.606   0.992   3.095 -0.7726 -0.4062 -0.7641
 7821SOL     OW34921   3.970   2.449   5.355 -0.3282 -0.1394  0.0818
 7821SOL    HW134922   4.063   2.466   5.342 -0.4291  1.3782  1.3429
 7821SOL    HW234923   3.965   2.399   5.437 -1.7279  0.1955  0.2147
 7822SOL     OW34924   2.984   1.668  10.501  0.1407  0.0261 -0.5327
 7822SOL    HW134925   2.903   1.679  10.551 -0.6217 -1.1621 -1.4692
 7822SOL    HW234926   2.956   1.659  10.409 -1.0874  1.4608 -0.2979
 7823SOL     OW34927   3.762   4.547   9.374  0.0971 -0.2041  0.0609
 7823SOL    HW134928   3.740   4.544   9.467  0.9778  0.5368  0.2895
 7823SOL    HW234929   3.844   4.596   9.378  0.9469 -1.5257 -0.8680
 7824SOL     OW34930   1.387   4.662   1.297 -0.2800  0.2166  0.3440
 7824SOL    HW134931   1.452   4.598   1.268 -0.7032 -1.4744  3.1441
 7824SOL    HW234932   1.390   0.000   1.224 -1.6672 -0.3518 -0.1959
 7825SOL     OW34933   1.427   2.027   3.740 -0.2637 -0.4875 -0.8250
 7825SOL    HW134934   1.381   1.948   3.713 -1.3634 -0.7710  1.9036
 7825SOL    HW234935   1.389   2.048   3.826 -0.7608 -1.5842 -0.7864
 7826SOL     OW34936   3.602   1.527   7.499 -0.4169 -0.2896 -0.3780
 7826SOL    HW134937   3.695   1.539   7.478 -0.3151  1.6999  1.2285
 7826SOL    HW234938   3.556   1.570   7.427  0.3266  1.3578  0.1193
 7827SOL     OW34939   2.455   3.705   8.187  0.0724 -0.2938  0.3698
 7827SOL    HW134940   2.504   3.668   8.114 -0.7101 -0.5210 -0.0432
 7827SOL    HW234941   2.365   3.672   8.177 -0.8714  2.1001  0.9651
 7828SOL     OW34942   2.021   2.391   5.692 -0.2780 -0.2858  0.3678
 7828SOL    HW134943   2.110   2.372   5.662 -0.4330 -0.8332  0.2579
 7828SOL    HW234944   1.972   2.324   5.644  2.1794 -0.8561 -1.3756
 7829SOL     OW34945   2.828   3.244  15.133  0.4125 -0.1166 -0.1851
 7829SOL    HW134946   2.834   3.331  15.173 -2.0381  0.9452 -2.1335
 7829SOL    HW234947   2.918   3.230  15.106 -0.6186 -1.2470 -3.0082
 7830SOL     OW34948   2.727   4.564   3.234  0.5364 -0.3456  0.7355
 7830SOL    HW134949   2.659   4.522   3.287 -1.4052 -0.0930 -1.5619
 7830SOL    HW234950   2.781   4.602   3.303 -0.2667  0.1112  1.1127
 7831SOL     OW34951   2.182   2.873   6.222  0.1047 -0.9393  0.1660
 7831SOL    HW134952   2.092   2.904   6.215  0.9601  1.7171  0.8723
 7831SOL    HW234953   2.183   2.875   6.317  3.1551 -0.1790  0.1336
 7832SOL     OW34954   3.230   1.854   3.697  0.0075  0.4730  0.5563
 7832SOL    HW134955   3.235   1.830   3.604  1.1281 -0.7950  0.9532
 7832SOL    HW234956   3.316   1.821   3.722 -1.0911 -2.5785  0.2755
 7833SOL     OW34957   2.544   3.745   4.767 -0.0666  0.1687  0.0700
 7833SOL    HW134958   2.532   3.789   4.851 -2.2393 -0.0264 -0.1425
 7833SOL    HW234959   2.477   3.677   4.774  0.9095 -0.8503 -0.5014
 7834SOL     OW34960   0.053   3.586   3.388  0.4424 -0.4316  0.7621
 7834SOL    HW134961   4.716   3.520   3.419 -0.3878 -0.1915 -0.3379
 7834SOL    HW234962   0.041   3.602   3.294 -1.0858 -0.8752  0.8950
 7835SOL     OW34963   1.542   2.455  11.098  0.0841 -1.0315  0.5761
 7835SOL    HW134964   1.483   2.511  11.149  0.0185 -1.0530  0.5252
 7835SOL    HW234965   1.516   2.369  11.131 -0.2691 -1.1199  0.0724
 7836SOL     OW34966   4.228   3.356  17.287  0.3323  0.4921  0.6847
 7836SOL    HW134967   4.291   3.428  17.291  0.4491  0.4039  0.3630
 7836SOL    HW234968   4.149   3.401  17.257  3.1235  3.7895 -1.7349
 7837SOL     OW34969   3.113   3.433   3.596  0.2292  0.1593 -0.3323
 7837SOL    HW134970   3.144   3.364   3.655 -0.0661  0.1721 -0.1627
 7837SOL    HW234971   3.090   3.492   3.668 -1.6764 -2.4305  1.1889
 7838SOL     OW34972   0.371   1.573  14.622  0.0745  0.5222 -0.3452
 7838SOL    HW134973   0.277   1.554  14.622 -0.5737  3.7423  0.5024
 7838SOL    HW234974   0.383   1.597  14.714 -0.9480 -0.6073  0.0821
 7839SOL     OW34975   2.037   2.892  15.550 -0.2184 -0.1669 -0.7674
 7839SOL    HW134976   2.094   2.816  15.554 -0.7025 -0.3790  2.1126
 7839SOL    HW234977   2.021   2.900  15.455  1.3877 -0.0761 -1.0256
 7840SOL     OW34978   1.798   0.180  12.454 -0.0896 -0.7662  0.0217
 7840SOL    HW134979   1.802   0.142  12.543 -0.5036 -0.0662  0.3371
 7840SOL    HW234980   1.783   0.102  12.401  0.0111  0.1124 -1.2914
 7841SOL     OW34981   2.258   2.688   3.910  0.4925 -0.3868 -0.1436
 7841SOL    HW134982   2.180   2.691   3.965  1.8207  1.7033  1.6276
 7841SOL    HW234983   2.259   2.772   3.865  1.2172 -1.0026 -1.2934
 7842SOL     OW34984   4.343   1.887  16.130 -0.1423 -0.5197 -0.1631
 7842SOL    HW134985   4.376   1.840  16.054  1.5171  1.0683 -0.4290
 7842SOL    HW234986   4.257   1.848  16.140  0.1222 -1.3559 -1.2260
 7843SOL     OW34987   4.306   4.701   0.666  0.2977 -0.4478 -0.2847
 7843SOL    HW134988   4.275   4.611   0.655 -0.4554  0.0638 -2.3952
 7843SOL    HW234989   4.232   0.011   0.717 -0.0018 -0.9205 -0.4060
 7844SOL     OW34990   3.915   1.388   5.531  0.2812 -0.1791  0.2066
 7844SOL    HW134991   3.874   1.305   5.505  3.3256 -1.5596 -0.2323
 7844SOL    HW234992   3.956   1.365   5.615  1.8727 -0.4860 -0.6371
 7845SOL     OW34993   0.620   1.978   2.815  0.3956 -0.4553  0.2512
 7845SOL    HW134994   0.614   2.074   2.807 -1.0163 -0.5750 -0.1900
 7845SOL    HW234995   0.533   1.973   2.854  0.9529  0.7812  1.6392
 7846SOL     OW34996   2.461   3.427   4.514 -0.6496 -0.0246  0.2193
 7846SOL    HW134997   2.420   3.399   4.432 -0.9289 -1.1444  0.7463
 7846SOL    HW234998   2.391   3.476   4.557 -0.8179 -1.1768  1.2543
 7847SOL     OW34999   4.195   1.111   8.371 -0.6664 -0.3623 -0.3000
 7847SOL    HW135000   4.250   1.139   8.445  0.2231 -0.5265 -0.8897
 7847SOL    HW235001   4.161   1.195   8.340  1.9681  0.8985  0.1635
 7848SOL     OW35002   1.477   1.493  12.274  0.1168  0.3081 -0.7392
 7848SOL    HW135003   1.513   1.567  12.323  1.6085 -1.7141  1.2096
 7848SOL    HW235004   1.563   1.459  12.250 -0.3787 -0.9197 -0.7843
 7849SOL     OW35005   0.585   0.163  15.300  0.3905  0.3854 -0.0573
 7849SOL    HW135006   0.613   0.072  15.297 -0.2338  0.1545  1.1288
 7849SOL    HW235007   0.519   0.155  15.232 -1.1329  2.3390  1.2124
 7850SOL     OW35008   1.444   0.038   2.577 -0.2000  0.1239  0.0108
 7850SOL    HW135009   1.489   0.120   2.598  1.1982 -0.8673  0.9138
 7850SOL    HW235010   1.469   0.044   2.485 -1.0710  0.8126 -0.1788
 7851SOL     OW35011   3.029   2.909   8.213 -0.0282 -0.0393 -0.0812
 7851SOL    HW135012   3.038   2.818   8.242  1.6130 -0.5351 -2.1834
 7851SOL    HW235013   2.992   2.945   8.294  0.5691  2.3161 -0.8648
 7852SOL     OW35014   2.641   4.203  17.628  0.2314 -0.3671  0.1970
 7852SOL    HW135015   2.575   4.165  17.571 -1.3308  1.9321  0.4468
 7852SOL    HW235016   2.708   4.136  17.616  0.2463 -0.3278  0.0616
 7853SOL     OW35017   4.360   3.772   6.998  0.1001  0.7017  0.5146
 7853SOL    HW135018   4.402   3.817   6.925  2.7657 -0.1740  1.5051
 7853SOL    HW235019   4.431   3.729   7.045  0.2970 -0.1686 -0.5902
 7854SOL     OW35020   4.298   3.278  13.322 -0.2717 -0.6921  0.4111
 7854SOL    HW135021   4.270   3.370  13.321 -1.6557 -1.1235 -1.0448
 7854SOL    HW235022   4.306   3.258  13.229 -0.3781  1.0357  0.0221
 7855SOL     OW35023   3.908   1.549   9.419 -0.6620  0.0791  0.3594
 7855SOL    HW135024   3.903   1.458   9.448  2.9970 -0.5302 -1.0164
 7855SOL    HW235025   3.958   1.592   9.488 -1.8520  1.8062  0.1553
 7856SOL     OW35026   3.479   1.802   4.060  0.7419 -0.3430  0.0800
 7856SOL    HW135027   3.539   1.804   4.135  2.3068 -2.3966 -1.1028
 7856SOL    HW235028   3.413   1.859   4.097 -1.7884 -2.9883 -0.3733
 7857SOL     OW35029   0.071   1.085   7.345 -0.2120 -0.9488 -0.1574
 7857SOL    HW135030   0.127   1.034   7.286 -0.6973 -0.7296 -0.8044
 7857SOL    HW235031   0.046   1.018   7.408 -0.6859  0.2761  0.9527
 7858SOL     OW35032   0.311   1.673  13.161 -0.2584  0.1489  0.0276
 7858SOL    HW135033   0.309   1.747  13.221  0.2505  0.3167 -0.1670
 7858SOL    HW235034   0.258   1.712  13.091 -1.4381 -0.4591  0.5693
 7859SOL     OW35035   3.787   1.174   0.339 -0.0607  0.5517  0.1087
 7859SOL    HW135036   3.763   1.247   0.397 -2.6481  0.8542 -1.3269
 7859SOL    HW235037   3.869   1.150   0.381  0.1974  0.8501 -0.2257
 7860SOL     OW35038   0.291   1.949   7.703 -0.1838 -0.5138  0.0266
 7860SOL    HW135039   0.238   1.976   7.628 -1.2706 -0.7525  0.7034
 7860SOL    HW235040   0.378   1.938   7.664 -0.5683  1.3944 -1.4013
 7861SOL     OW35041   3.732   3.131   4.405 -0.3739  0.0913  0.1900
 7861SOL    HW135042   3.754   3.188   4.332 -0.9729 -1.7690 -1.4276
 7861SOL    HW235043   3.643   3.160   4.424 -1.2828 -1.3781 -1.8484
 7862SOL     OW35044   4.105   0.209   8.080  0.4664 -0.8694  0.2824
 7862SOL    HW135045   4.037   0.270   8.052  1.3654  0.2711  0.5679
 7862SOL    HW235046   4.125   0.247   8.165 -1.2612  1.5730 -0.3993
 7863SOL     OW35047   4.049   3.282   7.468  0.0031  0.5365 -0.0476
 7863SOL    HW135048   4.012   3.310   7.384  0.3394 -2.9086 -1.3182
 7863SOL    HW235049   3.965   3.293   7.513  1.2591 -1.2490  2.7206
 7864SOL     OW35050   1.731   0.752   5.386  0.3428 -0.8210 -0.8022
 7864SOL    HW135051   1.636   0.742   5.395 -0.0508  1.5776 -2.2000
 7864SOL    HW235052   1.746   0.847   5.386 -2.3230 -0.4028 -0.0187
 7865SOL     OW35053   3.839   3.417   5.823 -0.8864  0.0163  0.3234
 7865SOL    HW135054   3.765   3.468   5.789 -0.4503  0.2085 -0.3475
 7865SOL    HW235055   3.818   3.327   5.797  1.0031 -0.3257 -0.0034
 7866SOL     OW35056   2.541   0.245   8.575 -0.1561 -0.1451 -0.1494
 7866SOL    HW135057   2.572   0.271   8.488 -2.7907 -0.9173 -1.3451
 7866SOL    HW235058   2.504   0.158   8.555 -1.2659  0.1780  0.4980
 7867SOL     OW35059   2.824   2.088  14.916 -0.6742 -0.5465 -0.5096
 7867SOL    HW135060   2.808   1.997  14.890 -0.6171 -0.6525 -0.1799
 7867SOL    HW235061   2.813   2.136  14.835 -0.9897  0.8858  0.3824
 7868SOL     OW35062   1.053   0.501   3.914 -0.2259  0.1296  0.1406
 7868SOL    HW135063   1.135   0.529   3.873  0.5527 -1.0723  0.8891
 7868SOL    HW235064   0.990   0.510   3.843  1.7513  0.0833 -1.6217
 7869SOL     OW35065   0.631   4.711   5.387  0.1109  0.0371  0.3206
 7869SOL    HW135066   0.691   4.695   5.461 -2.0471 -1.1442  1.8256
 7869SOL    HW235067   0.546   4.722   5.429 -0.8410  0.3030 -1.6901
 7870SOL     OW35068   1.417   1.885   7.425  0.2616 -0.5829  0.3228
 7870SOL    HW135069   1.430   1.960   7.367 -0.8698 -1.5558 -1.1809
 7870SOL    HW235070   1.499   1.870   7.473  0.9426  2.5324  0.1124
 7871SOL     OW35071   1.447   3.568  14.740  0.1568 -0.1327  0.0071
 7871SOL    HW135072   1.359   3.572  14.704 -0.1243 -1.6694  0.5477
 7871SOL    HW235073   1.462   3.474  14.739  1.3052  0.0517 -0.0746
 7872SOL     OW35074   0.771   4.284  15.584 -0.2656 -0.0120 -0.3983
 7872SOL    HW135075   0.730   4.216  15.638  1.1075 -1.0038 -0.6052
 7872SOL    HW235076   0.858   4.260  15.551 -0.4154 -1.3739  0.1795
 7873SOL     OW35077   0.462   3.976   3.921 -0.3202  0.1665 -0.5889
 7873SOL    HW135078   0.506   3.891   3.927  1.2729  0.9513 -1.2158
 7873SOL    HW235079   0.381   3.948   3.878  0.3874  0.8209 -2.3245
 7874SOL     OW35080   0.404   2.186   6.367  0.5833 -0.0159 -0.5026
 7874SOL    HW135081   0.417   2.128   6.442  0.8227 -1.1078 -1.4007
 7874SOL    HW235082   0.390   2.119   6.301  2.2425 -1.4814  0.6273
 7875SOL     OW35083   2.543   4.708   4.308  0.0555  0.0608  0.4626
 7875SOL    HW135084   2.536   0.079   4.304  1.3016  0.1561  0.5400
 7875SOL    HW235085   2.507   4.689   4.221 -0.0610  2.1285  0.0726
 7876SOL     OW35086   3.730   2.249   3.089  0.2313  0.4569  0.0463
 7876SOL    HW135087   3.768   2.281   3.007  0.0873 -1.8343 -0.9357
 7876SOL    HW235088   3.673   2.179   3.055  1.5826  0.4897 -2.2975
 7877SOL     OW35089   1.606   4.167   6.903 -0.2833  0.0389  0.6353
 7877SOL    HW135090   1.560   4.113   6.968 -3.4524  1.9879 -0.0091
 7877SOL    HW235091   1.568   4.124   6.826  0.3328 -0.2386  0.4865
 7878SOL     OW35092   3.594   0.893  14.429 -0.2134  0.1043 -0.4214
 7878SOL    HW135093   3.616   0.830  14.497  1.9905  0.4445 -0.8247
 7878SOL    HW235094   3.604   0.843  14.348  0.2665 -2.3507  1.1626
 7879SOL     OW35095   3.122   3.452   5.005 -0.2423 -0.4557 -0.5282
 7879SOL    HW135096   3.071   3.442   4.925  0.8480  0.5705 -1.3399
 7879SOL    HW235097   3.132   3.362   5.036  1.4215  0.1097  0.5818
 7880SOL     OW35098   2.965   2.991   3.392 -0.0342 -0.5424 -0.8248
 7880SOL    HW135099   2.883   2.952   3.361  0.3728 -0.8426 -1.5157
 7880SOL    HW235100   2.983   2.932   3.464 -1.5309 -1.6369 -1.3344
 7881SOL     OW35101   0.520   0.738   8.742  0.5697  0.4487  0.6860
 7881SOL    HW135102   0.527   0.716   8.835 -2.7491 -1.7199  0.4251
 7881SOL    HW235103   0.594   0.798   8.735 -0.0523  1.1276 -0.0546
 7882SOL     OW35104   0.620   1.139   7.699  0.6060  0.4364  0.2294
 7882SOL    HW135105   0.632   1.120   7.791  2.0945  1.6501  0.2812
 7882SOL    HW235106   0.680   1.084   7.648 -0.9628 -1.0520 -0.0065
 7883SOL     OW35107   3.353   4.356  14.653  0.0872  0.3710  0.8698
 7883SOL    HW135108   3.396   4.426  14.604 -0.7305 -2.1640 -3.4251
 7883SOL    HW235109   3.436   4.323  14.686 -0.5459 -1.2460  0.8966
 7884SOL     OW35110   0.798   2.465   8.726 -0.5298 -0.3443  0.5236
 7884SOL    HW135111   0.777   2.417   8.806 -1.3805  2.4466  1.9860
 7884SOL    HW235112   0.841   2.543   8.763 -1.6832  0.4145  0.2642
 7885SOL     OW35113   1.443   1.965   8.943  0.1246 -0.3645 -0.0545
 7885SOL    HW135114   1.373   2.017   8.904 -0.0372  0.2016  1.0000
 7885SOL    HW235115   1.521   2.005   8.905  0.0972 -0.6825 -0.4440
 7886SOL     OW35116   0.369   0.041   1.135 -0.1220 -0.5900 -0.8998
 7886SOL    HW135117   0.364   0.081   1.048 -1.0155  0.5064 -0.3322
 7886SOL    HW235118   0.290   4.711   1.143 -0.3121  0.0450  1.4531
 7887SOL     OW35119   2.612   4.101   3.655  0.2406  0.0592 -0.3545
 7887SOL    HW135120   2.603   4.014   3.694  2.6796  0.4889  1.1025
 7887SOL    HW235121   2.528   4.111   3.610  0.0676 -1.4343 -0.3820
 7888SOL     OW35122   3.485   2.386   7.926 -0.0776 -0.2259 -0.1949
 7888SOL    HW135123   3.556   2.337   7.967 -0.0177  0.6269  0.6934
 7888SOL    HW235124   3.411   2.333   7.954  0.3223 -1.5395 -1.6073
 7889SOL     OW35125   1.878   2.322   4.147 -0.7227 -0.3240 -0.9676
 7889SOL    HW135126   1.905   2.412   4.127  1.1110 -0.8125 -0.7402
 7889SOL    HW235127   1.849   2.332   4.238  1.8013 -0.9007 -0.1045
 7890SOL     OW35128   3.371   3.807   0.440 -0.3062 -0.4781  0.5907
 7890SOL    HW135129   3.298   3.745   0.436  0.2662 -0.9107 -3.0399
 7890SOL    HW235130   3.352   3.844   0.526 -0.9324  0.8341 -0.1055
 7891SOL     OW35131   4.209   0.338   5.060  0.1172  0.1791  0.5565
 7891SOL    HW135132   4.200   0.320   4.967 -0.1887  0.8727  0.4505
 7891SOL    HW235133   4.274   0.269   5.070 -0.7027 -0.8978 -1.5836
 7892SOL     OW35134   1.101   1.987   7.104 -0.1137  0.1917 -0.0877
 7892SOL    HW135135   1.018   2.012   7.145  0.4153 -0.5139  1.4059
 7892SOL    HW235136   1.129   2.078   7.091  0.3364  0.1158  0.3242
 7893SOL     OW35137   0.264   0.286  17.564 -0.5248  0.0333  0.2881
 7893SOL    HW135138   0.276   0.231  17.487 -1.6248  0.0758  0.0863
 7893SOL    HW235139   0.252   0.375  17.529  1.8623  0.1735 -0.1181
 7894SOL     OW35140   4.258   2.302  16.210  0.4250  0.0385  0.2713
 7894SOL    HW135141   4.340   2.350  16.216  0.6224 -0.1453 -0.9732
 7894SOL    HW235142   4.190   2.368  16.227  3.4588  3.8329 -2.2967
 7895SOL     OW35143   2.752   4.247  12.554  0.2025  0.1497  0.0308
 7895SOL    HW135144   2.804   4.195  12.614  1.5846  2.4640  0.8361
 7895SOL    HW235145   2.659   4.242  12.578 -0.1945  1.6561 -1.2013
 7896SOL     OW35146   2.110   4.065   7.780 -0.3383 -0.1593 -0.4071
 7896SOL    HW135147   2.129   4.104   7.866  0.6009 -0.4348 -0.4848
 7896SOL    HW235148   2.094   4.146   7.731 -0.3814 -0.7055 -1.2850
 7897SOL     OW35149   3.796   1.491   9.862 -0.0450  0.1132 -0.4456
 7897SOL    HW135150   3.863   1.556   9.882 -0.4513  0.2414  0.5410
 7897SOL    HW235151   3.842   1.412   9.892 -0.2008 -0.0282 -0.5830
 7898SOL     OW35152   3.904   2.394   7.885  0.2617  0.4448 -0.6845
 7898SOL    HW135153   3.842   2.417   7.954 -1.0075 -0.7615 -1.4193
 7898SOL    HW235154   3.984   2.388   7.937 -0.0747 -0.1877 -0.2415
 7899SOL     OW35155   4.079   0.874   0.500  0.1278  0.5658 -0.4249
 7899SOL    HW135156   4.172   0.893   0.509  0.1815 -0.0989  0.4167
 7899SOL    HW235157   4.044   0.955   0.462  0.9419  1.0978 -0.0505
 7900SOL     OW35158   2.552   3.982  12.827 -0.1295  0.4475 -0.3241
 7900SOL    HW135159   2.631   3.950  12.871 -0.2662  0.6321  0.0555
 7900SOL    HW235160   2.529   3.903  12.778 -3.3389  0.2918  1.4669
 7901SOL     OW35161   1.430   2.265  13.558 -0.6634  0.1880  0.1074
 7901SOL    HW135162   1.387   2.348  13.541  0.0057  0.2952 -1.1026
 7901SOL    HW235163   1.367   2.209  13.513 -0.3739  0.4304 -0.6000
 7902SOL     OW35164   1.348   2.544   6.226  0.1357  0.9249 -0.2361
 7902SOL    HW135165   1.301   2.520   6.146  1.7433  0.3849 -1.0053
 7902SOL    HW235166   1.310   2.487   6.292  0.7473 -0.6511 -1.2610
 7903SOL     OW35167   3.855   0.251   8.921 -0.0128 -0.0886 -0.5421
 7903SOL    HW135168   3.866   0.337   8.961  0.7164 -1.3082  1.8819
 7903SOL    HW235169   3.767   0.257   8.884 -0.3101 -2.8617 -0.3245
 7904SOL     OW35170   1.801   1.524  11.047 -0.0472  0.0720  0.9128
 7904SOL    HW135171   1.892   1.548  11.025 -0.6761  3.1960  1.6505
 7904SOL    HW235172   1.746   1.603  11.042  0.2221 -0.0583 -3.7447
 7905SOL     OW35173   0.503   3.958  13.392  0.0387  0.3523  0.6236
 7905SOL    HW135174   0.495   3.954  13.297 -0.5355  0.3389  0.6741
 7905SOL    HW235175   0.591   3.922  13.409  0.1065  1.2586  2.2566
 7906SOL     OW35176   3.635   3.453   6.841 -0.2732  0.2780 -0.2887
 7906SOL    HW135177   3.659   3.429   6.752  0.7232  2.1319 -0.5208
 7906SOL    HW235178   3.611   3.545   6.828  2.6190  0.6370 -2.8334
 7907SOL     OW35179   2.158   1.280   9.654  0.0822  1.0417 -0.1188
 7907SOL    HW135180   2.094   1.212   9.631 -0.7049  1.7467 -0.0481
 7907SOL    HW235181   2.122   1.364   9.624 -1.8677  0.4116  0.4144
 7908SOL     OW35182   3.516   2.891   4.506  0.7255 -1.0406  0.0231
 7908SOL    HW135183   3.603   2.932   4.503  0.1830  0.1701  0.4982
 7908SOL    HW235184   3.499   2.858   4.418 -1.0695  2.6211 -1.0206
 7909SOL     OW35185   4.268   4.298   8.806 -0.3325 -0.1221  0.5351
 7909SOL    HW135186   4.344   4.245   8.781 -1.5212 -1.5536 -0.0445
 7909SOL    HW235187   4.232   4.311   8.718 -0.5036  2.7050  1.0286
 7910SOL     OW35188   1.172   0.479  12.643 -0.2063 -0.1636 -0.3979
 7910SOL    HW135189   1.160   0.487  12.738 -1.2049 -2.2164 -0.3655
 7910SOL    HW235190   1.171   0.572  12.622 -0.5258 -0.3261 -1.0832
 7911SOL     OW35191   3.578   4.132  12.828  0.1916  0.3191 -0.5683
 7911SOL    HW135192   3.547   4.193  12.894  1.0209 -0.0579  0.1715
 7911SOL    HW235193   3.657   4.173  12.795  0.3003  2.3620  2.2177
 7912SOL     OW35194   1.758   4.478  14.550 -0.0527 -0.4212 -0.4642
 7912SOL    HW135195   1.730   4.428  14.627  1.2637 -0.1716  0.1834
 7912SOL    HW235196   1.682   4.534  14.537 -0.5172 -0.9877 -0.1822
 7913SOL     OW35197   1.598   2.897   2.775 -0.5273 -0.0250  0.2659
 7913SOL    HW135198   1.579   2.864   2.687  0.1681 -0.9275  0.4606
 7913SOL    HW235199   1.677   2.845   2.789  0.5248  1.3018 -0.8441
 7914SOL     OW35200   4.322   4.574   0.992 -0.0890  0.5741 -0.3178
 7914SOL    HW135201   4.309   4.587   0.898  1.1474 -0.9380 -0.7152
 7914SOL    HW235202   4.259   4.504   1.009  1.4428 -0.3467  1.5927
 7915SOL     OW35203   0.631   2.025  12.407 -0.3430  0.0480 -0.1616
 7915SOL    HW135204   0.539   2.049  12.398 -0.7094 -1.6194 -0.9206
 7915SOL    HW235205   0.661   2.089  12.343  1.0402  1.1774  1.6386
 7916SOL     OW35206   4.447   1.572   5.541 -0.2654  0.0245 -0.0243
 7916SOL    HW135207   4.356   1.544   5.532 -0.0379 -0.8215  0.2661
 7916SOL    HW235208   4.448   1.666   5.528 -2.0667  0.0828  0.2698
 7917SOL     OW35209   1.390   1.783  11.652  0.0846 -0.0797  0.0904
 7917SOL    HW135210   1.407   1.698  11.693 -1.1219  0.0944  0.9339
 7917SOL    HW235211   1.338   1.767  11.573  1.0355  0.9230 -0.7420
 7918SOL     OW35212   3.591   1.774   8.449  0.1495  0.4400  0.1153
 7918SOL    HW135213   3.615   1.806   8.536  2.4141  0.9466 -0.6996
 7918SOL    HW235214   3.668   1.792   8.395  0.9515  2.0979  1.8152
 7919SOL     OW35215   0.429   2.665  15.321  0.5322  0.1521  0.1370
 7919SOL    HW135216   0.388   2.579  15.311  1.3722 -0.2712  0.3304
 7919SOL    HW235217   0.358   2.717  15.359 -0.4942 -0.0565 -1.4668
 7920SOL     OW35218   3.310   2.417   5.931  0.1358  0.1812 -0.1144
 7920SOL    HW135219   3.395   2.381   5.957 -0.0363  0.2454  0.5268
 7920SOL    HW235220   3.265   2.335   5.909  0.2707  0.2334 -0.5948
 7921SOL     OW35221   4.552   3.648   7.443 -0.4079  0.2886 -0.2501
 7921SOL    HW135222   4.521   3.623   7.530  0.6672  3.3886  1.0321
 7921SOL    HW235223   4.516   3.569   7.403 -1.1595  0.6912 -0.3745
 7922SOL     OW35224   0.591   1.887  13.774  0.4974  0.0917  0.3766
 7922SOL    HW135225   0.557   1.935  13.698  0.7690 -2.3487 -1.2823
 7922SOL    HW235226   0.673   1.933  13.793  0.3443 -0.1153  1.4973
 7923SOL     OW35227   1.699   4.478  15.427 -0.3323 -0.1223  0.1595
 7923SOL    HW135228   1.696   4.400  15.483  2.8617 -0.3722 -0.0059
 7923SOL    HW235229   1.617   4.525  15.441  1.1809  2.2881  0.7526
 7924SOL     OW35230   4.689   2.406   7.825  0.1766 -0.1571  0.5872
 7924SOL    HW135231   4.676   2.363   7.910 -0.4246 -0.7645  0.1955
 7924SOL    HW235232   0.030   2.351   7.781 -0.8001 -1.1056  0.3245
 7925SOL     OW35233   0.347   0.639   9.030  0.4281 -0.3543  0.1239
 7925SOL    HW135234   0.408   0.619   9.101 -1.0529  2.2474  2.1300
 7925SOL    HW235235   0.323   0.548   9.009 -0.2790 -0.5031  1.5642
 7926SOL     OW35236   0.800   4.333  10.027  0.1200 -0.3970  0.0310
 7926SOL    HW135237   0.760   4.413   9.991 -0.9492 -1.3604 -0.9137
 7926SOL    HW235238   0.804   4.277   9.950 -0.2927 -0.0049 -0.2771
 7927SOL     OW35239   2.542   2.154   1.581  0.1721  0.2880  0.2029
 7927SOL    HW135240   2.599   2.226   1.553 -0.1199 -0.1815 -1.6303
 7927SOL    HW235241   2.581   2.142   1.668 -0.3720 -0.2032  0.3761
 7928SOL     OW35242   3.715   0.065   0.632 -0.3919  0.2281  0.2051
 7928SOL    HW135243   3.788   0.127   0.637  0.3918 -0.8410  1.7478
 7928SOL    HW235244   3.674   0.109   0.557 -0.9772  0.5792  0.7318
 7929SOL     OW35245   2.594   0.180   6.409  0.1373  0.6476 -0.1697
 7929SOL    HW135246   2.564   0.125   6.481  0.4785  0.5188 -0.1248
 7929SOL    HW235247   2.680   0.202   6.447  1.3342  3.4672 -4.5069
 7930SOL     OW35248   2.587   2.659   1.994  0.3096 -0.0133 -0.5595
 7930SOL    HW135249   2.661   2.622   2.043 -0.4861 -0.6163  0.1923
 7930SOL    HW235250   2.511   2.633   2.045 -1.1290  3.7378 -0.7743
 7931SOL     OW35251   2.755   3.838  17.391  0.1744  0.1763 -0.1775
 7931SOL    HW135252   2.791   3.919  17.426  0.5838 -0.3748  0.7026
 7931SOL    HW235253   2.786   3.778  17.459 -1.5459  1.0995  1.4258
 7932SOL     OW35254   3.316   1.897   9.584 -0.2778  0.5534  0.3479
 7932SOL    HW135255   3.301   1.802   9.592  1.4123  0.1564 -1.3517
 7932SOL    HW235256   3.401   1.916   9.622 -1.0351  2.6798  0.9508
 7933SOL     OW35257   0.288   2.862   3.057  0.0208 -0.2558  0.1186
 7933SOL    HW135258   0.276   2.882   2.965 -1.3516  1.0641  0.5741
 7933SOL    HW235259   0.331   2.778   3.043 -0.8507 -0.1960 -2.8428
 7934SOL     OW35260   4.700   2.904  13.148 -0.0394 -0.5356  0.7272
 7934SOL    HW135261   0.029   2.956  13.087 -0.4763 -2.1961 -1.0616
 7934SOL    HW235262   4.670   2.974  13.207  2.1518  0.9365  0.1091
 7935SOL     OW35263   4.521   0.529  13.452  0.0976  0.0319 -0.3722
 7935SOL    HW135264   4.497   0.443  13.487  1.7040  0.7883  2.5636
 7935SOL    HW235265   4.553   0.566  13.534  0.9911 -2.1559  0.2766
 7936SOL     OW35266   3.028   3.719   2.133 -0.2312  0.3588  0.4428
 7936SOL    HW135267   3.083   3.784   2.176 -0.0045 -0.5982  1.6008
 7936SOL    HW235268   2.992   3.761   2.054 -0.5794  0.3937  0.6184
 7937SOL     OW35269   1.097   2.339   7.817 -0.4737  0.3738 -0.2557
 7937SOL    HW135270   1.082   2.410   7.880 -0.2520  0.1901  0.0064
 7937SOL    HW235271   1.019   2.284   7.813  0.1975 -0.6963  1.6911
 7938SOL     OW35272   0.262   4.394  15.130 -0.2671 -0.2703 -0.1291
 7938SOL    HW135273   0.209   4.464  15.090 -0.9392 -1.2286 -0.9295
 7938SOL    HW235274   0.328   4.442  15.179 -0.5723 -1.4052  1.3982
 7939SOL     OW35275   0.073   0.325   5.905  0.0062  0.1040  0.1858
 7939SOL    HW135276   0.083   0.231   5.919 -1.0471 -0.1681 -0.9064
 7939SOL    HW235277   0.081   0.352   5.997  1.3914 -0.5303  0.2483
 7940SOL     OW35278   4.394   3.164  15.638 -0.5872 -0.2628 -0.2057
 7940SOL    HW135279   4.337   3.220  15.585  2.0906 -1.0514 -3.8468
 7940SOL    HW235280   4.424   3.229  15.703 -0.0429 -1.3513  0.6357
 7941SOL     OW35281   2.278   1.326   2.874 -0.1191  0.0444  0.3888
 7941SOL    HW135282   2.360   1.347   2.830 -0.7669 -0.4936 -1.0887
 7941SOL    HW235283   2.215   1.352   2.807 -0.0363  0.1649  0.3600
 7942SOL     OW35284   4.286   3.248  16.792  0.0137  0.2106  0.5944
 7942SOL    HW135285   4.230   3.317  16.759 -0.5651  0.1447  1.4208
 7942SOL    HW235286   4.226   3.195  16.845 -1.2967 -0.3690 -1.4602
 7943SOL     OW35287   2.671   3.714   9.262  0.0622  0.2261  0.9880
 7943SOL    HW135288   2.756   3.677   9.286  0.5453  0.1212 -0.8958
 7943SOL    HW235289   2.632   3.729   9.348  1.2877  1.4491  1.3286
 7944SOL     OW35290   3.230   0.526   9.857  0.2313 -0.2889 -0.2197
 7944SOL    HW135291   3.149   0.488   9.823  0.7488  0.4045 -2.2130
 7944SOL    HW235292   3.209   0.515   9.950 -2.2484  1.7137 -0.5400
 7945SOL     OW35293   0.629   0.249   5.904 -0.4523 -0.1135  0.4893
 7945SOL    HW135294   0.537   0.259   5.927 -0.1110  1.9277  0.9647
 7945SOL    HW235295   0.640   0.321   5.841 -1.4923 -1.5113 -1.2757
 7946SOL     OW35296   3.761   3.208   9.001 -0.0347 -0.0255 -0.1723
 7946SOL    HW135297   3.840   3.254   8.972 -1.3711  2.6689  0.4407
 7946SOL    HW235298   3.739   3.172   8.915 -0.3300 -1.8017  0.6414
 7947SOL     OW35299   0.503   2.615  17.551 -0.3581 -0.3178  0.1916
 7947SOL    HW135300   0.457   2.576  17.476  0.5621 -0.5114 -0.2791
 7947SOL    HW235301   0.590   2.578  17.536  1.3597  3.8670 -0.1134
 7948SOL     OW35302   3.304   4.258  16.750 -0.3028  0.1185 -0.0030
 7948SOL    HW135303   3.282   4.257  16.843 -1.9732 -1.6084 -0.4128
 7948SOL    HW235304   3.329   4.166  16.745 -2.8766 -0.6024  0.2307
 7949SOL     OW35305   0.093   4.415   8.662 -0.0783 -0.3066  0.5057
 7949SOL    HW135306   0.165   4.471   8.634  0.5938 -1.3153  0.2075
 7949SOL    HW235307   0.105   4.329   8.622  1.3654  0.3125 -0.3986
 7950SOL     OW35308   0.656   0.632   1.740 -0.0809  0.5080  0.1279
 7950SOL    HW135309   0.733   0.670   1.697  0.2796  0.9722  1.1691
 7950SOL    HW235310   0.637   0.702   1.803 -0.2343 -1.7381  2.5689
 7951SOL     OW35311   1.140   3.336   2.181  0.2860  0.2763  0.3245
 7951SOL    HW135312   1.090   3.369   2.107  2.8667  1.0309 -1.0933
 7951SOL    HW235313   1.193   3.262   2.151  0.6459  0.9623 -0.7203
 7952SOL     OW35314   2.489   0.491  16.354 -1.1545  0.8674 -0.6121
 7952SOL    HW135315   2.437   0.449  16.286 -0.5478 -1.9691  0.7028
 7952SOL    HW235316   2.571   0.442  16.347 -1.0420  0.6778  2.0613
 7953SOL     OW35317   3.763   3.025   6.573  0.0638  0.0327 -0.2840
 7953SOL    HW135318   3.824   3.093   6.603  1.4535 -1.8029  1.0710
 7953SOL    HW235319   3.682   3.043   6.622 -0.0829 -0.2624 -0.4216
 7954SOL     OW35320   0.546   0.189   3.290  0.4761  0.1205 -0.2612
 7954SOL    HW135321   0.519   0.171   3.380  1.4034 -1.3678 -0.2835
 7954SOL    HW235322   0.641   0.190   3.294  0.4871 -3.0332  0.2283
 7955SOL     OW35323   1.658   2.761   3.255 -0.0578  0.1485  0.3365
 7955SOL    HW135324   1.720   2.815   3.205  0.8333 -2.8001 -1.7377
 7955SOL    HW235325   1.657   2.819   3.332  0.1603  0.1545  0.3369
 7956SOL     OW35326   4.637   4.243   6.389  0.2113  0.0687  0.2577
 7956SOL    HW135327   4.599   4.265   6.304  0.5874 -1.3370 -0.2807
 7956SOL    HW235328   4.646   4.326   6.436  0.1548  0.1497  0.1263
 7957SOL     OW35329   2.676   1.360   9.503  0.7949  0.0006  0.0734
 7957SOL    HW135330   2.645   1.370   9.593  2.5117  1.5404  0.5009
 7957SOL    HW235331   2.593   1.333   9.465 -0.7130  1.8487  2.0960
 7958SOL     OW35332   2.765   2.234   5.199  0.4155  0.1911 -0.0484
 7958SOL    HW135333   2.775   2.153   5.249  1.3538  0.0100 -0.5310
 7958SOL    HW235334   2.673   2.243   5.172  1.0045 -0.6927 -2.3074
 7959SOL     OW35335   3.854   2.531   2.673  0.2471  0.0309 -0.8138
 7959SOL    HW135336   3.816   2.479   2.743  0.8473 -2.0324 -2.0064
 7959SOL    HW235337   3.898   2.471   2.612 -0.5350 -1.4102  0.0341
 7960SOL     OW35338   4.066   3.806   4.425 -0.0762  0.0180 -0.2293
 7960SOL    HW135339   3.991   3.751   4.448 -0.3996  0.7939  0.5814
 7960SOL    HW235340   4.052   3.876   4.489  0.5031 -1.9507  2.0342
 7961SOL     OW35341   4.344   2.182  10.991  0.6743 -0.0154 -0.3215
 7961SOL    HW135342   4.365   2.124  10.918 -3.1531 -1.4546 -0.2819
 7961SOL    HW235343   4.325   2.114  11.056  3.6871 -0.6949 -0.1714
 7962SOL     OW35344   0.373   4.084   2.573  0.3371  0.8631  0.0427
 7962SOL    HW135345   0.344   4.006   2.524 -1.3517  2.4516 -1.4706
 7962SOL    HW235346   0.435   4.127   2.515  0.8745 -0.5054 -0.4049
 7963SOL     OW35347   2.113   1.739  12.333 -0.1714 -0.1197 -0.1907
 7963SOL    HW135348   2.180   1.747  12.266 -0.7977 -3.7023 -1.2366
 7963SOL    HW235349   2.091   1.646  12.335 -0.0697 -0.1541 -0.6595
 7964SOL     OW35350   4.250   4.153   2.583  0.3553 -0.1229  0.0216
 7964SOL    HW135351   4.177   4.125   2.528 -0.6521  1.3958  0.5552
 7964SOL    HW235352   4.285   4.068   2.607  2.5692  0.4460 -1.2092
 7965SOL     OW35353   1.607   1.623   2.724  0.1624 -0.1212 -0.0158
 7965SOL    HW135354   1.623   1.666   2.808 -0.5495 -1.4223  0.7879
 7965SOL    HW235355   1.582   1.543   2.769 -0.9373 -0.3822 -1.0912
 7966SOL     OW35356   2.985   1.738   4.588  0.2174  0.1587  0.5506
 7966SOL    HW135357   2.935   1.675   4.639 -3.7313  1.7486 -1.3232
 7966SOL    HW235358   2.907   1.767   4.541  0.7957 -0.4645 -0.7860
 7967SOL     OW35359   2.798   0.050   8.476  0.0144 -0.8265 -0.6241
 7967SOL    HW135360   2.822   0.009   8.559  0.2581 -1.1187 -0.8362
 7967SOL    HW235361   2.883   0.083   8.447  0.1472 -0.4059  0.2497
 7968SOL     OW35362   0.704   1.806   5.375 -0.0627 -0.1625 -0.0563
 7968SOL    HW135363   0.723   1.898   5.394  0.8827  0.0422 -2.0521
 7968SOL    HW235364   0.720   1.795   5.282 -2.5654 -0.6728 -0.4380
 7969SOL     OW35365   4.311   1.324  13.535 -0.1550  0.5086  0.3079
 7969SOL    HW135366   4.256   1.379  13.480 -1.4181 -1.6629 -0.5887
 7969SOL    HW235367   4.359   1.273  13.470 -2.7196  0.6037 -1.6646
 7970SOL     OW35368   0.071   1.416   2.541  0.1973 -0.0818 -0.1632
 7970SOL    HW135369   0.144   1.359   2.516  1.8582  1.7065  0.5241
 7970SOL    HW235370   0.051   1.373   2.624  3.7643 -0.3211  0.5882
 7971SOL     OW35371   4.544   3.512  16.799 -0.1364 -0.2531 -0.2762
 7971SOL    HW135372   4.560   3.432  16.849  0.3231 -0.1834 -0.3107
 7971SOL    HW235373   4.517   3.474  16.715 -0.9227  0.8266 -0.5190
 7972SOL     OW35374   3.157   0.922  14.482 -0.1773 -0.8649  0.2395
 7972SOL    HW135375   3.219   0.898  14.550  0.3058  2.0258  0.8310
 7972SOL    HW235376   3.087   0.857  14.488 -0.2937 -0.8734 -1.2149
 7973SOL     OW35377   0.644   3.287   0.115  0.4220  0.2631 -0.2185
 7973SOL    HW135378   0.722   3.276   0.061  0.5158  0.9706 -0.2281
 7973SOL    HW235379   0.653   3.209   0.171  0.8885  0.7117  0.3284
 7974SOL     OW35380   0.683   3.548   8.234  0.2918 -0.2828  0.4293
 7974SOL    HW135381   0.690   3.635   8.196 -2.4083 -0.2881 -0.0741
 7974SOL    HW235382   0.706   3.571   8.324 -1.9188  0.8748  0.7081
 7975SOL     OW35383   1.754   1.651   2.033 -0.3470 -0.1325 -0.1031
 7975SOL    HW135384   1.830   1.708   2.023 -1.6784  1.6876  0.3481
 7975SOL    HW235385   1.700   1.709   2.086 -2.0279 -1.6404 -0.1478
 7976SOL     OW35386   0.565   1.904   4.291 -0.2303 -0.3181  0.1229
 7976SOL    HW135387   0.560   1.945   4.205  2.6408  1.2506  0.7031
 7976SOL    HW235388   0.627   1.958   4.341  1.0569 -2.8576  1.2845
 7977SOL     OW35389   2.347   1.019   4.194  0.4643 -0.4271 -0.0220
 7977SOL    HW135390   2.290   1.095   4.196 -0.9282 -1.4626 -0.2163
 7977SOL    HW235391   2.304   0.965   4.128  1.9153  1.1837 -2.2689
 7978SOL     OW35392   0.730   2.438   2.385 -0.1136  0.1135 -0.4286
 7978SOL    HW135393   0.638   2.440   2.357  0.4710  1.4380 -2.2431
 7978SOL    HW235394   0.719   2.431   2.479  1.0451  1.6348 -0.1830
 7979SOL     OW35395   0.611   1.265   0.020  0.3573 -0.6699 -0.0927
 7979SOL    HW135396   0.644   1.309  17.640  1.0537 -1.2363 -0.1181
 7979SOL    HW235397   0.529   1.232  17.681  0.7108 -1.1979 -0.4090
 7980SOL     OW35398   0.326   2.893  11.654  0.0361  0.3095  0.0956
 7980SOL    HW135399   0.359   2.818  11.605  1.2782  2.2193 -1.9545
 7980SOL    HW235400   0.385   2.881  11.729 -2.1982 -0.4843  1.7280
 7981SOL     OW35401   0.481   0.052  10.783  0.4873 -0.6374  0.3404
 7981SOL    HW135402   0.386   0.065  10.788  0.4533 -0.3894 -1.0891
 7981SOL    HW235403   0.496   0.126  10.725  0.8000  0.0837  1.3307
 7982SOL     OW35404   3.071   2.064  13.459 -0.6142 -0.2951 -0.4716
 7982SOL    HW135405   3.127   2.139  13.437  0.2924 -0.9063 -0.2456
 7982SOL    HW235406   3.116   1.996  13.410  0.6275  0.2489 -0.1011
 7983SOL     OW35407   3.792   2.274   4.587 -0.3190 -0.7399  0.3106
 7983SOL    HW135408   3.870   2.271   4.532  0.4861  0.4500  1.3720
 7983SOL    HW235409   3.740   2.202   4.552  0.0617 -1.9625  2.2277
 7984SOL     OW35410   2.117   4.440   3.049  0.4345 -0.7560  0.2606
 7984SOL    HW135411   2.167   4.358   3.044  0.8868 -0.4817  0.2690
 7984SOL    HW235412   2.044   4.428   3.109  0.8461 -0.4295  0.8272
 7985SOL     OW35413   3.267   2.197  10.615 -0.8094  0.6207 -0.2732
 7985SOL    HW135414   3.361   2.215  10.622 -0.9454  2.5548 -3.3347
 7985SOL    HW235415   3.245   2.279  10.570 -2.0774  0.5396  0.2047
 7986SOL     OW35416   2.992   0.945  15.997  0.2000  0.0581  0.3619
 7986SOL    HW135417   3.068   0.935  16.054  0.0800 -1.0074  0.3408
 7986SOL    HW235418   3.000   1.038  15.974  1.7635 -0.6340 -1.9158
 7987SOL     OW35419   3.861   4.431  17.644 -0.6665  0.4041  0.2290
 7987SOL    HW135420   3.891   4.519  17.620 -0.2659  0.5691  1.3096
 7987SOL    HW235421   3.891   4.371  17.575 -1.2592 -0.6096  0.8512
 7988SOL     OW35422   2.782   2.228   2.082 -0.4243  0.3089 -0.2629
 7988SOL    HW135423   2.763   2.136   2.097 -0.5100  0.2942 -0.4611
 7988SOL    HW235424   2.789   2.252   2.175 -0.9205  2.3906 -0.7421
 7989SOL     OW35425   2.423   2.059   0.439 -0.1266 -0.0582  0.3252
 7989SOL    HW135426   2.393   2.002   0.510  1.3628  0.3963  1.3191
 7989SOL    HW235427   2.478   2.009   0.379 -0.7942  1.1148 -1.2401
 7990SOL     OW35428   4.536   4.414   9.989  0.4482 -0.4750 -0.5384
 7990SOL    HW135429   4.453   4.452   9.961 -0.1424  1.0745  3.2922
 7990SOL    HW235430   4.594   4.489   9.976 -1.4527  0.8865 -1.1183
 7991SOL     OW35431   4.694   2.344  10.959 -0.4087 -0.0422 -0.4583
 7991SOL    HW135432   4.702   2.384  11.046  0.6088 -4.1507  1.3401
 7991SOL    HW235433   4.667   2.256  10.985 -2.5248  0.3275 -1.4031
 7992SOL     OW35434   2.965   3.865   0.351 -0.6317  0.2260 -0.6462
 7992SOL    HW135435   2.876   3.851   0.320  0.0319 -0.6975 -2.0888
 7992SOL    HW235436   2.974   3.777   0.388 -0.2272 -0.0139 -1.3179
 7993SOL     OW35437   2.568   0.563   8.051 -0.4987  0.0582  0.1949
 7993SOL    HW135438   2.618   0.608   7.982 -1.1591 -0.3189 -0.5283
 7993SOL    HW235439   2.624   0.486   8.062 -1.0934 -0.6576 -1.7346
 7994SOL     OW35440   3.691   2.599  15.031 -0.0780 -0.0805  0.2971
 7994SOL    HW135441   3.633   2.621  14.958 -1.7734 -2.9328  0.7706
 7994SOL    HW235442   3.723   2.687  15.051 -2.0389  0.6864  0.0284
 7995SOL     OW35443   0.016   1.842   2.120  0.4676 -0.4208  0.1162
 7995SOL    HW135444   4.663   1.836   2.064 -0.9621 -2.6886  2.3286
 7995SOL    HW235445   4.718   1.925   2.164  0.3541 -0.3404 -0.0940
 7996SOL     OW35446   1.782   0.777   6.738 -0.5358 -0.4349  0.6089
 7996SOL    HW135447   1.804   0.870   6.752 -0.6605 -0.3733  0.3873
 7996SOL    HW235448   1.687   0.776   6.728 -0.6191 -1.1788  1.5185
 7997SOL     OW35449   1.558   3.791   0.085  0.7112  0.5908  0.2447
 7997SOL    HW135450   1.486   3.809   0.024  2.2175  1.2261 -1.3713
 7997SOL    HW235451   1.548   3.697   0.098 -1.9044  1.0845  1.7535
 7998SOL     OW35452   2.708   0.833  16.682 -0.1079  0.2356 -0.4457
 7998SOL    HW135453   2.635   0.890  16.657 -0.5917  0.4473  1.4692
 7998SOL    HW235454   2.706   0.772  16.608  0.0918 -1.5280  1.0255
 7999SOL     OW35455   1.373   4.501   2.583  0.3024  0.1167 -0.2655
 7999SOL    HW135456   1.281   4.525   2.576  0.1025 -1.1944 -2.3307
 7999SOL    HW235457   1.414   4.586   2.567  1.4581 -0.1387  1.3681
 8000SOL     OW35458   3.357   4.241   8.612 -0.2530  0.2443  0.1223
 8000SOL    HW135459   3.285   4.239   8.674 -0.1848 -2.8538  0.1148
 8000SOL    HW235460   3.352   4.149   8.584  0.8705 -0.6416  2.8532
 8001SOL     OW35461   3.283   1.308   6.045  0.3325 -0.1671 -0.2505
 8001SOL    HW135462   3.199   1.323   6.087 -0.4313 -2.4744 -0.9526
 8001SOL    HW235463   3.314   1.223   6.077 -0.4279 -0.3824 -0.1019
 8002SOL     OW35464   1.529   2.731   1.159 -0.1441  0.7401 -0.5927
 8002SOL    HW135465   1.520   2.688   1.074 -0.1364 -0.8898  0.2365
 8002SOL    HW235466   1.470   2.806   1.152 -1.0240  0.2962  2.3318
 8003SOL     OW35467   1.173   1.286  16.747  0.1826 -0.2339 -0.0849
 8003SOL    HW135468   1.081   1.267  16.766  0.1451 -0.3269 -0.3590
 8003SOL    HW235469   1.186   1.346  16.820  0.7660  0.9153 -1.1188
 8004SOL     OW35470   4.463   3.645   5.930 -0.0146 -0.0034  0.1978
 8004SOL    HW135471   4.476   3.739   5.915  0.8336  0.1658  2.0482
 8004SOL    HW235472   4.406   3.653   6.007  0.6070 -2.7075  0.9224
 8005SOL     OW35473   1.452   1.428  15.388  0.3600 -0.0408  0.1975
 8005SOL    HW135474   1.392   1.427  15.314 -0.7354 -0.6410  1.0931
 8005SOL    HW235475   1.455   1.334  15.402 -2.8797 -0.1994 -0.1287
 8006SOL     OW35476   4.210   1.328   9.692 -0.0160  0.4204 -0.2633
 8006SOL    HW135477   4.296   1.369   9.698  0.0582  0.1745  0.3574
 8006SOL    HW235478   4.234   1.240   9.721  2.5328  0.6933 -1.5557
 8007SOL     OW35479   3.814   3.932   5.632  0.6371  0.2022  0.1649
 8007SOL    HW135480   3.802   4.025   5.651 -0.7475  0.4036 -1.6095
 8007SOL    HW235481   3.836   3.891   5.715 -0.4169  0.6316  0.6472
 8008SOL     OW35482   4.059   4.455  13.607  0.6650  0.1881 -0.0577
 8008SOL    HW135483   4.064   4.550  13.595 -0.8055 -0.0252 -2.3116
 8008SOL    HW235484   4.132   4.435  13.549  0.3750  0.3171 -0.4614
 8009SOL     OW35485   1.934   3.834   3.241 -0.0101  0.5463 -0.3250
 8009SOL    HW135486   1.961   3.758   3.294 -1.2285  2.1309  2.5539
 8009SOL    HW235487   1.858   3.792   3.201 -0.6910  0.7190  0.8013
 8010SOL     OW35488   0.422   4.598   4.212  0.0835 -0.1677  1.0032
 8010SOL    HW135489   0.450   4.550   4.134  0.1711  1.4534  0.0416
 8010SOL    HW235490   0.346   4.554   4.250  0.1827 -0.7182  0.5602
 8011SOL     OW35491   3.350   0.913   7.622 -0.0041  0.5768  0.0436
 8011SOL    HW135492   3.304   0.929   7.705 -0.7265 -0.3307 -0.1814
 8011SOL    HW235493   3.290   0.943   7.554 -0.4252  1.0969  0.6367
 8012SOL     OW35494   0.361   1.517  11.787  0.0900  0.3867  0.0630
 8012SOL    HW135495   0.362   1.436  11.737 -2.2971  1.3410 -1.5673
 8012SOL    HW235496   0.454   1.509  11.804  0.0022  0.9168  0.7895
 8013SOL     OW35497   3.670   0.049   3.943 -0.1276  0.0139  0.1221
 8013SOL    HW135498   3.580   0.083   3.948  0.2132  0.9947 -0.3733
 8013SOL    HW235499   3.662   4.680   3.922 -0.9282  0.1259 -0.0967
 8014SOL     OW35500   3.576   3.932  11.444  0.9747 -0.1380  0.4082
 8014SOL    HW135501   3.559   3.916  11.537 -0.8587  1.6346  0.3637
 8014SOL    HW235502   3.653   3.878  11.427  2.1881  1.6225  0.3319
 8015SOL     OW35503   1.250   0.093   3.274  0.0757  0.9970  0.3001
 8015SOL    HW135504   1.300   0.014   3.252 -1.9371 -0.5303  1.2379
 8015SOL    HW235505   1.263   0.086   3.369  0.6948  0.5994  0.1855
 8016SOL     OW35506   4.584   4.614   9.476 -0.2291 -0.1057  0.0906
 8016SOL    HW135507   4.654   4.587   9.416 -0.7987 -1.8089  0.2015
 8016SOL    HW235508   4.606   4.707   9.485  0.4895 -0.1337 -1.3578
 8017SOL     OW35509   1.323   2.999  14.056 -0.0444  0.3214 -0.0403
 8017SOL    HW135510   1.238   2.973  14.021 -1.2622  3.4623  0.6109
 8017SOL    HW235511   1.306   3.034  14.144  4.5728  0.2768  0.8838
 8018SOL     OW35512   4.163   2.845   2.809 -0.0404 -0.3264  0.1655
 8018SOL    HW135513   4.080   2.879   2.776  1.7234  3.5362 -0.3178
 8018SOL    HW235514   4.145   2.752   2.815 -1.3225  0.0577  2.5072
 8019SOL     OW35515   2.757   4.112   4.152 -0.2770 -0.0991 -0.3509
 8019SOL    HW135516   2.695   4.133   4.082  0.1358  0.8741 -0.4294
 8019SOL    HW235517   2.838   4.149   4.117  0.6970 -1.4793  0.4766
 8020SOL     OW35518   4.096   3.695   2.709  0.3752  0.4214 -0.7251
 8020SOL    HW135519   4.133   3.611   2.682 -1.0227 -0.4366  0.0369
 8020SOL    HW235520   4.009   3.658   2.725  0.4131  1.4338  1.7893
 8021SOL     OW35521   3.892   2.839   4.203  0.1368 -0.2978  0.0702
 8021SOL    HW135522   3.840   2.759   4.217  0.9487 -0.3907  2.5407
 8021SOL    HW235523   3.943   2.845   4.284  1.5375 -1.4442 -0.7153
 8022SOL     OW35524   4.537   2.488  14.733 -0.7187 -0.2075  0.6915
 8022SOL    HW135525   4.467   2.520  14.675  0.4512  0.8235 -0.1372
 8022SOL    HW235526   4.548   2.568  14.784 -1.3640  0.7340 -0.6339
 8023SOL     OW35527   3.477   3.633   6.591  0.0965 -0.0624 -0.2635
 8023SOL    HW135528   3.472   3.715   6.640  1.6441  0.7183 -1.4222
 8023SOL    HW235529   3.401   3.589   6.631 -0.2516  0.0890 -0.7521
 8024SOL     OW35530   1.218   2.021   4.549  0.4059 -0.3025  0.2049
 8024SOL    HW135531   1.164   2.053   4.477  0.8567 -1.0056 -0.4402
 8024SOL    HW235532   1.240   2.103   4.593  0.0358 -0.6189  1.0042
 8025SOL     OW35533   3.475   3.326   6.522  0.3070  0.0993  0.6225
 8025SOL    HW135534   3.440   3.284   6.443  0.5586  1.8718 -0.4374
 8025SOL    HW235535   3.405   3.390   6.538 -0.8410 -0.9448 -0.1792
 8026SOL     OW35536   0.604   0.487   7.775 -0.5980 -0.4793  0.2630
 8026SOL    HW135537   0.633   0.550   7.841 -0.7649 -1.0173  0.8441
 8026SOL    HW235538   0.679   0.447   7.732 -0.3412 -0.0486  0.3074
 8027SOL     OW35539   1.005   2.609   2.775 -0.0476  0.1935 -0.3280
 8027SOL    HW135540   1.019   2.558   2.696 -2.3366 -2.6389  1.0938
 8027SOL    HW235541   1.051   2.691   2.761  0.8164  0.2339  2.6232
 8028SOL     OW35542   3.838   4.443   3.597  0.3428  0.4025 -0.6730
 8028SOL    HW135543   3.900   4.512   3.622 -1.1122  0.7580  1.9570
 8028SOL    HW235544   3.759   4.495   3.593  0.4575  0.6865  0.5909
 8029SOL     OW35545   2.335   3.287   7.439 -0.3097 -0.3664 -0.6125
 8029SOL    HW135546   2.282   3.302   7.517 -3.1711 -1.9945 -2.2431
 8029SOL    HW235547   2.365   3.197   7.442  1.7285  0.3074 -0.5630
 8030SOL     OW35548   0.636   1.032   7.956  0.3200 -0.0427 -0.2934
 8030SOL    HW135549   0.682   1.098   8.007 -0.4647  0.9143 -0.8428
 8030SOL    HW235550   0.688   0.954   7.976  2.7821  2.0039  1.3319
 8031SOL     OW35551   0.635   0.228   8.598  0.5922  0.0669 -0.4404
 8031SOL    HW135552   0.673   0.211   8.511  0.2623  1.8115 -0.9273
 8031SOL    HW235553   0.555   0.176   8.600  0.3413  0.4992  0.3586
 8032SOL     OW35554   0.465   3.151   5.160  0.7101 -0.3970 -0.0936
 8032SOL    HW135555   0.397   3.084   5.163 -0.6701  0.9698 -1.1715
 8032SOL    HW235556   0.417   3.228   5.191  0.2569 -1.0836  0.8852
 8033SOL     OW35557   3.689   2.557   6.243  0.6656 -0.1301 -0.2325
 8033SOL    HW135558   3.687   2.498   6.168  2.8474 -1.2073  0.5739
 8033SOL    HW235559   3.629   2.622   6.206 -1.9661 -1.2405  2.1578
 8034SOL     OW35560   1.163   1.080   2.852  0.4275  0.6692  1.0321
 8034SOL    HW135561   1.099   1.105   2.918 -3.3207  0.0156 -2.3463
 8034SOL    HW235562   1.169   0.985   2.862 -1.1954  0.3066 -1.4145
 8035SOL     OW35563   0.997   2.696   7.406 -0.0687  0.5463  0.1069
 8035SOL    HW135564   0.941   2.718   7.332 -0.3497 -0.2068  0.0926
 8035SOL    HW235565   1.069   2.644   7.371 -1.2886 -1.6488  0.8667
 8036SOL     OW35566   0.974   2.735   3.860 -0.2140 -0.0830 -0.2027
 8036SOL    HW135567   0.886   2.730   3.898 -0.4857 -0.5252 -0.9058
 8036SOL    HW235568   0.989   2.644   3.833 -0.3384 -0.6376  1.5833
 8037SOL     OW35569   0.659   3.343  14.226  0.2422  0.5277  0.1923
 8037SOL    HW135570   0.651   3.278  14.296 -1.1970 -1.0843 -1.4592
 8037SOL    HW235571   0.647   3.290  14.147  1.8937 -0.9587  0.9467
 8038SOL     OW35572   2.468   0.953   6.421  0.1807  0.2420 -0.0199
 8038SOL    HW135573   2.453   0.859   6.419 -0.5927  0.3271  1.4980
 8038SOL    HW235574   2.421   0.969   6.503 -0.1520 -0.4848 -0.0700
 8039SOL     OW35575   1.904   0.924   7.780  0.2447  0.0026 -0.3135
 8039SOL    HW135576   1.842   0.852   7.785 -0.1532  0.4317  0.8790
 8039SOL    HW235577   1.992   0.898   7.752  0.4176 -1.0002  1.1505
 8040SOL     OW35578   1.874   2.809   0.275 -0.0596  0.0157 -0.3862
 8040SOL    HW135579   1.888   2.723   0.314  1.5095  1.3458  1.9478
 8040SOL    HW235580   1.946   2.863   0.308  0.4554 -2.3805  2.4349
 8041SOL     OW35581   3.657   3.002   8.088  0.7753 -0.0822  0.1412
 8041SOL    HW135582   3.666   2.990   7.994 -0.5111  0.8506 -0.0907
 8041SOL    HW235583   3.694   2.919   8.118 -0.0040  0.5310  2.8290
 8042SOL     OW35584   3.811   2.478  16.331  0.0459  0.3483 -0.2955
 8042SOL    HW135585   3.789   2.396  16.286 -1.3048  0.4319  0.2229
 8042SOL    HW235586   3.724   2.517  16.335 -0.4804 -0.7129 -1.5676
 8043SOL     OW35587   1.771   3.986   6.668  0.0092 -0.3093 -0.5691
 8043SOL    HW135588   1.804   3.976   6.757 -0.4211  0.1282 -0.3619
 8043SOL    HW235589   1.677   3.993   6.686 -0.0148  0.5963 -1.0591
 8044SOL     OW35590   0.308   1.988  12.686  0.2851  0.1381 -0.5254
 8044SOL    HW135591   0.316   2.073  12.729  2.1221  0.2531 -1.0881
 8044SOL    HW235592   0.373   1.933  12.728 -0.8524 -1.4257 -0.8155
 8045SOL     OW35593   4.457   3.892   9.486  1.2174  0.2451  0.4236
 8045SOL    HW135594   4.530   3.835   9.512  0.2357 -1.5627 -0.7507
 8045SOL    HW235595   4.441   3.938   9.568 -1.7573 -1.4376  0.7633
 8046SOL     OW35596   1.724   3.886   7.159  0.0337 -0.3829  0.7819
 8046SOL    HW135597   1.798   3.945   7.172  0.9398 -1.5393  0.9481
 8046SOL    HW235598   1.766   3.810   7.117  0.1167 -0.4514  0.9867
 8047SOL     OW35599   3.268   0.540   7.811  0.1630 -0.0471 -0.2260
 8047SOL    HW135600   3.322   0.583   7.744  0.6256 -0.7797 -0.3221
 8047SOL    HW235601   3.310   0.454   7.809 -1.4465 -0.8319 -0.5364
 8048SOL     OW35602   3.800   4.265  12.729 -0.1875 -0.1475 -0.4955
 8048SOL    HW135603   3.810   4.360  12.736 -0.1914 -0.1070 -0.9917
 8048SOL    HW235604   3.817   4.240  12.638  0.1213  1.8469 -0.9841
 8049SOL     OW35605   2.218   3.019  17.173 -0.1534 -0.4371 -0.4705
 8049SOL    HW135606   2.198   3.109  17.199  1.5161 -0.4172  0.7211
 8049SOL    HW235607   2.131   2.979  17.184  0.2361 -1.2640 -0.3819
 8050SOL     OW35608   3.392   0.650  11.815  0.0626  0.0624 -0.6374
 8050SOL    HW135609   3.454   0.628  11.885 -1.9916 -0.6079  0.9658
 8050SOL    HW235610   3.411   0.579  11.754  0.1772 -0.5446  0.1040
 8051SOL     OW35611   1.612   3.845   2.155  0.9494 -0.7387 -0.3550
 8051SOL    HW135612   1.573   3.792   2.085 -2.1489  0.7622  0.2558
 8051SOL    HW235613   1.555   3.815   2.226  0.3616  0.4367 -0.3424
 8052SOL     OW35614   4.206   1.982   7.367  0.2685 -0.0821  0.7359
 8052SOL    HW135615   4.185   2.034   7.445 -1.2477  0.2547  0.1028
 8052SOL    HW235616   4.210   2.050   7.300 -0.8262 -1.5780 -0.8509
 8053SOL     OW35617   3.628   4.448  15.558 -0.0556  0.1596 -0.8558
 8053SOL    HW135618   3.653   4.509  15.626  1.6615 -1.8045  0.2892
 8053SOL    HW235619   3.536   4.469  15.543 -0.2862 -0.3959 -0.2225
 8054SOL     OW35620   0.090   3.093   5.638 -0.0866 -0.5017  0.3848
 8054SOL    HW135621   0.054   3.177   5.666 -1.5473 -0.2860 -2.1350
 8054SOL    HW235622   0.110   3.102   5.545  1.5945  1.8402  0.9545
 8055SOL     OW35623   4.500   2.858   4.892 -0.2044 -0.1323 -0.6178
 8055SOL    HW135624   4.428   2.843   4.831  1.2036  0.0781 -2.3283
 8055SOL    HW235625   4.450   2.854   4.974  1.1206  0.3237  0.2022
 8056SOL     OW35626   2.008   3.036   4.881 -0.4264 -0.1725 -0.6630
 8056SOL    HW135627   2.074   3.105   4.877 -0.4340 -0.0186  2.5435
 8056SOL    HW235628   1.937   3.069   4.826 -0.5568  0.8007  0.0944
 8057SOL     OW35629   3.855   1.447   4.981  0.1433 -0.4626 -0.4315
 8057SOL    HW135630   3.874   1.371   4.925 -3.3907 -1.3594 -0.4185
 8057SOL    HW235631   3.824   1.404   5.061  2.7482 -1.2223  0.1680
 8058SOL     OW35632   0.034   3.339  14.730 -0.6181  0.0202 -0.1254
 8058SOL    HW135633   4.710   3.287  14.666 -0.0557 -0.0956 -0.4580
 8058SOL    HW235634   0.060   3.419  14.684  1.1267  0.1580  1.0955
 8059SOL     OW35635   0.028   1.461   4.309 -0.0445 -0.0704 -0.3557
 8059SOL    HW135636   0.046   1.426   4.221  1.0618  0.7709 -0.4680
 8059SOL    HW235637   4.665   1.424   4.322  0.9812 -0.9196  4.0704
 8060SOL     OW35638   2.170   3.067  11.616 -0.0262  0.2530 -0.0542
 8060SOL    HW135639   2.238   3.125  11.649 -0.3753 -0.1991  1.5148
 8060SOL    HW235640   2.216   2.987  11.590 -0.4233 -0.8470  2.5857
 8061SOL     OW35641   4.163   1.089   0.145  0.2023 -0.0816 -0.2067
 8061SOL    HW135642   4.170   1.173   0.190 -1.3657  0.4862 -1.0109
 8061SOL    HW235643   4.112   1.121   0.070  1.0543 -0.0163 -0.7551
 8062SOL     OW35644   4.563   1.728   2.916  0.0013  0.9374 -0.0793
 8062SOL    HW135645   4.568   1.823   2.912  1.3114  0.7268 -3.1321
 8062SOL    HW235646   4.629   1.716   2.985  2.2271  3.2984 -1.8125
 8063SOL     OW35647   1.212   1.416   3.043 -0.2224  0.7130 -0.4538
 8063SOL    HW135648   1.199   1.324   3.064 -1.2513  1.2155  1.1176
 8063SOL    HW235649   1.124   1.448   3.026 -0.7569 -2.1474 -2.9205
 8064SOL     OW35650   2.101   0.957   3.242  0.5545  0.0365 -0.1988
 8064SOL    HW135651   2.043   1.033   3.254  0.6554  0.3543 -1.8245
 8064SOL    HW235652   2.108   0.924   3.332 -2.4892 -1.4406 -0.4838
 8065SOL     OW35653   2.022   1.619  17.032  0.3805 -0.0052 -0.5798
 8065SOL    HW135654   1.994   1.536  16.994 -1.3249 -0.2889  1.3338
 8065SOL    HW235655   2.116   1.619  17.012 -0.1285 -0.9306 -2.9510
 8066SOL     OW35656   0.690   4.647   2.777 -0.3398 -0.1526  0.2951
 8066SOL    HW135657   0.737   4.675   2.698  0.5676  2.3961  1.7431
 8066SOL    HW235658   0.690   0.009   2.819  2.0653  1.0603 -2.1191
 8067SOL     OW35659   2.771   0.831   9.829  0.1930 -0.5075 -0.4710
 8067SOL    HW135660   2.730   0.915   9.848  1.4378  0.1687 -0.8198
 8067SOL    HW235661   2.746   0.784   9.909  0.3632  0.6399  0.2663
 8068SOL     OW35662   1.389   3.427   9.538 -0.3507  0.4296 -0.3589
 8068SOL    HW135663   1.460   3.417   9.601 -0.5299 -0.7768 -0.3371
 8068SOL    HW235664   1.390   3.522   9.527  0.8411  0.5622  0.9371
 8069SOL     OW35665   2.228   3.941   4.741  0.2663 -0.1608  0.4398
 8069SOL    HW135666   2.227   3.894   4.657 -1.1288  0.3216  0.1910
 8069SOL    HW235667   2.257   4.026   4.710  2.0692 -1.0521 -0.3111
 8070SOL     OW35668   1.065   0.335   4.926  0.4103  0.1204  0.4160
 8070SOL    HW135669   0.985   0.349   4.876 -0.6645 -0.5286  1.9569
 8070SOL    HW235670   1.034   0.266   4.985  0.8343 -0.1648  0.3124
 8071SOL     OW35671   3.145   1.862   2.039  0.0471  0.1902 -0.2301
 8071SOL    HW135672   3.051   1.874   2.022  0.4590 -1.0581 -3.3068
 8071SOL    HW235673   3.150   1.913   2.121  0.0618  0.2166 -0.2475
 8072SOL     OW35674   2.891   4.057   2.806  0.4417  0.6429  0.1387
 8072SOL    HW135675   2.869   4.123   2.872 -0.4461 -0.4643  0.9550
 8072SOL    HW235676   2.859   3.981   2.854  2.4264  0.7437  1.6538
 8073SOL     OW35677   1.066   3.151   6.589  0.0128 -0.1133  0.0002
 8073SOL    HW135678   1.037   3.102   6.666 -1.6357 -0.4243 -0.8166
 8073SOL    HW235679   0.995   3.133   6.527  0.7205 -1.1293 -0.5136
 8074SOL     OW35680   3.410   2.234   3.631  0.1693  0.5689 -0.5465
 8074SOL    HW135681   3.424   2.255   3.538  0.1916  0.4688 -0.5654
 8074SOL    HW235682   3.455   2.150   3.626 -1.0591 -0.1239  0.1034
 8075SOL     OW35683   1.401   1.180  16.016 -0.2376 -0.1498 -0.2176
 8075SOL    HW135684   1.377   1.163  16.107  2.1803 -0.2543  0.4100
 8075SOL    HW235685   1.327   1.228  15.978  0.8282  0.5677 -1.3652
 8076SOL     OW35686   0.592   3.971   3.193  0.1167 -0.4892  0.0437
 8076SOL    HW135687   0.556   4.036   3.132  0.9001  1.7037  1.9381
 8076SOL    HW235688   0.600   3.899   3.130 -0.0453 -0.2547 -0.2417
 8077SOL     OW35689   0.758   1.688  14.052 -0.2424  0.0069 -0.0510
 8077SOL    HW135690   0.735   1.597  14.032 -0.7182  0.6267 -2.3774
 8077SOL    HW235691   0.726   1.722  13.968 -0.6655 -0.1890  0.0293
 8078SOL     OW35692   2.576   1.535   5.435  0.4991 -0.0854  0.2504
 8078SOL    HW135693   2.580   1.630   5.448  0.0426 -0.0224 -0.0612
 8078SOL    HW235694   2.488   1.523   5.400  0.8016  0.1008 -0.5909
 8079SOL     OW35695   0.984   3.209   7.479  0.2420 -0.2603 -0.0823
 8079SOL    HW135696   0.994   3.237   7.388 -2.7471  0.7526 -0.1057
 8079SOL    HW235697   0.999   3.115   7.464 -1.9945 -0.9543  1.9742
 8080SOL     OW35698   3.975   2.753   3.263  0.5119 -0.3281  0.2116
 8080SOL    HW135699   4.042   2.737   3.330 -0.6535 -0.5787  1.3131
 8080SOL    HW235700   3.960   2.665   3.229 -0.8535  0.0462 -0.1637
 8081SOL     OW35701   1.602   4.589   7.144  0.4904 -0.0812  0.2170
 8081SOL    HW135702   1.695   4.613   7.144  0.0174  1.6926 -0.0975
 8081SOL    HW235703   1.557   4.655   7.092  1.4447 -2.0704 -3.1058
 8082SOL     OW35704   4.611   0.419   3.273  0.0530  0.1568 -0.4740
 8082SOL    HW135705   4.626   0.380   3.359 -1.1315 -2.7664 -1.5686
 8082SOL    HW235706   4.527   0.464   3.281  0.7978  1.3484  0.6300
 8083SOL     OW35707   1.753   2.034   1.290 -0.0554  0.4020 -0.5238
 8083SOL    HW135708   1.833   1.982   1.289 -0.8783 -0.8178 -2.4537
 8083SOL    HW235709   1.691   1.961   1.290  0.5395 -0.1165  0.8479
 8084SOL     OW35710   1.741   2.961   5.269 -0.5567 -0.0331 -0.2271
 8084SOL    HW135711   1.823   2.948   5.222 -0.4707  2.6415 -0.8104
 8084SOL    HW235712   1.778   2.964   5.357 -2.3929  0.0952  0.5424
 8085SOL     OW35713   0.913   2.512  13.641  0.0422  0.0822  0.5781
 8085SOL    HW135714   0.873   2.492  13.557  1.1166 -0.4894  0.2052
 8085SOL    HW235715   0.830   2.511  13.689 -0.7078 -0.0650 -0.7137
 8086SOL     OW35716   2.340   3.823  14.171  0.1510  0.2823 -0.0041
 8086SOL    HW135717   2.328   3.911  14.134 -1.8427  0.5082  1.1677
 8086SOL    HW235718   2.365   3.776  14.092 -1.7337 -0.9807  0.1416
 8087SOL     OW35719   3.001   0.716  14.540  0.2378  0.4350  0.1997
 8087SOL    HW135720   2.905   0.709  14.541  0.1156  2.7091  4.6705
 8087SOL    HW235721   3.029   0.645  14.597  1.1299 -1.0216 -2.0357
 8088SOL     OW35722   0.282   1.910   2.095 -0.3921 -0.3263  0.0360
 8088SOL    HW135723   0.191   1.881   2.093 -0.5868  0.0488  3.3671
 8088SOL    HW235724   0.305   1.911   2.188  2.7119  0.5627 -0.7530
 8089SOL     OW35725   1.132   0.267   6.550 -0.3097  0.0522  0.2193
 8089SOL    HW135726   1.166   0.182   6.522  1.7772  0.4412  1.5526
 8089SOL    HW235727   1.138   0.327   6.476 -0.8227 -0.7178 -0.4452
 8090SOL     OW35728   3.535   4.304   5.131 -0.5448 -0.6005 -0.5153
 8090SOL    HW135729   3.569   4.270   5.213 -0.6626  1.4711  0.3887
 8090SOL    HW235730   3.617   4.328   5.086  0.5983  1.4254  2.6892
 8091SOL     OW35731   3.953   4.165   5.457  0.3226 -0.0472  0.3628
 8091SOL    HW135732   3.872   4.179   5.506 -0.3043  0.0708 -0.7072
 8091SOL    HW235733   4.020   4.182   5.523  2.1589 -3.3129 -0.6202
 8092SOL     OW35734   3.005   1.235  10.878 -0.1978 -0.1030 -0.1726
 8092SOL    HW135735   2.981   1.306  10.818  1.2176  0.1849 -0.4161
 8092SOL    HW235736   2.940   1.167  10.858 -1.9712  1.1331  1.4118
 8093SOL     OW35737   3.574   2.932  12.929  0.6368 -0.5992  0.2022
 8093SOL    HW135738   3.568   2.845  12.891  0.0982  0.2377 -1.6402
 8093SOL    HW235739   3.618   2.987  12.863 -0.9442 -1.0716 -1.2518
 8094SOL     OW35740   1.496   1.846   0.948  0.1209 -0.7524  0.9205
 8094SOL    HW135741   1.483   1.756   0.919 -1.1817 -0.4901  0.6804
 8094SOL    HW235742   1.550   1.885   0.879  0.3216 -0.3041  1.3310
 8095SOL     OW35743   3.149   1.099   6.745 -0.2527  0.5966  0.0160
 8095SOL    HW135744   3.148   1.185   6.703 -0.8864  1.0544  0.9949
 8095SOL    HW235745   3.117   1.120   6.833 -0.8378 -2.0847  0.4433
 8096SOL     OW35746   3.900   0.743   0.283 -0.3161 -0.8333 -0.0437
 8096SOL    HW135747   3.809   0.735   0.309 -0.0317 -0.0815  1.1588
 8096SOL    HW235748   3.927   0.821   0.331 -2.2685  0.6238 -1.3143
 8097SOL     OW35749   3.828   2.749   6.686 -0.2755  0.9147 -0.1244
 8097SOL    HW135750   3.735   2.749   6.666 -0.3142  0.0044  0.0558
 8097SOL    HW235751   3.850   2.842   6.678  0.1743  0.6992 -1.3162
 8098SOL     OW35752   1.155   3.614  10.020  0.2087  0.0183 -0.1033
 8098SOL    HW135753   1.194   3.535   9.982  0.2124  0.2981 -0.6725
 8098SOL    HW235754   1.085   3.635   9.959  1.8178  1.3503 -1.5006
 8099SOL     OW35755   3.563   4.711   9.979  0.2764 -0.5045 -0.1823
 8099SOL    HW135756   3.568   0.075  10.015  0.4499 -1.2142  1.5397
 8099SOL    HW235757   3.553   4.719   9.884  0.0833  1.3835  0.0103
 8100SOL     OW35758   2.002   4.363   7.055  0.2141 -0.0371 -0.6401
 8100SOL    HW135759   2.037   4.309   7.126  0.3711 -0.2264 -0.8579
 8100SOL    HW235760   2.084   4.395   7.016  1.3692 -1.4331  0.6538
 8101SOL     OW35761   3.338   0.732  15.144  0.4557  0.0816 -0.2255
 8101SOL    HW135762   3.291   0.660  15.187  1.1922 -0.0017  0.4501
 8101SOL    HW235763   3.346   0.790  15.220 -0.9325  1.4594 -1.1196
 8102SOL     OW35764   0.605   2.729   9.513 -0.1305  0.3312 -0.6472
 8102SOL    HW135765   0.575   2.655   9.565 -0.6455  1.0650  0.1020
 8102SOL    HW235766   0.638   2.779   9.588  2.2462 -0.5336 -1.1215
 8103SOL     OW35767   4.324   3.135   5.858 -0.7554 -0.3367 -0.2799
 8103SOL    HW135768   4.360   3.089   5.934 -0.9235 -2.3138 -1.4280
 8103SOL    HW235769   4.288   3.210   5.907 -1.7593 -0.8957 -0.1686
 8104SOL     OW35770   1.424   2.500   3.143  0.2745  0.4406 -0.4455
 8104SOL    HW135771   1.491   2.526   3.080  0.1112  0.4838 -0.6021
 8104SOL    HW235772   1.451   2.410   3.159 -1.4680  0.2289  1.3960
 8105SOL     OW35773   3.501   2.001  11.257 -0.4655 -0.5216 -0.4813
 8105SOL    HW135774   3.462   1.975  11.174 -1.3757 -1.2994  0.1917
 8105SOL    HW235775   3.568   1.933  11.256  0.3276  0.2002  2.8089
 8106SOL     OW35776   1.312   3.868   8.098  0.0160 -0.3089 -0.1242
 8106SOL    HW135777   1.317   3.774   8.078 -0.2372 -0.0946 -1.1659
 8106SOL    HW235778   1.366   3.861   8.177  0.3138  1.7764 -0.1406
 8107SOL     OW35779   3.214   0.060  10.248 -0.5760  0.8503  0.0355
 8107SOL    HW135780   3.200   4.695  10.279 -1.6125 -0.0004 -2.8868
 8107SOL    HW235781   3.174   0.106  10.322  0.5489  1.6761  0.1387
 8108SOL     OW35782   2.806   3.927   3.470 -0.6494  0.3760  0.4004
 8108SOL    HW135783   2.833   3.892   3.554  0.7530  0.8514  0.1476
 8108SOL    HW235784   2.845   4.014   3.475  1.7314 -0.7826  2.0885
 8109SOL     OW35785   4.507   3.405   7.316  0.2619 -0.0253 -0.1442
 8109SOL    HW135786   4.427   3.387   7.266 -0.2917 -0.1748  0.8079
 8109SOL    HW235787   4.553   3.321   7.312 -0.9513 -0.7483  1.0407
 8110SOL     OW35788   1.336   1.358  15.670  0.3574  0.3281  0.2280
 8110SOL    HW135789   1.278   1.307  15.614  0.8973  0.4860 -0.4758
 8110SOL    HW235790   1.398   1.294  15.705  0.7549  0.2942 -0.5238
 8111SOL     OW35791   3.191   2.582   6.132  0.1008 -0.0224 -0.0116
 8111SOL    HW135792   3.231   2.564   6.047 -1.6793  0.5730 -0.9616
 8111SOL    HW235793   3.256   2.546   6.193  1.0858 -2.4042 -2.5117
 8112SOL     OW35794   1.477   4.418   5.547 -0.2699  0.2722  0.9502
 8112SOL    HW135795   1.444   4.502   5.514  2.1480  0.5448 -0.7290
 8112SOL    HW235796   1.451   4.366   5.470  1.4511  1.2563 -0.3032
 8113SOL     OW35797   2.282   3.424  14.482  0.3452 -0.0871 -0.1730
 8113SOL    HW135798   2.219   3.426  14.554  1.5623  0.5458  0.8855
 8113SOL    HW235799   2.324   3.339  14.499  0.6714  0.1185  0.0601
 8114SOL     OW35800   3.108   2.855   7.784  0.3885  0.1961  0.3239
 8114SOL    HW135801   3.047   2.926   7.764 -0.1963 -1.0749 -2.2991
 8114SOL    HW235802   3.151   2.899   7.858  1.6818  0.4714 -0.5854
 8115SOL     OW35803   1.988   4.369  13.269  0.0456  0.4412  1.0800
 8115SOL    HW135804   1.981   4.273  13.267 -0.3367  0.4539  1.5742
 8115SOL    HW235805   2.044   4.377  13.193 -0.8500 -2.9112  0.0768
 8116SOL     OW35806   0.115   0.636  17.036  0.1725  0.1506  0.6690
 8116SOL    HW135807   0.182   0.595  16.980 -2.4651  0.1938 -2.5161
 8116SOL    HW235808   0.123   0.728  17.012 -1.4469  0.3942  1.0560
 8117SOL     OW35809   2.878   0.629   4.196 -0.6649  0.4849  0.0237
 8117SOL    HW135810   2.868   0.675   4.112 -0.7025 -1.9453 -1.2964
 8117SOL    HW235811   2.788   0.598   4.206 -0.3518  0.1446  1.6202
 8118SOL     OW35812   0.833   0.200   6.755 -0.5065  0.4595  0.0428
 8118SOL    HW135813   0.765   0.230   6.816  0.0970 -0.5599  1.2152
 8118SOL    HW235814   0.878   0.284   6.742  0.6508 -0.4793 -2.0020
 8119SOL     OW35815   2.104   2.801   8.693  0.2616  0.1120  0.2576
 8119SOL    HW135816   2.198   2.791   8.678  0.0851 -0.3471 -0.5388
 8119SOL    HW235817   2.095   2.894   8.671 -0.6390  0.3303  1.5231
 8120SOL     OW35818   1.267   1.030   4.866 -0.2119  0.1166 -0.2831
 8120SOL    HW135819   1.340   0.991   4.818 -0.4008 -0.1633 -0.3452
 8120SOL    HW235820   1.192   0.984   4.827 -0.9543 -0.3279  1.6591
 8121SOL     OW35821   0.215   2.366   1.216 -0.2568 -0.0741 -0.5842
 8121SOL    HW135822   0.215   2.343   1.309 -0.3966  1.1630 -0.2764
 8121SOL    HW235823   0.139   2.315   1.190  2.0401 -3.1047 -1.3204
 8122SOL     OW35824   4.110   1.765   8.289 -0.1026  0.2512  0.1101
 8122SOL    HW135825   4.180   1.783   8.227 -0.2220 -0.9470 -0.3628
 8122SOL    HW235826   4.154   1.690   8.329  0.5311  0.8317  0.5083
 8123SOL     OW35827   2.404   1.147   3.880  0.3530  0.8117  0.3764
 8123SOL    HW135828   2.334   1.150   3.946 -1.7145 -1.8291 -1.7335
 8123SOL    HW235829   2.345   1.170   3.808  0.7245 -0.7953 -0.4251
 8124SOL     OW35830   3.196   2.620   0.661  0.0801  0.2134  0.3580
 8124SOL    HW135831   3.118   2.662   0.622  0.2917  0.9050  0.6735
 8124SOL    HW235832   3.258   2.634   0.589 -0.7576  1.1380 -0.1921
 8125SOL     OW35833   2.214   0.376   6.412  0.4007 -0.4940 -0.0287
 8125SOL    HW135834   2.221   0.292   6.458  0.6767 -0.3661  0.1652
 8125SOL    HW235835   2.296   0.377   6.363  1.5772  1.9813  2.0179
 8126SOL     OW35836   2.440   2.035  12.026  0.1897 -0.2416 -0.0095
 8126SOL    HW135837   2.450   2.123  12.062  0.9948 -0.1935 -0.3619
 8126SOL    HW235838   2.421   2.049  11.933  0.2482  2.7596  0.4419
 8127SOL     OW35839   2.644   2.125  14.082 -0.7071  0.2527 -0.3969
 8127SOL    HW135840   2.591   2.143  14.004 -2.4986 -1.3601  0.4681
 8127SOL    HW235841   2.728   2.167  14.062 -0.5340 -0.1632 -0.5333
 8128SOL     OW35842   3.005   2.205   1.670 -0.1674 -0.2355  0.0181
 8128SOL    HW135843   2.973   2.255   1.745  0.5695  0.2451  0.0131
 8128SOL    HW235844   3.095   2.237   1.667 -0.7833  1.4470 -0.8345
 8129SOL     OW35845   3.774   3.105   0.342 -0.1971 -0.9073 -0.5331
 8129SOL    HW135846   3.828   3.171   0.386  0.2172 -0.4442 -1.7471
 8129SOL    HW235847   3.763   3.138   0.253 -0.0868  1.1786  0.2300
 8130SOL     OW35848   2.651   1.339   7.245 -0.5735  0.1810 -0.3130
 8130SOL    HW135849   2.597   1.359   7.169 -0.7779 -1.1615 -0.5143
 8130SOL    HW235850   2.601   1.272   7.293 -0.5656 -1.0373 -2.0269
 8131SOL     OW35851   3.530   0.261   9.480  0.0972  0.9842  0.3910
 8131SOL    HW135852   3.591   0.235   9.549 -0.5056  0.6118  0.7844
 8131SOL    HW235853   3.587   0.266   9.403 -0.2162 -3.4470 -0.1644
 8132SOL     OW35854   1.128   2.005   2.691  0.1853  0.3505 -0.1540
 8132SOL    HW135855   1.122   1.950   2.769  0.7647 -0.7736 -0.8964
 8132SOL    HW235856   1.037   2.029   2.675 -0.2689 -0.1620  1.6404
 8133SOL     OW35857   2.234   3.074   4.118 -0.5299 -0.1398 -0.0623
 8133SOL    HW135858   2.139   3.064   4.111 -0.5655 -0.3397  0.6785
 8133SOL    HW235859   2.237   3.121   4.201  1.3172  2.1246 -1.4236
 8134SOL     OW35860   0.520   4.181   8.266 -0.6866 -0.0497  0.7126
 8134SOL    HW135861   0.447   4.163   8.325 -0.4262 -0.3329  0.9453
 8134SOL    HW235862   0.477   4.202   8.183  2.7716  1.4470 -0.7202
 8135SOL     OW35863   1.156   0.829  13.777 -0.4399 -0.1038  0.6413
 8135SOL    HW135864   1.141   0.860  13.867 -1.2969 -0.9660  0.7805
 8135SOL    HW235865   1.210   0.750  13.783 -0.8516 -0.4595 -0.5551
 8136SOL     OW35866   2.016   0.830   1.108  0.4729 -0.4824 -0.8021
 8136SOL    HW135867   2.052   0.763   1.050  2.0560  0.0873 -0.4906
 8136SOL    HW235868   2.040   0.799   1.195  0.8263 -0.3147 -0.8394
 8137SOL     OW35869   3.381   2.058  13.695  0.4022  0.2363  0.2569
 8137SOL    HW135870   3.328   2.133  13.721  0.4651  0.6156 -0.6992
 8137SOL    HW235871   3.431   2.092  13.622 -1.2393 -1.2227 -1.5541
 8138SOL     OW35872   0.065   0.030   3.008 -0.7082 -0.9726 -0.5487
 8138SOL    HW135873   0.050   4.661   3.025  2.0325 -1.3099  0.0198
 8138SOL    HW235874   0.000   0.074   3.063  0.8225 -0.1839  0.6541
 8139SOL     OW35875   3.526   4.241   9.468  0.2620  0.0762  0.1680
 8139SOL    HW135876   3.442   4.203   9.443  0.0679 -1.1175  2.6192
 8139SOL    HW235877   3.511   4.333   9.444 -3.6370 -1.0243 -1.5048
 8140SOL     OW35878   1.517   2.871  12.356 -0.3214  0.3134  0.0655
 8140SOL    HW135879   1.609   2.895  12.352  0.5074 -2.5450  2.1197
 8140SOL    HW235880   1.511   2.827  12.271 -0.4907  1.3561 -0.4631
 8141SOL     OW35881   1.421   4.447   7.271  0.3039  0.1124  0.0697
 8141SOL    HW135882   1.409   4.363   7.226  2.6315 -1.3552  2.1958
 8141SOL    HW235883   1.494   4.478   7.217 -0.0743 -0.8342 -0.9819
 8142SOL     OW35884   1.891   3.346  17.519  0.2957 -0.0421  0.1034
 8142SOL    HW135885   1.826   3.415  17.516 -0.1755 -0.4909 -0.0235
 8142SOL    HW235886   1.921   3.356  17.609 -1.3392  1.1663  0.5035
 8143SOL     OW35887   2.867   2.621   2.838  1.0056  0.3154 -0.2036
 8143SOL    HW135888   2.819   2.671   2.904 -0.6679 -0.9460 -0.4282
 8143SOL    HW235889   2.922   2.687   2.797  2.3498 -1.6688 -1.5943
 8144SOL     OW35890   4.467   2.416   5.282  1.0103  0.6437 -0.0110
 8144SOL    HW135891   4.399   2.472   5.317  1.1737 -0.5011  2.1109
 8144SOL    HW235892   4.433   2.326   5.281  0.0482  1.0224 -1.0709
 8145SOL     OW35893   3.341   4.233   3.133 -0.6055 -0.1582 -0.3850
 8145SOL    HW135894   3.412   4.287   3.097  0.6049 -1.6519 -0.2336
 8145SOL    HW235895   3.283   4.227   3.057 -1.8428 -0.8485  0.6121
 8146SOL     OW35896   1.290   0.381  16.701  0.2614 -0.0282 -0.2199
 8146SOL    HW135897   1.367   0.333  16.730 -0.9349 -1.9786 -0.3251
 8146SOL    HW235898   1.253   0.402  16.787  0.5979  3.2393 -0.8478
 8147SOL     OW35899   2.354   2.172   5.828  0.2578  0.1000 -0.4902
 8147SOL    HW135900   2.380   2.263   5.844 -0.6445 -0.0475  1.8525
 8147SOL    HW235901   2.262   2.192   5.812 -0.4761 -1.6608  1.5759
 8148SOL     OW35902   4.106   3.586  12.314  0.3574 -0.5500  0.3355
 8148SOL    HW135903   4.188   3.580  12.265  0.6999  2.8674  0.4428
 8148SOL    HW235904   4.152   3.628  12.386  3.2227 -2.3302 -0.4869
 8149SOL     OW35905   2.009   2.321   1.504 -0.4452  0.1362 -0.0536
 8149SOL    HW135906   2.033   2.389   1.566  0.8813 -0.7656  0.4189
 8149SOL    HW235907   2.073   2.253   1.526 -2.4883 -1.3031  1.4704
 8150SOL     OW35908   3.170   2.098   9.514  0.5676  0.5055  0.2357
 8150SOL    HW135909   3.233   2.152   9.466 -0.7092 -0.7225 -2.8504
 8150SOL    HW235910   3.231   2.031   9.545 -0.9301  0.3096  2.7291
 8151SOL     OW35911   1.062   3.906   5.752  0.0306 -0.2831 -0.1496
 8151SOL    HW135912   1.112   3.854   5.689 -0.5750 -0.3595 -0.5627
 8151SOL    HW235913   1.096   3.883   5.839 -0.3148 -0.1534  0.0191
 8152SOL     OW35914   1.790   2.818  11.067  0.2973  0.0090  0.2240
 8152SOL    HW135915   1.782   2.853  11.155 -1.3255 -0.2851  0.2084
 8152SOL    HW235916   1.848   2.883  11.028 -0.7836  1.2015  0.6101
 8153SOL     OW35917   0.762   0.048   2.314  0.2419 -0.1571 -0.9973
 8153SOL    HW135918   0.821   0.030   2.241  1.3173  0.6713 -0.3356
 8153SOL    HW235919   0.678   0.032   2.271  0.4592  0.7293 -1.7751
 8154SOL     OW35920   4.436   3.643   2.204 -0.2760  0.1393 -0.7248
 8154SOL    HW135921   4.523   3.636   2.164 -0.2422  0.4146 -0.6946
 8154SOL    HW235922   4.369   3.626   2.137 -0.6709 -0.7883 -0.0879
 8155SOL     OW35923   2.057   3.099   5.469 -0.0254 -0.5286  0.0061
 8155SOL    HW135924   2.132   3.108   5.410 -0.6724  0.2761 -0.7010
 8155SOL    HW235925   1.990   3.114   5.402  0.2728  0.0278 -0.1689
 8156SOL     OW35926   0.172   2.680   0.661 -0.4436  0.1771 -0.1945
 8156SOL    HW135927   0.089   2.653   0.699 -0.7955  0.1633 -0.9793
 8156SOL    HW235928   0.187   2.770   0.691  1.3300 -1.2936  3.3332
 8157SOL     OW35929   0.554   3.831  10.749 -0.1114 -0.2490 -0.1170
 8157SOL    HW135930   0.474   3.848  10.699  0.3595  1.0896 -0.4092
 8157SOL    HW235931   0.575   3.739  10.735  2.8691  0.5585 -0.7712
 8158SOL     OW35932   0.625   2.116   1.238 -0.1382  0.0965 -0.0589
 8158SOL    HW135933   0.549   2.137   1.292  1.1611  0.3194  1.6807
 8158SOL    HW235934   0.585   2.082   1.158 -0.9537  1.6625 -0.3214
 8159SOL     OW35935   0.422   1.804  12.864  0.7357 -0.2004  0.2435
 8159SOL    HW135936   0.505   1.785  12.909 -0.7965 -2.1275  2.2281
 8159SOL    HW235937   0.353   1.775  12.923  0.2194  0.2949 -0.1198
 8160SOL     OW35938   1.348   3.687  15.416 -0.0244  0.4104  0.2469
 8160SOL    HW135939   1.254   3.678  15.425  0.1623 -0.1000  1.6836
 8160SOL    HW235940   1.373   3.636  15.494  1.8775  1.1267  0.1031
 8161SOL     OW35941   4.007   0.750   8.776 -0.1729  0.2232  0.0032
 8161SOL    HW135942   4.041   0.809   8.843 -0.4349  2.0392 -1.4595
 8161SOL    HW235943   3.980   0.681   8.835  1.1303  0.7576  1.2376
 8162SOL     OW35944   2.676   2.642   8.400 -0.5864 -0.4267  0.1657
 8162SOL    HW135945   2.753   2.698   8.406  0.0611 -1.0439 -2.6326
 8162SOL    HW235946   2.643   2.680   8.318 -0.2854 -2.0101 -0.6843
 8163SOL     OW35947   2.204   3.941   5.432  0.0456  0.0455  0.2589
 8163SOL    HW135948   2.223   3.868   5.491 -0.3546 -2.0361 -2.2187
 8163SOL    HW235949   2.185   3.891   5.353  2.5320 -0.8840  0.2570
 8164SOL     OW35950   0.832   2.653  12.526 -0.5499  0.5172 -0.2446
 8164SOL    HW135951   0.897   2.588  12.554  0.2334  0.7813 -1.4906
 8164SOL    HW235952   0.896   2.724  12.534  1.5605 -1.4502  0.2930
 8165SOL     OW35953   0.433   3.246   9.095  0.3701 -0.0717  0.2044
 8165SOL    HW135954   0.492   3.308   9.054  1.1149 -0.1971  1.0886
 8165SOL    HW235955   0.359   3.304   9.117 -0.1264 -0.7779  0.4089
 8166SOL     OW35956   3.823   0.353   5.790 -0.3608  0.5964 -0.1969
 8166SOL    HW135957   3.773   0.366   5.709  1.0952  0.6964 -1.0885
 8166SOL    HW235958   3.847   0.261   5.792 -0.7617  0.5052  0.4712
 8167SOL     OW35959   2.892   1.072   2.686  0.3334 -0.0149 -0.0806
 8167SOL    HW135960   2.976   1.112   2.703 -0.5414  0.9390  1.9468
 8167SOL    HW235961   2.915   1.011   2.616 -0.0831 -2.2205  1.6887
 8168SOL     OW35962   1.914   2.104   6.960  0.3287  0.0738 -0.0607
 8168SOL    HW135963   1.990   2.064   7.002 -0.5205 -0.1248  1.2848
 8168SOL    HW235964   1.953   2.185   6.927 -2.0489  2.4654  3.0383
 8169SOL     OW35965   1.892   1.066   3.520  0.3330  0.3269  0.4799
 8169SOL    HW135966   1.948   1.100   3.450 -1.4649 -0.5973 -1.4127
 8169SOL    HW235967   1.829   1.138   3.529 -0.4392 -0.5990  2.4989
 8170SOL     OW35968   3.779   3.850   8.091  0.7203 -0.4548 -0.5230
 8170SOL    HW135969   3.836   3.824   8.163  2.7699  0.9464 -1.6497
 8170SOL    HW235970   3.792   3.945   8.096  1.1338 -0.5112 -0.5551
 8171SOL     OW35971   1.354   0.404   5.707 -0.1925  0.2194  0.0727
 8171SOL    HW135972   1.422   0.442   5.763 -0.0932 -0.1355  0.1929
 8171SOL    HW235973   1.276   0.417   5.760 -0.7344 -1.5640 -0.2793
 8172SOL     OW35974   2.372   2.354   9.642 -0.4628 -0.3119  0.2669
 8172SOL    HW135975   2.372   2.447   9.621 -0.5347 -0.7082 -1.5189
 8172SOL    HW235976   2.290   2.316   9.610 -0.5216 -0.2559  0.3514
 8173SOL     OW35977   1.097   4.041   8.109 -0.1894  0.2300 -0.4978
 8173SOL    HW135978   1.156   4.116   8.099 -1.2887  0.9632 -1.4200
 8173SOL    HW235979   1.160   3.969   8.101  0.0143  0.2794  0.6573
 8174SOL     OW35980   2.347   2.442   4.911 -0.0876  0.0474  0.4935
 8174SOL    HW135981   2.291   2.398   4.847 -1.3952  3.8265 -0.9782
 8174SOL    HW235982   2.301   2.522   4.939  0.3851  0.2406  0.7179
 8175SOL     OW35983   0.978   1.716   3.738  0.1161 -0.2378 -0.4544
 8175SOL    HW135984   0.912   1.669   3.687  0.2268 -0.7359 -0.1353
 8175SOL    HW235985   0.926   1.785   3.779  0.5975  0.2168 -0.6074
 8176SOL     OW35986   0.636   3.719   7.939  0.2151 -0.4295  0.3657
 8176SOL    HW135987   0.633   3.775   8.017 -1.3804 -2.2081  1.5616
 8176SOL    HW235988   0.718   3.671   7.952  1.3685  1.2968 -0.4763
 8177SOL     OW35989   3.209   1.515  13.015 -0.0618 -0.0429  0.2581
 8177SOL    HW135990   3.141   1.519  12.947 -1.7118 -2.9380  1.7250
 8177SOL    HW235991   3.160   1.546  13.092  2.1680 -2.1415  2.5304
 8178SOL     OW35992   3.282   2.076   9.934  0.1352  0.3065 -0.0469
 8178SOL    HW135993   3.204   2.080   9.880 -0.3134  0.9500  0.6533
 8178SOL    HW235994   3.261   2.132  10.009  0.4936  0.5698 -0.1383
 8179SOL     OW35995   2.252   0.003  15.389 -0.2757  0.1185  0.0093
 8179SOL    HW135996   2.340   4.693  15.373  0.1074  0.5612  1.1314
 8179SOL    HW235997   2.279   0.093  15.372 -0.8697  0.4222  0.6524
 8180SOL     OW35998   0.222   1.339   8.416  0.4649 -0.3073  0.1818
 8180SOL    HW135999   0.222   1.431   8.392 -0.6021 -0.3975 -0.1811
 8180SOL    HW236000   0.221   1.341   8.512 -0.6380  1.8013  0.1193
 8181SOL     OW36001   1.984   4.573   0.515  0.2214  0.0261  0.8361
 8181SOL    HW136002   2.061   4.576   0.458 -1.0296 -1.2562 -0.9331
 8181SOL    HW236003   1.965   4.666   0.514 -1.2069 -0.2577  4.1816
 8182SOL     OW36004   4.041   0.142   9.571  0.4141 -0.1035  0.1469
 8182SOL    HW136005   3.984   0.110   9.641 -0.3080 -0.0129 -0.4002
 8182SOL    HW236006   4.111   0.172   9.629  1.0253 -0.5096 -0.3813
 8183SOL     OW36007   4.304   4.229   7.339 -0.0691 -0.2531  0.1921
 8183SOL    HW136008   4.370   4.296   7.323  2.1506 -2.2022  1.2533
 8183SOL    HW236009   4.324   4.190   7.424  0.6407  1.2586  0.6996
 8184SOL     OW36010   1.136   3.352   3.974 -0.3712 -0.3130 -0.4724
 8184SOL    HW136011   1.114   3.281   4.035  2.1786 -0.7470 -0.0771
 8184SOL    HW236012   1.074   3.422   3.996  1.4418  0.6173  1.6106
 8185SOL     OW36013   0.923   0.147   5.095  0.3825 -0.5466 -0.4239
 8185SOL    HW136014   0.895   0.122   5.184 -3.1645 -0.5957 -1.5608
 8185SOL    HW236015   0.857   0.103   5.042 -0.2236 -1.2585  0.9165
 8186SOL     OW36016   0.922   4.043   0.747 -0.4182  0.6531 -0.6563
 8186SOL    HW136017   0.999   4.099   0.738  1.3792 -1.7939 -0.4414
 8186SOL    HW236018   0.861   4.100   0.795 -0.5496 -0.7326  0.8136
 8187SOL     OW36019   3.515   1.053   8.649  0.6926 -0.3377 -0.5886
 8187SOL    HW136020   3.520   1.082   8.558 -2.9128 -0.1982 -0.7413
 8187SOL    HW236021   3.604   1.036   8.678  1.1187  2.1112 -0.4542
 8188SOL     OW36022   0.127   4.679   2.108  1.1685  0.0670 -0.2086
 8188SOL    HW136023   0.198   4.720   2.059  0.9388  0.9448  0.1722
 8188SOL    HW236024   0.172   4.633   2.178  2.5503  0.2163 -1.0012
 8189SOL     OW36025   2.809   4.300  16.191  0.1500  0.2031 -0.2223
 8189SOL    HW136026   2.767   4.331  16.111 -1.4284 -1.3545  0.0168
 8189SOL    HW236027   2.727   4.280  16.236 -0.5973  2.8016 -0.4242
 8190SOL     OW36028   3.250   1.509   5.703  0.0446  0.3543  0.3174
 8190SOL    HW136029   3.265   1.561   5.624  1.0401 -1.1113 -0.4582
 8190SOL    HW236030   3.267   1.580   5.765  1.3396  0.2027  0.1450
 8191SOL     OW36031   3.579   2.438  15.363 -0.2564 -0.3877 -0.1527
 8191SOL    HW136032   3.522   2.490  15.306 -0.4432  1.9106  2.1222
 8191SOL    HW236033   3.558   2.351  15.330 -0.7880 -0.4363  0.3341
 8192SOL     OW36034   0.670   4.612  13.699 -0.1761  0.3309  0.2364
 8192SOL    HW136035   0.603   4.669  13.662 -0.0182  0.1031 -0.4001
 8192SOL    HW236036   0.688   4.660  13.780  1.0337  2.1934 -1.1191
 8193SOL     OW36037   3.461   3.132   5.668  0.2455 -0.0732 -0.2973
 8193SOL    HW136038   3.419   3.052   5.700  2.6424 -1.2193 -0.0702
 8193SOL    HW236039   3.383   3.184   5.646 -0.9987 -1.9291 -0.2918
 8194SOL     OW36040   1.925   2.229   3.906  0.2338  0.0370  0.1594
 8194SOL    HW136041   1.929   2.259   3.997  0.5465 -0.6749  0.3766
 8194SOL    HW236042   1.877   2.147   3.914 -4.1577  2.5057 -0.8994
 8195SOL     OW36043   0.491   2.680   2.143  0.0514 -0.1793  0.0842
 8195SOL    HW136044   0.459   2.748   2.084 -0.7329  0.9407  1.8195
 8195SOL    HW236045   0.586   2.682   2.132  0.1865  2.6116  1.9519
 8196SOL     OW36046   0.441   2.612   4.815 -0.1322 -0.2800 -0.3919
 8196SOL    HW136047   0.405   2.665   4.887  0.1940 -0.7746  0.1255
 8196SOL    HW236048   0.416   2.524   4.842 -2.3687  0.1264 -1.1009
 8197SOL     OW36049   3.170   0.425   3.115 -0.0179  0.5467 -0.0654
 8197SOL    HW136050   3.121   0.369   3.175  1.6984  1.1797  1.9344
 8197SOL    HW236051   3.099   0.476   3.077 -0.9315 -1.5617 -1.1951
 8198SOL     OW36052   0.691   3.490   6.610 -0.1694  0.1736 -0.4315
 8198SOL    HW136053   0.697   3.495   6.515  0.8019  0.3032 -0.3678
 8198SOL    HW236054   0.780   3.462   6.629  0.1885 -0.1524 -2.5959
 8199SOL     OW36055   0.752   4.385   7.750 -0.3838 -1.3260 -0.1063
 8199SOL    HW136056   0.808   4.454   7.713  1.8652 -1.7061  2.6510
 8199SOL    HW236057   0.686   4.444   7.787 -1.1533 -1.5051 -1.1674
 8200SOL     OW36058   4.441   4.009  12.769 -0.2447  0.1942 -0.3986
 8200SOL    HW136059   4.493   4.088  12.786 -2.0577  0.9639  1.4835
 8200SOL    HW236060   4.415   4.018  12.677 -0.3113  0.0377 -0.3952
 8201SOL     OW36061   4.145   3.916   8.102 -0.2264 -0.1945 -0.5489
 8201SOL    HW136062   4.175   3.930   8.013  1.8798  1.7260  0.4455
 8201SOL    HW236063   4.099   3.998   8.119 -1.5774 -0.9640 -0.5317
 8202SOL     OW36064   2.450   2.678   6.276 -0.4971  0.0093  0.0451
 8202SOL    HW136065   2.536   2.681   6.317  0.1298  0.3276 -1.2989
 8202SOL    HW236066   2.396   2.716   6.346  0.9704  1.6956  0.2707
 8203SOL     OW36067   4.563   2.310  11.385  0.2969  0.0627  0.2615
 8203SOL    HW136068   4.646   2.287  11.428 -0.8468  1.5344  3.2370
 8203SOL    HW236069   4.530   2.225  11.356 -1.6115  0.2249  1.9473
 8204SOL     OW36070   0.714   3.215   4.448 -0.3971 -0.2978 -0.2191
 8204SOL    HW136071   0.718   3.231   4.542 -1.0877  1.6134 -0.5119
 8204SOL    HW236072   0.806   3.217   4.420 -1.0288  0.5674 -2.2210
 8205SOL     OW36073   2.997   2.785   9.773 -0.0572 -0.3151 -0.0714
 8205SOL    HW136074   3.070   2.818   9.720 -1.0170  0.1073 -1.1126
 8205SOL    HW236075   2.987   2.855   9.838 -0.9689 -1.1652  0.7142
 8206SOL     OW36076   4.685   2.177   4.913 -0.3882 -0.3132 -0.3514
 8206SOL    HW136077   4.658   2.268   4.903 -1.7649 -0.8252 -1.3662
 8206SOL    HW236078   4.685   2.158   5.007  3.2019 -1.5808 -0.5903
 8207SOL     OW36079   3.541   2.662   3.011  0.0482  0.5103 -0.0855
 8207SOL    HW136080   3.625   2.705   2.992  0.1374 -0.4984 -1.9508
 8207SOL    HW236081   3.488   2.738   3.033  0.8232  0.3618  2.3986
 8208SOL     OW36082   3.499   0.981   0.346 -0.3097 -0.1509  0.1843
 8208SOL    HW136083   3.561   1.053   0.330 -1.4312  0.9404  0.7536
 8208SOL    HW236084   3.416   1.017   0.314 -0.9719 -0.5677  1.4618
 8209SOL     OW36085   3.191   0.309   7.610  0.3633  0.3587  0.1426
 8209SOL    HW136086   3.243   0.316   7.690  0.3937  1.1149  0.0556
 8209SOL    HW236087   3.123   0.243   7.623  0.8075 -0.4359 -1.6119
 8210SOL     OW36088   3.115   0.869   2.778 -0.5390 -0.0812 -0.2532
 8210SOL    HW136089   3.183   0.825   2.728  1.1631  2.0241  0.2369
 8210SOL    HW236090   3.045   0.805   2.793  0.1732 -0.8789 -0.3752
 8211SOL     OW36091   1.312   3.036  17.665  0.0688 -0.0540  0.1254
 8211SOL    HW136092   1.369   2.964  17.692  2.4911  1.1593 -1.7697
 8211SOL    HW236093   1.371   3.095  17.618 -0.3622  0.6145  0.4234
 8212SOL     OW36094   3.346   0.831   2.387  0.0400  0.2552 -0.3809
 8212SOL    HW136095   3.291   0.908   2.401  2.2926  1.6978  0.4187
 8212SOL    HW236096   3.302   0.786   2.315 -1.9563  0.4565  0.7068
 8213SOL     OW36097   3.113   4.097   9.124  0.1293 -0.6351  0.3289
 8213SOL    HW136098   3.041   4.066   9.069 -0.9338 -0.9802  1.9086
 8213SOL    HW236099   3.083   4.050   9.202 -2.1435  1.1761  0.5456
 8214SOL     OW36100   0.937   1.808   8.401 -0.2623 -0.4661  0.2771
 8214SOL    HW136101   0.905   1.796   8.312  0.6379 -0.5481 -0.0317
 8214SOL    HW236102   0.978   1.895   8.397 -1.2902 -0.0346 -1.0400
 8215SOL     OW36103   3.217   4.620   1.330  0.2018 -0.6433  0.3102
 8215SOL    HW136104   3.210   4.562   1.254 -0.2655 -0.7784  0.4571
 8215SOL    HW236105   3.290   4.674   1.300  0.5237 -1.2046  0.0841
 8216SOL     OW36106   1.312   0.366   7.132  0.3188 -0.8141 -0.5393
 8216SOL    HW136107   1.305   0.271   7.143  1.1904 -0.9194 -0.9464
 8216SOL    HW236108   1.294   0.388   7.224 -1.8639 -0.7220 -0.9964
 8217SOL     OW36109   4.103   2.082   4.514 -0.5264 -0.4788 -0.0710
 8217SOL    HW136110   4.073   2.171   4.494  0.5697 -0.1177 -0.0618
 8217SOL    HW236111   4.196   2.092   4.530 -0.7832  0.5390  0.7794
 8218SOL     OW36112   1.904   3.417   6.370  0.0875  0.3860 -0.0416
 8218SOL    HW136113   1.830   3.399   6.311 -1.0863  0.6869  1.3227
 8218SOL    HW236114   1.919   3.511   6.361  0.1531  0.3956  0.1722
 8219SOL     OW36115   1.801   2.278   5.529  0.0610 -0.9950  0.2486
 8219SOL    HW136116   1.712   2.247   5.546 -0.5932  1.1094  0.7382
 8219SOL    HW236117   1.775   2.364   5.496 -4.3057 -2.6157 -0.4971
 8220SOL     OW36118   3.815   3.864   6.590 -0.2352 -0.2656 -0.0088
 8220SOL    HW136119   3.802   3.944   6.539 -1.7804  0.9971  2.3358
 8220SOL    HW236120   3.734   3.875   6.641  0.2519  0.8211  0.5246
 8221SOL     OW36121   1.334   4.642  16.796 -0.5078 -0.7958  0.3367
 8221SOL    HW136122   1.375   4.562  16.765  1.4737 -0.2445  1.5454
 8221SOL    HW236123   1.247   4.606  16.816 -1.5728  1.4240 -0.2641
 8222SOL     OW36124   2.232   1.906   2.536 -0.4880  0.3299 -0.4477
 8222SOL    HW136125   2.241   1.995   2.503  2.0849  0.5120  0.7635
 8222SOL    HW236126   2.317   1.877   2.570 -0.1390  0.0688 -1.5557
 8223SOL     OW36127   2.196   2.803   7.285  0.5061  0.0826  0.3812
 8223SOL    HW136128   2.136   2.799   7.211 -0.5514  0.5924  1.2094
 8223SOL    HW236129   2.132   2.776   7.352 -0.5939 -0.2659 -0.8144
 8224SOL     OW36130   1.990   4.020  11.989  0.1632  0.6421 -0.0879
 8224SOL    HW136131   2.077   3.981  11.984 -0.0280 -0.1579  3.0368
 8224SOL    HW236132   1.990   4.060  11.902  0.5804  0.1221 -0.3223
 8225SOL     OW36133   0.188   4.724  13.334 -0.1574 -0.2465 -0.3115
 8225SOL    HW136134   0.269   4.701  13.289  0.5462 -0.7531  1.1918
 8225SOL    HW236135   0.202   0.093  13.351 -0.9408 -0.4572  1.5395
 8226SOL     OW36136   0.422   2.595   0.614  0.0865  0.1508 -0.2118
 8226SOL    HW136137   0.411   2.576   0.521  0.7251  0.3469 -0.3226
 8226SOL    HW236138   0.330   2.612   0.637  0.0309 -1.7406  1.0641
 8227SOL     OW36139   2.232   1.643   0.955 -0.1441 -0.6687 -0.2110
 8227SOL    HW136140   2.214   1.737   0.950  2.1186 -0.1243  1.8017
 8227SOL    HW236141   2.305   1.628   1.015 -0.9354 -2.5182  0.3092
 8228SOL     OW36142   3.241   1.428   0.143  0.6994 -0.7599 -0.4473
 8228SOL    HW136143   3.176   1.470   0.088  0.3110 -2.2995 -1.1551
 8228SOL    HW236144   3.312   1.489   0.124  0.8027 -0.6042  0.4241
 8229SOL     OW36145   1.471   4.008   3.405 -0.1697  0.2916 -0.6296
 8229SOL    HW136146   1.417   3.941   3.449 -2.5213  2.6782  0.0824
 8229SOL    HW236147   1.409   4.063   3.358  0.4571  0.3428 -1.3837
 8230SOL     OW36148   4.187   4.471   8.290  0.2087 -0.1047 -0.0217
 8230SOL    HW136149   4.151   4.412   8.355  0.6873 -1.9602 -1.4417
 8230SOL    HW236150   4.184   4.561   8.323  1.4727  0.9876 -2.8345
 8231SOL     OW36151   2.230   0.051  15.027 -0.0416  0.1340  0.0452
 8231SOL    HW136152   2.142   0.014  15.016  0.6629 -1.8103  0.8512
 8231SOL    HW236153   2.267   4.689  15.048 -0.1039  0.3136  0.8946
 8232SOL     OW36154   1.446   3.020   6.441 -0.4842  0.2052  0.3081
 8232SOL    HW136155   1.520   2.983   6.490 -0.3377  0.0737 -0.0186
 8232SOL    HW236156   1.394   2.945   6.415  0.2765 -0.3309  0.3310
 8233SOL     OW36157   3.109   3.876  12.252 -0.5008 -0.4479  0.5389
 8233SOL    HW136158   3.115   3.907  12.343  0.5247 -0.7333  0.5663
 8233SOL    HW236159   3.202   3.877  12.229 -1.4150  0.2742 -3.0233
 8234SOL     OW36160   2.786   3.135  13.464  0.5312  0.0589  1.0342
 8234SOL    HW136161   2.861   3.117  13.408 -0.9897 -0.3038 -0.8697
 8234SOL    HW236162   2.783   3.230  13.474 -0.9054  0.0804  0.4506
 8235SOL     OW36163   1.184   3.734   5.565 -0.6205 -0.4617  0.0385
 8235SOL    HW136164   1.163   3.776   5.482  2.2596  0.5059 -0.2233
 8235SOL    HW236165   1.188   3.651   5.517 -0.6962 -0.8959  0.7946
 8236SOL     OW36166   0.398   2.642  12.532  0.2957 -0.1777 -0.2369
 8236SOL    HW136167   0.338   2.692  12.476  1.5925 -0.4252 -1.8641
 8236SOL    HW236168   0.337   2.578  12.570  0.2440  0.5588  0.8968
 8237SOL     OW36169   3.733   4.130   1.957 -0.1694  0.3638 -0.5065
 8237SOL    HW136170   3.777   4.132   1.873  1.0095 -1.0625  0.0676
 8237SOL    HW236171   3.685   4.212   1.964  0.4518  0.5865  1.2485
 8238SOL     OW36172   4.165   3.516   0.647  0.0936 -0.5795 -0.4138
 8238SOL    HW136173   4.210   3.476   0.572 -0.2315  0.7761 -1.3318
 8238SOL    HW236174   4.236   3.565   0.689 -1.4949  0.8619  0.5796
 8239SOL     OW36175   4.414   3.545   7.675  0.0852 -0.0469  0.1524
 8239SOL    HW136176   4.418   3.449   7.673  1.7652  0.0132  1.0025
 8239SOL    HW236177   4.340   3.559   7.615  1.0924  1.6989 -0.6511
 8240SOL     OW36178   0.823   2.480   3.601  0.2627  0.0357 -0.5510
 8240SOL    HW136179   0.776   2.541   3.658  1.2260  0.0380  0.2362
 8240SOL    HW236180   0.775   2.505   3.522 -0.1536 -3.5638 -1.4379
 8241SOL     OW36181   3.793   2.950   1.280 -0.1765  0.2109  0.9680
 8241SOL    HW136182   3.733   2.903   1.222  2.5141 -1.7040 -0.2954
 8241SOL    HW236183   3.739   3.005   1.337 -1.4473  1.0462 -1.0465
 8242SOL     OW36184   4.122   1.350   2.511  0.1604 -0.3246  0.4054
 8242SOL    HW136185   4.108   1.263   2.548 -1.0513 -0.9082 -1.3935
 8242SOL    HW236186   4.131   1.325   2.419 -2.4212  1.8019 -0.4288
 8243SOL     OW36187   1.065   3.075   2.349  0.9922  0.4884  1.3585
 8243SOL    HW136188   1.093   3.123   2.271 -0.7845  0.9531  1.0011
 8243SOL    HW236189   1.049   3.143   2.415 -1.3816 -1.6094  2.9240
 8244SOL     OW36190   2.230   1.891   1.847  0.9892 -0.3229 -0.3002
 8244SOL    HW136191   2.219   1.875   1.753  3.1129 -2.0279 -0.2379
 8244SOL    HW236192   2.324   1.905   1.856  0.7253  1.0299  0.4085
 8245SOL     OW36193   3.587   0.680   1.671 -0.0808  0.6127 -0.6711
 8245SOL    HW136194   3.571   0.764   1.627 -2.2176 -0.0560 -1.1598
 8245SOL    HW236195   3.642   0.711   1.744 -0.6378  2.6567 -1.1312
 8246SOL     OW36196   0.019   2.638   5.162 -0.2510  0.0152  0.1316
 8246SOL    HW136197   0.046   2.638   5.070 -1.1993 -0.0717 -0.1510
 8246SOL    HW236198   0.074   2.708   5.198 -1.4299  0.1327  1.7338
 8247SOL     OW36199   0.801   1.122   8.517 -0.1743 -0.1923  0.3537
 8247SOL    HW136200   0.876   1.064   8.531  0.0773  0.3568  1.3076
 8247SOL    HW236201   0.839   1.208   8.536 -0.2262 -0.0380 -0.2510
 8248SOL     OW36202   3.845   2.129   6.211  0.7589 -0.2695  0.8382
 8248SOL    HW136203   3.779   2.114   6.143 -2.1421 -0.2200  3.6501
 8248SOL    HW236204   3.906   2.059   6.188  1.5938  0.8127 -0.2574
 8249SOL     OW36205   2.867   2.685   5.793 -0.4900  0.1302 -0.0399
 8249SOL    HW136206   2.795   2.625   5.812 -1.2180  1.0951  0.2908
 8249SOL    HW236207   2.906   2.696   5.879 -0.5794  0.1318  0.0003
 8250SOL     OW36208   1.244   3.503   5.440  0.0740  0.0339  0.0034
 8250SOL    HW136209   1.313   3.453   5.486  0.9924  0.8236 -0.5136
 8250SOL    HW236210   1.299   3.540   5.371  0.0478  0.2717  0.1127
 8251SOL     OW36211   2.906   4.380   5.493  0.5475  0.8054 -0.2375
 8251SOL    HW136212   2.881   4.408   5.405 -1.5173 -3.2336 -0.9112
 8251SOL    HW236213   2.822   4.345   5.522 -0.1122  1.3299 -1.5108
 8252SOL     OW36214   4.320   1.678  14.117  0.2725 -0.2360 -0.5369
 8252SOL    HW136215   4.332   1.755  14.060 -0.0254  0.0162 -0.2574
 8252SOL    HW236216   4.289   1.722  14.196 -1.7560  1.8322 -2.4614
 8253SOL     OW36217   2.824   2.606   8.116  0.1031  0.3279  0.0546
 8253SOL    HW136218   2.785   2.686   8.152 -1.3170 -0.7462  0.8806
 8253SOL    HW236219   2.806   2.615   8.022 -0.5673  1.4958  0.2937
 8254SOL     OW36220   3.058   0.234   5.174  0.0257 -0.3073  0.4032
 8254SOL    HW136221   3.120   0.165   5.151  0.6767 -0.0135  1.2839
 8254SOL    HW236222   3.106   0.311   5.143  2.2336 -2.6679 -2.1167
 8255SOL     OW36223   2.967   1.254   6.506  0.5220  0.4660  0.2923
 8255SOL    HW136224   2.913   1.208   6.570  0.9919 -2.0753 -1.1264
 8255SOL    HW236225   2.978   1.179   6.448 -1.0386 -0.9776  1.8922
 8256SOL     OW36226   0.927   0.729   2.171 -0.6888 -0.8758 -0.0626
 8256SOL    HW136227   0.837   0.720   2.142 -0.6946  2.9523 -1.2447
 8256SOL    HW236228   0.972   0.765   2.094 -1.3185 -2.6086 -1.2508
 8257SOL     OW36229   1.897   1.883   4.861  0.0983  0.0324  0.1037
 8257SOL    HW136230   1.851   1.834   4.793 -2.7203  1.4654  0.9918
 8257SOL    HW236231   1.977   1.835   4.883 -0.4778 -0.7905  0.4065
 8258SOL     OW36232   1.387   2.284   2.109 -0.0698  0.3129  0.4200
 8258SOL    HW136233   1.375   2.376   2.087 -0.4704  0.3175  0.6488
 8258SOL    HW236234   1.431   2.251   2.031  1.5710  0.6722  1.2021
 8259SOL     OW36235   0.130   0.021   1.486  0.3429 -0.5775 -0.0483
 8259SOL    HW136236   0.082   0.103   1.497  2.1511  0.5294 -0.4517
 8259SOL    HW236237   0.131   0.005   1.392 -0.3414  2.0861 -0.4948
 8260SOL     OW36238   4.505   0.426   7.609 -0.2871  0.2403 -0.0050
 8260SOL    HW136239   4.515   0.512   7.569  0.7521  1.2204  2.3298
 8260SOL    HW236240   4.598   0.407   7.613 -0.3231  0.3024  1.2914
 8261SOL     OW36241   2.160   0.973   2.774 -0.9407  0.1878  0.2466
 8261SOL    HW136242   2.136   0.906   2.710  1.2777  0.3592 -0.7515
 8261SOL    HW236243   2.106   1.047   2.744  0.9785  2.2678  1.9323
 8262SOL     OW36244   1.372   4.312   3.288 -0.1488  0.0721  0.1699
 8262SOL    HW136245   1.409   4.266   3.214 -1.9780  0.4846 -1.0070
 8262SOL    HW236246   1.290   4.262   3.295  0.4119 -1.0164 -1.1466
 8263SOL     OW36247   3.325   1.721  10.268  0.4060 -0.1389  0.0632
 8263SOL    HW136248   3.283   1.724  10.183 -1.4838 -0.0173  1.0107
 8263SOL    HW236249   3.402   1.666  10.253 -0.1889 -0.8425 -0.3599
 8264SOL     OW36250   3.691   0.719  16.258 -0.2983 -0.4354  0.5059
 8264SOL    HW136251   3.659   0.771  16.333 -0.4551  0.8571 -0.4572
 8264SOL    HW236252   3.620   0.701  16.196  0.8487  1.9237 -1.4551
 8265SOL     OW36253   0.223   4.111   5.217  0.0201  0.2133  0.3627
 8265SOL    HW136254   0.250   4.198   5.188 -1.1995  0.8381  1.1389
 8265SOL    HW236255   0.129   4.114   5.230 -0.1053  0.6448 -0.6021
 8266SOL     OW36256   2.927   2.783  14.899  0.1457  0.1120  0.0671
 8266SOL    HW136257   2.960   2.694  14.911  0.6214  0.2524 -0.2075
 8266SOL    HW236258   2.987   2.833  14.955 -2.2414  0.2135  2.5329
 8267SOL     OW36259   2.490   3.524   5.985 -0.5223 -0.0613 -0.1734
 8267SOL    HW136260   2.411   3.517   5.932 -0.0712  0.5944 -0.9188
 8267SOL    HW236261   2.471   3.481   6.069  0.0083  2.2189  1.0944
 8268SOL     OW36262   4.007   1.933  16.310  0.2124 -1.2912 -0.1743
 8268SOL    HW136263   4.097   1.961  16.298  0.4114 -1.8798 -0.0402
 8268SOL    HW236264   3.960   1.998  16.258  1.2456  0.1874  0.7754
 8269SOL     OW36265   2.908   4.034  14.951 -0.3035  0.3801  0.6454
 8269SOL    HW136266   3.003   4.035  14.956 -0.2131 -0.0224 -1.1847
 8269SOL    HW236267   2.889   4.112  14.900 -2.0426  0.2724  1.1261
 8270SOL     OW36268   0.690   3.691  13.137  0.0794  0.5190 -0.1723
 8270SOL    HW136269   0.697   3.659  13.227  0.2887  1.1419  0.0360
 8270SOL    HW236270   0.628   3.764  13.146 -2.5930 -1.4530 -2.6479
 8271SOL     OW36271   3.698   1.742  13.552  0.2901  0.2131 -0.2699
 8271SOL    HW136272   3.784   1.765  13.519 -0.8752  3.9499 -0.7780
 8271SOL    HW236273   3.681   1.670  13.492  2.2323 -0.8367  0.4563
 8272SOL     OW36274   3.098   4.168   7.344  0.0541 -0.3762  0.3225
 8272SOL    HW136275   3.014   4.122   7.345 -0.7188  0.9181 -2.8922
 8272SOL    HW236276   3.113   4.198   7.433  0.7702 -1.0839  0.4393
 8273SOL     OW36277   3.882   1.157  13.255 -0.1824  0.0027  0.2425
 8273SOL    HW136278   3.932   1.087  13.297 -0.7106  0.0338  0.9274
 8273SOL    HW236279   3.941   1.187  13.186  0.4256 -1.8845 -0.0473
 8274SOL     OW36280   1.805   0.067   6.388  0.0875 -0.0462 -0.1620
 8274SOL    HW136281   1.823   0.064   6.482 -0.1164  1.0065 -0.0826
 8274SOL    HW236282   1.789   4.699   6.368 -0.1606 -0.0275 -0.0486
 8275SOL     OW36283   3.152   0.339   8.606 -0.0104  0.3752 -0.0550
 8275SOL    HW136284   3.058   0.340   8.589 -0.0679 -0.0718  0.2230
 8275SOL    HW236285   3.196   0.397   8.544  0.5735  1.4146  1.3326
 8276SOL     OW36286   3.560   1.329   2.108 -0.5156  0.7652 -0.3271
 8276SOL    HW136287   3.490   1.300   2.165 -0.1038  0.7307  0.1625
 8276SOL    HW236288   3.603   1.246   2.089 -0.0524  0.2606  2.9699
 8277SOL     OW36289   1.944   1.233  12.466 -0.2246 -0.1368  0.2506
 8277SOL    HW136290   1.869   1.265  12.517  1.8999  0.7251  2.8605
 8277SOL    HW236291   2.017   1.224  12.527 -1.3629 -1.7563  1.3736
 8278SOL     OW36292   1.360   2.778   7.595 -0.2306 -0.3360  0.0141
 8278SOL    HW136293   1.306   2.754   7.519  1.4704  0.4667 -1.4376
 8278SOL    HW236294   1.444   2.788   7.550 -0.1131 -1.4995 -0.0167
 8279SOL     OW36295   3.729   4.440  14.652 -0.4458  0.0037  0.4552
 8279SOL    HW136296   3.774   4.356  14.661 -1.5807 -0.7782 -1.0237
 8279SOL    HW236297   3.794   4.506  14.676 -1.5498  2.1782 -2.5760
 8280SOL     OW36298   1.180   2.745  12.336  0.2810  0.6624  0.1520
 8280SOL    HW136299   1.247   2.687  12.301 -0.0750  0.1758  0.2694
 8280SOL    HW236300   1.176   2.729  12.431  0.8550  0.0487  0.0682
 8281SOL     OW36301   3.540   2.125  16.937 -0.3386  0.4395  0.0230
 8281SOL    HW136302   3.469   2.138  17.000  1.3457  0.3094  1.9646
 8281SOL    HW236303   3.499   2.156  16.856  1.3875  1.7281 -0.3527
 8282SOL     OW36304   2.602   2.401   4.549  0.4085  0.2700 -0.0115
 8282SOL    HW136305   2.658   2.422   4.474  1.8915  1.8594  1.5424
 8282SOL    HW236306   2.524   2.394   4.495  1.3504  0.3859 -1.3925
 8283SOL     OW36307   2.011   0.090   3.512  0.1758 -0.2138  0.1486
 8283SOL    HW136308   2.049   0.133   3.436 -0.9965  1.9228  0.7509
 8283SOL    HW236309   1.936   0.042   3.478  0.1950 -0.6576  0.7200
 8284SOL     OW36310   0.321   3.285   7.828 -0.2844 -0.7296 -0.1541
 8284SOL    HW136311   0.272   3.267   7.747 -2.0282  1.0982  0.4984
 8284SOL    HW236312   0.408   3.255   7.804 -0.9577 -1.6870 -1.4008
 8285SOL     OW36313   2.297   1.196   3.321 -0.0763 -0.0199  0.1648
 8285SOL    HW136314   2.323   1.115   3.365 -1.5350 -0.6772 -0.2080
 8285SOL    HW236315   2.353   1.183   3.244  0.3005  0.5576  0.3394
 8286SOL     OW36316   3.877   4.448   8.467 -0.4543  0.2563  0.5908
 8286SOL    HW136317   3.915   4.479   8.549 -1.3395  0.8714  0.7670
 8286SOL    HW236318   3.844   4.362   8.494 -1.8306  0.4448 -0.4998
 8287SOL     OW36319   2.247   0.396   8.226  0.7182  0.0777  0.5367
 8287SOL    HW136320   2.249   0.374   8.320 -0.6849  1.4701  0.8929
 8287SOL    HW236321   2.256   0.490   8.211  0.2782 -0.1131 -0.8652
 8288SOL     OW36322   3.434   2.093   2.423 -0.1005  0.3738 -0.0438
 8288SOL    HW136323   3.345   2.127   2.431 -0.1064  1.0106 -2.5919
 8288SOL    HW236324   3.487   2.127   2.495 -0.5174 -0.6013  0.7243
 8289SOL     OW36325   2.403   4.209   6.147 -0.8037  0.1370  0.0447
 8289SOL    HW136326   2.425   4.127   6.104 -2.8300  0.7533 -2.1478
 8289SOL    HW236327   2.318   4.191   6.189 -1.0010 -0.9686 -0.8242
 8290SOL     OW36328   2.282   0.621   4.450 -0.0567  0.0175  0.4053
 8290SOL    HW136329   2.202   0.599   4.497  0.1804  2.1424  1.7629
 8290SOL    HW236330   2.255   0.665   4.370 -0.0706 -0.2864  0.2403
 8291SOL     OW36331   3.381   4.686   9.216  0.0167 -0.8461 -0.2010
 8291SOL    HW136332   3.361   0.050   9.250 -1.8450 -2.1997  2.2388
 8291SOL    HW236333   3.383   4.706   9.123 -2.5858 -0.7293 -0.2360
 8292SOL     OW36334   1.415   1.260  11.627 -0.4626 -0.6318  0.2340
 8292SOL    HW136335   1.449   1.238  11.714 -0.3706  3.5893  1.2372
 8292SOL    HW236336   1.322   1.237  11.626 -0.1635 -1.8460  0.0298
 8293SOL     OW36337   3.652   3.130   2.452 -0.1786  0.4494  0.1959
 8293SOL    HW136338   3.633   3.037   2.465 -0.7569  0.3614 -1.2422
 8293SOL    HW236339   3.584   3.140   2.385 -2.3025 -1.0407  2.1414
 8294SOL     OW36340   0.739   0.872   3.601 -0.2953 -0.3353  0.7993
 8294SOL    HW136341   0.734   0.966   3.621  0.4186 -0.3540  1.0807
 8294SOL    HW236342   0.648   0.846   3.613 -0.4043  0.1582  1.0582
 8295SOL     OW36343   1.219   1.090  13.720 -0.0474  0.2358 -0.5393
 8295SOL    HW136344   1.221   1.172  13.768  0.0319  0.5212 -1.0250
 8295SOL    HW236345   1.208   1.017  13.781  3.0757  0.1121 -0.0930
 8296SOL     OW36346   2.336   2.995   7.464 -0.6133 -0.3290 -0.7814
 8296SOL    HW136347   2.421   2.955   7.486 -0.5956 -1.0545 -2.2147
 8296SOL    HW236348   2.290   2.924   7.421  1.7460 -0.9975 -2.2305
 8297SOL     OW36349   4.191   2.221   3.017  0.2187 -0.1755  0.0172
 8297SOL    HW136350   4.186   2.151   3.082 -0.5992  0.9841  1.1975
 8297SOL    HW236351   4.285   2.236   3.030 -0.2563  2.7153  0.2458
 8298SOL     OW36352   0.523   3.569  15.007 -0.1389 -0.2699 -0.2659
 8298SOL    HW136353   0.485   3.560  15.095 -0.8262  0.7140 -0.4736
 8298SOL    HW236354   0.515   3.663  14.990  0.6261 -0.0765  0.4029
 8299SOL     OW36355   3.650   1.523   3.615  0.2582 -0.0541 -0.3727
 8299SOL    HW136356   3.578   1.517   3.677 -1.0937 -1.8935 -2.0983
 8299SOL    HW236357   3.711   1.471   3.666 -0.7355 -0.6871  0.1619
 8300SOL     OW36358   2.497   1.702   9.360  0.1226  0.0540 -1.0039
 8300SOL    HW136359   2.412   1.742   9.374 -0.3339 -1.7641  1.3955
 8300SOL    HW236360   2.555   1.746   9.422 -0.3458 -0.8210  0.0592
 8301SOL     OW36361   1.988   1.755   3.629  0.0617  0.2509 -0.2337
 8301SOL    HW136362   1.937   1.738   3.707 -0.8878 -0.4728 -1.0186
 8301SOL    HW236363   2.033   1.836   3.653  1.6483 -0.8259  0.4531
 8302SOL     OW36364   0.304   1.261   8.704 -0.3208 -0.4938 -0.2719
 8302SOL    HW136365   0.324   1.171   8.679  2.2950  0.2234 -0.7540
 8302SOL    HW236366   0.223   1.243   8.752 -0.9629  0.0764 -1.1415
 8303SOL     OW36367   3.556   2.621   7.487 -0.0672 -0.3422 -0.4414
 8303SOL    HW136368   3.594   2.540   7.521 -0.4901 -0.5068 -0.3672
 8303SOL    HW236369   3.598   2.619   7.400  1.9633 -1.3066  0.5464
 8304SOL     OW36370   4.684   3.308   3.031  0.6098  0.2082  0.4887
 8304SOL    HW136371   0.009   3.291   2.951 -2.0996  1.5164 -1.4447
 8304SOL    HW236372   4.696   3.402   3.043 -1.6255  0.2939  2.1118
 8305SOL     OW36373   2.643   1.862   1.589  0.1594  0.0465 -0.3118
 8305SOL    HW136374   2.723   1.915   1.593  1.5587 -2.3187  2.5511
 8305SOL    HW236375   2.587   1.929   1.549  1.1503  0.8027 -0.4728
 8306SOL     OW36376   4.423   3.047   7.866 -0.8294  0.3953 -0.3617
 8306SOL    HW136377   4.384   2.962   7.849  0.9349 -0.7054  1.0853
 8306SOL    HW236378   4.390   3.066   7.954 -0.3462  0.1845 -0.1388
 8307SOL     OW36379   4.131   0.501   2.138 -0.4342  0.1027  1.3828
 8307SOL    HW136380   4.047   0.541   2.160  0.2868  0.9322  2.6866
 8307SOL    HW236381   4.166   0.572   2.084  2.0134 -1.5034  0.8862
 8308SOL     OW36382   1.560   2.404   4.500 -0.7229  0.1290 -0.0964
 8308SOL    HW136383   1.541   2.444   4.585  0.9113 -0.0920  0.3828
 8308SOL    HW236384   1.493   2.433   4.439 -1.0894  1.0339  0.7361
 8309SOL     OW36385   3.226   1.352   0.403 -0.3411 -0.2557  0.6221
 8309SOL    HW136386   3.310   1.391   0.426 -0.7221  1.0895 -0.2747
 8309SOL    HW236387   3.219   1.366   0.309  0.8990 -1.0567  0.4167
 8310SOL     OW36388   0.614   2.383   5.332  0.2943 -0.5286  0.0572
 8310SOL    HW136389   0.525   2.393   5.368  0.1982  1.5710 -0.7041
 8310SOL    HW236390   0.643   2.355   5.418  0.6531 -0.7883 -0.1526
 8311SOL     OW36391   1.295   3.637   2.957 -0.5014 -0.1169  0.2195
 8311SOL    HW136392   1.251   3.562   2.919 -1.4943  0.3263  0.5089
 8311SOL    HW236393   1.258   3.633   3.045 -0.7210  1.2284  0.1866
 8312SOL     OW36394   3.457   1.598   6.188  0.0235 -0.0957  0.2039
 8312SOL    HW136395   3.495   1.563   6.269  3.1402 -0.6826 -1.4851
 8312SOL    HW236396   3.393   1.660   6.223  0.1553 -0.8143  1.7307
 8313SOL     OW36397   4.654   0.278   0.623  1.0519 -0.0199 -0.3362
 8313SOL    HW136398   0.020   0.275   0.656  0.6592 -0.5362  0.6889
 8313SOL    HW236399   4.665   0.295   0.529  0.9653 -2.7354 -0.8394
 8314SOL     OW36400   0.845   3.978   8.024 -0.2931  0.3355 -0.3172
 8314SOL    HW136401   0.807   4.062   8.001 -0.5242  0.9501  2.2760
 8314SOL    HW236402   0.923   4.008   8.070  0.6353 -2.4622 -0.0178
 8315SOL     OW36403   1.759   4.525   3.062  0.0933 -0.0588 -0.2947
 8315SOL    HW136404   1.797   4.456   3.116 -0.5433  0.0531  0.2990
 8315SOL    HW236405   1.698   4.474   3.009  0.2617 -1.0031  0.4143
 8316SOL     OW36406   3.939   3.207  13.524 -0.5127  0.1388  0.0076
 8316SOL    HW136407   4.005   3.152  13.481 -2.4135 -1.3931 -0.9610
 8316SOL    HW236408   3.983   3.292  13.522  0.8911 -0.6436 -2.0896
 8317SOL     OW36409   1.048   4.035   2.300 -0.2079  0.1816  0.2242
 8317SOL    HW136410   1.051   4.110   2.360  1.5832 -0.8579  1.4456
 8317SOL    HW236411   1.142   4.015   2.301  0.3894  2.9152 -1.4364
 8318SOL     OW36412   2.215   2.478   7.423  0.1948 -0.0502 -0.2343
 8318SOL    HW136413   2.213   2.385   7.445 -2.2697 -0.0183 -0.2682
 8318SOL    HW236414   2.269   2.480   7.343  0.2823 -0.1119 -0.1763
 8319SOL     OW36415   4.321   2.914   7.514 -0.5756 -0.1546 -0.2644
 8319SOL    HW136416   4.251   2.947   7.570 -0.8204 -0.4778 -0.3792
 8319SOL    HW236417   4.269   2.879   7.441 -1.2185  0.8744 -0.2952
 8320SOL     OW36418   3.084   3.231  15.982 -0.1073  0.0556 -0.0078
 8320SOL    HW136419   3.032   3.287  15.924 -0.4952  0.8057  1.0579
 8320SOL    HW236420   3.156   3.289  16.007  0.5637 -0.4127 -0.8319
 8321SOL     OW36421   0.940   0.626   7.934 -0.0254  0.4119  0.1499
 8321SOL    HW136422   0.933   0.531   7.920 -0.2021  0.4648 -0.1196
 8321SOL    HW236423   0.976   0.635   7.846  1.7026 -0.0433  0.8151
 8322SOL     OW36424   0.584   4.594   2.479  0.2207 -0.1290  0.1042
 8322SOL    HW136425   0.623   4.659   2.538  3.4596 -0.1028 -2.0302
 8322SOL    HW236426   0.658   4.568   2.424  0.1473  2.1051 -1.0844
 8323SOL     OW36427   0.572   0.491   5.147 -0.2555 -0.3646 -0.2333
 8323SOL    HW136428   0.592   0.584   5.155  0.7964 -0.5989 -0.1519
 8323SOL    HW236429   0.479   0.482   5.172 -0.3946 -0.9345 -0.9419
 8324SOL     OW36430   4.414   3.776   2.467 -0.0499  0.0606 -0.5977
 8324SOL    HW136431   4.394   3.755   2.376 -0.4454  0.2846 -0.5645
 8324SOL    HW236432   4.451   3.694   2.500 -0.9762 -0.7826 -1.6400
 8325SOL     OW36433   2.595   1.858  16.412  0.5593 -0.7101 -0.5606
 8325SOL    HW136434   2.540   1.842  16.489 -0.6847 -4.0576 -2.1094
 8325SOL    HW236435   2.644   1.776  16.411 -2.4082 -2.4891 -2.6471
 8326SOL     OW36436   3.777   2.117   4.348 -0.0976 -0.1709  0.0667
 8326SOL    HW136437   3.762   2.201   4.306 -2.8273  0.1858  1.7590
 8326SOL    HW236438   3.868   2.104   4.320  0.2322  0.9611  0.6181
 8327SOL     OW36439   4.413   0.121   5.043  0.5153 -0.3316  0.1564
 8327SOL    HW136440   4.472   0.173   4.990 -2.0493  0.2261 -2.1561
 8327SOL    HW236441   4.408   0.044   4.986 -0.2180 -1.9410  2.3600
 8328SOL     OW36442   3.323   1.777  13.126  0.0404  0.1452 -0.0357
 8328SOL    HW136443   3.272   1.795  13.205 -0.4219  0.8198 -0.4833
 8328SOL    HW236444   3.401   1.816  13.165 -0.1317 -0.5195  0.9787
 8329SOL     OW36445   3.875   0.235  12.888 -0.9389  0.2422  0.0986
 8329SOL    HW136446   3.927   0.157  12.870 -1.2365 -0.3903  2.0795
 8329SOL    HW236447   3.785   0.204  12.878 -1.3847  0.5910  3.0399
 8330SOL     OW36448   0.616   0.675  15.076  0.4468 -0.6031  0.4245
 8330SOL    HW136449   0.586   0.699  14.988  1.1114 -0.1057  0.3246
 8330SOL    HW236450   0.624   0.581  15.065 -3.1192 -0.9412  1.0156
 8331SOL     OW36451   2.206   2.367   6.486  0.4828  0.5199 -0.1296
 8331SOL    HW136452   2.245   2.366   6.574 -2.2702 -0.0817  1.0844
 8331SOL    HW236453   2.280   2.377   6.426 -0.5063 -0.5703 -1.5327
 8332SOL     OW36454   1.751   0.267   3.579  0.1557 -0.3077 -0.4732
 8332SOL    HW136455   1.673   0.246   3.629 -0.6806 -0.0641 -1.6647
 8332SOL    HW236456   1.780   0.342   3.631 -5.4140  1.0175  0.7173
 8333SOL     OW36457   1.733   0.333   6.353  0.1442 -0.2068  0.1551
 8333SOL    HW136458   1.743   0.239   6.362 -1.3317 -0.2035  1.6197
 8333SOL    HW236459   1.764   0.356   6.265 -0.3322  0.1209  0.0768
 8334SOL     OW36460   4.411   4.706  15.102  0.0308 -0.6714 -0.4503
 8334SOL    HW136461   4.411   0.073  15.072  0.6949 -1.4996 -3.0572
 8334SOL    HW236462   4.415   0.001  15.195 -0.1151 -0.0723 -0.5705
 8335SOL     OW36463   3.411   4.414   0.158  0.4063 -0.5170 -0.1185
 8335SOL    HW136464   3.491   4.463   0.139  1.1459 -0.8347  2.1808
 8335SOL    HW236465   3.403   4.445   0.248 -1.0745  1.4701 -0.9076
 8336SOL     OW36466   0.636   0.228   6.221 -0.0830  0.2704  0.0323
 8336SOL    HW136467   0.661   0.190   6.137  0.9205 -0.6609  0.7495
 8336SOL    HW236468   0.666   0.319   6.220  0.2497  0.1485 -1.3066
 8337SOL     OW36469   2.063   3.937  17.534 -0.7897  0.0110 -0.3244
 8337SOL    HW136470   2.064   3.896  17.448 -2.6414  0.1412 -0.4192
 8337SOL    HW236471   1.972   3.968  17.539 -1.1807 -1.4407  1.7802
 8338SOL     OW36472   2.708   4.089   6.550 -0.0804  0.5680  0.0785
 8338SOL    HW136473   2.694   4.098   6.644 -0.8746 -2.4378  0.2565
 8338SOL    HW236474   2.654   4.157   6.511 -0.4170  0.6493  0.6925
 8339SOL     OW36475   0.910   0.511  15.586 -0.0425 -0.2107  0.3116
 8339SOL    HW136476   0.816   0.500  15.572  0.2200 -1.1632 -0.7991
 8339SOL    HW236477   0.950   0.432  15.550  2.9951  0.7099  1.6841
 8340SOL     OW36478   3.199   1.232   4.573 -0.0613 -0.2198 -0.1455
 8340SOL    HW136479   3.293   1.249   4.566  0.0358 -0.9146 -0.5632
 8340SOL    HW236480   3.178   1.210   4.482 -1.4308  1.0832 -0.1312
 8341SOL     OW36481   0.110   3.140  15.352 -0.9589  0.1245 -0.1380
 8341SOL    HW136482   0.199   3.164  15.376 -0.6783 -0.0794 -0.9723
 8341SOL    HW236483   0.068   3.172  15.431  2.0730  1.2291  1.0070
 8342SOL     OW36484   1.624   2.807  11.599 -0.7901 -0.1662  0.9804
 8342SOL    HW136485   1.640   2.822  11.505  0.4425  1.9182  1.5262
 8342SOL    HW236486   1.536   2.770  11.603 -0.5899 -0.6485  1.0076
 8343SOL     OW36487   2.631   1.723   9.605  0.0804  0.0234  0.2578
 8343SOL    HW136488   2.675   1.720   9.691 -1.7320  2.7937  1.2851
 8343SOL    HW236489   2.542   1.697   9.629  0.4339 -0.1715  1.4004
 8344SOL     OW36490   3.468   2.381   5.060 -0.0006  0.2306  0.2626
 8344SOL    HW136491   3.540   2.415   5.007 -0.1051 -1.0963 -0.7525
 8344SOL    HW236492   3.471   2.288   5.035  2.2139  0.6117 -0.9208
 8345SOL     OW36493   0.029   3.662   5.681  0.0645 -0.4229 -0.6594
 8345SOL    HW136494   0.049   3.688   5.591  1.0803 -2.5034 -1.0572
 8345SOL    HW236495   4.713   3.738   5.723 -1.8309 -0.5816 -2.2138
 8346SOL     OW36496   0.782   4.579   8.196  0.0591  0.3803  0.0568
 8346SOL    HW136497   0.804   4.633   8.120 -1.7633  0.8373 -0.1576
 8346SOL    HW236498   0.836   4.501   8.179 -0.6676  0.2260 -1.6319
 8347SOL     OW36499   0.090   4.704   5.192  0.3624 -0.0978 -0.2897
 8347SOL    HW136500   0.104   4.645   5.266 -0.2684  0.7872  0.5373
 8347SOL    HW236501   0.049   4.645   5.128 -2.1985  1.0217  0.2886
 8348SOL     OW36502   3.829   0.312   2.795 -0.3694 -0.3385  0.5403
 8348SOL    HW136503   3.784   0.264   2.864  0.5253 -1.5795  0.2660
 8348SOL    HW236504   3.763   0.370   2.758  1.5509  0.2908 -1.8906
 8349SOL     OW36505   3.685   2.158   7.941  1.0788  0.3817 -0.0033
 8349SOL    HW136506   3.623   2.136   8.011 -0.8039 -3.6163 -2.9402
 8349SOL    HW236507   3.756   2.094   7.950 -0.8700 -2.1719 -2.8700
 8350SOL     OW36508   3.392   1.030   2.652  0.2609 -0.2264  0.4460
 8350SOL    HW136509   3.434   1.101   2.603 -1.1410 -1.8319 -3.0362
 8350SOL    HW236510   3.456   0.965   2.623 -0.1537 -0.1266 -0.6737
 8351SOL     OW36511   4.109   2.020   6.458 -0.3510 -0.2051 -0.0438
 8351SOL    HW136512   4.165   1.982   6.526  0.6821 -0.5294 -1.0782
 8351SOL    HW236513   4.043   2.062   6.512  0.2055  0.7504 -0.1147
 8352SOL     OW36514   1.609   2.341   7.470 -0.4161 -0.4786  0.1818
 8352SOL    HW136515   1.623   2.436   7.465 -1.3168 -0.2331  2.6592
 8352SOL    HW236516   1.608   2.330   7.565 -1.0745 -0.1056  0.2167
 8353SOL     OW36517   2.695   3.551   1.257  0.5364 -0.1660 -0.5969
 8353SOL    HW136518   2.628   3.500   1.212  1.3926 -1.5139 -0.3168
 8353SOL    HW236519   2.648   3.627   1.290 -0.8510 -0.8564 -1.0033
 8354SOL     OW36520   0.329   0.918  12.186 -0.0616 -0.1566  0.1025
 8354SOL    HW136521   0.368   0.877  12.109  1.0210 -0.8211  0.9977
 8354SOL    HW236522   0.240   0.884  12.173  0.7021 -1.6978 -1.0779
 8355SOL     OW36523   2.064   4.006   0.935  0.1092  0.4506  0.1006
 8355SOL    HW136524   2.129   4.076   0.928 -0.5240  1.0305  0.0203
 8355SOL    HW236525   2.078   3.983   1.027  1.7636  0.5968 -0.1139
 8356SOL     OW36526   3.293   4.306  11.775 -0.2484 -0.2496 -0.2712
 8356SOL    HW136527   3.293   4.386  11.722  2.3290 -1.7541 -2.5082
 8356SOL    HW236528   3.382   4.305  11.809  0.8205 -1.0947 -3.0941
 8357SOL     OW36529   2.117   4.048   6.964  0.4624  0.2085  0.2760
 8357SOL    HW136530   2.093   3.967   6.919  1.5516  0.6642 -1.1102
 8357SOL    HW236531   2.032   4.071   7.002  1.2114  1.1247  1.3527
 8358SOL     OW36532   2.241   2.541  13.819 -0.1707 -0.0801  0.2420
 8358SOL    HW136533   2.159   2.541  13.869  0.3770  2.2282  1.1584
 8358SOL    HW236534   2.206   2.591  13.745  1.9085  0.4860 -0.3472
 8359SOL     OW36535   4.285   2.564  14.547  0.3178  0.2133  0.5169
 8359SOL    HW136536   4.214   2.513  14.587  1.2815  0.6326  2.7847
 8359SOL    HW236537   4.252   2.651  14.567 -2.5121 -1.0114  1.2229
 8360SOL     OW36538   1.403   3.750  16.606 -0.8771 -0.1153  0.3079
 8360SOL    HW136539   1.391   3.665  16.562 -0.6566 -0.0330  0.0864
 8360SOL    HW236540   1.363   3.802  16.537 -0.8863  0.1368  0.5063
 8361SOL     OW36541   4.719   2.650  11.216  0.3158  0.0144 -0.0551
 8361SOL    HW136542   4.627   2.654  11.191  0.2520 -0.8870  0.0340
 8361SOL    HW236543   0.029   2.722  11.163 -1.7859 -0.7858 -2.4843
 8362SOL     OW36544   3.768   1.099  14.434 -0.0177  0.4624 -0.0972
 8362SOL    HW136545   3.759   1.116  14.340  1.7902  0.3785 -0.2896
 8362SOL    HW236546   3.723   1.015  14.446 -0.3540  0.5462 -0.7959
 8363SOL     OW36547   4.541   2.570   8.635 -0.5585  0.5843  0.0115
 8363SOL    HW136548   4.591   2.622   8.698  1.4936 -1.0551 -0.2440
 8363SOL    HW236549   4.451   2.598   8.648 -0.6802  0.6211 -0.9356
 8364SOL     OW36550   1.128   1.635   5.247  0.1406 -1.0242  0.6568
 8364SOL    HW136551   1.037   1.608   5.231  0.1753  0.2717 -1.6701
 8364SOL    HW236552   1.128   1.722   5.208 -1.2501  0.1853  3.3347
 8365SOL     OW36553   1.887   1.384   8.369  0.7751  0.4832  0.0187
 8365SOL    HW136554   1.952   1.412   8.304  1.4140 -1.9485 -0.3992
 8365SOL    HW236555   1.810   1.380   8.313  0.4431  0.2744  0.4921
 8366SOL     OW36556   0.446   0.125  14.852 -0.3103 -0.2470 -0.1949
 8366SOL    HW136557   0.393   0.063  14.802 -0.0618  0.5761 -1.4901
 8366SOL    HW236558   0.535   0.114  14.818 -0.5004 -0.3906 -0.6436
 8367SOL     OW36559   0.453   0.595   9.918 -0.1489  0.1834  0.0658
 8367SOL    HW136560   0.484   0.571  10.006  1.8724  0.6289 -0.5336
 8367SOL    HW236561   0.526   0.555   9.871 -0.5305 -0.7334  0.2299
 8368SOL     OW36562   2.792   4.070   7.799  0.3776  0.3922  0.0407
 8368SOL    HW136563   2.875   4.116   7.816  0.9629 -0.8161  0.4779
 8368SOL    HW236564   2.818   4.019   7.722  0.5564 -0.1827  0.4712
 8369SOL     OW36565   3.287   2.820  12.855 -0.6221  0.1087 -0.5800
 8369SOL    HW136566   3.215   2.757  12.855 -2.0163  1.7126 -2.7582
 8369SOL    HW236567   3.361   2.761  12.842 -0.9420 -0.7197  1.2361
 8370SOL     OW36568   3.404   4.019  11.997 -0.2469  0.3076  0.0157
 8370SOL    HW136569   3.461   3.947  12.023  0.1254 -0.1852 -2.1434
 8370SOL    HW236570   3.425   4.079  12.068 -1.2029  0.9136 -0.2042
 8371SOL     OW36571   2.251   0.576  10.272 -0.2003 -0.1361 -0.2659
 8371SOL    HW136572   2.247   0.592  10.177  0.2863  1.2622 -0.0648
 8371SOL    HW236573   2.163   0.543  10.286  1.0592 -4.4942 -2.6765
 8372SOL     OW36574   4.720   4.722  15.587 -0.2779  0.2586 -0.2046
 8372SOL    HW136575   0.064   4.675  15.539 -0.9531  0.4308 -1.3024
 8372SOL    HW236576   4.699   0.072  15.531 -0.6713  0.7733  0.6298
 8373SOL     OW36577   3.735   3.412   4.868 -0.1838 -0.0872 -0.0573
 8373SOL    HW136578   3.829   3.397   4.861  0.1491  3.6924 -3.1659
 8373SOL    HW236579   3.694   3.426   4.783  0.2115  3.1999  0.3064
 8374SOL     OW36580   2.910   3.466  17.656 -0.0386 -0.0218 -0.2806
 8374SOL    HW136581   2.873   3.396  17.602  2.2550 -1.1854 -0.3321
 8374SOL    HW236582   2.954   3.413   0.024  3.0066 -0.4196 -2.6677
 8375SOL     OW36583   1.221   1.343  14.717  0.1424  0.1031 -0.3667
 8375SOL    HW136584   1.283   1.329  14.646 -0.7370 -3.2919 -0.4900
 8375SOL    HW236585   1.202   1.255  14.749  0.1716  0.9678  2.0616
 8376SOL     OW36586   2.780   1.936   6.844  0.5997  0.2035 -0.2508
 8376SOL    HW136587   2.736   1.890   6.771 -1.7257  0.0693  1.2132
 8376SOL    HW236588   2.836   1.994   6.793 -1.9709  2.0225 -1.0301
 8377SOL     OW36589   1.342   1.770   9.569  0.1184 -0.6667 -0.1020
 8377SOL    HW136590   1.372   1.680   9.570 -2.3767 -1.5221 -1.5250
 8377SOL    HW236591   1.248   1.756   9.556  0.1871 -0.2021 -1.1181
 8378SOL     OW36592   2.451   2.054  14.261  0.3687 -0.1872 -0.4419
 8378SOL    HW136593   2.477   1.977  14.211 -0.1577 -2.1659  2.3435
 8378SOL    HW236594   2.496   2.125  14.214 -2.2598  1.0062 -1.1536
 8379SOL     OW36595   4.024   4.511   9.768  0.0143  0.2799 -0.1653
 8379SOL    HW136596   4.006   4.583   9.828  1.6974  1.2724 -0.8664
 8379SOL    HW236597   3.938   4.493   9.729  0.9340 -0.0070 -2.0836
 8380SOL     OW36598   1.359   0.086   6.884  0.2148  0.1884  0.2343
 8380SOL    HW136599   1.358   4.715   6.872  1.2759  0.2896 -0.6296
 8380SOL    HW236600   1.343   0.092   6.978 -3.3469  0.2598 -0.3654
 8381SOL     OW36601   1.028   4.402   6.442 -0.3855 -0.1578  0.5029
 8381SOL    HW136602   1.061   4.327   6.492 -0.3994 -2.2777 -2.7053
 8381SOL    HW236603   1.107   4.422   6.392 -2.7613  2.0730 -2.4034
 8382SOL     OW36604   2.077   4.723   7.228  0.1460 -0.5697  0.3458
 8382SOL    HW136605   2.162   0.028   7.195  0.4529 -1.4035  0.4003
 8382SOL    HW236606   2.062   0.072   7.288 -1.5329  0.4857 -1.3622
 8383SOL     OW36607   2.468   2.410  13.648  0.5740 -0.0099  0.0388
 8383SOL    HW136608   2.484   2.360  13.568  2.4315 -0.3380  0.6035
 8383SOL    HW236609   2.407   2.477  13.618  0.5492  0.1710  0.4838
 8384SOL     OW36610   2.325   3.425  10.097 -0.4537  0.0396 -0.4301
 8384SOL    HW136611   2.319   3.391  10.008  0.4546 -0.8351 -0.1654
 8384SOL    HW236612   2.269   3.355  10.131  0.3854 -0.3930  0.0676
 8385SOL     OW36613   3.248   0.390   3.510  0.4372  0.2700 -0.2411
 8385SOL    HW136614   3.316   0.447   3.546 -0.0527 -0.3051  1.6006
 8385SOL    HW236615   3.194   0.451   3.460  0.4587 -0.6766 -1.4217
 8386SOL     OW36616   2.556   2.067   3.054 -0.1523  0.5296 -0.5849
 8386SOL    HW136617   2.572   2.153   3.014 -1.3480  0.0597 -2.1152
 8386SOL    HW236618   2.628   2.019   3.014 -0.0332  1.2645 -1.2637
 8387SOL     OW36619   2.257   2.863   2.825 -0.1616  0.4334 -0.0900
 8387SOL    HW136620   2.192   2.924   2.859 -1.6650  0.9400 -3.8157
 8387SOL    HW236621   2.330   2.912   2.787 -0.3134  1.8586  1.4852
 8388SOL     OW36622   4.167   1.193   2.286 -0.0173 -0.2820  0.2611
 8388SOL    HW136623   4.074   1.204   2.266  0.2456  1.8428  0.1621
 8388SOL    HW236624   4.167   1.122   2.351 -0.8596 -0.2106  0.3388
 8389SOL     OW36625   4.274   1.949  16.588  0.3453 -0.4525 -0.1238
 8389SOL    HW136626   4.247   1.971  16.499 -2.0549 -2.8736  0.0256
 8389SOL    HW236627   4.367   1.973  16.578  0.0588  1.0488  0.9395
 8390SOL     OW36628   3.260   1.037   7.870 -0.4152 -0.4344  0.0662
 8390SOL    HW136629   3.268   1.129   7.843  0.0215 -0.8561 -1.2068
 8390SOL    HW236630   3.284   1.036   7.962  0.3514 -2.0947 -0.1622
 8391SOL     OW36631   0.800   1.024   2.282  0.1110  0.3651 -0.1565
 8391SOL    HW136632   0.778   0.972   2.205 -2.4853 -1.4834  1.7933
 8391SOL    HW236633   0.854   0.957   2.324 -0.9646 -1.4982 -1.7593
 8392SOL     OW36634   0.088   2.479  10.737 -0.0057  0.5785  0.1268
 8392SOL    HW136635   0.068   2.428  10.659  2.0411  0.1322 -0.1103
 8392SOL    HW236636   0.057   2.418  10.804 -0.4344 -0.9115 -1.4288
 8393SOL     OW36637   2.144   3.312  17.465  0.5034  0.3111 -0.1498
 8393SOL    HW136638   2.147   3.237  17.524  0.3356  0.7053  0.3644
 8393SOL    HW236639   2.050   3.329  17.457  0.3041 -1.2601 -1.0723
 8394SOL     OW36640   1.590   0.306   4.359  0.3753 -0.1679 -0.5280
 8394SOL    HW136641   1.573   0.235   4.420 -2.2006 -2.0337 -3.4042
 8394SOL    HW236642   1.670   0.275   4.315  0.4102 -0.2252 -0.4217
 8395SOL     OW36643   3.264   4.131   6.317 -0.1019  0.5074 -0.0645
 8395SOL    HW136644   3.191   4.154   6.376  0.7869  1.0844  0.8076
 8395SOL    HW236645   3.292   4.220   6.292  0.1882  0.1578 -0.9955
 8396SOL     OW36646   4.072   1.375  10.798 -0.2937 -0.6602  0.5564
 8396SOL    HW136647   4.023   1.456  10.812 -1.1178 -0.6423 -2.3510
 8396SOL    HW236648   4.121   1.375  10.880  0.1164  2.5529  0.3385
 8397SOL     OW36649   3.857   0.519   9.281 -0.4146 -0.5088  0.4538
 8397SOL    HW136650   3.946   0.500   9.252 -0.9177  1.2018 -2.2533
 8397SOL    HW236651   3.822   0.432   9.298  0.8054 -1.2991 -1.1046
 8398SOL     OW36652   3.456   1.437   4.113 -0.3830 -0.4559 -0.6075
 8398SOL    HW136653   3.362   1.440   4.098 -0.1910  0.0770 -1.6388
 8398SOL    HW236654   3.456   1.432   4.209  1.1241  0.7813 -0.5328
 8399SOL     OW36655   3.679   0.109   5.984 -0.0941  0.2556 -0.4776
 8399SOL    HW136656   3.743   0.118   5.914  0.0970 -0.8829 -0.4590
 8399SOL    HW236657   3.612   0.073   5.925 -1.7016 -0.6554  1.8769
 8400SOL     OW36658   2.930   0.021  12.416  1.3244  1.0686 -0.2331
 8400SOL    HW136659   2.890   4.664  12.449  1.7751  0.7017 -0.5795
 8400SOL    HW236660   2.853   0.078  12.406  0.6253  0.0846 -0.5225
 8401SOL     OW36661   3.638   1.705   0.823  0.5317 -0.3196  0.3870
 8401SOL    HW136662   3.585   1.717   0.744 -0.8694  0.3989  1.4389
 8401SOL    HW236663   3.714   1.759   0.805  1.3181 -0.8468  2.0720
 8402SOL     OW36664   2.224   3.256   0.962 -0.7042  0.2028  0.2524
 8402SOL    HW136665   2.319   3.272   0.956 -0.2576 -2.1588  0.9273
 8402SOL    HW236666   2.223   3.160   0.957 -2.6246  0.3042 -1.2278
 8403SOL     OW36667   0.108   4.261   2.981 -0.3182  0.4607 -0.0326
 8403SOL    HW136668   0.187   4.221   2.943  0.1207  1.0101  0.3150
 8403SOL    HW236669   0.089   4.326   2.913 -0.3831  1.1149  0.6103
 8404SOL     OW36670   2.963   0.536  15.075 -0.0463  0.0795  0.2757
 8404SOL    HW136671   2.901   0.507  15.009 -0.7345  1.7209  0.1931
 8404SOL    HW236672   2.920   0.619  15.097  0.9787  0.7096 -0.1024
 8405SOL     OW36673   4.437   2.583   5.060  0.0225  0.0889  0.0175
 8405SOL    HW136674   4.505   2.592   4.993 -1.4345 -2.8806 -1.8246
 8405SOL    HW236675   4.472   2.535   5.135  0.0380 -0.4562 -0.3360
 8406SOL     OW36676   4.009   1.104  11.805  0.0980 -0.7113  0.4953
 8406SOL    HW136677   4.028   1.162  11.732 -2.8674  0.3949  0.5852
 8406SOL    HW236678   4.083   1.045  11.799  0.6018 -0.0312  0.0055
 8407SOL     OW36679   1.213   4.027   0.524 -0.4339 -0.1763 -0.0169
 8407SOL    HW136680   1.266   4.086   0.470 -2.4857  0.4346 -1.3639
 8407SOL    HW236681   1.194   4.082   0.600 -1.3170  0.1475 -0.4681
 8408SOL     OW36682   2.182   3.162  16.920 -0.0757  0.5785  0.0732
 8408SOL    HW136683   2.208   3.147  17.010 -0.1053 -0.5120 -0.1074
 8408SOL    HW236684   2.258   3.131  16.870 -0.3286  1.2464 -0.7333
 8409SOL     OW36685   1.705   3.148  12.401  0.4723 -0.4031 -0.3703
 8409SOL    HW136686   1.743   3.067  12.368  0.6284  0.0230 -1.2548
 8409SOL    HW236687   1.684   3.196  12.320 -1.5139 -0.9145 -0.1580
 8410SOL     OW36688   4.560   4.139   4.467 -0.2519 -0.7959  0.2703
 8410SOL    HW136689   4.536   4.072   4.402 -2.2195  0.0782  0.0954
 8410SOL    HW236690   4.564   4.220   4.417 -0.5334 -0.7790  0.2757
 8411SOL     OW36691   0.331   3.255  15.464 -0.1931 -0.0378  0.4719
 8411SOL    HW136692   0.338   3.275  15.557  0.7597 -0.7777  0.5631
 8411SOL    HW236693   0.415   3.211  15.447 -0.9473 -1.0030 -0.8064
 8412SOL     OW36694   3.516   3.811   5.942 -0.2323  0.3563  0.2865
 8412SOL    HW136695   3.439   3.836   5.993  0.5439 -0.1312  1.6906
 8412SOL    HW236696   3.570   3.888   5.960 -1.7692  1.7165 -0.9249
 8413SOL     OW36697   0.934   3.339   4.358 -0.5544  0.7917  0.1733
 8413SOL    HW136698   0.899   3.425   4.380 -1.2818  0.6316 -0.3630
 8413SOL    HW236699   1.019   3.347   4.401  1.2010 -1.6235 -2.7809
 8414SOL     OW36700   2.023   1.333   3.003  0.3693 -0.3522  0.2488
 8414SOL    HW136701   2.055   1.398   3.066 -0.4457 -0.0030  0.3005
 8414SOL    HW236702   2.106   1.313   2.960  0.9931 -0.1218  1.3464
 8415SOL     OW36703   3.577   0.493  13.925 -0.6031 -0.5800 -0.0818
 8415SOL    HW136704   3.635   0.568  13.911 -2.6333  0.8794 -0.7700
 8415SOL    HW236705   3.501   0.551  13.937 -0.8601 -1.1195  0.8645
 8416SOL     OW36706   2.802   3.248   6.025 -0.4699  0.3862  0.6171
 8416SOL    HW136707   2.854   3.323   6.054 -0.9337  1.1165 -0.4300
 8416SOL    HW236708   2.821   3.257   5.931 -0.4942  3.5650  0.9009
 8417SOL     OW36709   0.960   3.547  14.825 -0.0305  0.4530 -0.3754
 8417SOL    HW136710   1.024   3.488  14.865 -0.4085 -1.0749 -2.0223
 8417SOL    HW236711   0.885   3.488  14.819 -0.4373  0.9600 -0.1710
 8418SOL     OW36712   1.701   2.045   1.940  0.1971 -0.4347 -0.1447
 8418SOL    HW136713   1.795   2.030   1.955  0.2013  2.3672  2.6846
 8418SOL    HW236714   1.669   1.955   1.940 -1.0427 -0.0073  2.6308
 8419SOL     OW36715   3.833   4.522  12.732  0.0441  0.5496  0.4297
 8419SOL    HW136716   3.918   4.558  12.758 -1.1142  2.6771  1.2975
 8419SOL    HW236717   3.776   4.598  12.738  0.2289  0.6472  0.9518
 8420SOL     OW36718   0.925   2.853   4.363  0.0585 -0.8574  0.0689
 8420SOL    HW136719   0.839   2.878   4.329  0.9171  0.6648 -0.9683
 8420SOL    HW236720   0.976   2.933   4.348 -1.6545  0.2203  0.0586
 8421SOL     OW36721   0.852   1.825   6.913  0.2090  0.3955  0.7510
 8421SOL    HW136722   0.939   1.854   6.943  0.0383  2.4782 -0.7657
 8421SOL    HW236723   0.812   1.900   6.869 -0.9005  0.7222  2.2844
 8422SOL     OW36724   0.211   3.901   3.749 -0.2792 -0.0841  0.2374
 8422SOL    HW136725   0.132   3.848   3.750 -0.1517 -0.2677  0.7157
 8422SOL    HW236726   0.276   3.832   3.732  1.1021  1.5992 -1.4030
 8423SOL     OW36727   3.371   1.273   9.166  0.0774 -0.1521 -0.4453
 8423SOL    HW136728   3.367   1.223   9.248 -2.7606  0.3132 -0.2947
 8423SOL    HW236729   3.429   1.212   9.121  1.0068 -0.4060  1.0720
 8424SOL     OW36730   0.722   2.680   3.958  0.4802 -0.4393 -0.1438
 8424SOL    HW136731   0.637   2.653   3.924 -0.9243  1.7582  1.6279
 8424SOL    HW236732   0.688   2.731   4.032  0.7667  0.5888 -0.7130
 8425SOL     OW36733   1.983   2.585   2.745  0.4123  0.2196  0.1050
 8425SOL    HW136734   1.895   2.604   2.712  0.3796  1.4033  0.8842
 8425SOL    HW236735   1.974   2.588   2.840  0.3925  1.0875  0.0683
 8426SOL     OW36736   0.949   2.124   8.037 -0.6669  0.4113  0.1114
 8426SOL    HW136737   0.960   2.202   8.091 -1.6332  1.3373 -1.0201
 8426SOL    HW236738   1.040   2.097   8.021  0.1065  1.6950  2.2811
 8427SOL     OW36739   2.652   0.575   6.301  0.6333 -0.4450  0.4839
 8427SOL    HW136740   2.589   0.541   6.365  0.8673  0.1186  1.0082
 8427SOL    HW236741   2.715   0.607   6.365  0.9663 -3.7462  1.8087
 8428SOL     OW36742   2.630   0.973   4.671  0.4327 -0.5643 -0.1892
 8428SOL    HW136743   2.705   0.952   4.726  0.9904 -3.1931 -1.9936
 8428SOL    HW236744   2.675   0.985   4.588 -1.8718 -1.4445 -1.5732
 8429SOL     OW36745   2.993   1.121  12.993  0.4453  0.1068 -0.4839
 8429SOL    HW136746   3.075   1.109  13.042  0.9271  1.2193 -1.0166
 8429SOL    HW236747   3.039   1.121  12.909  2.1645 -1.1205  0.4571
 8430SOL     OW36748   2.614   0.130   7.116  0.2530  0.5172  0.6689
 8430SOL    HW136749   2.623   0.146   7.210  1.2508  0.3750  0.6021
 8430SOL    HW236750   2.604   0.219   7.081 -1.0190 -0.5858 -1.7543
 8431SOL     OW36751   2.306   4.323   7.772 -0.8601 -0.0587 -0.3295
 8431SOL    HW136752   2.382   4.267   7.790 -0.1952  0.3488 -1.8457
 8431SOL    HW236753   2.273   4.347   7.858  0.1565  3.3519 -0.8845
 8432SOL     OW36754   1.661   0.230   7.934  0.3311 -0.3714 -0.1287
 8432SOL    HW136755   1.622   0.186   7.859  0.0697 -1.4436  0.6286
 8432SOL    HW236756   1.589   0.220   7.996  0.1210  1.2962 -0.1200
 8433SOL     OW36757   2.637   1.612   7.650  0.1218 -0.3834  0.5025
 8433SOL    HW136758   2.684   1.555   7.589  0.0434 -1.4614  1.4518
 8433SOL    HW236759   2.558   1.609   7.596  0.6733  1.1142 -0.3595
 8434SOL     OW36760   4.036   4.676   3.897 -0.3590 -0.1887  0.0011
 8434SOL    HW136761   4.072   0.024   3.949  3.2761 -2.0752  0.0313
 8434SOL    HW236762   4.032   4.714   3.809 -0.1003  1.4017  0.6659
 8435SOL     OW36763   2.563   1.711   7.275  0.3376  0.2557  0.1427
 8435SOL    HW136764   2.659   1.706   7.277  0.4066  1.1878 -1.0762
 8435SOL    HW236765   2.547   1.687   7.184  0.8401  1.5204 -0.2703
 8436SOL     OW36766   1.137   0.798   9.163 -0.2835  0.5517 -0.4995
 8436SOL    HW136767   1.069   0.736   9.135 -0.5910  0.6016  0.1242
 8436SOL    HW236768   1.089   0.878   9.143 -2.1387 -0.7831 -1.4484
 8437SOL     OW36769   2.567   2.037   2.200  0.4400 -0.1002 -0.1366
 8437SOL    HW136770   2.557   2.113   2.257  0.1884 -0.3915  0.2028
 8437SOL    HW236771   2.616   1.980   2.258  0.2870  0.7299  0.8049
 8438SOL     OW36772   3.075   4.630   7.054 -0.1930  0.1115  0.4663
 8438SOL    HW136773   3.049   4.684   7.128  3.8058  2.3974  0.2165
 8438SOL    HW236774   3.048   4.542   7.079  0.5469 -0.3377 -0.2903
 8439SOL     OW36775   2.238   1.681  14.205  0.0006  0.2613  0.4459
 8439SOL    HW136776   2.152   1.708  14.171  0.2373 -1.6512 -1.6611
 8439SOL    HW236777   2.279   1.623  14.141  1.2312  0.6549  0.8831
 8440SOL     OW36778   1.147   0.779   8.251  0.0986 -0.0443 -0.0805
 8440SOL    HW136779   1.151   0.837   8.175 -0.6625  1.9832  1.4272
 8440SOL    HW236780   1.054   0.777   8.272  0.7442  0.1703  2.9110
 8441SOL     OW36781   4.400   2.898  16.719 -0.1887  0.2990 -0.5807
 8441SOL    HW136782   4.352   2.874  16.798  0.6716 -0.2855 -0.2479
 8441SOL    HW236783   4.403   2.814  16.674  0.0997 -0.9838  1.8244
 8442SOL     OW36784   1.886   1.976   7.811 -0.3493 -0.1393 -0.2370
 8442SOL    HW136785   1.875   2.029   7.890  2.2664 -0.0872  0.1033
 8442SOL    HW236786   1.929   2.046   7.763  0.5040 -0.5332 -0.0455
 8443SOL     OW36787   0.781   1.408  17.536 -0.6168  0.4473 -0.0788
 8443SOL    HW136788   0.876   1.405  17.522 -0.3880 -0.3862  1.7907
 8443SOL    HW236789   0.772   1.464  17.612  0.9553  1.3297 -0.5463
 8444SOL     OW36790   2.690   2.902   2.209 -0.1849  0.0610 -0.7293
 8444SOL    HW136791   2.716   2.935   2.295 -2.4932 -0.8939  0.3432
 8444SOL    HW236792   2.702   2.975   2.149  0.8209  1.2840  0.9391
 8445SOL     OW36793   2.747   1.852   6.435 -1.1264 -0.1448  0.7660
 8445SOL    HW136794   2.776   1.763   6.454 -0.2700  0.4690  2.2752
 8445SOL    HW236795   2.715   1.885   6.519  0.6182 -1.9261  2.1180
 8446SOL     OW36796   1.362   3.577   6.049 -0.1480  0.1870 -0.1369
 8446SOL    HW136797   1.334   3.575   6.141 -1.1748 -1.6229 -0.4872
 8446SOL    HW236798   1.432   3.642   6.050  0.2991 -0.2642 -1.8139
 8447SOL     OW36799   2.868   3.039   6.188 -0.2277  0.3358 -0.2656
 8447SOL    HW136800   2.799   3.026   6.253  1.9326 -3.2511  1.2671
 8447SOL    HW236801   2.857   3.131   6.162 -1.2753  0.4215  0.5106
 8448SOL     OW36802   0.151   1.033  14.818 -0.5523  0.3626 -0.1155
 8448SOL    HW136803   0.061   1.019  14.788 -0.5552  2.3737 -1.0555
 8448SOL    HW236804   0.200   1.081  14.750  0.4261  0.1241  0.4240
 8449SOL     OW36805   0.178   1.480   7.439  0.3313  0.3362  0.0510
 8449SOL    HW136806   0.182   1.390   7.468 -0.1401  0.3895  0.2777
 8449SOL    HW236807   0.198   1.522   7.522  0.0892  3.8258 -1.6413
 8450SOL     OW36808   1.208   2.666   8.843  0.1384 -0.1484 -0.1759
 8450SOL    HW136809   1.217   2.640   8.935  0.4082 -0.2274 -0.2245
 8450SOL    HW236810   1.112   2.671   8.841  0.1513  0.0682 -0.2668
 8451SOL     OW36811   2.310   3.182   4.952 -0.1448  0.6154  0.7303
 8451SOL    HW136812   2.390   3.188   5.004  1.2949  1.5060 -1.5921
 8451SOL    HW236813   2.281   3.273   4.952 -1.0148  0.3479 -0.9394
 8452SOL     OW36814   3.799   3.605   4.522 -0.0459 -0.3190  0.0410
 8452SOL    HW136815   3.752   3.668   4.577 -0.6871  1.8826 -3.0286
 8452SOL    HW236816   3.777   3.523   4.566  0.1908 -1.1563 -1.3937
 8453SOL     OW36817   1.061   4.080  10.751 -0.2153 -0.3121  0.3383
 8453SOL    HW136818   1.037   4.005  10.696 -0.6591 -0.4621  0.7399
 8453SOL    HW236819   1.111   4.131  10.687 -0.6450  0.2720  0.4768
 8454SOL     OW36820   3.120   4.552   7.879  0.3382  0.3992 -0.2361
 8454SOL    HW136821   3.212   4.538   7.856  0.2190  0.2704 -0.6298
 8454SOL    HW236822   3.111   4.645   7.900  0.9666 -0.3218  3.3180
 8455SOL     OW36823   1.988   4.533   5.320  0.1292  0.5305 -0.4595
 8455SOL    HW136824   2.040   4.604   5.284  0.5274  1.2072  1.4604
 8455SOL    HW236825   1.931   4.579   5.382  0.4263 -0.4868  0.5685
 8456SOL     OW36826   2.887   1.392  10.686 -0.3909  0.3864 -0.1849
 8456SOL    HW136827   2.945   1.357  10.618 -0.7987  1.0378 -0.8610
 8456SOL    HW236828   2.855   1.474  10.648 -1.4511  0.9517  1.9331
 8457SOL     OW36829   2.268   3.153   3.606  0.5515  0.9818 -0.6511
 8457SOL    HW136830   2.259   3.220   3.539 -0.7371  0.3486 -1.1233
 8457SOL    HW236831   2.361   3.128   3.605 -0.1830 -1.7875 -0.1082
 8458SOL     OW36832   4.628   1.224  14.555  0.4450  0.2911 -0.2937
 8458SOL    HW136833   4.588   1.236  14.470  2.3599 -0.2316 -1.2680
 8458SOL    HW236834   4.679   1.305  14.555  0.2689  0.4118  0.5742
 8459SOL     OW36835   2.681   2.293   5.760  0.1900 -1.0141 -0.5030
 8459SOL    HW136836   2.775   2.298   5.779  0.1828  2.5353 -1.4455
 8459SOL    HW236837   2.675   2.198   5.766 -1.5305 -0.8845 -0.3373
 8460SOL     OW36838   4.228   0.045   7.905  0.2252  0.0528 -0.4299
 8460SOL    HW136839   4.158   4.714   7.871 -1.7036  2.0757  0.2602
 8460SOL    HW236840   4.186   0.095   7.975  0.9696  0.1689 -0.0580
 8461SOL     OW36841   3.975   3.593  12.920  0.0574  0.2159  0.4407
 8461SOL    HW136842   3.887   3.556  12.910 -0.8317  2.2987  0.3095
 8461SOL    HW236843   4.039   3.536  12.879  1.6385  2.0171  0.3800
 8462SOL     OW36844   2.245   1.426   6.346  0.1808  0.0313 -0.0630
 8462SOL    HW136845   2.257   1.510   6.303  0.2060  1.7752  3.3966
 8462SOL    HW236846   2.332   1.405   6.381 -0.6686 -4.4782 -0.5868
 8463SOL     OW36847   0.398   0.762   1.743 -0.6524  0.2463 -0.3026
 8463SOL    HW136848   0.482   0.807   1.753  0.4148 -1.2020 -2.7137
 8463SOL    HW236849   0.401   0.694   1.809 -0.5582 -0.1106 -0.6718
 8464SOL     OW36850   0.621   2.994   7.720  0.5378  0.5371 -0.0950
 8464SOL    HW136851   0.656   3.074   7.759  1.4565 -0.2591  0.7201
 8464SOL    HW236852   0.527   3.012   7.725  0.5401  0.0979  1.5817
 8465SOL     OW36853   0.331   4.300   7.239 -0.0982 -0.3688  0.4549
 8465SOL    HW136854   0.340   4.207   7.219  2.0916  0.3533 -1.9480
 8465SOL    HW236855   0.356   4.337   7.154 -1.1018  1.3722  0.9248
 8466SOL     OW36856   2.069   1.221   5.316 -0.0223 -0.4132  0.6383
 8466SOL    HW136857   2.008   1.235   5.388  1.2763 -1.7548  1.9954
 8466SOL    HW236858   2.031   1.139   5.284  0.0321 -2.0200  4.6413
 8467SOL     OW36859   1.002   3.356   6.880  0.1673  0.6729 -0.2459
 8467SOL    HW136860   1.093   3.330   6.894 -0.2229  0.7574  2.5556
 8467SOL    HW236861   0.986   3.442   6.918  0.8508  0.9797 -0.6626
 8468SOL     OW36862   1.616   3.690  14.972  0.2343 -0.4972 -0.0545
 8468SOL    HW136863   1.630   3.608  15.018  1.5292  0.1037  0.5900
 8468SOL    HW236864   1.569   3.663  14.892  1.1408  0.0751 -0.7797
 8469SOL     OW36865   0.376   1.359   4.545 -0.2746 -1.0928 -0.5618
 8469SOL    HW136866   0.431   1.389   4.618 -0.2841 -2.0379 -0.1683
 8469SOL    HW236867   0.325   1.439   4.537  1.7753  0.4553  1.6824
 8470SOL     OW36868   3.228   1.910   9.226  0.1048 -0.7570  0.0541
 8470SOL    HW136869   3.136   1.885   9.212 -0.3378 -0.9541  3.4693
 8470SOL    HW236870   3.273   1.826   9.214 -3.5627 -2.7282  0.1446
 8471SOL     OW36871   4.266   2.073   4.217  0.3867 -0.8247  0.6101
 8471SOL    HW136872   4.355   2.038   4.213 -0.0430 -1.7900 -0.5976
 8471SOL    HW236873   4.264   2.075   4.313  1.0637 -1.5078  0.6352
 8472SOL     OW36874   2.645   3.101   1.090 -0.0304 -0.4516  0.1917
 8472SOL    HW136875   2.641   3.079   0.997  2.9630 -1.3427  0.2801
 8472SOL    HW236876   2.721   3.158   1.091  0.6734 -1.4105  1.3912
 8473SOL     OW36877   4.066   3.307   4.331  0.0651  0.2278 -0.1659
 8473SOL    HW136878   4.093   3.279   4.418  0.5416 -0.4858 -0.5374
 8473SOL    HW236879   4.139   3.269   4.282  0.5015  1.1909 -0.2606
 8474SOL     OW36880   1.381   3.047   5.802 -0.9249 -0.5286 -1.2704
 8474SOL    HW136881   1.398   3.000   5.884  0.4865  1.3056 -0.4896
 8474SOL    HW236882   1.439   3.012   5.735  0.4247 -3.5855  1.5085
 8475SOL     OW36883   2.229   1.680   6.245  0.1305  0.0475  0.2847
 8475SOL    HW136884   2.194   1.749   6.302 -0.0351  0.9638 -0.9154
 8475SOL    HW236885   2.229   1.730   6.164  1.8277  0.0247  0.2720
 8476SOL     OW36886   0.983   3.395   3.409  0.4369 -0.2680 -0.0819
 8476SOL    HW136887   1.008   3.312   3.367 -0.3963  0.2720 -1.6276
 8476SOL    HW236888   1.052   3.429   3.466 -0.3917 -0.5358  1.0782
 8477SOL     OW36889   1.334   4.622  10.716  0.0987 -0.0064  0.1599
 8477SOL    HW136890   1.424   4.590  10.727  0.1118 -0.4210 -1.1178
 8477SOL    HW236891   1.285   4.599  10.795  0.7499  1.2313  0.9243
 8478SOL     OW36892   0.647   3.759   5.860  0.0362  0.3585 -0.0619
 8478SOL    HW136893   0.653   3.679   5.807  0.8163 -0.1791  0.8588
 8478SOL    HW236894   0.642   3.723   5.948 -0.5896 -3.3349 -1.5812
 8479SOL     OW36895   0.703   4.325  10.879  0.7439 -0.1007 -0.5613
 8479SOL    HW136896   0.695   4.265  10.806 -0.3381 -1.6648  0.8640
 8479SOL    HW236897   0.624   4.372  10.853 -0.1810  0.2450  2.8240
 8480SOL     OW36898   0.436   3.464   2.494 -0.0099  0.1950 -0.5970
 8480SOL    HW136899   0.528   3.446   2.515 -0.5011  0.5962  1.8386
 8480SOL    HW236900   0.430   3.559   2.507  1.0336  0.3432 -1.1252
 8481SOL     OW36901   1.257   3.278   0.696 -0.6543  0.1250  0.1387
 8481SOL    HW136902   1.266   3.355   0.753 -0.2826  0.3663 -0.2453
 8481SOL    HW236903   1.348   3.248   0.698 -1.1816 -1.3285  1.4169
 8482SOL     OW36904   1.545   0.509   6.477  0.0008 -0.0431  0.1668
 8482SOL    HW136905   1.588   0.435   6.433 -0.0591 -1.8153  3.0590
 8482SOL    HW236906   1.617   0.572   6.484 -0.0892  0.2456 -1.4357
 8483SOL     OW36907   3.536   1.480   9.241 -0.1583 -0.0808 -0.5440
 8483SOL    HW136908   3.461   1.430   9.209  0.8587 -2.1588  0.3772
 8483SOL    HW236909   3.503   1.512   9.325 -0.7608  2.6400 -1.8048
 8484SOL     OW36910   2.815   0.259  15.758 -0.2993  0.7238 -0.0092
 8484SOL    HW136911   2.903   0.223  15.748 -0.0812  1.6172 -1.4008
 8484SOL    HW236912   2.771   0.201  15.696  2.2133 -1.7488  0.5048
 8485SOL     OW36913   1.607   3.261   9.694 -0.5267 -0.0818 -0.1213
 8485SOL    HW136914   1.557   3.307   9.762  0.5469 -1.1319  1.3693
 8485SOL    HW236915   1.668   3.209   9.746  0.1617  0.6584 -0.1961
 8486SOL     OW36916   3.926   0.853  17.149 -0.5970 -0.1402  0.9039
 8486SOL    HW136917   3.970   0.890  17.072 -0.1345 -0.7058  0.8952
 8486SOL    HW236918   3.974   0.911  17.208  2.7980 -0.3477 -1.6176
 8487SOL     OW36919   1.817   0.171   4.225 -0.4952  0.1456  0.3118
 8487SOL    HW136920   1.837   0.087   4.184  1.0138  0.1541  1.0376
 8487SOL    HW236921   1.865   0.237   4.174 -0.1893  1.2589  2.0164
 8488SOL     OW36922   1.757   4.554  16.507  0.2973 -0.0822 -0.9097
 8488SOL    HW136923   1.800   4.513  16.581  1.0518  0.4024 -1.0829
 8488SOL    HW236924   1.737   4.483  16.445  1.8324 -2.4211  1.2881
 8489SOL     OW36925   4.225   3.677   1.701 -0.1546 -0.0030 -0.0280
 8489SOL    HW136926   4.236   3.636   1.616 -0.3243 -0.9319  0.3925
 8489SOL    HW236927   4.141   3.641   1.730 -1.1298  1.2733 -1.3071
 8490SOL     OW36928   0.655   2.078   9.567  0.1997  0.5972 -0.5320
 8490SOL    HW136929   0.564   2.093   9.592 -0.3751 -0.3948 -2.0028
 8490SOL    HW236930   0.649   2.033   9.483 -0.2672  1.3050 -0.8758
 8491SOL     OW36931   4.496   3.921   5.929 -0.1473 -0.1138 -0.5909
 8491SOL    HW136932   4.581   3.940   5.889 -0.6621  1.4926 -0.9132
 8491SOL    HW236933   4.467   4.008   5.957  2.7799  0.8030 -0.3626
 8492SOL     OW36934   4.074   3.459  13.687 -0.3538 -0.8407 -0.7303
 8492SOL    HW136935   4.011   3.530  13.682 -1.2235 -1.6710 -1.5187
 8492SOL    HW236936   4.108   3.461  13.597 -1.2731 -0.5924 -1.0684
 8493SOL     OW36937   3.471   3.267   6.972  0.1136  0.0883  0.5335
 8493SOL    HW136938   3.470   3.312   7.056  1.8431  0.2747  0.4699
 8493SOL    HW236939   3.516   3.338   6.926  0.1910  1.1072  2.2086
 8494SOL     OW36940   1.763   0.037  10.883 -0.2279  0.4731  0.1352
 8494SOL    HW136941   1.786   4.718  10.966 -1.4195  2.3576  1.4558
 8494SOL    HW236942   1.745   4.687  10.824  0.1607  1.1611 -0.8336
 8495SOL     OW36943   2.056   2.201   6.328 -0.8721 -0.5988 -0.3548
 8495SOL    HW136944   2.107   2.282   6.335 -0.5494 -1.0653  3.1062
 8495SOL    HW236945   1.969   2.235   6.349 -0.1308  0.3633  1.2351
 8496SOL     OW36946   4.497   0.333   8.789 -0.1475 -0.5464  0.4995
 8496SOL    HW136947   4.592   0.328   8.775 -0.4288  0.5588 -1.9284
 8496SOL    HW236948   4.486   0.293   8.875  1.7566 -0.4561  0.7844
 8497SOL     OW36949   0.876   0.025   7.038 -0.2806 -0.4475  0.1493
 8497SOL    HW136950   0.931   0.103   7.029 -1.2448  0.2948  0.6154
 8497SOL    HW236951   0.890   0.012   7.132 -1.5144  1.0832  0.5659
 8498SOL     OW36952   1.424   4.262   7.534  0.7890  0.3781  0.0939
 8498SOL    HW136953   1.430   4.354   7.557  1.9831  0.1168  0.8188
 8498SOL    HW236954   1.506   4.261   7.486  0.3427  1.1824 -0.6745
 8499SOL     OW36955   0.573   1.411  15.281 -0.1695 -0.1956  0.0693
 8499SOL    HW136956   0.544   1.411  15.190  0.1211  0.1591 -0.0232
 8499SOL    HW236957   0.593   1.322  15.307 -0.7662 -0.8356 -1.6497
 8500SOL     OW36958   2.788   2.593   8.822 -0.5269 -0.4444 -0.0937
 8500SOL    HW136959   2.750   2.563   8.905  0.5416 -1.7658 -0.0994
 8500SOL    HW236960   2.719   2.566   8.762 -1.2369 -0.5976  0.7772
 8501SOL     OW36961   3.353   0.533   2.051 -0.2470 -0.0021 -0.0522
 8501SOL    HW136962   3.393   0.520   1.965  3.6345  2.9447  1.2984
 8501SOL    HW236963   3.386   0.462   2.106  0.1609  0.2606  0.0434
 8502SOL     OW36964   0.735   1.891   1.351 -0.0234  0.7606 -0.0177
 8502SOL    HW136965   0.708   1.974   1.310  0.3670  0.1267 -1.5363
 8502SOL    HW236966   0.663   1.874   1.412  0.1545 -0.7880 -0.2516
 8503SOL     OW36967   3.861   2.891   4.492  0.3823  0.7449 -0.1888
 8503SOL    HW136968   3.860   2.918   4.584  1.6589  0.8729 -0.2185
 8503SOL    HW236969   3.824   2.970   4.453 -0.1853 -0.3021 -1.7749
 8504SOL     OW36970   2.542   0.729   2.223  0.2882 -0.0984  0.0568
 8504SOL    HW136971   2.508   0.680   2.148 -0.7043 -0.0344  0.4670
 8504SOL    HW236972   2.460   0.754   2.266  0.2771  1.1087 -0.6740
 8505SOL     OW36973   4.007   3.514   5.210 -0.6697  0.0054 -0.1896
 8505SOL    HW136974   4.010   3.605   5.240  1.4040  0.5863 -2.1260
 8505SOL    HW236975   4.084   3.513   5.153  0.3338 -1.6653  1.2150
 8506SOL     OW36976   2.335   4.613   2.427 -0.8118 -0.0058 -0.3620
 8506SOL    HW136977   2.336   4.631   2.333  0.3299 -1.1769 -0.5656
 8506SOL    HW236978   2.341   4.518   2.429  0.3997  0.0429 -1.4641
 8507SOL     OW36979   0.100   3.024   1.114  0.4975  0.4349  0.2596
 8507SOL    HW136980   0.008   3.044   1.132  0.3871  1.4089 -1.3795
 8507SOL    HW236981   0.127   2.985   1.196 -0.3120  1.9619  1.2550
 8508SOL     OW36982   2.956   4.466   4.069  0.4984 -0.1815 -1.0433
 8508SOL    HW136983   2.986   4.379   4.095  1.6611  0.0193 -1.7303
 8508SOL    HW236984   2.862   4.458   4.055  0.2695 -2.2873  1.7885
 8509SOL     OW36985   2.129   0.593   1.022  0.4351 -0.2321  0.2882
 8509SOL    HW136986   2.088   0.508   1.040 -0.5939 -0.1177 -1.5080
 8509SOL    HW236987   2.146   0.594   0.928  0.7882 -1.3269  0.3408
 8510SOL     OW36988   0.302   3.568   1.764 -0.2338 -0.5527 -0.3963
 8510SOL    HW136989   0.391   3.578   1.800 -1.1076 -0.7638  1.8187
 8510SOL    HW236990   0.247   3.606   1.832 -0.0310 -1.4947  0.2922
 8511SOL     OW36991   0.411   3.408   6.652 -0.3790 -0.5314 -1.2408
 8511SOL    HW136992   0.498   3.439   6.628 -0.0469 -0.7638 -0.3477
 8511SOL    HW236993   0.361   3.466   6.594  0.4539  0.9650 -0.4496
 8512SOL     OW36994   1.911   3.621  14.835 -0.0504 -0.2227  0.2393
 8512SOL    HW136995   1.923   3.697  14.892 -0.9366 -1.3933  2.0029
 8512SOL    HW236996   1.833   3.640  14.784 -0.4551 -0.4244  0.7788
 8513SOL     OW36997   2.563   1.456  10.219  0.5028 -0.4042 -0.3168
 8513SOL    HW136998   2.475   1.490  10.205  1.0660  1.5457  0.9322
 8513SOL    HW236999   2.588   1.480  10.308  0.5852 -2.5865  0.2429
 8514SOL     OW37000   4.173   0.155   7.484  0.0162 -0.0476  0.3879
 8514SOL    HW137001   4.230   0.153   7.407  2.3433  0.2660  2.1043
 8514SOL    HW237002   4.114   0.080   7.476  1.4747 -1.1704  0.1242
 8515SOL     OW37003   0.144   3.218  10.267  0.1896 -0.7153  0.6615
 8515SOL    HW137004   0.131   3.293  10.326 -1.9719  1.9250 -3.1768
 8515SOL    HW237005   0.055   3.218  10.232  0.3585  2.4104  0.2202
 8516SOL     OW37006   2.376   0.000  14.569  0.6228 -0.0352  0.0089
 8516SOL    HW137007   2.460   0.003  14.523  1.9943  2.0304  2.6150
 8516SOL    HW237008   2.371   4.630  14.581 -0.7031  0.1187  0.6208
 8517SOL     OW37009   0.030   1.295   8.774 -0.0063  0.1771  0.1981
 8517SOL    HW137010   4.683   1.238   8.744  0.8652 -0.2448 -1.0945
 8517SOL    HW237011   0.024   1.357   8.701  0.5691  0.4940  0.4235
 8518SOL     OW37012   1.017   2.750   0.322 -0.2296 -0.3169 -0.0606
 8518SOL    HW137013   0.969   2.708   0.394  0.5400  0.7532  1.0763
 8518SOL    HW237014   1.102   2.705   0.325  0.5304  1.1022 -0.3171
 8519SOL     OW37015   2.790   3.977   9.478 -0.3711  0.1278 -0.0481
 8519SOL    HW137016   2.783   4.026   9.560  1.2633  1.9012 -0.9499
 8519SOL    HW237017   2.708   4.001   9.435  0.1134  3.6989  1.0275
 8520SOL     OW37018   0.829   3.390   5.081 -0.0339 -0.4939 -0.7919
 8520SOL    HW137019   0.770   3.451   5.036  0.3161 -0.9415 -1.8311
 8520SOL    HW237020   0.824   3.420   5.172  1.5993  0.4383 -1.0135
 8521SOL     OW37021   4.317   0.639  16.056 -0.5430  0.0633 -0.0594
 8521SOL    HW137022   4.309   0.588  15.976  1.3542 -1.4640  0.7043
 8521SOL    HW237023   4.267   0.577  16.109 -1.5522 -0.2586 -1.3988
 8522SOL     OW37024   1.990   1.172   2.651  0.4155  0.9058  0.3754
 8522SOL    HW137025   1.942   1.093   2.629  2.0301 -0.3157  1.2026
 8522SOL    HW237026   1.922   1.234   2.627 -1.4134 -1.0944  0.3996
 8523SOL     OW37027   3.298   1.108   8.134 -0.0896 -0.3340  0.0444
 8523SOL    HW137028   3.312   1.197   8.166  2.8760 -0.5273 -0.7518
 8523SOL    HW237029   3.301   1.057   8.215  3.8056 -2.5638 -1.4700
 8524SOL     OW37030   1.146   0.346   2.850  0.3616  0.1481 -0.1018
 8524SOL    HW137031   1.148   0.260   2.806 -0.8465  0.9518 -1.7262
 8524SOL    HW237032   1.132   0.318   2.940 -0.4907 -2.1747 -0.9254
 8525SOL     OW37033   4.117   2.967   5.685 -0.8702  0.0205 -0.5295
 8525SOL    HW137034   4.199   2.966   5.735 -0.2050 -2.0601 -1.6582
 8525SOL    HW237035   4.110   3.060   5.666  2.0802  0.5412  0.9533
 8526SOL     OW37036   3.075   0.643  13.646  0.1224 -0.0340 -0.1653
 8526SOL    HW137037   3.024   0.591  13.584 -1.7131  1.7126 -0.1233
 8526SOL    HW237038   3.008   0.683  13.702  2.1664  1.0546  1.5121
 8527SOL     OW37039   3.569   4.399   3.137  0.9124 -0.3706 -0.1408
 8527SOL    HW137040   3.651   4.448   3.151  0.2572  0.4395  0.8291
 8527SOL    HW237041   3.581   4.324   3.196 -1.9215 -0.9245 -0.2810
 8528SOL     OW37042   3.887   1.666   3.249 -0.4494  0.0565 -0.7810
 8528SOL    HW137043   3.911   1.677   3.157  0.0130 -0.5004 -0.7273
 8528SOL    HW237044   3.925   1.580   3.264 -1.7440  0.0143  2.1869
 8529SOL     OW37045   3.090   3.902   7.916 -0.0380  0.3842 -0.1503
 8529SOL    HW137046   3.017   3.886   7.977  0.3805  1.0726  0.5318
 8529SOL    HW237047   3.085   3.996   7.898 -1.3496  0.4517  0.5180
 8530SOL     OW37048   4.207   2.278  11.217  0.5358  0.5766  0.1942
 8530SOL    HW137049   4.152   2.233  11.152 -0.6020  2.1204  0.0830
 8530SOL    HW237050   4.240   2.214  11.280  0.5230 -0.5562 -0.9361
 8531SOL     OW37051   1.518   3.765   7.314 -0.0300  0.1435  0.2370
 8531SOL    HW137052   1.529   3.786   7.407  2.0269 -1.5696  0.3772
 8531SOL    HW237053   1.601   3.789   7.273 -1.2338  2.8884 -0.5498
 8532SOL     OW37054   4.319   2.680   8.269  0.2634  0.0761 -0.2847
 8532SOL    HW137055   4.285   2.618   8.334  2.9501 -1.5732 -0.4426
 8532SOL    HW237056   4.384   2.624   8.226 -1.7837 -2.5619  0.0502
 8533SOL     OW37057   2.428   2.738  12.698  0.6981  0.0197 -0.5142
 8533SOL    HW137058   2.346   2.756  12.653 -1.0927  1.6660  3.3673
 8533SOL    HW237059   2.405   2.731  12.791  0.5777  0.8221 -0.4855
 8534SOL     OW37060   3.493   2.291  10.996 -0.3434 -0.3176 -0.1339
 8534SOL    HW137061   3.580   2.329  10.993 -0.4840 -0.1368 -1.6645
 8534SOL    HW237062   3.453   2.292  10.909  1.0339  2.2293 -0.7157
 8535SOL     OW37063   1.659   2.816   8.664 -0.1188  0.1321  0.1796
 8535SOL    HW137064   1.599   2.769   8.607 -1.0734 -0.6928  1.8728
 8535SOL    HW237065   1.608   2.805   8.744 -0.0612 -0.8599  0.0736
 8536SOL     OW37066   0.075   0.656   6.021 -0.6036  0.1626 -0.1621
 8536SOL    HW137067   0.074   0.654   6.116 -0.7192 -0.5161 -0.1776
 8536SOL    HW237068   0.165   0.685   6.007 -0.5502 -0.4202 -1.0793
 8537SOL     OW37069   1.604   1.972   6.537 -0.0906 -0.2030 -0.5812
 8537SOL    HW137070   1.674   1.984   6.601 -0.8265 -1.0388  0.3620
 8537SOL    HW237071   1.638   2.017   6.459  0.0206  0.0356 -0.3968
 8538SOL     OW37072   2.262   3.649   4.739 -0.0782  0.4712  0.4488
 8538SOL    HW137073   2.205   3.713   4.781 -0.2468  1.2454 -0.9421
 8538SOL    HW237074   2.214   3.622   4.661  0.4243  0.2503  0.2129
 8539SOL     OW37075   0.061   1.238   4.708 -0.3307  0.8393  0.1187
 8539SOL    HW137076   0.131   1.302   4.721  1.2004 -0.9823  0.8426
 8539SOL    HW237077   0.109   1.187   4.643 -0.0968  0.6710  0.4189
 8540SOL     OW37078   2.651   0.795   1.058 -0.2835  0.8754  0.4164
 8540SOL    HW137079   2.563   0.766   1.034  0.1187 -0.3660  0.4923
 8540SOL    HW237080   2.688   0.822   0.974 -0.1526 -1.4889 -0.2755
 8541SOL     OW37081   3.413   3.956   4.712  1.0410  0.2102  0.4475
 8541SOL    HW137082   3.337   4.004   4.745 -0.2279 -1.2361 -0.4097
 8541SOL    HW237083   3.470   3.964   4.789  2.4605 -0.7634 -0.4904
 8542SOL     OW37084   4.476   0.562  13.899 -0.6289  0.1546 -0.5337
 8542SOL    HW137085   4.570   0.545  13.905 -0.6726  0.0852  0.0335
 8542SOL    HW237086   4.430   0.479  13.910  0.3168  0.0794  2.9699
 8543SOL     OW37087   0.168   3.742   9.692  0.0576  0.6626 -0.7391
 8543SOL    HW137088   0.126   3.738   9.778  0.6163 -0.3797 -0.5145
 8543SOL    HW237089   0.239   3.800   9.720 -0.7434  0.0951  2.4624
 8544SOL     OW37090   3.210   2.344   0.530 -0.6170 -0.1754  0.3037
 8544SOL    HW137091   3.182   2.420   0.581  0.5956  0.3581  0.1662
 8544SOL    HW237092   3.295   2.327   0.569  0.6598  2.6460 -1.2888
 8545SOL     OW37093   4.107   3.330  16.154 -0.5524  0.1261 -0.0874
 8545SOL    HW137094   4.117   3.245  16.111  1.5810  0.5761 -0.4781
 8545SOL    HW237095   4.180   3.324  16.215 -2.2620  1.7739  2.1215
 8546SOL     OW37096   1.588   1.942  11.758 -0.4110 -0.0677  0.1338
 8546SOL    HW137097   1.599   1.906  11.846 -0.5444  3.0188  1.4314
 8546SOL    HW237098   1.531   1.879  11.714  0.4651 -0.4068 -0.5063
 8547SOL     OW37099   2.059   4.032   5.659 -0.1391 -0.4919 -0.6457
 8547SOL    HW137100   1.973   4.004   5.690  1.1763 -0.1499  3.2306
 8547SOL    HW237101   2.086   3.956   5.608 -0.7303 -0.2519 -1.3347
 8548SOL     OW37102   2.119   4.479   8.827  0.9262  0.1235 -0.1115
 8548SOL    HW137103   2.088   4.414   8.890  2.6130  0.2502  0.8549
 8548SOL    HW237104   2.040   4.528   8.804  0.6173 -0.9470 -1.3462
 8549SOL     OW37105   1.330   3.940   4.082  0.0431 -0.0923  0.3708
 8549SOL    HW137106   1.391   3.922   4.153  2.3361 -2.4511 -2.2039
 8549SOL    HW237107   1.247   3.945   4.130  0.0455  1.3615  0.2401
 8550SOL     OW37108   2.346   0.970  15.553  0.2339  0.2937  0.0163
 8550SOL    HW137109   2.339   0.990  15.460 -0.2627 -1.9652 -0.4137
 8550SOL    HW237110   2.305   0.884  15.551 -0.4899  0.5972  1.3181
 8551SOL     OW37111   0.594   2.892  14.726  0.2385  0.4197  0.0124
 8551SOL    HW137112   0.675   2.894  14.674 -0.1637 -0.0274 -0.6364
 8551SOL    HW237113   0.534   2.880  14.653  0.0301 -0.7962  0.3723
 8552SOL     OW37114   3.459   2.068   9.380  0.3068 -0.4415  0.4841
 8552SOL    HW137115   3.406   1.990   9.398 -1.8228  0.8500 -0.1139
 8552SOL    HW237116   3.516   2.018   9.322 -0.6140 -1.1768  0.2124
 8553SOL     OW37117   2.668   2.572   5.111 -0.0663  0.2059  0.2546
 8553SOL    HW137118   2.702   2.631   5.178 -0.1698  0.1624  0.3439
 8553SOL    HW237119   2.603   2.623   5.062  2.0397  3.3025  0.7014
 8554SOL     OW37120   1.907   2.268  12.950 -0.1885 -0.3064  0.1834
 8554SOL    HW137121   1.932   2.248  13.040 -2.2354 -0.6184  0.6833
 8554SOL    HW237122   1.859   2.350  12.958  0.4652  0.2395 -1.4044
 8555SOL     OW37123   1.707   1.631   9.684 -0.1724  0.2501 -0.4012
 8555SOL    HW137124   1.689   1.562   9.748  1.2429  0.4908  0.2723
 8555SOL    HW237125   1.666   1.705   9.728 -2.0793 -1.0698  0.0099
 8556SOL     OW37126   1.823   0.172  17.187  0.2780  0.1967 -0.2843
 8556SOL    HW137127   1.825   0.119  17.107  0.8587  0.7113 -0.6064
 8556SOL    HW237128   1.757   0.239  17.176 -0.3137 -0.1935  0.8645
 8557SOL     OW37129   1.984   0.888   7.387 -0.1562  0.5250  0.2202
 8557SOL    HW137130   1.922   0.840   7.442 -0.4433 -0.4258 -0.9226
 8557SOL    HW237131   2.065   0.838   7.392 -1.5718 -1.7619  0.4619
 8558SOL     OW37132   0.873   0.104   9.571  0.0568  0.1469 -0.2601
 8558SOL    HW137133   0.925   0.154   9.634 -0.4183 -0.2650  0.4576
 8558SOL    HW237134   0.851   0.031   9.629 -1.7653  1.0581  0.1886
 8559SOL     OW37135   4.131   3.376   3.737  0.2656 -0.2073 -0.0033
 8559SOL    HW137136   4.065   3.445   3.738  1.6986  1.1784 -1.0713
 8559SOL    HW237137   4.128   3.348   3.829 -0.8656 -1.3364 -0.3746
 8560SOL     OW37138   1.561   3.791   2.719 -0.1892  0.5012  0.5964
 8560SOL    HW137139   1.467   3.786   2.702 -0.6362  2.3102  2.5171
 8560SOL    HW237140   1.606   3.817   2.639  2.9591 -1.1998  1.7968
 8561SOL     OW37141   0.201   0.067  10.773  0.4555  0.5115 -0.2108
 8561SOL    HW137142   0.174   4.718  10.718  1.5185 -0.4318  0.4978
 8561SOL    HW237143   0.178   0.034  10.860 -0.5429 -0.8168 -0.9897
 8562SOL     OW37144   2.316   0.396   3.243  0.3681  0.1578 -0.3257
 8562SOL    HW137145   2.377   0.392   3.317 -1.3555 -1.7334  1.0171
 8562SOL    HW237146   2.341   0.476   3.196  0.4052 -0.3782 -1.1979
 8563SOL     OW37147   3.477   2.336   8.940 -0.2475  0.6317  0.2047
 8563SOL    HW137148   3.550   2.398   8.945 -0.0954  0.5466 -0.9254
 8563SOL    HW237149   3.411   2.396   8.972  0.4856  1.5415 -0.0039
 8564SOL     OW37150   0.420   4.171   6.838 -0.2383  0.2442 -0.1492
 8564SOL    HW137151   0.497   4.162   6.781  0.4018  1.0843  0.5818
 8564SOL    HW237152   0.356   4.119   6.789 -1.1096  0.7785  0.4304
 8565SOL     OW37153   4.344   2.812   6.009  0.4698 -0.0050  0.1025
 8565SOL    HW137154   4.279   2.874   6.041  0.3467 -1.1275  2.0313
 8565SOL    HW237155   4.321   2.728   6.049 -1.1717  0.5009  0.2293
 8566SOL     OW37156   0.799   3.409  15.089 -0.3211  0.2426 -0.0756
 8566SOL    HW137157   0.816   3.412  15.183 -1.7193  0.1035  0.1853
 8566SOL    HW237158   0.704   3.414  15.079 -0.4294 -2.7735 -0.3770
 8567SOL     OW37159   2.409   4.404   5.915 -0.0001 -0.4756 -0.0534
 8567SOL    HW137160   2.359   4.484   5.899 -1.5368 -1.2257  0.9539
 8567SOL    HW237161   2.348   4.336   5.884 -1.8119 -0.0176  2.5138
 8568SOL     OW37162   0.960   3.475   3.085 -0.1433 -0.1740  0.4263
 8568SOL    HW137163   1.025   3.482   3.015 -1.2947  3.3312 -0.2832
 8568SOL    HW237164   1.013   3.444   3.158 -1.4349 -1.7019  0.7180
 8569SOL     OW37165   0.988   3.697  14.148 -0.1142 -0.4219 -0.1075
 8569SOL    HW137166   0.960   3.607  14.167 -0.6588 -0.3412 -0.5274
 8569SOL    HW237167   0.936   3.754  14.205 -2.0323 -0.0648 -2.2182
 8570SOL     OW37168   3.523   1.333   4.639 -0.3103  0.0869  0.1464
 8570SOL    HW137169   3.524   1.263   4.705 -0.3620 -0.8833 -0.8671
 8570SOL    HW237170   3.590   1.302   4.579  0.5749 -1.1478  1.7639
 8571SOL     OW37171   4.436   2.517   2.275 -0.4613  0.1038 -0.1896
 8571SOL    HW137172   4.512   2.543   2.223  0.2812  1.1852  1.4413
 8571SOL    HW237173   4.464   2.436   2.318 -0.2713  0.6900  0.7909
 8572SOL     OW37174   1.498   3.218   0.488  0.0539 -0.0759  0.4138
 8572SOL    HW137175   1.513   3.141   0.543  2.6545 -1.1321 -1.7741
 8572SOL    HW237176   1.543   3.278   0.546  1.7901 -1.0953  0.1279
 8573SOL     OW37177   2.747   1.158   9.186 -0.4542 -0.0013  0.1337
 8573SOL    HW137178   2.710   1.120   9.265  0.2766 -1.6956 -0.3201
 8573SOL    HW237179   2.725   1.250   9.173  0.8101  0.3453  0.4053
 8574SOL     OW37180   4.181   3.721   3.537 -0.1528 -0.1087  0.3281
 8574SOL    HW137181   4.123   3.798   3.541  2.4744  1.8158  1.0960
 8574SOL    HW237182   4.122   3.655   3.501 -0.6347  0.9069 -0.7612
 8575SOL     OW37183   3.823   0.011   5.512  0.4759  0.2025  0.9959
 8575SOL    HW137184   3.837   4.653   5.464  0.1733 -0.0537  1.3494
 8575SOL    HW237185   3.732   0.022   5.486  0.6880 -0.2052  0.0763
 8576SOL     OW37186   0.782   0.398   4.505  0.5450 -0.5442  0.2072
 8576SOL    HW137187   0.696   0.415   4.544  0.8359  0.8561  0.2338
 8576SOL    HW237188   0.757   0.354   4.424  0.2432 -1.0202  0.5553
 8577SOL     OW37189   0.072   1.803   3.078  0.2318  0.0698 -0.1939
 8577SOL    HW137190   0.148   1.783   3.132 -0.3974  0.5474  0.8563
 8577SOL    HW237191   0.110   1.844   3.000 -2.2233  2.4514 -0.1168
 8578SOL     OW37192   2.182   1.616   8.972 -0.3751 -0.3383  0.0506
 8578SOL    HW137193   2.113   1.632   8.908 -0.9314 -3.0640 -0.0129
 8578SOL    HW237194   2.198   1.703   9.009  1.8875 -0.5086 -0.5253
 8579SOL     OW37195   0.158   0.673  14.151  0.5337  0.0505  0.0086
 8579SOL    HW137196   0.216   0.746  14.130  0.2980  0.3280  0.3299
 8579SOL    HW237197   0.222   0.603  14.136  0.6905  0.0878  0.4994
 8580SOL     OW37198   4.153   1.528   5.854 -0.4029  0.2419  0.2173
 8580SOL    HW137199   4.090   1.569   5.795 -1.7413 -0.7945  0.9422
 8580SOL    HW237200   4.125   1.437   5.846  2.7868 -0.6052 -1.2760
 8581SOL     OW37201   3.417   1.890   6.903 -0.4955 -0.1403 -0.0997
 8581SOL    HW137202   3.324   1.875   6.884 -0.6199  0.7609 -0.2241
 8581SOL    HW237203   3.406   1.975   6.945  2.6309  0.2507 -0.0865
 8582SOL     OW37204   1.935   3.674   2.596  0.5770  0.1403 -0.7454
 8582SOL    HW137205   1.985   3.698   2.517  1.9570  0.1015  0.1135
 8582SOL    HW237206   1.847   3.654   2.563 -0.2334  1.9532  0.3379
 8583SOL     OW37207   1.194   4.107   5.583  0.1132  1.4296  0.4939
 8583SOL    HW137208   1.155   4.056   5.654 -1.0842 -0.7931 -1.7653
 8583SOL    HW237209   1.111   4.135   5.545 -0.4887  1.2335  1.6683
 8584SOL     OW37210   1.010   3.303   7.232 -0.1963 -0.1491 -0.4310
 8584SOL    HW137211   0.958   3.376   7.196  1.1331  0.4078 -1.2191
 8584SOL    HW237212   1.095   3.347   7.229 -0.0109 -0.4687  0.2010
 8585SOL     OW37213   0.194   2.265   7.813 -0.0321  0.0848  0.0056
 8585SOL    HW137214   0.227   2.285   7.900 -1.3940  0.1269  0.5222
 8585SOL    HW237215   0.271   2.267   7.757  0.3750 -1.6839  0.5096
 8586SOL     OW37216   2.020   3.765   4.291  0.1003 -0.4266 -0.1374
 8586SOL    HW137217   2.010   3.848   4.244 -1.0648 -1.6013 -1.9761
 8586SOL    HW237218   2.056   3.711   4.220  1.4538 -1.5292  1.3900
 8587SOL     OW37219   0.302   0.512  13.389 -0.5833 -0.0332  0.3586
 8587SOL    HW137220   0.260   0.596  13.373  0.1095  0.1788 -0.3271
 8587SOL    HW237221   0.227   0.457  13.366  1.2723 -2.3779 -0.1060
 8588SOL     OW37222   2.214   1.721   9.444  0.1780  0.1602 -0.0605
 8588SOL    HW137223   2.207   1.811   9.413  2.6658  0.3850  0.0665
 8588SOL    HW237224   2.148   1.673   9.393 -0.4575  2.1533 -1.1312
 8589SOL     OW37225   3.167   4.708  12.259  0.5468  0.0459 -0.0703
 8589SOL    HW137226   3.079   0.000  12.291  1.6975 -0.2103  3.2290
 8589SOL    HW237227   3.180   0.046  12.188  1.0837  1.3723  1.1860
 8590SOL     OW37228   2.908   2.114   2.605  0.0436 -0.2864 -0.5958
 8590SOL    HW137229   2.972   2.157   2.662 -0.8833  3.1198 -2.1151
 8590SOL    HW237230   2.830   2.142   2.653  0.6942  1.4631 -0.5164
 8591SOL     OW37231   1.371   3.095  14.516 -0.2223 -0.1197 -0.0087
 8591SOL    HW137232   1.308   3.072  14.585  0.6231 -2.9686 -0.2071
 8591SOL    HW237233   1.452   3.056  14.548  1.1470  1.6531 -1.3008
 8592SOL     OW37234   4.440   2.363   6.239  0.1984 -0.0895 -0.0075
 8592SOL    HW137235   4.521   2.334   6.196 -0.1693 -2.2080  0.7838
 8592SOL    HW237236   4.432   2.300   6.310  2.6855  2.4547  2.5702
 8593SOL     OW37237   1.922   0.673   3.048  0.4744  0.0788  0.3364
 8593SOL    HW137238   1.937   0.746   3.108  0.2017 -1.1587  1.9210
 8593SOL    HW237239   1.833   0.645   3.067  0.1239  0.1518 -1.1989
 8594SOL     OW37240   3.551   2.864   2.508  0.2835 -0.2197 -0.0403
 8594SOL    HW137241   3.532   2.882   2.600 -0.4629 -2.1112  0.1600
 8594SOL    HW237242   3.465   2.829   2.484 -0.3058  0.1827  1.4806
 8595SOL     OW37243   1.343   1.854   6.467  0.1743 -0.1112  0.0964
 8595SOL    HW137244   1.408   1.914   6.504 -0.2709  1.0131 -0.9484
 8595SOL    HW237245   1.285   1.836   6.542  0.4162 -1.8081 -0.1231
 8596SOL     OW37246   1.465   2.846   0.076 -0.5850 -0.2658 -0.3234
 8596SOL    HW137247   1.410   2.779   0.117 -0.2796 -0.5855 -0.4386
 8596SOL    HW237248   1.495   2.893   0.153  0.3132 -1.3694 -0.0084
 8597SOL     OW37249   1.978   0.689   8.345  0.0020  0.1760  0.6016
 8597SOL    HW137250   1.890   0.691   8.383  1.1039  0.5067  3.1667
 8597SOL    HW237251   2.023   0.751   8.402  1.4837 -0.3384 -0.0107
 8598SOL     OW37252   2.735   4.211   6.111 -0.1025 -0.3750  0.4680
 8598SOL    HW137253   2.786   4.200   6.191  3.2489  1.1346 -1.4443
 8598SOL    HW237254   2.737   4.120   6.081 -0.0459  0.1597 -1.1726
 8599SOL     OW37255   3.669   0.404   3.227 -0.3193 -0.1230 -0.6408
 8599SOL    HW137256   3.753   0.406   3.273 -0.6800  0.3684 -0.0007
 8599SOL    HW237257   3.636   0.321   3.262  0.0461  0.3956  0.9227
 8600SOL     OW37258   1.508   4.070   6.675 -0.5466 -0.0444  0.0353
 8600SOL    HW137259   1.493   3.998   6.614  0.5771  1.3618 -1.9242
 8600SOL    HW237260   1.507   4.141   6.611  0.1274  0.1338  0.2113
 8601SOL     OW37261   1.025   0.851  17.525 -0.5267 -0.2282  0.4830
 8601SOL    HW137262   1.100   0.895  17.565  0.1675 -2.2547  1.3774
 8601SOL    HW237263   1.059   0.799  17.453  0.7710 -1.5781  2.0791
 8602SOL     OW37264   2.570   2.263  11.715  0.0427  0.5017  0.5473
 8602SOL    HW137265   2.598   2.351  11.690  1.8356  0.1652  1.3742
 8602SOL    HW237266   2.655   2.241  11.755 -0.3350 -0.0050  1.0766
 8603SOL     OW37267   3.727   2.964   5.132  0.2315  0.1173 -0.0926
 8603SOL    HW137268   3.638   2.935   5.147 -0.0563  0.3097 -1.4176
 8603SOL    HW237269   3.710   3.035   5.070 -2.1949 -0.5526 -0.1807
 8604SOL     OW37270   1.696   0.538  16.791  0.3311 -0.0613  0.5910
 8604SOL    HW137271   1.727   0.598  16.859  0.4256  2.4817 -1.7340
 8604SOL    HW237272   1.756   0.464  16.801  1.8518  1.0566 -0.3450
 8605SOL     OW37273   4.674   0.688   6.726  0.3082 -0.0472  0.0388
 8605SOL    HW137274   4.619   0.614   6.754 -0.2246  1.2250  2.3174
 8605SOL    HW237275   4.643   0.760   6.781 -1.7925  0.5461 -1.9293
 8606SOL     OW37276   1.016   4.263  12.313  0.1802 -0.1857  0.3743
 8606SOL    HW137277   0.924   4.252  12.337  0.0469 -0.9776 -0.4594
 8606SOL    HW237278   1.039   4.171  12.328  0.1207 -0.5467 -1.8017
 8607SOL     OW37279   3.855   2.958   5.650 -0.6064  0.7443  0.0577
 8607SOL    HW137280   3.863   2.949   5.555 -3.2027  1.2731 -0.1908
 8607SOL    HW237281   3.947   2.943   5.674 -0.4008 -0.8939 -1.6698
 8608SOL     OW37282   2.742   1.005  12.939 -0.0098 -0.6055  0.2043
 8608SOL    HW137283   2.770   0.985  12.849  3.0716  0.2965  0.9397
 8608SOL    HW237284   2.821   1.056  12.958  0.4513 -0.9688 -0.7187
 8609SOL     OW37285   1.062   3.082   0.662 -0.0218  0.1186 -0.2125
 8609SOL    HW137286   1.134   3.145   0.655 -1.2386  1.3670 -1.4891
 8609SOL    HW237287   1.046   3.041   0.577 -1.0381 -1.4322  0.7356
 8610SOL     OW37288   2.538   3.358   1.985  0.0761 -0.0395 -0.2255
 8610SOL    HW137289   2.468   3.307   1.944  0.2525 -2.4478  2.5539
 8610SOL    HW237290   2.545   3.431   1.923 -0.5395  0.0538 -0.1850
 8611SOL     OW37291   0.553   1.636  13.818 -0.1044  0.2439 -0.2275
 8611SOL    HW137292   0.546   1.730  13.799  2.6147  0.2306 -1.3381
 8611SOL    HW237293   0.585   1.611  13.731  0.2315  2.1482 -0.6480
 8612SOL     OW37294   1.637   3.921   0.824  0.0108  0.2687  0.0639
 8612SOL    HW137295   1.695   3.923   0.749 -1.2920  2.2894 -0.8844
 8612SOL    HW237296   1.687   3.860   0.879  0.9636  0.7687 -0.2464
 8613SOL     OW37297   2.018   0.554   4.764  0.0128 -0.0096 -0.0360
 8613SOL    HW137298   2.077   0.628   4.778 -1.0166  1.3289 -2.7470
 8613SOL    HW237299   1.945   0.586   4.816  0.1240  2.1874 -1.2092
 8614SOL     OW37300   2.570   0.942   7.821  0.0246  0.2963 -1.0490
 8614SOL    HW137301   2.526   0.858   7.828 -0.8338  0.5491 -3.2815
 8614SOL    HW237302   2.659   0.912   7.838  0.2627  2.1543  1.0160
 8615SOL     OW37303   2.156   1.964   2.236 -0.5463 -0.5817  0.2082
 8615SOL    HW137304   2.197   2.044   2.202 -0.9779 -0.3856  0.1547
 8615SOL    HW237305   2.176   1.969   2.329  0.7725 -0.2501 -0.0878
 8616SOL     OW37306   3.284   1.130   0.579 -0.5108  0.2271 -0.5433
 8616SOL    HW137307   3.299   1.207   0.524  3.2571 -0.3252 -0.2488
 8616SOL    HW237308   3.367   1.126   0.626 -0.8472  0.2346  0.0579
 8617SOL     OW37309   2.030   4.536   2.786 -0.5669 -0.1989 -0.0906
 8617SOL    HW137310   2.019   4.477   2.861 -1.0328  1.5690  1.2205
 8617SOL    HW237311   2.126   4.540   2.783 -0.5215  0.0607  1.9827
 8618SOL     OW37312   3.878   0.081   5.784  0.2328  0.2345 -0.0247
 8618SOL    HW137313   3.969   0.091   5.813  0.3204 -0.4266 -0.0764
 8618SOL    HW237314   3.875   0.058   5.692 -1.2830  0.6322 -0.0828
 8619SOL     OW37315   1.683   1.148   5.596  0.5594 -0.1174  0.1668
 8619SOL    HW137316   1.714   1.225   5.549  1.2552  0.5866  1.7989
 8619SOL    HW237317   1.709   1.083   5.530 -2.5258  1.6473 -2.7820
 8620SOL     OW37318   2.430   0.556  11.192  0.1234 -0.3739 -0.3548
 8620SOL    HW137319   2.460   0.607  11.268  0.6877  0.1300 -0.9093
 8620SOL    HW237320   2.360   0.512  11.240  0.0482 -1.3972 -1.3884
 8621SOL     OW37321   2.064   0.272   4.789  0.5776 -0.0392 -0.2716
 8621SOL    HW137322   1.992   0.265   4.852 -0.4379  1.0401 -1.3000
 8621SOL    HW237323   2.067   0.367   4.801  0.8584 -0.4281  2.8687
 8622SOL     OW37324   3.461   0.776  15.646 -1.0429  0.1865  0.4351
 8622SOL    HW137325   3.429   0.792  15.557  1.0882  0.6498 -0.2334
 8622SOL    HW237326   3.547   0.817  15.641 -1.1743  0.6592  1.8908
 8623SOL     OW37327   4.195   2.588  10.303  0.3664 -0.2460  0.1095
 8623SOL    HW137328   4.189   2.675  10.341 -1.4359 -1.0046  1.5435
 8623SOL    HW237329   4.224   2.608  10.213  2.1396 -1.4942  0.4165
 8624SOL     OW37330   3.852   1.462   8.671 -0.0623 -0.3402 -0.1164
 8624SOL    HW137331   3.871   1.452   8.764 -2.4389 -0.6959  0.3483
 8624SOL    HW237332   3.925   1.518   8.645  0.5587 -0.3290  1.6271
 8625SOL     OW37333   3.015   2.123   4.623  0.1829 -0.1615 -0.1202
 8625SOL    HW137334   3.016   2.205   4.575 -0.6228 -0.7112 -1.0788
 8625SOL    HW237335   2.930   2.138   4.666 -0.0897 -0.2672 -0.6243
 8626SOL     OW37336   1.840   0.388   3.355 -0.2316 -0.1147 -0.1156
 8626SOL    HW137337   1.791   0.462   3.391 -0.5652 -0.8045  0.8375
 8626SOL    HW237338   1.824   0.334   3.433  0.7311 -1.6350 -0.9844
 8627SOL     OW37339   0.635   4.053   1.488 -0.2784 -0.1786 -0.7788
 8627SOL    HW137340   0.637   4.112   1.564 -1.1760 -1.1354 -0.0124
 8627SOL    HW237341   0.712   3.996   1.493  0.6511  1.2918  1.8428
 8628SOL     OW37342   3.168   0.611   8.390 -0.3657  0.1147 -0.0874
 8628SOL    HW137343   3.191   0.518   8.387 -0.2116  0.1600 -0.2979
 8628SOL    HW237344   3.210   0.654   8.316 -0.6804  0.8084  0.1368
 8629SOL     OW37345   3.036   0.966   7.725 -0.2304 -0.1843 -0.6820
 8629SOL    HW137346   3.108   0.988   7.785 -0.0236  0.9584 -1.3450
 8629SOL    HW237347   2.960   0.988   7.779  0.9149 -0.8507  1.2366
 8630SOL     OW37348   0.846   3.937   4.547  0.2322 -0.6282 -0.0164
 8630SOL    HW137349   0.811   3.965   4.632  2.3697  2.9911 -0.3408
 8630SOL    HW237350   0.822   4.017   4.500 -1.0024 -0.1861  1.3663
 8631SOL     OW37351   0.604   1.233   6.424 -0.1082  0.9542  0.1979
 8631SOL    HW137352   0.523   1.253   6.377 -0.1071 -1.3376 -0.8137
 8631SOL    HW237353   0.669   1.292   6.387  2.7989 -0.4140  3.1965
 8632SOL     OW37354   0.367   1.946   3.456  0.1124  0.4464  0.1609
 8632SOL    HW137355   0.408   1.861   3.468 -2.7578 -1.0998 -0.9456
 8632SOL    HW237356   0.281   1.915   3.428 -0.0954  0.5753  0.6488
 8633SOL     OW37357   2.380   2.563   2.148  0.0622 -0.0715  0.1446
 8633SOL    HW137358   2.289   2.546   2.172 -0.3561 -0.2946 -1.6015
 8633SOL    HW237359   2.412   2.626   2.212 -0.7761 -0.5131  0.9959
 8634SOL     OW37360   2.494   2.059  13.601 -0.0356  0.9963  0.0874
 8634SOL    HW137361   2.519   1.987  13.544  0.2773  1.0186  0.1955
 8634SOL    HW237362   2.562   2.125  13.589 -0.8171  1.7055 -0.4058
 8635SOL     OW37363   2.601   4.563   1.116  0.1705 -0.3269  0.5935
 8635SOL    HW137364   2.509   4.538   1.103  0.0395  1.7450 -2.5479
 8635SOL    HW237365   2.650   4.502   1.061 -0.8739  0.0330 -0.7356
 8636SOL     OW37366   2.584   3.524  12.258  0.1979 -0.6330  0.4330
 8636SOL    HW137367   2.530   3.473  12.318 -0.6061 -1.9209 -1.4243
 8636SOL    HW237368   2.639   3.571  12.321 -0.4677 -1.0083  1.3066
 8637SOL     OW37369   2.432   1.320  13.601  0.6387 -0.0511 -0.7388
 8637SOL    HW137370   2.413   1.227  13.596 -0.3485  0.1231 -0.3148
 8637SOL    HW237371   2.374   1.347  13.672  1.2176  0.2306 -0.3816
 8638SOL     OW37372   2.008   0.575   7.018  0.3217 -0.4431 -0.4816
 8638SOL    HW137373   1.916   0.600   7.026  0.8813  1.3769  0.2493
 8638SOL    HW237374   2.005   0.485   7.051 -1.1927 -0.2410 -0.0730
 8639SOL     OW37375   4.451   1.783  15.001 -0.0529  0.2277  0.4234
 8639SOL    HW137376   4.437   1.838  15.079  0.3004  0.9155 -0.0078
 8639SOL    HW237377   4.446   1.846  14.930  0.3336  0.4476  0.5898
 8640SOL     OW37378   3.845   2.435   9.279 -0.2012 -0.2388  0.2243
 8640SOL    HW137379   3.753   2.409   9.285 -0.4942  1.0104  1.2624
 8640SOL    HW237380   3.904   2.360   9.281 -1.3826 -1.1778 -0.5242
 8641SOL     OW37381   2.796   1.901  14.186  0.1146  0.0962  0.0486
 8641SOL    HW137382   2.782   1.818  14.139 -1.5028  0.6197 -0.3916
 8641SOL    HW237383   2.751   1.971  14.139  1.6922 -0.7496 -2.7144
 8642SOL     OW37384   1.715   1.973   6.005  0.4949 -0.1361  1.4413
 8642SOL    HW137385   1.810   1.966   6.016  0.4782  0.5301  2.0125
 8642SOL    HW237386   1.715   1.957   5.911 -0.8371  0.9746  1.2604
 8643SOL     OW37387   3.499   3.989   6.326  0.9034  0.3559  0.1113
 8643SOL    HW137388   3.485   3.896   6.310 -0.0679  0.3775  0.8921
 8643SOL    HW237389   3.412   4.022   6.343  0.2829 -0.9152 -0.5658
 8644SOL     OW37390   2.178   3.283  16.042 -0.5536  0.7093  0.2904
 8644SOL    HW137391   2.188   3.337  16.120 -2.0454  0.2712  0.7702
 8644SOL    HW237392   2.256   3.311  15.993 -0.7224  0.3047 -0.2050
 8645SOL     OW37393   2.634   2.295   2.933 -0.2723 -0.0323 -0.4671
 8645SOL    HW137394   2.606   2.377   2.892 -0.8731 -0.7543 -1.4738
 8645SOL    HW237395   2.714   2.325   2.977 -0.1458 -0.8305 -0.1580
 8646SOL     OW37396   1.051   0.191   1.576 -0.4437 -0.0917  0.1618
 8646SOL    HW137397   1.143   0.185   1.550 -0.0814  1.5350  1.0372
 8646SOL    HW237398   1.023   0.100   1.583 -0.5630 -0.0761 -0.1257
 8647SOL     OW37399   3.382   0.340  11.022  0.0391 -0.1466  0.4139
 8647SOL    HW137400   3.382   0.285  11.100 -3.8002 -1.4208 -0.5230
 8647SOL    HW237401   3.452   0.400  11.051  0.1663  2.0163 -4.2988
 8648SOL     OW37402   4.361   1.942   7.839 -0.1437  0.0720 -0.2136
 8648SOL    HW137403   4.324   1.905   7.919 -3.4628  0.8062 -1.4054
 8648SOL    HW237404   4.440   1.988   7.867  0.8579 -1.8000  0.0420
 8649SOL     OW37405   4.281   3.214   4.180  0.2848 -0.3311 -0.3424
 8649SOL    HW137406   4.274   3.183   4.090 -0.3119  0.5030 -0.5791
 8649SOL    HW237407   4.295   3.308   4.171 -1.8634 -0.2110 -2.4178
 8650SOL     OW37408   3.243   2.198   7.579 -0.0608 -0.4643 -0.4498
 8650SOL    HW137409   3.315   2.207   7.641 -1.2143  3.1389  0.3636
 8650SOL    HW237410   3.226   2.105   7.598 -3.7133  0.2638 -0.0666
 8651SOL     OW37411   3.842   2.058   6.727 -0.4136  0.0252 -0.1945
 8651SOL    HW137412   3.852   2.125   6.660  1.5253  0.5355  0.6088
 8651SOL    HW237413   3.876   2.088   6.811  1.4931  2.7691 -1.9455
 8652SOL     OW37414   0.967   4.317  10.910 -0.0019 -0.4018 -0.1775
 8652SOL    HW137415   1.011   4.254  10.853 -0.4637  1.6708 -2.8330
 8652SOL    HW237416   0.873   4.299  10.911  0.0454 -0.4841  2.1550
 8653SOL     OW37417   2.257   2.862  16.450 -0.6356 -0.2646  0.1562
 8653SOL    HW137418   2.197   2.816  16.391 -0.5470  0.8118 -0.7873
 8653SOL    HW237419   2.299   2.917  16.383  1.2980 -0.5909  1.0952
 8654SOL     OW37420   3.437   1.297   3.326  1.0665 -0.3901 -0.4559
 8654SOL    HW137421   3.384   1.228   3.286 -0.9493  1.6532 -1.3314
 8654SOL    HW237422   3.525   1.261   3.323  1.5522  0.7632  0.2360
 8655SOL     OW37423   2.183   1.068   6.162 -0.2907 -0.3033  0.5534
 8655SOL    HW137424   2.169   0.973   6.151  2.9593 -0.8766  1.3908
 8655SOL    HW237425   2.250   1.084   6.096 -1.4825  0.1778 -0.5382
 8656SOL     OW37426   0.508   0.269   3.706 -0.4022 -0.4208 -0.1122
 8656SOL    HW137427   0.437   0.216   3.669  0.0999 -1.4484  0.3986
 8656SOL    HW237428   0.511   0.343   3.646  0.4805 -0.3547  0.0199
 8657SOL     OW37429   4.008   4.648   9.419  0.3684 -0.1283 -0.2709
 8657SOL    HW137430   4.072   4.582   9.448 -0.0656 -0.9548 -1.2279
 8657SOL    HW237431   4.039   4.722   9.472  2.1585 -1.7043  0.8869
 8658SOL     OW37432   0.740   3.321   7.578  0.4090  0.0494 -0.7522
 8658SOL    HW137433   0.823   3.276   7.566 -0.1353 -1.1696  0.1154
 8658SOL    HW237434   0.723   3.310   7.484 -0.6638 -0.0229 -0.5438
 8659SOL     OW37435   4.416   2.409   2.909 -0.2937  0.2463  0.2008
 8659SOL    HW137436   4.438   2.370   2.824  2.3590  0.1619  0.9541
 8659SOL    HW237437   4.493   2.456   2.937 -0.4741  1.6512 -1.6943
 8660SOL     OW37438   3.446   0.622   5.279 -0.6084  0.3066 -0.3025
 8660SOL    HW137439   3.444   0.527   5.292  0.1538  0.4194  0.6049
 8660SOL    HW237440   3.426   0.641   5.370 -1.8542 -1.3522 -0.2241
 8661SOL     OW37441   3.841   1.068   1.751 -0.0094 -0.0888 -0.1582
 8661SOL    HW137442   3.834   1.021   1.668  0.7251 -1.8444  0.7557
 8661SOL    HW237443   3.926   1.111   1.736 -0.1247  0.0055 -0.5456
 8662SOL     OW37444   0.422   0.495   7.576 -0.5140  0.7326  0.2912
 8662SOL    HW137445   0.485   0.497   7.648  0.8760 -2.4922 -0.8435
 8662SOL    HW237446   0.485   0.516   7.507 -0.5488  1.5187  0.4929
 8663SOL     OW37447   2.061   0.914   6.495  0.0992  0.4809  0.0240
 8663SOL    HW137448   2.002   0.880   6.428  1.4600 -0.4989 -0.6749
 8663SOL    HW237449   2.104   0.834   6.524 -2.5335 -1.3636 -1.2201
 8664SOL     OW37450   1.699   3.230   9.441 -0.6497 -0.4109 -0.3186
 8664SOL    HW137451   1.784   3.190   9.462 -0.5517 -0.3330 -0.5591
 8664SOL    HW237452   1.671   3.253   9.529 -1.0155 -1.3694 -0.1884
 8665SOL     OW37453   2.581   4.531   4.898 -0.1632  0.3239 -0.4112
 8665SOL    HW137454   2.612   4.444   4.873 -1.0822 -0.2482  0.5003
 8665SOL    HW237455   2.631   4.560   4.974  0.3718 -1.3158 -0.1425
 8666SOL     OW37456   2.875   0.639   6.902 -0.0963 -0.2583 -0.6365
 8666SOL    HW137457   2.913   0.641   6.814 -1.0395  1.2868 -1.0248
 8666SOL    HW237458   2.844   0.548   6.905  0.0562 -0.3616 -2.0560
 8667SOL     OW37459   0.459   3.985   7.444  0.2759 -0.0714 -0.1491
 8667SOL    HW137460   0.449   4.035   7.363 -3.2856  0.7055  0.7555
 8667SOL    HW237461   0.377   3.942   7.466 -0.4793  1.1327 -0.6090
 8668SOL     OW37462   1.474   0.751   1.549 -0.4679  0.0087 -0.6069
 8668SOL    HW137463   1.436   0.716   1.468 -0.4533 -1.8874  0.1976
 8668SOL    HW237464   1.553   0.786   1.507  0.1632  0.7787  1.2249
 8669SOL     OW37465   4.419   2.075   8.465 -0.4165 -0.0089  0.3877
 8669SOL    HW137466   4.325   2.059   8.477 -0.9744  2.1075 -1.2420
 8669SOL    HW237467   4.451   2.144   8.523  0.5778 -0.7679  0.7355
 8670SOL     OW37468   3.151   0.152   4.034  0.1546 -0.6516  1.0680
 8670SOL    HW137469   3.122   0.217   3.970 -3.2252 -1.7000  1.5599
 8670SOL    HW237470   3.120   0.073   3.990 -2.2890  0.7249  0.2888
 8671SOL     OW37471   2.226   2.056   0.061 -0.1892  0.4565 -0.6406
 8671SOL    HW137472   2.174   2.075  17.682 -1.7724 -0.3415  0.2328
 8671SOL    HW237473   2.221   2.137   0.112  1.4019 -0.8880  1.7019
 8672SOL     OW37474   4.228   3.446   7.201  0.0383  0.0378 -0.2001
 8672SOL    HW137475   4.188   3.533   7.197 -3.4107 -1.6132 -1.5847
 8672SOL    HW237476   4.163   3.393   7.155  0.3099  0.6155 -1.2404
 8673SOL     OW37477   1.927   2.584   0.451 -0.2279 -0.1595 -0.3884
 8673SOL    HW137478   1.876   2.631   0.516 -1.8676 -2.0149 -0.3276
 8673SOL    HW237479   2.011   2.610   0.488 -0.3154 -0.6297  0.1463
 8674SOL     OW37480   0.991   2.822   0.736  0.0680  0.3354  0.3915
 8674SOL    HW137481   1.028   2.910   0.735  1.6101 -0.2922  2.2189
 8674SOL    HW237482   0.899   2.838   0.715  0.6718 -0.9432 -3.2210
 8675SOL     OW37483   0.960   4.039   2.005 -0.0156  0.1323 -0.5410
 8675SOL    HW137484   0.935   4.120   2.050 -1.6633  0.6406 -2.3624
 8675SOL    HW237485   1.048   4.031   2.041  0.3195 -1.2718 -1.6877
 8676SOL     OW37486   0.164   0.165   2.802 -0.3566  0.3519  0.3008
 8676SOL    HW137487   0.130   0.094   2.748 -1.8778  0.5670  0.9723
 8676SOL    HW237488   0.147   0.128   2.889 -0.1119  0.1847  0.2783
 8677SOL     OW37489   0.000   0.890   7.527 -0.2728  0.3693  0.1008
 8677SOL    HW137490   4.663   0.936   7.584 -1.6895 -0.6894 -0.5457
 8677SOL    HW237491   0.053   0.847   7.594  0.8632 -0.6680 -1.4815
 8678SOL     OW37492   1.291   0.970   6.687 -0.6557  0.5559  0.7845
 8678SOL    HW137493   1.224   1.039   6.687 -0.2474  0.9819 -1.4266
 8678SOL    HW237494   1.251   0.896   6.733  0.0006 -0.1278  0.2485
 8679SOL     OW37495   0.657   2.869  15.405 -0.5381  0.4495 -0.7510
 8679SOL    HW137496   0.580   2.815  15.425  0.5734 -0.8175  0.1192
 8679SOL    HW237497   0.663   2.847  15.312  1.6529  0.7708 -0.6956
 8680SOL     OW37498   1.108   2.059   3.411 -0.3183  0.0757  0.0348
 8680SOL    HW137499   1.095   2.127   3.477 -1.1091  0.9069 -0.9735
 8680SOL    HW237500   1.202   2.071   3.396 -0.2859  0.7050  0.7141
 8681SOL     OW37501   0.124   0.990  13.949 -0.1701  0.0331  0.2019
 8681SOL    HW137502   0.173   0.979  13.867  0.2676  1.8549  0.2173
 8681SOL    HW237503   0.172   1.064  13.986  0.4484 -0.3598  0.1838
 8682SOL     OW37504   3.256   3.902   6.604 -0.6572  0.0499  0.3485
 8682SOL    HW137505   3.196   3.975   6.617 -1.1138  0.3092 -3.1593
 8682SOL    HW237506   3.192   3.836   6.579 -1.9109  1.9104 -1.2991
 8683SOL     OW37507   3.891   2.730   2.255 -0.4119 -0.0077 -0.3376
 8683SOL    HW137508   3.878   2.823   2.273  0.6272  0.1139 -0.2366
 8683SOL    HW237509   3.841   2.685   2.324  1.4130 -1.0747  0.2933
 8684SOL     OW37510   2.081   4.364  17.243 -0.1136  0.2093 -0.1616
 8684SOL    HW137511   2.130   4.402  17.316  1.5610  0.7326 -1.5621
 8684SOL    HW237512   1.998   4.411  17.245 -0.4814 -0.4402 -0.3740
 8685SOL     OW37513   1.457   3.035   3.391  0.0287 -0.1457 -0.1164
 8685SOL    HW137514   1.399   3.041   3.467  2.6937  3.0764  1.6933
 8685SOL    HW237515   1.411   2.981   3.327 -1.3299  2.3442 -1.2628
 8686SOL     OW37516   4.587   0.644   2.137  0.6845 -0.1457 -0.6902
 8686SOL    HW137517   4.640   0.690   2.202  1.1610  1.8839 -2.4815
 8686SOL    HW237518   4.538   0.722   2.110 -1.7953 -0.9485  1.5290
 8687SOL     OW37519   4.470   0.113   7.833  0.6806 -0.2948  0.0624
 8687SOL    HW137520   4.390   0.062   7.842 -0.5285  1.8342  1.3547
 8687SOL    HW237521   4.431   0.200   7.837  1.1186 -0.1280  0.7201
 8688SOL     OW37522   3.289   0.861   4.611  0.4586  0.2611  0.0134
 8688SOL    HW137523   3.324   0.855   4.522  1.6221  2.6261  0.3200
 8688SOL    HW237524   3.215   0.919   4.594 -1.1355 -2.4778 -2.5993
 8689SOL     OW37525   0.180   2.250   3.516  0.5427  0.5984  0.1233
 8689SOL    HW137526   0.212   2.340   3.522 -0.3033  0.9934 -1.1712
 8689SOL    HW237527   0.223   2.202   3.587 -1.5212 -0.7568  0.4560
 8690SOL     OW37528   3.802   0.164   1.772 -0.3113 -0.1189  0.5455
 8690SOL    HW137529   3.787   0.071   1.784  2.2189 -0.7672 -1.1811
 8690SOL    HW237530   3.893   0.175   1.801 -0.6216  1.6310  0.8848
 8691SOL     OW37531   4.046   3.024   4.813 -0.2386  0.4868  0.4538
 8691SOL    HW137532   4.026   2.981   4.896 -1.8577  1.3722  0.5275
 8691SOL    HW237533   3.960   3.015   4.771  0.7316 -2.2657 -0.9403
 8692SOL     OW37534   1.511   3.319  14.822 -0.1074 -0.0966  0.0038
 8692SOL    HW137535   1.454   3.242  14.825 -1.5447  0.8713 -2.4053
 8692SOL    HW237536   1.478   3.352  14.906 -0.8039  1.6584 -0.9517
 8693SOL     OW37537   2.778   2.159   0.641 -0.1890 -0.0677 -0.4363
 8693SOL    HW137538   2.835   2.091   0.606  1.3659  1.8727 -1.6406
 8693SOL    HW237539   2.833   2.237   0.646 -0.5993  0.2697 -1.1840
 8694SOL     OW37540   1.442   4.031   7.680  0.1732  0.3857 -0.1167
 8694SOL    HW137541   1.452   4.114   7.632 -0.9286 -0.0372 -1.0757
 8694SOL    HW237542   1.451   4.066   7.768 -2.0537  1.6558 -0.3857
 8695SOL     OW37543   3.220   4.099   7.604  0.1623 -0.4034  0.2815
 8695SOL    HW137544   3.264   4.014   7.598 -0.2556 -0.7632  2.1663
 8695SOL    HW237545   3.294   4.159   7.592 -0.2578 -0.0533 -0.5312
 8696SOL     OW37546   4.274   2.761  13.928  0.2606 -0.1601 -0.9806
 8696SOL    HW137547   4.184   2.771  13.899 -0.3093  2.4714  1.7870
 8696SOL    HW237548   4.309   2.850  13.930 -0.1122 -0.0724  0.7965
 8697SOL     OW37549   2.361   3.200   7.023 -0.5117  0.1481  0.1919
 8697SOL    HW137550   2.409   3.209   7.105 -0.2661 -2.7879  0.3772
 8697SOL    HW237551   2.275   3.163   7.047 -0.4910 -0.9370 -1.4336
 8698SOL     OW37552   0.040   0.297   8.789  0.5664  0.0674 -0.0711
 8698SOL    HW137553   0.061   0.311   8.696 -0.6923  1.0859 -0.2079
 8698SOL    HW237554   0.051   0.202   8.793 -0.2490 -0.0645 -0.7833
 8699SOL     OW37555   0.542   1.697   9.678  0.2436  0.0520  0.7899
 8699SOL    HW137556   0.577   1.645   9.605 -0.2034  3.1135 -1.5865
 8699SOL    HW237557   0.608   1.766   9.677 -0.8796  1.1241  1.1557
 8700SOL     OW37558   4.366   0.903   0.211 -0.2547 -0.1026 -0.1106
 8700SOL    HW137559   4.374   0.863   0.124 -0.7990  0.5336 -0.4581
 8700SOL    HW237560   4.315   0.982   0.194  1.1529  1.4251  2.8757
 8701SOL     OW37561   4.220   4.702   6.598 -0.2904  0.5120 -0.1776
 8701SOL    HW137562   4.210   0.002   6.690 -2.1660  0.9860 -0.5025
 8701SOL    HW237563   4.207   4.607   6.610  1.2053  0.1413 -1.5823
 8702SOL     OW37564   1.204   1.562  14.493 -0.2703  0.1277  0.2521
 8702SOL    HW137565   1.296   1.570  14.521  0.1529  0.1551 -1.1335
 8702SOL    HW237566   1.202   1.467  14.481 -1.7412  0.2874 -0.7229
 8703SOL     OW37567   3.041   3.227   0.110 -0.0005  0.4829 -0.7164
 8703SOL    HW137568   3.110   3.171   0.145 -0.7247 -0.0956 -0.2211
 8703SOL    HW237569   3.034   3.189   0.022 -2.5350  1.5180 -0.9811
 8704SOL     OW37570   1.546   2.252   1.882 -0.0788  0.1496  0.0933
 8704SOL    HW137571   1.620   2.193   1.889  0.1659  0.6535  1.7103
 8704SOL    HW237572   1.564   2.306   1.805  2.5206 -1.4087 -0.4013
 8705SOL     OW37573   3.427   4.668   2.599  0.2664  0.5405 -0.2637
 8705SOL    HW137574   3.417   4.598   2.534  0.5746  0.0967  0.1709
 8705SOL    HW237575   3.515   4.693   2.573  0.2958 -1.2568 -1.8908
 8706SOL     OW37576   4.206   1.984   3.147  0.1904  0.0736 -0.2938
 8706SOL    HW137577   4.283   2.009   3.198 -0.4553 -0.2373  0.8343
 8706SOL    HW237578   4.240   1.898   3.122 -0.4072 -0.6938  1.5655
 8707SOL     OW37579   1.654   1.651   5.277  0.3108 -0.1034  0.2985
 8707SOL    HW137580   1.574   1.703   5.268  0.6193  0.0779 -1.2961
 8707SOL    HW237581   1.721   1.714   5.249 -0.3827 -1.0516 -3.4345
 8708SOL     OW37582   1.616   4.527   6.127 -0.0726  0.2353 -0.7275
 8708SOL    HW137583   1.702   4.489   6.107  0.3636 -0.2707  2.0572
 8708SOL    HW237584   1.555   4.461   6.092  0.5926 -0.1239 -1.2260
 8709SOL     OW37585   1.734   2.366   6.941 -0.0801  0.1828  0.2375
 8709SOL    HW137586   1.819   2.406   6.956 -0.9668  1.4959  1.8707
 8709SOL    HW237587   1.696   2.427   6.878 -0.5254 -1.9776 -1.5777
 8710SOL     OW37588   2.953   3.865   8.512 -0.8350  0.5417  0.7098
 8710SOL    HW137589   2.930   3.801   8.580 -0.1090  0.0304  0.4755
 8710SOL    HW237590   2.982   3.798   8.450 -1.7645 -0.1375  0.9972
 8711SOL     OW37591   1.285   1.991   3.972  0.5431 -0.0941 -0.2112
 8711SOL    HW137592   1.197   1.959   3.952  1.3683 -2.6867  0.2793
 8711SOL    HW237593   1.273   2.037   4.055 -1.9582  0.3899 -0.8537
 8712SOL     OW37594   0.389   1.081   5.290 -0.4424  0.5191  0.1535
 8712SOL    HW137595   0.325   1.141   5.327  1.0988  3.0332 -1.2273
 8712SOL    HW237596   0.383   1.103   5.197  3.6197 -0.1843 -0.3014
 8713SOL     OW37597   0.398   3.556  15.260 -0.0049 -0.0386  0.0389
 8713SOL    HW137598   0.324   3.550  15.320  2.4705  0.7138  3.1930
 8713SOL    HW237599   0.415   3.650  15.265  2.1988 -0.4269 -0.2059
 8714SOL     OW37600   1.748   1.773   3.251 -0.8863 -0.3548 -0.6157
 8714SOL    HW137601   1.718   1.812   3.169  1.7086 -0.6468 -1.7011
 8714SOL    HW237602   1.750   1.681   3.225 -0.8045 -0.3717 -0.5497
 8715SOL     OW37603   2.486   2.152   3.702 -0.0683  0.2347 -0.1602
 8715SOL    HW137604   2.437   2.113   3.774  0.4437 -0.2736 -0.0926
 8715SOL    HW237605   2.562   2.183   3.752 -0.7061 -0.8336  1.4601
 8716SOL     OW37606   3.302   3.964   3.184 -0.1854 -0.1419  0.3003
 8716SOL    HW137607   3.256   3.951   3.102  0.2997  1.4131 -0.2139
 8716SOL    HW237608   3.315   4.059   3.179 -1.1323  0.1876  3.8462
 8717SOL     OW37609   0.114   4.658   4.651  0.1384 -0.2905 -0.9016
 8717SOL    HW137610   0.190   4.682   4.598  0.2343  0.7233 -0.3111
 8717SOL    HW237611   0.047   4.645   4.585  0.0127 -0.8488 -0.6628
 8718SOL     OW37612   2.142   2.769   0.570 -0.1181 -0.3142  0.3269
 8718SOL    HW137613   2.126   2.829   0.497 -0.1991  2.4162  2.5839
 8718SOL    HW237614   2.211   2.717   0.528  0.0428  0.1490  0.0122
 8719SOL     OW37615   4.161   3.139   3.357  0.2823  0.3829 -0.9464
 8719SOL    HW137616   4.072   3.161   3.384  0.4797  0.4557 -0.3572
 8719SOL    HW237617   4.151   3.051   3.320  0.3960 -1.3612  3.1997
 8720SOL     OW37618   2.844   0.731   3.950 -0.2450  0.1535  0.0144
 8720SOL    HW137619   2.815   0.820   3.930 -0.5347  0.2301  0.7753
 8720SOL    HW237620   2.873   0.714   3.861  1.6277  0.0305  0.6416
 8721SOL     OW37621   1.874   3.260   8.485  0.0391 -0.7515 -0.0350
 8721SOL    HW137622   1.949   3.273   8.543 -0.1509 -2.4691  0.5996
 8721SOL    HW237623   1.851   3.171   8.513 -3.0995  0.7050  1.9183
 8722SOL     OW37624   0.776   2.262   9.741 -0.0693  0.2371 -0.0579
 8722SOL    HW137625   0.740   2.224   9.661  1.7839 -0.2738 -0.6355
 8722SOL    HW237626   0.859   2.302   9.716  0.0496 -0.2758 -0.4864
 8723SOL     OW37627   3.298   1.562   8.555 -0.7451 -0.2170  0.3229
 8723SOL    HW137628   3.381   1.604   8.577 -0.4969 -0.5474  0.0184
 8723SOL    HW237629   3.288   1.508   8.633 -0.2159 -2.0798 -0.8815
 8724SOL     OW37630   0.634   0.263   5.416  0.8158 -0.4601 -0.7751
 8724SOL    HW137631   0.652   0.175   5.383 -0.6683 -0.3229 -1.9483
 8724SOL    HW237632   0.720   0.272   5.455  0.7778  0.3362 -0.8667
 8725SOL     OW37633   2.619   2.960  10.587 -0.6626 -0.2777  0.3138
 8725SOL    HW137634   2.577   2.888  10.540  1.5549 -2.7389  2.1279
 8725SOL    HW237635   2.556   3.030  10.571 -1.7641 -1.1040  1.0279
 8726SOL     OW37636   1.873   0.885   0.371  0.1096 -0.0459  0.0157
 8726SOL    HW137637   1.951   0.924   0.331 -0.6920  1.7795  0.2352
 8726SOL    HW237638   1.863   0.937   0.451  2.6183 -0.1774  0.4220
 8727SOL     OW37639   2.235   4.118  17.678  0.3897  0.2838 -0.5657
 8727SOL    HW137640   2.161   4.178  17.673  0.8274  1.0118  1.7116
 8727SOL    HW237641   2.195   4.036  17.649  0.7370  0.6936 -2.2020
 8728SOL     OW37642   2.067   4.331  16.905  0.0872  0.4257 -0.1254
 8728SOL    HW137643   2.136   4.372  16.957 -1.4344  2.5648  0.2174
 8728SOL    HW237644   2.111   4.247  16.895 -1.1654 -0.3963  1.3103
 8729SOL     OW37645   0.399   1.852   1.218 -0.1644  0.6097  0.1210
 8729SOL    HW137646   0.422   1.879   1.129  2.8470  2.2651  1.4179
 8729SOL    HW237647   0.380   1.936   1.260 -0.2834  1.0892 -0.8962
 8730SOL     OW37648   4.447   4.628  17.487 -0.1793 -0.1410 -0.5440
 8730SOL    HW137649   4.490   4.712  17.502 -1.0614  0.0487  0.9869
 8730SOL    HW237650   4.438   4.624  17.392  0.0572  3.7708 -0.7539
 8731SOL     OW37651   2.756   2.871   6.533  0.0116 -0.7165 -0.3698
 8731SOL    HW137652   2.735   2.938   6.468  0.7657 -0.6394 -0.5328
 8731SOL    HW237653   2.779   2.937   6.599 -1.0263 -1.4242  0.6832
 8732SOL     OW37654   3.558   3.132   3.118  0.7617 -0.0331 -0.3813
 8732SOL    HW137655   3.545   3.058   3.178  2.2906 -0.3308 -0.4342
 8732SOL    HW237656   3.649   3.148   3.144  0.4392 -1.7076  1.8654
 8733SOL     OW37657   4.205   1.273   8.626  0.9502  0.3758  0.6190
 8733SOL    HW137658   4.206   1.306   8.716 -0.7411 -3.3320  1.9655
 8733SOL    HW237659   4.137   1.206   8.631  2.3130 -1.2617 -2.6613
 8734SOL     OW37660   0.065   3.186   7.767 -0.2676 -0.2222  0.1162
 8734SOL    HW137661   4.696   3.203   7.750 -0.5916 -1.9264  0.1730
 8734SOL    HW237662   0.069   3.092   7.746 -2.0052 -0.4587  0.8483
 8735SOL     OW37663   4.396   0.579   3.329  0.1457  0.4478  0.3791
 8735SOL    HW137664   4.400   0.672   3.351  0.0411  0.8863 -1.4627
 8735SOL    HW237665   4.370   0.561   3.420 -1.7895  1.0821 -0.0357
 8736SOL     OW37666   0.233   4.692   6.177  0.2968 -0.2359 -0.1831
 8736SOL    HW137667   0.165   4.678   6.243  0.0411  3.1568  0.2663
 8736SOL    HW237668   0.304   4.654   6.228  2.0405  0.5551 -1.9988
 8737SOL     OW37669   1.743   0.870  16.170  0.1974 -0.4076  0.1419
 8737SOL    HW137670   1.690   0.950  16.169 -1.1782 -1.3191  0.9022
 8737SOL    HW237671   1.686   0.812  16.221 -2.2061  2.0542  0.2609
 8738SOL     OW37672   3.585   1.375   6.053 -0.1578 -0.4744 -0.3665
 8738SOL    HW137673   3.514   1.318   6.023  1.4200 -2.1715 -0.8721
 8738SOL    HW237674   3.554   1.463   6.034 -1.4130 -0.4547  1.7030
 8739SOL     OW37675   0.911   1.993  12.038 -0.0853 -0.2298 -0.5115
 8739SOL    HW137676   0.992   2.033  12.071 -0.6461 -0.2292  0.8494
 8739SOL    HW237677   0.870   2.078  12.022  0.3717  0.6456  2.8046
 8740SOL     OW37678   0.638   4.294  11.129  0.1191  0.6140  0.4677
 8740SOL    HW137679   0.669   4.320  11.043  1.0104 -0.3619  0.4783
 8740SOL    HW237680   0.701   4.342  11.183  1.2563 -0.6726  0.3037
 8741SOL     OW37681   0.689   4.155   2.835  0.2639  0.4418  0.1398
 8741SOL    HW137682   0.707   4.240   2.876 -0.5966 -0.1776  1.8344
 8741SOL    HW237683   0.607   4.128   2.878  0.3558 -1.6728 -1.0055
 8742SOL     OW37684   3.497   4.231   6.512  0.0552  0.2608  0.9533
 8742SOL    HW137685   3.464   4.306   6.561  1.4995  1.9101 -0.6086
 8742SOL    HW237686   3.525   4.279   6.434 -1.6971  1.5555  1.1302
 8743SOL     OW37687   4.204   3.881   5.923 -0.0312  0.3818 -0.5230
 8743SOL    HW137688   4.252   3.828   5.986  1.2232  0.1485 -1.6875
 8743SOL    HW237689   4.267   3.891   5.852  0.4769 -1.7364 -0.3535
 8744SOL     OW37690   2.038   2.023  10.840  0.1296 -0.2021  0.3260
 8744SOL    HW137691   2.007   1.965  10.909  2.2179 -0.5628  0.9560
 8744SOL    HW237692   2.129   2.032  10.867  0.4446  1.6330 -1.3093
 8745SOL     OW37693   3.329   2.042   7.295 -0.8272  0.0489 -0.2268
 8745SOL    HW137694   3.311   1.964   7.243  0.8218  0.1068 -0.8927
 8745SOL    HW237695   3.244   2.085   7.294 -0.1219  1.4229 -0.5765
 8746SOL     OW37696   4.529   0.065   5.541  0.2658 -0.2972 -0.1100
 8746SOL    HW137697   4.575   0.095   5.463 -1.3583 -0.7374 -1.2200
 8746SOL    HW237698   4.457   0.018   5.500 -0.0464 -0.3480  0.4912
 8747SOL     OW37699   0.439   3.318  10.672  0.0079  0.0965 -0.2891
 8747SOL    HW137700   0.482   3.259  10.610  0.2983  1.5271 -1.4264
 8747SOL    HW237701   0.392   3.373  10.610  1.2798  1.2399 -0.2141
 8748SOL     OW37702   1.286   2.045  13.927  0.1969  0.0196 -0.3170
 8748SOL    HW137703   1.353   2.098  13.883  1.1679 -0.2056  0.8854
 8748SOL    HW237704   1.300   2.063  14.020  0.3500 -1.1560 -0.1094
 8749SOL     OW37705   3.521   4.390   4.843  0.1895 -0.1002 -0.1048
 8749SOL    HW137706   3.482   4.477   4.855  1.3891  0.5657 -1.0173
 8749SOL    HW237707   3.608   4.408   4.879 -0.1432  1.6201 -0.1501
 8750SOL     OW37708   4.722   1.390  12.451  0.5651  0.7292  0.3689
 8750SOL    HW137709   4.675   1.473  12.447 -0.0810  0.4386  1.7984
 8750SOL    HW237710   4.698   1.370  12.542 -0.9256  0.6015 -0.0578
 8751SOL     OW37711   4.299   0.401  12.292 -0.5923  0.3900  0.4047
 8751SOL    HW137712   4.373   0.419  12.234 -1.0386 -0.4592 -0.4221
 8751SOL    HW237713   4.230   0.446  12.244 -0.9555  1.1428  1.6069
 8752SOL     OW37714   0.612   2.254  13.564  0.0312 -0.0282 -0.1037
 8752SOL    HW137715   0.605   2.317  13.636  2.5997 -1.4264  1.3769
 8752SOL    HW237716   0.605   2.164  13.593  0.8960  0.6138  2.0794
 8753SOL     OW37717   1.737   4.144   6.278 -0.2787 -0.4021  0.1865
 8753SOL    HW137718   1.763   4.212   6.340 -2.1310 -0.7172  1.3181
 8753SOL    HW237719   1.744   4.193   6.196  1.3225 -0.6746  0.1650
 8754SOL     OW37720   0.889   4.687   6.659  0.4315 -0.2331  0.2682
 8754SOL    HW137721   0.906   4.720   6.571  2.1121 -0.8642  0.3413
 8754SOL    HW237722   0.860   0.048   6.691 -3.1214 -0.2046 -3.0468
 8755SOL     OW37723   3.484   4.670   4.416 -0.6247  0.2624 -0.1632
 8755SOL    HW137724   3.422   4.665   4.343  0.9151  0.2368 -1.4738
 8755SOL    HW237725   3.556   4.615   4.388  0.2653  1.1014  0.4678
 8756SOL     OW37726   3.231   4.511   4.880  0.3290 -0.5120  0.1520
 8756SOL    HW137727   3.230   4.418   4.902  1.0053 -0.5492  0.0243
 8756SOL    HW237728   3.231   4.516   4.784  2.1786  0.3807  0.1898
 8757SOL     OW37729   1.520   2.551   2.335 -0.4003 -0.3751 -0.4401
 8757SOL    HW137730   1.594   2.501   2.301  0.3324  2.5564 -3.1940
 8757SOL    HW237731   1.461   2.546   2.259  0.0018  0.0316 -0.7787
 8758SOL     OW37732   2.047   1.254   6.285 -0.2468  0.3376  0.0407
 8758SOL    HW137733   2.094   1.183   6.241  1.2904  2.0611 -1.1244
 8758SOL    HW237734   2.120   1.307   6.319  0.4843 -0.1581 -0.7368
 8759SOL     OW37735   2.912   1.856   3.647  0.6290 -0.5225 -0.7196
 8759SOL    HW137736   2.917   1.923   3.579  0.1519 -1.3016 -1.5161
 8759SOL    HW237737   3.002   1.843   3.676 -0.0712  0.4482  1.9228
 8760SOL     OW37738   1.117   0.639   1.535 -0.0377 -0.6930  0.2921
 8760SOL    HW137739   1.106   0.562   1.591  1.5496 -1.5626 -0.5795
 8760SOL    HW237740   1.179   0.600   1.474  0.5266 -0.0724  0.4696
 8761SOL     OW37741   3.483   1.110   3.560 -0.1924 -0.5375  0.0498
 8761SOL    HW137742   3.441   1.030   3.528 -0.7461  0.3371 -1.4165
 8761SOL    HW237743   3.533   1.139   3.484 -0.4186 -2.3080 -0.7689
 8762SOL     OW37744   3.789   4.007  16.330  0.3946 -0.5286  0.0272
 8762SOL    HW137745   3.714   3.988  16.274 -1.4628  2.3176  1.5164
 8762SOL    HW237746   3.730   4.017  16.405  0.0096  0.6365 -0.4142
 8763SOL     OW37747   2.067   3.856  12.261  0.2924 -0.1903  0.0673
 8763SOL    HW137748   2.085   3.768  12.230  1.2175 -0.3050  0.9219
 8763SOL    HW237749   2.089   3.896  12.177  0.5577 -1.7488 -0.5983
 8764SOL     OW37750   3.361   3.311   7.486 -0.0026 -0.3531  0.0740
 8764SOL    HW137751   3.405   3.389   7.520 -2.3275  0.5086  1.1024
 8764SOL    HW237752   3.333   3.263   7.564  0.9168  0.4224  0.8807
 8765SOL     OW37753   4.047   1.939   6.178 -0.4283  0.4668 -0.2374
 8765SOL    HW137754   4.087   1.965   6.261  1.9610  0.5052 -1.4317
 8765SOL    HW237755   4.061   1.845   6.188 -0.0084  0.7127  1.5890
 8766SOL     OW37756   0.209   0.021  12.004 -0.8753 -0.1786 -0.3126
 8766SOL    HW137757   0.297   0.027  12.042 -0.1755  0.4659 -2.0691
 8766SOL    HW237758   0.166   4.676  12.054  0.5788 -2.6737 -2.5577
 8767SOL     OW37759   2.379   3.397  10.482 -0.7527  0.1297  0.2278
 8767SOL    HW137760   2.290   3.365  10.471 -1.2304  1.1253  1.2859
 8767SOL    HW237761   2.419   3.318  10.520  0.5419  0.8979  0.4529
 8768SOL     OW37762   2.741   1.293   2.655 -0.0596 -0.6845  0.0292
 8768SOL    HW137763   2.735   1.281   2.560  1.9048 -1.3883 -0.0036
 8768SOL    HW237764   2.785   1.210   2.668 -0.8141 -1.3253 -1.4611
 8769SOL     OW37765   1.690   0.705  15.163  0.2787  0.3430  0.0557
 8769SOL    HW137766   1.756   0.773  15.149  0.0201  0.3879 -0.9839
 8769SOL    HW237767   1.665   0.708  15.071  1.4599  0.9633 -0.2443
 8770SOL     OW37768   0.095   4.572   5.424 -0.1623  0.6633 -0.2535
 8770SOL    HW137769   0.078   4.589   5.517 -0.4400  0.7777 -0.3252
 8770SOL    HW237770   0.053   4.489   5.403  1.1230 -0.1858  0.5001
 8771SOL     OW37771   0.639   1.174  11.049  0.2882  0.0401  0.2234
 8771SOL    HW137772   0.582   1.100  11.072 -2.5380  1.7690 -1.1497
 8771SOL    HW237773   0.724   1.140  11.076  0.7878  2.3054  1.4719
 8772SOL     OW37774   3.890   4.355   0.273 -0.6242 -0.0575  0.0587
 8772SOL    HW137775   3.897   4.448   0.295  0.0941  0.0701 -0.7202
 8772SOL    HW237776   3.882   4.362   0.178 -3.0183 -1.8517  0.1159
 8773SOL     OW37777   3.243   3.008   1.751 -0.6256  0.0208  0.6765
 8773SOL    HW137778   3.234   2.913   1.759 -0.9479 -0.2153 -2.4621
 8773SOL    HW237779   3.280   3.020   1.838  1.8578 -0.0096 -0.3952
 8774SOL     OW37780   4.557   3.008   5.241 -0.2489  0.3373  0.2525
 8774SOL    HW137781   4.495   3.057   5.294 -3.1192 -2.0976 -0.8432
 8774SOL    HW237782   4.586   2.941   5.303  0.6801  0.1161 -0.4143
 8775SOL     OW37783   3.890   3.196  12.807  0.0868 -0.8884 -0.6491
 8775SOL    HW137784   3.877   3.276  12.757  1.9588  2.4529  4.2091
 8775SOL    HW237785   3.983   3.172  12.812  0.0709 -0.9982 -0.8868
 8776SOL     OW37786   3.638   0.260   5.585  0.2600  0.2072  0.3277
 8776SOL    HW137787   3.645   0.231   5.494  2.0867 -1.4206  0.9921
 8776SOL    HW237788   3.550   0.234   5.611  0.1989  0.2590  0.1727
 8777SOL     OW37789   4.053   2.623   7.419  0.1956  0.0407 -0.1118
 8777SOL    HW137790   4.094   2.690   7.365 -4.0838  1.5807 -1.4300
 8777SOL    HW237791   4.122   2.604   7.482 -0.8387 -0.1113  0.9644
 8778SOL     OW37792   1.542   0.347  15.343  0.3459  0.5356 -0.3333
 8778SOL    HW137793   1.495   0.396  15.275  1.4089  1.0858 -0.6629
 8778SOL    HW237794   1.620   0.322  15.295 -0.5014 -0.0523 -1.4186
 8779SOL     OW37795   3.242   0.196   9.060  0.1490 -0.0170 -0.0440
 8779SOL    HW137796   3.263   0.213   8.968 -3.6174  3.0543 -0.3148
 8779SOL    HW237797   3.318   0.232   9.105  1.1161  0.7970 -2.3358
 8780SOL     OW37798   0.659   2.563  11.581  0.5223 -0.3502 -0.3193
 8780SOL    HW137799   0.615   2.490  11.538 -0.2860 -0.0631  0.0424
 8780SOL    HW237800   0.589   2.628  11.573 -0.7108 -1.5323  1.0347
 8781SOL     OW37801   4.239   0.253   9.737  0.0874 -0.3938 -0.0857
 8781SOL    HW137802   4.225   0.278   9.828  1.3233  0.4507 -0.1291
 8781SOL    HW237803   4.209   0.330   9.689 -2.0093 -1.0316  0.2127
 8782SOL     OW37804   0.181   0.684   4.601  0.0126  0.9179 -0.3199
 8782SOL    HW137805   0.246   0.754   4.601  0.2489  0.6951 -1.9373
 8782SOL    HW237806   0.234   0.605   4.612 -0.7437  0.3661 -0.6332
 8783SOL     OW37807   2.782   4.489  12.406  0.1919  0.2325 -0.2936
 8783SOL    HW137808   2.698   4.486  12.361 -1.3026  4.5511  2.1926
 8783SOL    HW237809   2.786   4.417  12.469 -1.2618  0.1744 -0.2740
 8784SOL     OW37810   0.354   4.657   2.328 -0.0661  0.0078  0.1176
 8784SOL    HW137811   0.413   4.661   2.253 -0.4651  1.3361 -0.1194
 8784SOL    HW237812   0.420   4.628   2.391 -0.1299  0.9349  0.6185
 8785SOL     OW37813   4.450   3.059  12.117 -0.7289 -0.1996  0.3173
 8785SOL    HW137814   4.429   2.974  12.079  0.0073 -1.1477  2.0273
 8785SOL    HW237815   4.439   3.121  12.044 -2.3571  0.0687  0.8010
 8786SOL     OW37816   3.976   2.147  12.513  0.3025  0.1877 -0.2755
 8786SOL    HW137817   3.930   2.221  12.552  1.8354  0.6728  0.6216
 8786SOL    HW237818   4.000   2.094  12.590  1.1779  0.8212 -0.1124
 8787SOL     OW37819   2.621   2.559   5.844 -0.4901  0.7371 -0.5552
 8787SOL    HW137820   2.663   2.479   5.812 -1.9270  0.1165 -0.8503
 8787SOL    HW237821   2.527   2.551   5.832 -0.0962 -0.0612 -3.0786
 8788SOL     OW37822   1.168   4.096   3.849 -0.2812 -0.1281  0.0086
 8788SOL    HW137823   1.223   4.048   3.911  1.2329 -1.0103 -2.0280
 8788SOL    HW237824   1.081   4.060   3.866 -1.1116  0.2441 -3.5858
 8789SOL     OW37825   4.525   2.526  12.145 -0.4559 -0.1126  0.0031
 8789SOL    HW137826   4.524   2.496  12.054  2.2591  0.7961 -0.3215
 8789SOL    HW237827   4.504   2.445  12.190 -1.3699 -0.8462 -1.7583
 8790SOL     OW37828   4.650   4.095   9.160 -0.0371 -0.1042 -0.4801
 8790SOL    HW137829   4.680   4.171   9.209 -1.4129  0.0574  0.1390
 8790SOL    HW237830   4.560   4.083   9.192 -0.0903  0.9725 -0.2387
 8791SOL     OW37831   3.652   0.291   6.901  0.2252  0.5189 -0.5918
 8791SOL    HW137832   3.606   0.372   6.921  1.0375  1.0653 -0.9127
 8791SOL    HW237833   3.685   0.312   6.814 -1.7866  1.3676 -1.1376
 8792SOL     OW37834   1.030   1.280  17.489  0.1420 -0.0887  0.0322
 8792SOL    HW137835   1.064   1.257  17.576  0.0559 -2.2046 -0.5065
 8792SOL    HW237836   1.082   1.359  17.473 -0.5887  0.8054  1.9950
 8793SOL     OW37837   3.463   1.012   4.352 -0.0012  0.2203  0.2675
 8793SOL    HW137838   3.509   0.942   4.306 -0.5420 -0.2341  0.4161
 8793SOL    HW237839   3.538   1.070   4.364  1.1012 -1.1601  0.1391
 8794SOL     OW37840   2.837   0.554  12.922  0.4960 -0.0693  0.1969
 8794SOL    HW137841   2.901   0.484  12.933  0.3005 -0.3679 -0.5373
 8794SOL    HW237842   2.810   0.529  12.833  0.2400 -1.9164  0.7822
 8795SOL     OW37843   2.523   2.366  15.645 -0.0897 -0.0105  0.4321
 8795SOL    HW137844   2.442   2.412  15.622  0.8629  0.5436 -1.8199
 8795SOL    HW237845   2.584   2.436  15.669  1.2344 -0.4712 -1.5902
 8796SOL     OW37846   3.828   4.162   5.800 -0.0386  0.0700 -0.0950
 8796SOL    HW137847   3.897   4.226   5.819  0.2409 -0.8062  1.8479
 8796SOL    HW237848   3.852   4.101   5.870 -0.6316  2.3814  2.1061
 8797SOL     OW37849   4.010   0.400   4.495 -0.6277  0.2480  0.4223
 8797SOL    HW137850   3.917   0.418   4.505 -0.7750  0.6557 -1.6653
 8797SOL    HW237851   4.021   0.317   4.540  1.2106  2.1192  3.4174
 8798SOL     OW37852   4.576   2.087   8.005  0.1043  0.7636 -0.2759
 8798SOL    HW137853   4.618   2.061   7.923  2.8888  0.9551  1.0728
 8798SOL    HW237854   4.594   2.181   8.011 -2.1586  1.1460  0.2301
 8799SOL     OW37855   4.569   4.166   2.971 -0.2188  1.1678  0.2146
 8799SOL    HW137856   4.642   4.138   2.915 -1.3471  0.0978 -0.7108
 8799SOL    HW237857   4.614   4.232   3.023  1.9343 -0.0144 -0.1339
 8800SOL     OW37858   3.727   3.092   7.113  0.0076 -0.6262 -0.8741
 8800SOL    HW137859   3.648   3.146   7.111  0.1112 -0.4675 -0.6814
 8800SOL    HW237860   3.740   3.077   7.207  0.9043  2.5471 -0.4861
 8801SOL     OW37861   1.624   4.258  17.626 -0.2009 -0.8498 -0.3084
 8801SOL    HW137862   1.568   4.226  17.555  0.4723 -2.0004 -0.3271
 8801SOL    HW237863   1.621   4.348  17.594 -0.3896 -0.4088  0.9405
 8802SOL     OW37864   0.290   0.290   3.173 -0.2332 -0.3666 -0.1637
 8802SOL    HW137865   0.378   0.295   3.135  0.2465 -1.0117  0.8397
 8802SOL    HW237866   0.274   0.199   3.199 -0.8617  0.2027  1.4851
 8803SOL     OW37867   3.366   2.851  13.117  0.5253  0.0094 -0.3094
 8803SOL    HW137868   3.333   2.762  13.126 -0.1102  0.3181  0.4391
 8803SOL    HW237869   3.457   2.846  13.089  0.6235 -0.2281  0.0624
 8804SOL     OW37870   1.498   1.234   8.669 -0.6329 -0.2431  0.4770
 8804SOL    HW137871   1.466   1.324   8.671  1.5281  0.4933  0.9258
 8804SOL    HW237872   1.582   1.250   8.628 -0.1586  0.6770  1.8093
 8805SOL     OW37873   3.210   2.917   2.311  1.0366 -0.3214 -0.0455
 8805SOL    HW137874   3.124   2.944   2.280  2.1565  1.5793 -1.5365
 8805SOL    HW237875   3.224   2.855   2.240  2.1247  0.0318 -0.1445
 8806SOL     OW37876   0.816   2.260   7.420  0.4537  0.0773 -0.1212
 8806SOL    HW137877   0.900   2.250   7.464 -0.0731 -1.0343  0.6172
 8806SOL    HW237878   0.754   2.213   7.475  1.6169  0.0864  1.1932
 8807SOL     OW37879   0.159   3.989   7.834 -0.0836  0.3422  1.2237
 8807SOL    HW137880   0.177   3.895   7.838 -1.2576  0.1091  0.7991
 8807SOL    HW237881   0.126   3.988   7.744 -0.4613  2.8611  1.3219
 8808SOL     OW37882   3.393   2.678   6.936  0.7872 -0.2497  0.4454
 8808SOL    HW137883   3.330   2.722   6.878 -0.0258 -1.3836  0.4647
 8808SOL    HW237884   3.394   2.730   7.016  1.0901 -1.6155  1.3267
 8809SOL     OW37885   3.129   4.255   2.948  0.8966 -0.5673 -0.1449
 8809SOL    HW137886   3.070   4.269   3.023  1.6766  0.0426  0.3504
 8809SOL    HW237887   3.102   4.169   2.916  0.4377 -1.5691  2.9225
 8810SOL     OW37888   2.848   2.438   9.813 -0.1134 -0.6046  0.1612
 8810SOL    HW137889   2.915   2.423   9.880  0.9179  0.3706 -0.6481
 8810SOL    HW237890   2.820   2.522   9.850 -2.6034 -1.3401 -0.0764
 8811SOL     OW37891   0.453   4.524   5.982  0.8301 -0.4307  0.0618
 8811SOL    HW137892   0.429   4.472   5.905  2.2650  0.8000 -1.2064
 8811SOL    HW237893   0.370   4.534   6.029  1.3338 -0.9867  1.0666
 8812SOL     OW37894   4.468   1.386  11.815  0.2441  0.6466  0.2199
 8812SOL    HW137895   4.427   1.328  11.880 -0.1657  0.5450 -0.1252
 8812SOL    HW237896   4.550   1.339  11.800 -0.2707 -0.1148 -0.2148
 8813SOL     OW37897   0.253   0.425   4.695 -0.3898 -0.6796 -0.1702
 8813SOL    HW137898   0.278   0.357   4.757 -1.0132  0.1057  0.9493
 8813SOL    HW237899   0.158   0.419   4.699 -0.2325 -1.9003  1.5360
 8814SOL     OW37900   2.452   4.267   8.274 -0.2702  0.4277  0.0880
 8814SOL    HW137901   2.507   4.221   8.337  0.0519  1.1565  0.3343
 8814SOL    HW237902   2.388   4.198   8.257  0.2883  0.0227 -0.3759
 8815SOL     OW37903   1.771   4.049   5.781 -0.0140 -0.4639 -0.0412
 8815SOL    HW137904   1.717   4.049   5.702 -1.8594  0.5583  1.1926
 8815SOL    HW237905   1.735   3.965   5.811 -1.5350  1.1128  2.5855
 8816SOL     OW37906   0.304   0.739   5.500  0.1814 -0.3128  0.3847
 8816SOL    HW137907   0.239   0.672   5.520 -1.2752  0.0404 -3.1075
 8816SOL    HW237908   0.289   0.740   5.405 -1.5297 -2.3731  0.6183
 8817SOL     OW37909   4.679   1.792   8.282  0.1146 -0.2606 -0.1009
 8817SOL    HW137910   0.001   1.791   8.366 -0.6848  0.1783  0.3534
 8817SOL    HW237911   4.588   1.765   8.298  0.7923 -1.5975  1.5141
 8818SOL     OW37912   2.962   0.634   7.250 -0.4159  0.5792  0.5707
 8818SOL    HW137913   3.038   0.656   7.195  0.2838 -0.5321  1.0746
 8818SOL    HW237914   2.904   0.695   7.204 -0.0959  0.3702 -0.1176
 8819SOL     OW37915   1.861   0.420   6.136  0.0927 -0.3379  0.0960
 8819SOL    HW137916   1.855   0.444   6.044  0.9933 -1.4666 -0.2560
 8819SOL    HW237917   1.955   0.436   6.145  0.0092  0.1531  0.0820
 8820SOL     OW37918   4.189   3.611   8.477  0.3421  0.1684 -0.6194
 8820SOL    HW137919   4.126   3.582   8.411  0.8217  1.3650 -1.5856
 8820SOL    HW237920   4.191   3.521   8.511  1.5331  0.8209  1.0150
 8821SOL     OW37921   0.495   2.371   3.586  0.1591  0.2559 -0.2027
 8821SOL    HW137922   0.480   2.347   3.495 -1.0376  0.9884 -0.2029
 8821SOL    HW237923   0.587   2.350   3.600  0.2255  0.0740 -0.9226
 8822SOL     OW37924   3.947   2.310   2.889 -0.5190  0.0215 -0.0743
 8822SOL    HW137925   4.022   2.275   2.938 -0.9131 -0.9433 -0.1547
 8822SOL    HW237926   3.934   2.239   2.827 -0.1395  0.2188 -0.3785
 8823SOL     OW37927   2.992   4.369   8.747 -0.2432 -0.1165  0.5327
 8823SOL    HW137928   2.951   4.395   8.829 -2.6462 -1.8600 -0.1313
 8823SOL    HW237929   2.920   4.327   8.700  0.7452 -0.0037 -1.1073
 8824SOL     OW37930   3.582   0.203   8.837 -0.3727  0.2106 -0.5830
 8824SOL    HW137931   3.571   0.286   8.789 -1.8317 -0.1387 -0.8384
 8824SOL    HW237932   3.493   0.172   8.821 -0.9370  0.1016  2.9760
 8825SOL     OW37933   4.524   2.568  14.415 -1.0306 -0.2155 -0.2552
 8825SOL    HW137934   4.438   2.575  14.457 -2.4006 -0.0670 -3.0816
 8825SOL    HW237935   4.576   2.497  14.452 -0.1394  0.9081  0.6259
 8826SOL     OW37936   2.107   1.527   8.064  0.8207  0.7571  0.6408
 8826SOL    HW137937   2.033   1.583   8.084 -0.0479  0.1749 -0.9955
 8826SOL    HW237938   2.124   1.545   7.972 -1.4407  0.9287  0.2751
 8827SOL     OW37939   2.096   2.213   9.070  0.6393  0.3438  0.2860
 8827SOL    HW137940   2.051   2.280   9.121 -0.4544  0.4082 -0.7790
 8827SOL    HW237941   2.167   2.190   9.131  1.3680 -0.1066 -0.7309
 8828SOL     OW37942   2.651   1.523   3.985  0.0128 -0.3341  0.0638
 8828SOL    HW137943   2.708   1.521   3.908 -1.0845  1.1394 -0.7900
 8828SOL    HW237944   2.715   1.538   4.055 -0.8279  0.3949  0.6831
 8829SOL     OW37945   4.426   1.433  13.951  0.8627 -0.3430  0.0255
 8829SOL    HW137946   4.508   1.391  13.975  0.4884 -0.2278  1.5266
 8829SOL    HW237947   4.411   1.501  14.017 -3.2216 -2.5866  1.4542
 8830SOL     OW37948   0.724   3.869   0.432 -0.4798  0.1621  0.5018
 8830SOL    HW137949   0.761   3.797   0.380  0.7838 -0.3667  2.1410
 8830SOL    HW237950   0.810   3.908   0.449 -0.6302  0.7774 -0.0998
 8831SOL     OW37951   2.035   0.039   5.178  0.5137  0.0001  0.4557
 8831SOL    HW137952   1.977   0.115   5.177  0.4405 -0.0627  0.0341
 8831SOL    HW237953   2.074   0.048   5.091 -0.3452 -1.3505 -0.0588
 8832SOL     OW37954   1.238   1.536   6.899  0.8790 -0.6673 -0.3800
 8832SOL    HW137955   1.145   1.555   6.888  1.1590  0.4600 -0.7222
 8832SOL    HW237956   1.275   1.621   6.875 -0.6439  0.2268  0.4172
 8833SOL     OW37957   2.026   0.350   3.664 -0.4724 -0.0489  0.4231
 8833SOL    HW137958   2.025   0.272   3.608 -0.1514  1.9406 -2.3360
 8833SOL    HW237959   2.119   0.372   3.663 -0.5195 -0.0525 -3.6293
 8834SOL     OW37960   2.689   4.022  12.204 -0.6606  0.0322  0.1094
 8834SOL    HW137961   2.675   4.090  12.138 -2.5466 -2.3342 -1.9435
 8834SOL    HW237962   2.784   4.017  12.209 -0.7661 -0.3713  1.4596
 8835SOL     OW37963   2.416   1.901  13.159 -0.4751 -0.0072 -0.1700
 8835SOL    HW137964   2.457   1.898  13.072  0.3475  1.4842  0.1650
 8835SOL    HW237965   2.369   1.984  13.153  1.2202  0.9081 -0.8760
 8836SOL     OW37966   1.458   4.684  11.022 -0.4780 -0.2123 -0.2284
 8836SOL    HW137967   1.541   4.652  10.987 -0.3365  1.0811 -1.0920
 8836SOL    HW237968   1.450   4.624  11.096 -0.1694  1.8402  1.4575
 8837SOL     OW37969   4.155   0.311   0.642  0.3750 -0.6178 -0.3203
 8837SOL    HW137970   4.122   0.397   0.617 -0.8473 -0.0976  3.0935
 8837SOL    HW237971   4.246   0.330   0.618  0.2637  1.6619  1.0397
 8838SOL     OW37972   0.603   4.331   2.638 -0.3539 -0.0706  0.0368
 8838SOL    HW137973   0.584   4.313   2.546 -0.8635  0.2313  0.0820
 8838SOL    HW237974   0.620   4.244   2.675 -1.8425 -0.9291 -1.2977
 8839SOL     OW37975   0.555   1.381   4.760  0.5031 -0.1696 -0.1904
 8839SOL    HW137976   0.542   1.300   4.809  1.0742 -0.8243 -1.1128
 8839SOL    HW237977   0.643   1.401   4.793  0.4077 -0.2846  0.1310
 8840SOL     OW37978   2.250   0.866   3.023 -0.2818 -1.0736 -0.9583
 8840SOL    HW137979   2.189   0.906   3.084  0.1854  0.0375 -1.2304
 8840SOL    HW237980   2.223   0.894   2.935 -0.0935  0.8460 -0.3998
 8841SOL     OW37981   3.416   3.245   4.888  0.0059 -0.3503 -0.6967
 8841SOL    HW137982   3.373   3.183   4.829  0.7567 -1.2823 -0.2556
 8841SOL    HW237983   3.345   3.247   4.952  0.1663 -1.3426 -0.4847
 8842SOL     OW37984   2.755   4.529   4.324  0.3741  0.7524  0.3891
 8842SOL    HW137985   2.689   4.597   4.342 -0.1594  0.4667 -0.4803
 8842SOL    HW237986   2.748   4.522   4.229 -4.1361 -0.6437  0.8061
 8843SOL     OW37987   2.456   2.829   3.037 -0.4669 -0.2768 -0.5972
 8843SOL    HW137988   2.368   2.792   3.027 -1.1037  0.9797  0.3338
 8843SOL    HW237989   2.456   2.818   3.132 -1.8022  0.6596 -0.4855
 8844SOL     OW37990   3.846   1.387   3.391 -0.6254 -0.2988 -0.1175
 8844SOL    HW137991   3.932   1.395   3.348 -0.9477 -2.1666 -1.1232
 8844SOL    HW237992   3.852   1.453   3.460 -0.0758 -0.3189 -0.1442
 8845SOL     OW37993   3.629   0.646   7.886 -0.0615 -0.3775  0.2849
 8845SOL    HW137994   3.608   0.670   7.796 -1.1622 -1.2086  0.3175
 8845SOL    HW237995   3.550   0.678   7.930 -0.0228 -0.2107  0.2338
 8846SOL     OW37996   2.591   4.195   1.302  0.2964 -0.4556  0.3830
 8846SOL    HW137997   2.518   4.221   1.246  0.7580  1.6298  0.7325
 8846SOL    HW237998   2.545   4.144   1.369  0.3054 -0.5357  0.3282
 8847SOL     OW37999   0.855   3.211   6.167  0.2821 -0.2542 -0.3068
 8847SOL    HW138000   0.876   3.124   6.132 -0.1972 -0.3370 -0.3946
 8847SOL    HW238001   0.843   3.259   6.085  1.2766  1.6906  0.7013
 8848SOL     OW38002   1.352   2.689   0.258  0.2908  1.0011  0.1827
 8848SOL    HW138003   1.352   2.760   0.322  0.9615  0.0715  1.2248
 8848SOL    HW238004   1.424   2.635   0.291 -0.2800 -0.8175 -1.5102
 8849SOL     OW38005   4.307   1.355   4.679 -0.4978  0.3326  0.2357
 8849SOL    HW138006   4.369   1.293   4.641 -0.3428 -0.2088  1.3806
 8849SOL    HW238007   4.287   1.312   4.762  0.5618  0.5422  0.6063
 8850SOL     OW38008   3.340   3.853   5.444  0.0599 -0.0491  0.0257
 8850SOL    HW138009   3.400   3.927   5.455  0.1757 -0.7373  3.9399
 8850SOL    HW238010   3.364   3.822   5.357  0.7640  0.9666 -0.1431
 8851SOL     OW38011   0.032   2.891   4.849 -0.2846  0.0729 -0.4075
 8851SOL    HW138012   0.043   2.901   4.755 -0.1414 -2.4121 -0.6499
 8851SOL    HW238013   4.664   2.868   4.858 -0.1800  0.8428  2.8563
 8852SOL     OW38014   3.984   1.602   9.142 -0.0317 -0.4542  0.0583
 8852SOL    HW138015   3.946   1.619   9.228  1.5870 -0.2382  0.7306
 8852SOL    HW238016   3.930   1.529   9.110 -2.2239  0.8414  0.7575
 8853SOL     OW38017   3.284   2.504   1.361  0.1277 -0.1323 -0.0091
 8853SOL    HW138018   3.271   2.531   1.452  0.5502  0.6909 -0.1874
 8853SOL    HW238019   3.308   2.590   1.325 -3.4429  1.3382  1.0327
 8854SOL     OW38020   2.281   2.263  16.443 -0.2255 -0.3650 -0.0339
 8854SOL    HW138021   2.312   2.173  16.427  1.1767  0.2487 -0.8505
 8854SOL    HW238022   2.230   2.272  16.362 -0.5272  0.8705  0.2997
 8855SOL     OW38023   0.741   2.627   3.374  0.3345  0.1930  0.3960
 8855SOL    HW138024   0.671   2.578   3.329  2.0853 -2.4119  0.4997
 8855SOL    HW238025   0.811   2.595   3.317  1.3118 -1.5898  2.5912
 8856SOL     OW38026   3.485   2.990  14.751  0.4621 -0.8458  0.1889
 8856SOL    HW138027   3.396   2.957  14.741  0.2736 -0.9169  2.0378
 8856SOL    HW238028   3.527   2.914  14.793 -0.0991 -0.2371  1.8165
 8857SOL     OW38029   2.506   4.013   5.589  0.0521  0.6735  0.6188
 8857SOL    HW138030   2.466   3.983   5.670 -0.6611  0.2233  0.1042
 8857SOL    HW238031   2.555   3.935   5.564  1.2766  1.1521  1.5360
 8858SOL     OW38032   1.860   4.564  12.095 -0.3889 -0.6956 -0.4515
 8858SOL    HW138033   1.833   4.655  12.111 -1.2869 -0.9820 -0.3282
 8858SOL    HW238034   1.948   4.566  12.132 -0.6513  0.4531  0.1293
 8859SOL     OW38035   2.497   3.726  10.303 -0.0624 -0.0769 -0.8065
 8859SOL    HW138036   2.454   3.737  10.388 -0.4884 -0.3187 -0.9888
 8859SOL    HW238037   2.527   3.814  10.283  1.8785 -0.2527  1.3487
 8860SOL     OW38038   4.703   1.943   6.499  0.3317 -0.8939 -0.0579
 8860SOL    HW138039   0.070   1.912   6.502  1.0451  1.1283 -0.7896
 8860SOL    HW238040   4.665   1.871   6.448  0.8615  0.8547 -2.9025
 8861SOL     OW38041   3.354   0.244   4.238  0.2463 -0.4377 -0.3017
 8861SOL    HW138042   3.301   0.231   4.160  0.9751 -1.7978 -0.5729
 8861SOL    HW238043   3.362   0.151   4.261  1.9996  0.7651  3.8750
 8862SOL     OW38044   0.617   4.564  14.831  0.6248 -0.5152 -0.0504
 8862SOL    HW138045   0.537   4.524  14.796 -0.3240  1.0069  0.4052
 8862SOL    HW238046   0.634   4.636  14.772  0.1703 -1.1497 -0.9509
 8863SOL     OW38047   0.493   4.672   0.848 -0.6545  0.4717 -0.3687
 8863SOL    HW138048   0.492   0.005   0.772 -0.9739 -0.3950 -1.0133
 8863SOL    HW238049   0.541   0.002   0.911 -0.0049 -1.8168  1.1213
 8864SOL     OW38050   2.608   0.956   8.840 -0.2824  0.1977  0.0381
 8864SOL    HW138051   2.678   0.928   8.900 -0.3042  0.8110  0.3525
 8864SOL    HW238052   2.638   1.046   8.829 -1.8198  0.5847 -0.9593
 8865SOL     OW38053   1.995   3.605   8.127  0.2702 -0.6164 -0.1818
 8865SOL    HW138054   1.912   3.650   8.113  1.5625  1.8603  0.2134
 8865SOL    HW238055   1.992   3.566   8.215 -0.7348  0.8928  0.4411
 8866SOL     OW38056   2.585   4.178   3.960  0.2756 -0.0969  0.0010
 8866SOL    HW138057   2.493   4.197   3.974  0.3718 -0.9697  1.7114
 8866SOL    HW238058   2.583   4.092   3.917  4.2246  0.5504 -1.5303
 8867SOL     OW38059   1.528   4.618  14.484 -0.4442  0.1313 -0.1156
 8867SOL    HW138060   1.497   4.706  14.465 -0.4286  0.3195  0.7381
 8867SOL    HW238061   1.489   4.566  14.414 -0.4921 -0.0664  0.0581
 8868SOL     OW38062   0.592   4.447   8.448 -0.1338 -0.5184  0.2741
 8868SOL    HW138063   0.568   4.405   8.530 -3.1159  2.0129  0.7176
 8868SOL    HW238064   0.658   4.388   8.414  0.4074 -0.0724  0.5423
 8869SOL     OW38065   1.330   3.625   5.166  0.0856  0.0039 -0.0613
 8869SOL    HW138066   1.422   3.627   5.138 -0.2563  1.5077 -1.0869
 8869SOL    HW238067   1.282   3.595   5.089  1.5487 -0.2047 -0.9068
 8870SOL     OW38068   0.022   3.919   3.407 -0.2335 -0.6440  0.2649
 8870SOL    HW138069   0.067   3.880   3.481  0.5959  3.6291  1.9921
 8870SOL    HW238070   0.084   3.911   3.334  2.6151 -2.4190  2.8838
 8871SOL     OW38071   3.759   0.475   4.482 -0.1742 -0.3267  0.4821
 8871SOL    HW138072   3.710   0.558   4.488  0.5471  0.0636  1.0138
 8871SOL    HW238073   3.681   0.420   4.476 -0.3334 -0.0812  0.2954
 8872SOL     OW38074   0.580   4.211   3.844  0.9815  0.0568 -0.2335
 8872SOL    HW138075   0.629   4.188   3.765  0.4241 -2.1306  0.0589
 8872SOL    HW238076   0.532   4.131   3.867  1.4618 -0.0360  0.4617
 8873SOL     OW38077   4.234   3.934  11.598  0.1711  0.4713  0.2449
 8873SOL    HW138078   4.140   3.916  11.611  0.2529 -1.9306 -2.4750
 8873SOL    HW238079   4.244   3.980  11.681  1.2511  3.4954 -1.5196
 8874SOL     OW38080   3.484   0.981  13.967  0.0595  0.7972  0.6897
 8874SOL    HW138081   3.505   1.074  13.957  0.2642  0.5260 -1.4496
 8874SOL    HW238082   3.401   0.973  13.920  0.5013  2.4799 -0.4148
 8875SOL     OW38083   1.847   3.352   6.625  0.4648  0.3618 -0.3983
 8875SOL    HW138084   1.865   3.383   6.536  0.5669  0.1373 -0.4545
 8875SOL    HW238085   1.924   3.303   6.654 -0.1564 -0.9397 -0.9679
 8876SOL     OW38086   0.809   1.665  17.605 -0.4219  0.4729 -0.6671
 8876SOL    HW138087   0.743   1.675  17.674 -1.4377 -1.0627 -1.4058
 8876SOL    HW238088   0.886   1.697  17.651 -0.2194 -0.4419 -0.3591
 8877SOL     OW38089   3.243   0.185  10.018 -0.1378  0.5747 -0.0740
 8877SOL    HW138090   3.186   0.141   9.955 -3.5172 -0.5163  3.7568
 8877SOL    HW238091   3.244   0.119  10.087  0.4983  1.1074  0.4158
 8878SOL     OW38092   4.501   0.146   6.775  0.1343  0.3717  0.4151
 8878SOL    HW138093   4.448   0.069   6.752  0.6186 -0.1644  1.0842
 8878SOL    HW238094   4.507   0.132   6.870 -0.7489 -0.8561  0.2968
 8879SOL     OW38095   1.321   1.852  16.271 -0.4725 -0.1528 -0.3826
 8879SOL    HW138096   1.260   1.805  16.327 -1.1519 -1.1988 -1.9743
 8879SOL    HW238097   1.282   1.833  16.185  0.7415 -2.6466 -0.4046
 8880SOL     OW38098   3.646   1.674  17.127 -0.0045  0.5089  0.2465
 8880SOL    HW138099   3.644   1.728  17.048 -0.5340 -0.8408 -0.6540
 8880SOL    HW238100   3.651   1.742  17.194 -0.1800  0.6001  0.1682
 8881SOL     OW38101   2.889   3.487   7.185  0.4297 -0.5267 -0.3867
 8881SOL    HW138102   2.970   3.491   7.135  0.0654  1.1207 -0.8618
 8881SOL    HW238103   2.898   3.412   7.244 -1.4321  0.4215  1.1183
 8882SOL     OW38104   0.025   4.385  10.370 -0.2068  0.3624 -0.8733
 8882SOL    HW138105   0.115   4.359  10.390 -0.7531 -0.5751  0.3565
 8882SOL    HW238106   0.046   4.461  10.316 -0.1045  2.1203  1.6269
 8883SOL     OW38107   0.690   1.664   5.636 -0.3541 -0.0484 -0.7580
 8883SOL    HW138108   0.751   1.715   5.689  0.6923 -1.3375 -0.6937
 8883SOL    HW238109   0.719   1.691   5.549 -0.7579  0.3134 -0.7798
 8884SOL     OW38110   4.709   1.512   5.586  0.0692  0.3412  0.4837
 8884SOL    HW138111   4.702   1.420   5.560  1.2039  0.9137 -1.8330
 8884SOL    HW238112   4.623   1.540   5.555  0.5990  1.0406 -0.3391
 8885SOL     OW38113   2.722   1.825   4.120  0.7000 -0.2217 -0.1509
 8885SOL    HW138114   2.641   1.875   4.128  0.0414 -1.0221 -1.8903
 8885SOL    HW238115   2.739   1.833   4.027 -1.0466  1.1866 -0.3502
 8886SOL     OW38116   2.124   1.486   2.065 -0.1564  0.3429  0.0357
 8886SOL    HW138117   2.200   1.544   2.076  1.4407 -1.3897 -2.0857
 8886SOL    HW238118   2.070   1.519   2.137  0.0312 -0.5577  0.5868
 8887SOL     OW38119   1.249   0.282  16.453  0.5507  0.2901 -0.6099
 8887SOL    HW138120   1.314   0.212  16.452 -0.4799 -0.6666 -0.0140
 8887SOL    HW238121   1.271   0.331  16.532  0.5621 -0.4009 -0.1916
 8888SOL     OW38122   2.983   2.262   7.892  0.0766 -0.1905  0.0736
 8888SOL    HW138123   2.993   2.326   7.822 -0.5781  0.0312  0.1894
 8888SOL    HW238124   2.893   2.233   7.903 -0.4900  1.0895 -1.1672
 8889SOL     OW38125   0.347   0.172   8.349  0.4396  0.2288 -0.4575
 8889SOL    HW138126   0.265   0.123   8.344 -0.1928  1.4714 -2.2247
 8889SOL    HW238127   0.409   0.101   8.335 -1.9249 -2.6966  3.9330
 8890SOL     OW38128   2.823   4.521   6.341  0.1516 -0.2257 -0.2585
 8890SOL    HW138129   2.845   4.489   6.429 -1.1134 -0.8640 -0.1814
 8890SOL    HW238130   2.778   4.444   6.307 -2.1937  0.9762  0.1456
 8891SOL     OW38131   3.874   2.168  11.586  0.2184 -0.2849 -0.1685
 8891SOL    HW138132   3.926   2.102  11.540  0.6489  1.8477 -2.6810
 8891SOL    HW238133   3.820   2.103  11.631  0.6146 -1.4735 -1.4005
 8892SOL     OW38134   4.254   2.063  16.339  0.4871  0.4372 -0.0070
 8892SOL    HW138135   4.256   2.154  16.308  1.0078  0.0706 -1.0665
 8892SOL    HW238136   4.333   2.038  16.292  0.2144 -1.2100  0.4353
 8893SOL     OW38137   0.005   2.760   3.153  0.6294 -0.0097 -0.5733
 8893SOL    HW138138   4.704   2.710   3.231 -0.0677  0.0475 -0.7614
 8893SOL    HW238139   0.100   2.772   3.153  0.5568  0.5481  0.7635
 8894SOL     OW38140   2.592   3.799   5.918  0.3516 -0.1024  0.1352
 8894SOL    HW138141   2.623   3.787   5.829  1.8079  0.5065  0.5719
 8894SOL    HW238142   2.536   3.721   5.926  0.8468 -0.4774 -0.0473
 8895SOL     OW38143   0.873   2.722   9.416  0.5795  0.2405  0.5699
 8895SOL    HW138144   0.853   2.709   9.508 -0.9244  0.5139  0.2819
 8895SOL    HW238145   0.912   2.636   9.398  1.1409  0.8710 -1.2148
 8896SOL     OW38146   0.886   1.847   2.473  0.1779 -0.2259  0.7740
 8896SOL    HW138147   0.924   1.777   2.525  0.3349  0.2492  1.2967
 8896SOL    HW238148   0.794   1.820   2.475  1.0539 -3.3354 -1.3216
 8897SOL     OW38149   0.390   4.492   8.070  0.1654 -0.0286  0.0296
 8897SOL    HW138150   0.335   4.566   8.044  0.9483 -0.3523 -2.4984
 8897SOL    HW238151   0.421   4.516   8.157  1.0216 -3.6315  0.7342
 8898SOL     OW38152   2.936   0.613   3.728 -0.1695  0.4851 -0.2621
 8898SOL    HW138153   2.898   0.662   3.656 -2.7217 -1.9479 -0.5487
 8898SOL    HW238154   3.028   0.618   3.701  0.0128 -0.2773  0.2116
 8899SOL     OW38155   0.443   1.669   5.795  0.1152  0.1046  0.0902
 8899SOL    HW138156   0.532   1.681   5.763  0.2324  1.7163  1.0575
 8899SOL    HW238157   0.391   1.686   5.717 -4.2015 -2.3527  2.4136
 8900SOL     OW38158   4.331   3.742   8.169  0.1554  0.5561  0.0706
 8900SOL    HW138159   4.263   3.805   8.145 -0.4410 -0.0960  0.0357
 8900SOL    HW238160   4.363   3.783   8.249 -2.3373 -0.0945  1.3984
 8901SOL     OW38161   0.530   3.664   3.232 -0.4694  0.0184 -0.3376
 8901SOL    HW138162   0.543   3.695   3.143  2.3731  0.9453  0.3910
 8901SOL    HW238163   0.472   3.589   3.222 -1.5590  0.7689  0.3269
 8902SOL     OW38164   4.555   2.282   2.375  0.3818 -0.3424 -1.0163
 8902SOL    HW138165   4.598   2.234   2.304 -0.6689 -0.4454 -1.5868
 8902SOL    HW238166   4.506   2.214   2.420 -1.2796  0.1129 -2.1507
 8903SOL     OW38167   3.518   3.213   7.733 -0.0732 -0.1553  0.1271
 8903SOL    HW138168   3.426   3.187   7.738 -0.0143  0.1227  2.3932
 8903SOL    HW238169   3.558   3.136   7.773  0.8406 -0.4288 -1.3039
 8904SOL     OW38170   4.697   3.107   6.944 -0.0358 -0.1062  0.1925
 8904SOL    HW138171   4.677   3.068   6.859  0.6468 -1.5921  0.7068
 8904SOL    HW238172   0.050   3.056   6.970 -0.3040 -1.0516 -0.8613
 8905SOL     OW38173   4.382   4.516   6.177 -0.1079 -0.1127 -0.1397
 8905SOL    HW138174   4.346   4.571   6.108  0.3016  0.4308  0.0740
 8905SOL    HW238175   4.362   4.572   6.251  0.9774 -1.8432  1.4590
 8906SOL     OW38176   3.908   4.217   9.171  1.1190  0.2058 -0.0560
 8906SOL    HW138177   3.916   4.125   9.147  0.6833  0.9155 -2.8690
 8906SOL    HW238178   3.986   4.261   9.137  2.3983 -0.7750  1.5774
 8907SOL     OW38179   2.843   0.447   3.969 -0.1078 -0.1177  0.3968
 8907SOL    HW138180   2.861   0.517   3.906  2.6789 -0.9736  0.2148
 8907SOL    HW238181   2.754   0.469   3.996 -0.1089  1.7979 -1.1783
 8908SOL     OW38182   1.666   0.558   3.074  0.1294 -0.0655  0.1006
 8908SOL    HW138183   1.633   0.475   3.108 -0.4608  0.2227  0.2244
 8908SOL    HW238184   1.614   0.626   3.118 -1.2704 -0.7656 -0.4742
 8909SOL     OW38185   2.014   3.783  10.615  0.2649 -0.0859 -0.0026
 8909SOL    HW138186   2.017   3.688  10.621  0.9300 -0.0808 -0.2795
 8909SOL    HW238187   1.942   3.801  10.554 -0.4827 -0.0482  0.9037
 8910SOL     OW38188   1.034   0.576   2.736  0.7221 -0.1727  0.4961
 8910SOL    HW138189   0.972   0.535   2.676 -1.0360  0.3378  1.9668
 8910SOL    HW238190   1.057   0.506   2.798 -1.1434  0.4661  1.8919
 8911SOL     OW38191   1.179   4.366   3.763  0.4509 -0.3735  0.0477
 8911SOL    HW138192   1.144   4.283   3.796  0.2519  0.3414  1.6777
 8911SOL    HW238193   1.108   4.399   3.708  2.7080  2.8320 -0.9167
 8912SOL     OW38194   4.689   0.813   4.524 -0.3996 -0.1933  0.7706
 8912SOL    HW138195   4.639   0.839   4.602 -1.7169  3.8219 -1.4105
 8912SOL    HW238196   0.011   0.734   4.552 -0.4913 -0.8987 -1.0835
 8913SOL     OW38197   0.148   3.548  14.566  0.5116 -0.4682 -0.3443
 8913SOL    HW138198   0.165   3.507  14.481  0.8848  2.8966 -1.8787
 8913SOL    HW238199   0.098   3.628  14.553  1.3988  0.1908  0.3135
 8914SOL     OW38200   1.450   0.752   8.643  0.0847 -0.1616  0.6115
 8914SOL    HW138201   1.487   0.830   8.684  1.1553 -1.5348  2.2193
 8914SOL    HW238202   1.424   0.797   8.562  0.5562 -1.5697 -0.3388
 8915SOL     OW38203   1.353   1.808   4.631  0.4802 -0.2125 -0.1542
 8915SOL    HW138204   1.284   1.865   4.596 -0.7063 -1.0579  0.8224
 8915SOL    HW238205   1.328   1.819   4.722  1.0461  0.3901 -0.0712
 8916SOL     OW38206   1.515   2.218   7.023 -0.2698 -0.9103 -0.3774
 8916SOL    HW138207   1.560   2.196   7.105 -0.2177 -0.8694 -0.3956
 8916SOL    HW238208   1.568   2.286   6.983 -1.1759  0.3192  0.5182
 8917SOL     OW38209   3.955   4.197  13.657  0.1046 -0.6590 -0.0857
 8917SOL    HW138210   4.007   4.276  13.672  0.0534 -0.6048 -0.1966
 8917SOL    HW238211   3.904   4.196  13.737 -0.0661  1.0876 -0.1931
 8918SOL     OW38212   0.924   2.129   2.898  0.6779 -0.0497 -0.2741
 8918SOL    HW138213   0.902   2.106   2.807  3.0172 -1.1103 -0.5686
 8918SOL    HW238214   0.934   2.044   2.939  2.4302 -0.7035 -2.0399
 8919SOL     OW38215   1.829   0.223  16.836  0.1294  0.1946  0.1074
 8919SOL    HW138216   1.868   0.139  16.810 -0.3697 -0.5950  1.8611
 8919SOL    HW238217   1.902   0.284  16.838 -1.5570  2.2835 -2.1905
 8920SOL     OW38218   2.954   4.643  13.598  0.2854  0.3742  0.7102
 8920SOL    HW138219   2.948   4.688  13.514 -0.5326 -0.3219  0.3943
 8920SOL    HW238220   2.960   4.715  13.661 -1.7631  1.8476 -0.7656
 8921SOL     OW38221   4.078   1.433   3.241 -0.6017 -0.2165 -0.4079
 8921SOL    HW138222   4.171   1.456   3.243 -0.5965 -0.3850  1.4770
 8921SOL    HW238223   4.074   1.364   3.175 -0.5346 -2.1397  1.5956
 8922SOL     OW38224   0.289   0.175   5.157 -0.4787  0.2509  0.2887
 8922SOL    HW138225   0.212   0.118   5.161 -1.9078  2.2987  1.6072
 8922SOL    HW238226   0.267   0.227   5.234 -0.9069 -1.5141  1.3590
 8923SOL     OW38227   2.486   2.757   2.301 -0.4968  0.3474  0.2894
 8923SOL    HW138228   2.467   2.839   2.346 -2.0632 -0.1389  0.5348
 8923SOL    HW238229   2.563   2.780   2.248 -0.7939 -0.1274 -0.3462
 8924SOL     OW38230   3.279   1.533   9.953  0.4278 -0.2617  0.2736
 8924SOL    HW138231   3.256   1.620   9.983  1.1240  0.0175 -0.0046
 8924SOL    HW238232   3.216   1.483  10.005  0.9794  0.0946  1.2864
 8925SOL     OW38233   0.479   3.941   4.366 -0.2354 -0.0497  0.1549
 8925SOL    HW138234   0.512   3.994   4.438 -0.5903  0.1956  0.1400
 8925SOL    HW238235   0.450   3.855   4.394 -3.2659  1.3371  1.3062
 8926SOL     OW38236   1.276   0.252   5.124  0.0768 -0.0831 -0.1874
 8926SOL    HW138237   1.279   0.298   5.041 -1.2025  0.4695  0.0719
 8926SOL    HW238238   1.366   0.259   5.156 -0.2404 -1.6986  1.0613
 8927SOL     OW38239   4.413   1.322  16.298  0.4999 -0.0528 -0.2728
 8927SOL    HW138240   4.448   1.276  16.222 -0.9007 -1.4590 -0.0720
 8927SOL    HW238241   4.467   1.401  16.298  0.7878 -0.2563  0.5453
 8928SOL     OW38242   0.808   0.399   3.718 -0.3086  0.1693 -0.5394
 8928SOL    HW138243   0.807   0.481   3.670  2.9605 -0.3747 -1.4776
 8928SOL    HW238244   0.899   0.369   3.712  0.4959  3.0192 -2.0603
 8929SOL     OW38245   4.125   2.809  10.480  0.2211 -0.5374  0.0327
 8929SOL    HW138246   4.066   2.865  10.531 -0.9225  0.8072 -2.7892
 8929SOL    HW238247   4.191   2.871  10.450  0.4234 -0.9981 -0.4689
 8930SOL     OW38248   3.825   3.967   3.930  0.4224  0.3406 -0.3425
 8930SOL    HW138249   3.793   4.035   3.870 -0.6952  1.8218  1.9211
 8930SOL    HW238250   3.765   3.895   3.911  0.8811  0.3931 -1.9806
 8931SOL     OW38251   2.850   1.306   7.058 -0.0747 -0.7311  0.2845
 8931SOL    HW138252   2.809   1.369   7.117  0.8620  0.9673 -0.8848
 8931SOL    HW238253   2.876   1.233   7.113 -0.7890  0.8427  2.7198
 8932SOL     OW38254   3.786   4.376   5.056  0.1662 -0.4651  0.7905
 8932SOL    HW138255   3.749   4.461   5.034  1.3245 -0.3031 -0.4782
 8932SOL    HW238256   3.864   4.396   5.004 -0.6368 -0.7365 -0.5127
 8933SOL     OW38257   4.640   3.427   5.953 -0.1499 -0.1582  0.2127
 8933SOL    HW138258   4.573   3.496   5.953 -0.6652 -0.6732  1.3083
 8933SOL    HW238259   4.640   3.380   5.869  3.0318 -0.7866  0.5914
 8934SOL     OW38260   3.069   1.748   7.307  0.1863 -1.1159 -0.6484
 8934SOL    HW138261   3.126   1.786   7.240  1.5231 -0.1714  1.0242
 8934SOL    HW238262   3.127   1.677   7.337  3.0817  0.6324 -2.0984
 8935SOL     OW38263   1.663   0.526  16.062 -0.2333 -0.0204  0.5943
 8935SOL    HW138264   1.583   0.572  16.037 -0.0387  0.0457  0.0853
 8935SOL    HW238265   1.730   0.578  16.018 -1.8804 -0.1820 -2.0939
 8936SOL     OW38266   2.100   2.391  11.871 -0.0587  0.7003  0.2677
 8936SOL    HW138267   2.046   2.392  11.792  0.2953 -0.9262  0.0104
 8936SOL    HW238268   2.180   2.360  11.830 -0.5005 -0.8198  0.5546
 8937SOL     OW38269   0.748   2.562  10.970  0.0805 -0.3415 -0.2716
 8937SOL    HW138270   0.724   2.516  10.890 -2.0233  0.7764 -0.2711
 8937SOL    HW238271   0.737   2.491  11.034  2.6279 -1.3169 -0.8982
 8938SOL     OW38272   2.739   2.637  14.583 -0.4592 -0.2906 -0.2045
 8938SOL    HW138273   2.762   2.623  14.491  1.5174  0.5013  0.1781
 8938SOL    HW238274   2.662   2.581  14.592 -1.0031  0.5869  0.6876
 8939SOL     OW38275   1.676   4.261   2.978  0.0415 -0.6324 -0.1063
 8939SOL    HW138276   1.598   4.217   3.012  0.4485 -0.5565  0.9113
 8939SOL    HW238277   1.742   4.210   3.024  1.7392  1.4318 -0.2768
 8940SOL     OW38278   4.655   3.588   7.820  0.1167 -0.3882 -0.0612
 8940SOL    HW138279   4.569   3.569   7.782  0.8152  1.9409 -2.7847
 8940SOL    HW238280   4.658   3.510   7.875  3.8463  0.1671  0.4968
 8941SOL     OW38281   3.447   2.475   5.337 -0.1099  0.3705 -0.1577
 8941SOL    HW138282   3.535   2.510   5.353  0.2515 -0.5891 -0.0191
 8941SOL    HW238283   3.444   2.463   5.242  0.6320 -0.6932 -0.0530
 8942SOL     OW38284   0.079   3.943  15.660 -0.6365 -0.2802 -0.3574
 8942SOL    HW138285   0.112   4.021  15.706  0.6701  0.3264 -2.3093
 8942SOL    HW238286   0.151   3.886  15.632  0.1073  0.9417 -0.9474
 8943SOL     OW38287   0.140   2.963   8.457 -0.7548 -0.0073  0.2090
 8943SOL    HW138288   0.090   2.930   8.383 -2.6020  1.0107  1.0029
 8943SOL    HW238289   0.168   2.874   8.477 -0.9304 -0.2097 -0.4582
 8944SOL     OW38290   1.882   0.649   5.630 -0.7203  0.3623 -0.4540
 8944SOL    HW138291   1.803   0.692   5.597 -2.3677 -2.8845 -0.7665
 8944SOL    HW238292   1.950   0.688   5.575  0.2354 -0.3810  0.1988
 8945SOL     OW38293   1.923   2.672   5.480 -0.2679  0.0294 -0.4028
 8945SOL    HW138294   1.959   2.590   5.446 -0.9779 -0.8347  0.9346
 8945SOL    HW238295   1.999   2.701   5.531  0.4194 -4.1077  0.9539
 8946SOL     OW38296   2.819   2.130  17.592  0.2053 -0.4615  0.0504
 8946SOL    HW138297   2.857   2.059  17.644  2.8124 -0.1092 -1.3527
 8946SOL    HW238298   2.738   2.092  17.560 -0.2876  0.1111  0.6272
 8947SOL     OW38299   1.616   3.441   6.276  0.1630  0.8722 -0.3709
 8947SOL    HW138300   1.528   3.411   6.252  0.4154  1.3032 -1.8535
 8947SOL    HW238301   1.604   3.513   6.338 -0.7385  0.9335 -0.6064
 8948SOL     OW38302   3.459   3.978   7.274  0.3463  0.3137  0.2491
 8948SOL    HW138303   3.418   3.891   7.270  2.7856 -0.7321 -2.0291
 8948SOL    HW238304   3.376   4.026   7.268  0.9272  1.3325  0.4487
 8949SOL     OW38305   4.641   2.591  16.173 -0.3240  0.3384  0.2211
 8949SOL    HW138306   4.614   2.500  16.184 -1.2847  0.6447  0.4494
 8949SOL    HW238307   4.568   2.644  16.205  0.5792  1.7429 -0.0378
 8950SOL     OW38308   0.620   0.125   1.959 -0.2374  0.4818  0.1029
 8950SOL    HW138309   0.566   0.155   1.886  0.0419  2.4146  0.6891
 8950SOL    HW238310   0.657   0.048   1.915 -3.6093 -0.5984 -0.8246
 8951SOL     OW38311   2.333   3.592   1.066 -0.6743  0.4387 -0.0487
 8951SOL    HW138312   2.237   3.599   1.058 -0.9751 -1.2377  2.2716
 8951SOL    HW238313   2.347   3.499   1.054 -0.7188  0.5027 -0.5970
 8952SOL     OW38314   1.915   1.876  10.117 -0.0848 -0.0113 -0.2206
 8952SOL    HW138315   1.824   1.869  10.145  0.1546 -0.7968  0.3800
 8952SOL    HW238316   1.966   1.860  10.196 -2.5776  0.1933  1.4260
 8953SOL     OW38317   3.740   1.442   9.058  0.1538  0.0536 -0.3127
 8953SOL    HW138318   3.691   1.397   8.989  0.6410  0.8083 -1.1415
 8953SOL    HW238319   3.673   1.458   9.125 -0.7881  1.0924 -1.5120
 8954SOL     OW38320   1.837   3.098  17.418 -0.1691  0.4856  0.4563
 8954SOL    HW138321   1.798   3.069  17.501 -1.4127  1.1822  0.1119
 8954SOL    HW238322   1.873   3.183  17.445 -2.9887  2.0926 -0.8973
 8955SOL     OW38323   1.780   1.468  14.049 -0.1356  0.0739 -0.4462
 8955SOL    HW138324   1.738   1.552  14.031  0.8331  0.6306 -0.0944
 8955SOL    HW238325   1.770   1.418  13.969 -0.3875  0.2550 -0.5285
 8956SOL     OW38326   0.000   2.118   2.256  0.4979 -0.0343  0.1809
 8956SOL    HW138327   0.012   2.072   2.338  2.4132 -0.5515 -0.3707
 8956SOL    HW238328   0.074   2.179   2.260  0.6944 -0.3531  1.2973
 8957SOL     OW38329   2.530   4.375  15.561  0.5885 -0.1475 -0.0703
 8957SOL    HW138330   2.444   4.365  15.602  2.4110 -2.6232  3.1696
 8957SOL    HW238331   2.571   4.320  15.627  2.3189 -0.4854 -1.4166
 8958SOL     OW38332   1.989   0.589   5.208 -0.2681  0.0684 -0.2602
 8958SOL    HW138333   2.059   0.563   5.148 -0.1523  0.2683 -0.2119
 8958SOL    HW238334   1.944   0.661   5.165 -0.4367  0.3935  0.4612
 8959SOL     OW38335   2.789   2.914  10.783 -0.3058  0.2986  0.6968
 8959SOL    HW138336   2.825   3.000  10.804 -0.7907  0.5035  0.6843
 8959SOL    HW238337   2.719   2.932  10.721  1.9276 -1.8938 -2.4606
 8960SOL     OW38338   1.956   2.555  13.338  0.0284 -0.2114 -0.3040
 8960SOL    HW138339   1.934   2.603  13.259  2.4919  0.9164 -0.3088
 8960SOL    HW238340   1.901   2.594  13.406  1.7280  1.7370 -0.0275
 8961SOL     OW38341   0.728   0.882   2.529  0.5601  0.3825 -0.7570
 8961SOL    HW138342   0.740   0.787   2.535  0.6255  0.4669  0.4562
 8961SOL    HW238343   0.815   0.904   2.562  0.1769  0.4609  0.1951
 8962SOL     OW38344   4.199   0.453   7.089 -0.1745  0.4343 -0.0092
 8962SOL    HW138345   4.173   0.441   7.181 -0.8363  1.3261 -0.0789
 8962SOL    HW238346   4.187   0.548   7.085 -0.1836  0.3813 -1.2756
 8963SOL     OW38347   2.436   4.532   8.221 -0.1797 -0.1810  0.1451
 8963SOL    HW138348   2.412   4.470   8.289  3.9877 -0.5629  1.2746
 8963SOL    HW238349   2.480   4.478   8.154  2.8982  1.9274  0.4761
 8964SOL     OW38350   0.369   4.624   9.938  0.2498 -1.3216  0.0221
 8964SOL    HW138351   0.402   4.628   9.848 -2.5910 -0.5520 -0.9953
 8964SOL    HW238352   0.302   4.692   9.947  0.0855 -1.6392  1.1347
 8965SOL     OW38353   3.422   3.809   8.210 -0.0198 -0.6007  0.0674
 8965SOL    HW138354   3.458   3.895   8.231 -0.8605 -0.3325  0.3987
 8965SOL    HW238355   3.477   3.752   8.264  1.7541  0.2315 -0.8315
 8966SOL     OW38356   2.392   1.028  10.977  0.1133  0.2818 -0.0146
 8966SOL    HW138357   2.446   0.967  10.926  0.1514 -0.1281  0.5145
 8966SOL    HW238358   2.321   0.964  10.986 -0.7790  1.3070  0.1744
 8967SOL     OW38359   0.517   3.402   4.381 -0.7712 -0.2302  0.2948
 8967SOL    HW138360   0.586   3.338   4.399 -1.4012 -0.9916  0.0076
 8967SOL    HW238361   0.493   3.377   4.292 -0.7458 -0.0358  0.2328
 8968SOL     OW38362   1.020   3.949   2.785 -0.1547  0.4581  0.5686
 8968SOL    HW138363   0.941   3.963   2.734 -0.5480 -0.2142  1.0007
 8968SOL    HW238364   1.013   4.021   2.848  1.5597  2.0494 -1.0421
 8969SOL     OW38365   0.003   1.530   4.914  0.1853 -0.1879  0.2129
 8969SOL    HW138366   0.074   1.511   4.852  1.9503  0.5729  1.9929
 8969SOL    HW238367   4.680   1.596   4.862 -0.5319 -1.5232 -0.8202
 8970SOL     OW38368   4.532   2.288   3.626 -0.1206  0.0316 -0.1764
 8970SOL    HW138369   4.564   2.330   3.546 -1.7308  2.2354  0.3255
 8970SOL    HW238370   4.471   2.224   3.588 -2.2542  1.4707  0.8155
 8971SOL     OW38371   2.261   2.355   0.654  0.1855 -0.6747 -0.9544
 8971SOL    HW138372   2.242   2.262   0.639 -1.4767 -0.4695 -0.1087
 8971SOL    HW238373   2.350   2.354   0.620  1.3289 -0.9225  2.0205
 8972SOL     OW38374   3.603   1.675  15.278 -0.5707 -0.7870 -0.4704
 8972SOL    HW138375   3.698   1.658  15.276 -0.0308  2.2602  0.2553
 8972SOL    HW238376   3.573   1.615  15.210 -0.0253 -0.7627 -0.7336
 8973SOL     OW38377   4.354   2.045  10.713 -0.3042 -0.3202 -0.4118
 8973SOL    HW138378   4.338   1.981  10.783 -0.9420 -0.3008 -0.5355
 8973SOL    HW238379   4.298   2.020  10.640 -0.8391 -1.5255  0.4074
 8974SOL     OW38380   4.500   2.421   3.353 -0.2356 -0.2809 -0.2380
 8974SOL    HW138381   4.420   2.445   3.305 -1.4083 -2.6421  0.5651
 8974SOL    HW238382   4.567   2.478   3.314 -0.0607 -0.5454 -0.3198
 8975SOL     OW38383   3.594   3.349  12.933  0.4730 -0.0814  0.5005
 8975SOL    HW138384   3.535   3.421  12.911  0.7769 -0.0202 -0.1195
 8975SOL    HW238385   3.535   3.275  12.919  0.7466  0.3272 -2.9518
 8976SOL     OW38386   3.478   4.645   6.432 -0.2252  0.2905  0.3351
 8976SOL    HW138387   3.488   4.588   6.356 -0.9265 -0.5765  0.8939
 8976SOL    HW238388   3.527   4.594   6.497 -0.2621  1.7157  1.4679
 8977SOL     OW38389   1.903   3.022  12.664 -0.0976 -0.1278 -0.6018
 8977SOL    HW138390   1.996   3.038  12.673 -0.6984  1.4376  2.7446
 8977SOL    HW238391   1.872   3.110  12.685  0.8116  0.0087  0.1291
 8978SOL     OW38392   0.635   1.140  15.360  0.2543 -0.2184 -0.0333
 8978SOL    HW138393   0.564   1.135  15.424 -1.4220  2.5414 -1.7178
 8978SOL    HW238394   0.625   1.056  15.314  1.0044  0.7058 -1.9060
 8979SOL     OW38395   4.665   2.643  13.933 -0.0246  0.0374 -0.3092
 8979SOL    HW138396   4.606   2.653  14.008  1.0435 -0.9046  0.6392
 8979SOL    HW238397   4.680   2.549  13.925 -1.5611 -0.4835  2.8876
 8980SOL     OW38398   1.529   2.006   3.176 -0.4031  0.3278 -0.1587
 8980SOL    HW138399   1.620   2.016   3.145 -0.5293 -2.9357 -1.5766
 8980SOL    HW238400   1.490   1.959   3.102  0.3300 -1.3174  0.4932
 8981SOL     OW38401   1.092   2.960   7.430 -0.1980 -0.5168 -0.0185
 8981SOL    HW138402   1.056   2.876   7.401  1.3516 -0.2898 -2.6105
 8981SOL    HW238403   1.157   2.978   7.363  1.5320  0.6519  1.9871
 8982SOL     OW38404   0.121   0.072   6.859  0.1664  0.3542  0.0339
 8982SOL    HW138405   0.155   0.162   6.858 -0.5614  0.6114 -1.2942
 8982SOL    HW238406   0.097   0.078   6.952  2.8363  0.5921  0.6971
 8983SOL     OW38407   3.521   1.125  14.777 -0.5052  0.0132  0.2965
 8983SOL    HW138408   3.461   1.083  14.839  1.0006 -0.3906  1.4636
 8983SOL    HW238409   3.544   1.212  14.811 -0.7525  0.9145 -1.8298
 8984SOL     OW38410   4.101   0.091   0.813  0.3987 -0.1756  0.2554
 8984SOL    HW138411   4.134   0.165   0.762 -0.5829 -0.5377 -0.8976
 8984SOL    HW238412   4.047   0.055   0.743  1.4025 -1.6504  0.2294
 8985SOL     OW38413   1.138   0.911   8.007 -0.0732  0.0099  0.8008
 8985SOL    HW138414   1.216   0.966   8.020 -1.0721  0.9731  2.7432
 8985SOL    HW238415   1.076   0.975   7.971  0.0564 -1.4069 -1.8862
 8986SOL     OW38416   1.526   0.731  13.632 -0.1209 -0.2244 -0.5374
 8986SOL    HW138417   1.464   0.713  13.702 -0.2386 -1.1159 -0.8771
 8986SOL    HW238418   1.541   0.646  13.591  0.4425 -0.6389  0.5278
 8987SOL     OW38419   2.112   3.893  13.388  0.3066  0.0396 -0.3410
 8987SOL    HW138420   2.191   3.945  13.403  0.3382  0.0636 -0.5949
 8987SOL    HW238421   2.084   3.889  13.480 -1.3547  0.3161 -0.8317
 8988SOL     OW38422   0.967   3.697   4.571 -0.0662 -0.5917  0.8393
 8988SOL    HW138423   0.938   3.644   4.497 -0.6935 -0.1766  0.7880
 8988SOL    HW238424   0.931   3.784   4.555 -0.3859 -0.4000  2.5878
 8989SOL     OW38425   0.261   1.210  13.177  0.1349  0.0637  0.4879
 8989SOL    HW138426   0.168   1.222  13.199 -0.3613 -0.5557 -1.2877
 8989SOL    HW238427   0.256   1.238  13.086 -2.1581  1.4299  1.0123
 8990SOL     OW38428   0.395   3.536  16.920 -0.3901 -0.0135  0.8071
 8990SOL    HW138429   0.438   3.489  16.992  0.3270  1.0645  1.0898
 8990SOL    HW238430   0.339   3.584  16.982 -0.9845  0.0059  0.2454
 8991SOL     OW38431   3.786   1.100  13.894  0.0811 -0.0540 -0.1063
 8991SOL    HW138432   3.878   1.127  13.892  0.3661 -0.7909  2.3776
 8991SOL    HW238433   3.769   1.075  13.985  2.1690 -0.8742  0.0690
 8992SOL     OW38434   1.857   3.861   1.249 -0.1561 -0.0525  0.0743
 8992SOL    HW138435   1.929   3.870   1.311  1.1748  4.0708 -2.0501
 8992SOL    HW238436   1.796   3.904   1.309 -0.0955  2.4219 -1.6770
 8993SOL     OW38437   1.938   3.386   5.480 -0.1459 -0.6942 -0.6473
 8993SOL    HW138438   1.887   3.352   5.553 -1.4666 -0.6574 -1.5581
 8993SOL    HW238439   1.904   3.335   5.407 -1.3885  1.2599 -1.4528
 8994SOL     OW38440   3.208   1.069   6.404 -0.6464 -0.6478  0.5045
 8994SOL    HW138441   3.272   1.117   6.457 -1.7657  0.1624  1.1065
 8994SOL    HW238442   3.254   1.066   6.320 -1.5020  1.1007 -0.0231
 8995SOL     OW38443   3.813   4.524   5.302  0.3962  1.0609  0.1056
 8995SOL    HW138444   3.776   4.473   5.230 -1.0897  1.2501  0.7340
 8995SOL    HW238445   3.779   4.481   5.380 -1.3495  0.2184 -1.1210
 8996SOL     OW38446   0.814   4.634  11.707  0.7956 -0.3042  0.3143
 8996SOL    HW138447   0.802   4.611  11.615  2.0595  0.3303 -0.0136
 8996SOL    HW238448   0.870   4.712  11.701  2.7853 -1.9322 -2.0923
 8997SOL     OW38449   0.456   3.697   2.807  0.2147  0.2659  0.5364
 8997SOL    HW138450   0.427   3.609   2.829  0.5635 -0.1013 -0.4807
 8997SOL    HW238451   0.434   3.710   2.715 -0.3696  0.9151  0.7691
 8998SOL     OW38452   1.601   3.505  13.845 -0.1258  0.3827 -0.1706
 8998SOL    HW138453   1.510   3.474  13.840 -1.2421  3.7664 -0.3057
 8998SOL    HW238454   1.645   3.460  13.773 -0.1488  0.8163 -0.4522
 8999SOL     OW38455   3.995   4.112   2.960 -0.9623  0.3987  0.3392
 8999SOL    HW138456   3.980   4.096   2.866 -2.0562  0.9559  0.4182
 8999SOL    HW238457   4.010   4.023   2.991 -0.1436 -1.0798 -4.3183
 9000SOL     OW38458   3.862   3.388   8.121 -0.5116 -0.4161 -0.3735
 9000SOL    HW138459   3.884   3.422   8.208 -0.0497  0.8585 -0.9852
 9000SOL    HW238460   3.937   3.421   8.073 -1.7520  2.1519 -0.5750
 9001SOL     OW38461   3.990   4.292   6.181  0.2025 -0.5090  0.0997
 9001SOL    HW138462   3.907   4.321   6.220  0.7111  0.2420  0.6315
 9001SOL    HW238463   4.048   4.331   6.247  0.7700  3.1391 -2.5609
 9002SOL     OW38464   1.361   3.277  10.613  0.3215  0.2428  0.3965
 9002SOL    HW138465   1.397   3.280  10.702 -0.7451  1.9220  0.7523
 9002SOL    HW238466   1.399   3.355  10.573  0.8124 -0.5103 -0.5950
 9003SOL     OW38467   2.928   1.929   8.644  0.0661 -0.0279  0.0271
 9003SOL    HW138468   3.002   1.990   8.647 -0.8065  1.0656 -0.9535
 9003SOL    HW238469   2.959   1.865   8.580  0.6052  0.0329  0.2283
 9004SOL     OW38470   3.302   1.719   5.858  0.0955  0.8890 -0.3759
 9004SOL    HW138471   3.392   1.699   5.881 -0.8801  1.1827  3.6379
 9004SOL    HW238472   3.258   1.725   5.942  2.5668 -0.1611  0.9946
 9005SOL     OW38473   3.589   3.407   2.159  0.2022  0.9510 -0.0294
 9005SOL    HW138474   3.526   3.452   2.215  0.7222  0.9164  0.5778
 9005SOL    HW238475   3.523   3.345   2.128  1.7738  0.7417 -3.0245
 9006SOL     OW38476   1.318   2.798   2.923 -0.7979  0.3703 -0.4257
 9006SOL    HW138477   1.303   2.774   2.832  3.7778  1.1850 -1.4063
 9006SOL    HW238478   1.414   2.794   2.925 -0.8021 -0.8837 -3.1492
 9007SOL     OW38479   4.428   2.559  11.389  0.5197 -0.4998 -0.0968
 9007SOL    HW138480   4.484   2.483  11.377 -0.1461 -0.7483 -1.6840
 9007SOL    HW238481   4.461   2.619  11.322 -0.8520  0.8698  0.4570
 9008SOL     OW38482   1.170   0.751  12.626  0.0853 -0.4137  0.3301
 9008SOL    HW138483   1.120   0.809  12.568  0.9060 -0.5245 -0.4974
 9008SOL    HW238484   1.123   0.755  12.709 -0.5717 -0.9429 -0.0172
 9009SOL     OW38485   0.558   2.766   4.183  0.1073  0.3351  0.3018
 9009SOL    HW138486   0.555   2.856   4.152 -0.9674  0.2571  0.1756
 9009SOL    HW238487   0.512   2.714   4.117  1.2022 -1.1211  0.6722
 9010SOL     OW38488   2.592   3.525   7.952 -0.6316 -0.1747  0.0435
 9010SOL    HW138489   2.554   3.440   7.933  2.2786 -1.9530  2.2979
 9010SOL    HW238490   2.661   3.499   8.013 -0.4609  1.0556  0.3764
 9011SOL     OW38491   1.786   3.561   3.821  0.4750  0.0881  0.3015
 9011SOL    HW138492   1.817   3.471   3.811 -1.4319 -0.4051 -1.1474
 9011SOL    HW238493   1.695   3.544   3.798  1.1823 -1.4297 -1.4205
 9012SOL     OW38494   0.219   1.059   2.312  0.0021  0.1748  0.0185
 9012SOL    HW138495   0.134   1.101   2.301  0.0337  0.2007 -0.1256
 9012SOL    HW238496   0.235   1.038   2.220  0.1416 -0.3156  0.1504
 9013SOL     OW38497   3.315   3.786   2.310  0.0107 -0.2437 -0.0702
 9013SOL    HW138498   3.369   3.755   2.237  1.3701 -1.5912  1.5026
 9013SOL    HW238499   3.286   3.866   2.265  0.6400 -0.9146 -1.6681
 9014SOL     OW38500   2.397   0.263   4.283  0.0845 -0.1759 -0.1923
 9014SOL    HW138501   2.425   0.289   4.195  1.4473  0.5345  0.4632
 9014SOL    HW238502   2.445   0.326   4.336  2.8976 -0.9666 -1.8138
 9015SOL     OW38503   4.057   4.675   4.738 -0.3778  0.1742 -0.2414
 9015SOL    HW138504   4.003   4.646   4.664  0.7860 -4.3608  0.6895
 9015SOL    HW238505   4.130   0.007   4.711  0.2013 -0.6176 -0.3115
 9016SOL     OW38506   1.413   1.886   3.441 -0.6565  0.3429 -0.5895
 9016SOL    HW138507   1.362   1.939   3.380  0.0179 -0.5736 -1.9521
 9016SOL    HW238508   1.365   1.904   3.522  0.0683  2.0112 -0.5207
 9017SOL     OW38509   0.212   0.915   3.375 -0.6541  0.2909  0.6669
 9017SOL    HW138510   0.253   0.953   3.297 -1.5322  0.0339  0.0832
 9017SOL    HW238511   0.252   0.829   3.386 -1.4309 -0.3529 -1.4412
 9018SOL     OW38512   4.678   0.930   8.751 -0.1084 -0.2896 -0.4295
 9018SOL    HW138513   4.693   0.923   8.657 -0.6860 -0.2622 -0.5205
 9018SOL    HW238514   4.636   1.014   8.769  1.8914  0.3949  1.0398
 9019SOL     OW38515   4.645   2.565   2.977  0.1151 -0.6503 -0.0148
 9019SOL    HW138516   4.673   2.621   2.904  0.5736  1.8556  2.0779
 9019SOL    HW238517   4.658   2.625   3.051  3.7971  1.2473 -2.1667
 9020SOL     OW38518   1.854   2.542   6.369 -0.0297 -0.4380  0.8462
 9020SOL    HW138519   1.928   2.567   6.313 -0.5437  2.9912  1.7117
 9020SOL    HW238520   1.802   2.622   6.358  0.6718  0.1571  1.7902
 9021SOL     OW38521   4.558   1.000   9.121 -0.0482 -0.3698  0.2492
 9021SOL    HW138522   4.554   1.060   9.196 -0.5735 -1.0239  0.7409
 9021SOL    HW238523   4.619   1.053   9.069  0.8774 -0.5295  1.1671
 9022SOL     OW38524   2.438   1.242   9.392  0.3182 -0.0130  0.4127
 9022SOL    HW138525   2.422   1.316   9.334 -1.8543  1.9208  3.4898
 9022SOL    HW238526   2.348   1.209   9.397  1.3280 -2.9955 -1.3285
 9023SOL     OW38527   0.317   1.689   3.170 -0.1044  0.3945  0.4045
 9023SOL    HW138528   0.297   1.624   3.237  0.0598 -1.6166 -1.5199
 9023SOL    HW238529   0.407   1.662   3.153 -0.2852 -0.8158  1.3732
 9024SOL     OW38530   4.085   2.136  12.091 -0.3735 -0.5156 -0.1984
 9024SOL    HW138531   4.097   2.229  12.107 -4.2748 -0.0027 -0.2464
 9024SOL    HW238532   4.015   2.123  12.155 -1.4532  1.1296 -1.0568
 9025SOL     OW38533   2.678   0.588  13.660  0.3336 -0.5642 -0.1048
 9025SOL    HW138534   2.682   0.597  13.755  2.7575 -0.1197 -0.2323
 9025SOL    HW238535   2.588   0.557  13.656  0.9489 -2.4020  0.1711
 9026SOL     OW38536   3.162   1.140   2.729  0.1633 -0.3757 -0.0505
 9026SOL    HW138537   3.178   1.052   2.762 -0.4755  0.2335  1.8762
 9026SOL    HW238538   3.247   1.183   2.736 -0.3588  0.5604  0.5822
 9027SOL     OW38539   2.981   1.494  12.201  0.0502  0.0123 -0.6798
 9027SOL    HW138540   2.993   1.464  12.291 -2.5157 -3.9863 -1.6826
 9027SOL    HW238541   3.043   1.565  12.221  0.4362 -0.8015  1.0001
 9028SOL     OW38542   4.073   1.274  13.107 -0.0973 -0.1421 -0.2156
 9028SOL    HW138543   4.157   1.233  13.089  1.9639  3.8114  0.4802
 9028SOL    HW238544   4.082   1.365  13.081 -0.2327  0.0221  0.3262
 9029SOL     OW38545   0.107   0.654  16.205 -0.3972  0.2235  0.3418
 9029SOL    HW138546   0.173   0.711  16.245 -0.6796  1.0215 -0.3235
 9029SOL    HW238547   0.147   0.571  16.231  2.0684  0.7730 -1.6633
 9030SOL     OW38548   0.165   4.561   0.986  0.0473 -0.3429  0.3588
 9030SOL    HW138549   0.087   4.507   0.995  0.6976 -1.5757 -1.2642
 9030SOL    HW238550   0.158   4.593   0.896  1.8452  2.8894  1.3507
 9031SOL     OW38551   1.160   2.917   1.004  0.2487 -0.8150 -0.0571
 9031SOL    HW138552   1.250   2.937   1.032 -0.0938  0.3497  0.1890
 9031SOL    HW238553   1.127   3.004   1.024  0.5063 -0.3888 -1.5256
 9032SOL     OW38554   2.932   3.567   2.338  0.3058  0.3434  0.2946
 9032SOL    HW138555   2.970   3.613   2.263  0.6953 -1.8445 -0.8764
 9032SOL    HW238556   2.880   3.495   2.302 -2.7798  3.6054 -1.6546
 9033SOL     OW38557   3.390   3.677   4.801 -0.5438  0.3065  0.2850
 9033SOL    HW138558   3.446   3.738   4.848  1.4932 -0.6873 -0.8131
 9033SOL    HW238559   3.301   3.703   4.824 -0.3254  1.5807 -0.3279
 9034SOL     OW38560   1.237   2.455   5.723  0.2571  0.6826  0.2569
 9034SOL    HW138561   1.285   2.377   5.695 -0.1401  1.2303 -1.9373
 9034SOL    HW238562   1.288   2.525   5.681  0.2321 -0.3987 -1.5608
 9035SOL     OW38563   0.456   1.409  10.854  0.3650 -0.1985  0.2957
 9035SOL    HW138564   0.371   1.447  10.875  0.2435  0.2161 -0.9871
 9035SOL    HW238565   0.446   1.395  10.760  0.8365  0.8496  0.0916
 9036SOL     OW38566   0.225   1.836   6.500 -0.1122  0.2026  0.3230
 9036SOL    HW138567   0.240   1.760   6.557 -2.4600 -0.1321  0.4943
 9036SOL    HW238568   0.258   1.806   6.415  0.0632 -0.4368  0.6147
 9037SOL     OW38569   4.126   4.225   5.691  1.2486  0.4820  0.6121
 9037SOL    HW138570   4.211   4.262   5.668  0.5878  1.9033  0.4483
 9037SOL    HW238571   4.092   4.297   5.744 -0.7803  1.3699 -1.9175
 9038SOL     OW38572   2.497   3.926  15.036 -0.3141  0.5512  0.1610
 9038SOL    HW138573   2.529   3.873  14.963 -0.3565  0.7031  0.0321
 9038SOL    HW238574   2.579   3.939  15.084  0.8411 -0.0088 -1.6624
 9039SOL     OW38575   2.682   1.795   8.317 -0.1220 -0.2810 -0.2778
 9039SOL    HW138576   2.707   1.882   8.286 -1.6636  0.3583  0.2825
 9039SOL    HW238577   2.759   1.747   8.287  0.8273  0.6187  0.7450
 9040SOL     OW38578   4.570   1.891   3.415 -0.4154  0.3782 -0.5001
 9040SOL    HW138579   4.614   1.976   3.413  2.1952 -0.9729 -0.2027
 9040SOL    HW238580   4.479   1.918   3.412 -0.5520  0.1454  2.0106
 9041SOL     OW38581   0.830   0.924   4.032 -0.1310  0.0176 -0.4844
 9041SOL    HW138582   0.921   0.924   4.002 -0.1625  2.9581 -0.4912
 9041SOL    HW238583   0.805   1.015   4.021  1.2411  0.6763  1.8576
 9042SOL     OW38584   1.847   4.409   2.063 -0.0869 -0.1479  0.3422
 9042SOL    HW138585   1.912   4.459   2.015  3.1515 -2.4483  2.3334
 9042SOL    HW238586   1.862   4.440   2.152 -1.3066  0.4665  0.3431
 9043SOL     OW38587   3.287   1.017   8.410  0.1058 -0.1279  0.2546
 9043SOL    HW138588   3.246   0.970   8.484  0.1467 -0.5896 -0.0148
 9043SOL    HW238589   3.312   1.099   8.452  0.7946 -0.8060  1.1871
 9044SOL     OW38590   1.873   3.645  17.574  0.2901 -1.2352 -0.0347
 9044SOL    HW138591   1.801   3.601  17.528 -1.9891  0.7502  1.5969
 9044SOL    HW238592   1.901   3.699  17.501  2.7597 -2.5118 -0.0454
 9045SOL     OW38593   2.762   2.287   9.190 -0.0028  0.1988 -0.2178
 9045SOL    HW138594   2.848   2.249   9.173 -0.2530 -0.6872  0.4616
 9045SOL    HW238595   2.723   2.227   9.253 -0.0207  2.8479  2.2864
 9046SOL     OW38596   0.977   1.312   5.946  0.2735  0.4442  0.4918
 9046SOL    HW138597   0.979   1.297   5.851 -2.2429 -1.3965  0.6923
 9046SOL    HW238598   1.056   1.364   5.953  1.9004 -2.2124  1.9218
 9047SOL     OW38599   0.740   0.894   4.838  0.1133  0.6669 -0.2848
 9047SOL    HW138600   0.761   0.810   4.798  4.3636  2.4865 -1.8771
 9047SOL    HW238601   0.708   0.943   4.762 -1.2563 -0.4996 -0.4559
 9048SOL     OW38602   1.127   0.489   6.353  0.1822 -0.0954  0.4158
 9048SOL    HW138603   1.196   0.546   6.387 -2.5980  1.8595  2.8537
 9048SOL    HW238604   1.166   0.448   6.276 -0.0471  1.1860 -0.3902
 9049SOL     OW38605   3.675   0.126   4.692  0.3654  0.2605 -0.5204
 9049SOL    HW138606   3.606   0.060   4.700 -0.8552  1.5957 -0.0051
 9049SOL    HW238607   3.694   0.121   4.599  0.8375  0.2198 -0.4209
 9050SOL     OW38608   2.946   2.535  17.260 -0.1341  0.3549  0.7372
 9050SOL    HW138609   2.890   2.543  17.183 -0.7520 -1.0200  1.0321
 9050SOL    HW238610   2.907   2.607  17.310 -1.7875  0.0980 -0.1856
 9051SOL     OW38611   2.779   2.890  14.344  0.0060 -0.3111 -0.1577
 9051SOL    HW138612   2.726   2.888  14.424 -1.5150  2.2299 -1.0851
 9051SOL    HW238613   2.795   2.796  14.341 -1.0041 -0.4464 -1.8149
 9052SOL     OW38614   1.833   3.757   0.968  0.2980 -0.1876 -0.1372
 9052SOL    HW138615   1.878   3.808   1.035 -0.1006  0.9911 -0.7720
 9052SOL    HW238616   1.794   3.691   1.025 -0.9359 -1.2473 -2.2029
 9053SOL     OW38617   1.284   3.355  10.079 -0.4112  0.1556  0.3098
 9053SOL    HW138618   1.328   3.381  10.159 -1.2677  0.4823  0.6777
 9053SOL    HW238619   1.223   3.288  10.109 -0.6697  0.9938  1.6716
 9054SOL     OW38620   2.680   2.011   9.376 -0.4086  0.3391  0.2189
 9054SOL    HW138621   2.635   2.048   9.451  0.0649 -0.6538  0.9966
 9054SOL    HW238622   2.764   2.045   9.405 -0.3805 -1.2760  2.0258
 9055SOL     OW38623   4.409   1.407   3.878 -0.3440  0.2916  0.5738
 9055SOL    HW138624   4.480   1.377   3.935  0.2366 -0.3215 -0.4718
 9055SOL    HW238625   4.373   1.480   3.928 -2.4586 -0.9687  0.8884
 9056SOL     OW38626   2.033   1.326  15.923 -0.3429 -0.1307  0.7994
 9056SOL    HW138627   2.003   1.395  15.864 -2.4416 -1.4603  0.3427
 9056SOL    HW238628   2.127   1.347  15.924  0.2615 -2.7650 -2.9208
 9057SOL     OW38629   2.280   2.585  16.274  0.2563  0.3489 -0.1718
 9057SOL    HW138630   2.299   2.513  16.213 -1.9204 -0.9478  0.6973
 9057SOL    HW238631   2.295   2.660  16.216  1.5509 -0.3050 -0.7022
 9058SOL     OW38632   3.038   2.295   5.340  1.2280  0.4472 -0.0575
 9058SOL    HW138633   3.029   2.297   5.245  2.0873 -3.2212 -0.1874
 9058SOL    HW238634   3.130   2.276   5.358  0.6284 -1.6113  0.8354
 9059SOL     OW38635   2.928   3.536   8.934  0.0454 -0.4869 -0.2808
 9059SOL    HW138636   2.899   3.470   8.996 -0.0815 -0.5699 -0.4292
 9059SOL    HW238637   2.917   3.488   8.852  0.9205 -3.2065  1.1878
 9060SOL     OW38638   3.291   3.918   0.967  0.0737  0.1414 -0.3711
 9060SOL    HW138639   3.295   4.008   0.935  0.5275  0.3696  0.3289
 9060SOL    HW238640   3.295   3.937   1.060 -1.5019 -0.5330 -0.1747
 9061SOL     OW38641   0.875   0.068   4.034  0.4868  0.2624  0.1537
 9061SOL    HW138642   0.794   0.117   4.021  0.5609  0.1299 -0.8267
 9061SOL    HW238643   0.899   0.047   3.944 -1.0897 -1.9170  0.2224
 9062SOL     OW38644   4.474   0.417   1.244 -0.3745  0.9863 -0.1624
 9062SOL    HW138645   4.424   0.416   1.162  0.5691 -1.0560 -0.7363
 9062SOL    HW238646   4.560   0.457   1.233 -0.0228 -0.1708 -1.6661
 9063SOL     OW38647   0.800   0.728   4.415 -0.1756  0.3219  0.4588
 9063SOL    HW138648   0.801   0.819   4.384  1.8790 -0.3401 -1.4294
 9063SOL    HW238649   0.847   0.677   4.349 -1.2396 -1.3838  1.0393
 9064SOL     OW38650   0.897   1.472   1.805  0.2070  0.0424  0.1310
 9064SOL    HW138651   0.806   1.453   1.784 -0.0128  0.1622  0.9449
 9064SOL    HW238652   0.932   1.388   1.835 -2.5967 -1.2875 -0.3258
 9065SOL     OW38653   0.675   3.674   6.142  0.0111 -0.1371  0.5216
 9065SOL    HW138654   0.734   3.750   6.147 -0.2533  0.2623 -2.6615
 9065SOL    HW238655   0.746   3.611   6.154  1.6671  1.0709 -2.7565
 9066SOL     OW38656   0.154   4.072   9.580  0.3472 -0.5466 -0.1282
 9066SOL    HW138657   0.243   4.106   9.587 -0.8320  2.2582  1.0471
 9066SOL    HW238658   0.113   4.103   9.661  1.8823  0.1649  0.3787
 9067SOL     OW38659   1.313   0.521   5.471 -0.1425 -0.0959  0.0977
 9067SOL    HW138660   1.339   0.469   5.547 -0.1285 -0.2183  0.0095
 9067SOL    HW238661   1.246   0.479   5.417  1.3621 -1.6101 -0.5867
 9068SOL     OW38662   3.551   3.124   6.712 -0.3051  0.7932  0.1681
 9068SOL    HW138663   3.555   3.178   6.792  2.1117 -1.0469  1.2890
 9068SOL    HW238664   3.500   3.180   6.653 -1.0391 -1.1100 -0.9771
 9069SOL     OW38665   0.357   4.036   4.986  0.7332 -0.1340 -0.0051
 9069SOL    HW138666   0.310   4.037   5.069  0.6920  1.1305 -0.0392
 9069SOL    HW238667   0.312   3.956   4.956 -0.2214 -0.4392  2.2554
 9070SOL     OW38668   1.458   1.488   6.366 -0.0934  0.1263 -0.1895
 9070SOL    HW138669   1.542   1.470   6.408 -0.2262 -1.1676 -0.4747
 9070SOL    HW238670   1.404   1.494   6.445  2.0721 -2.1672  1.4670
 9071SOL     OW38671   1.152   3.042  15.095  0.5549  0.0956  0.2095
 9071SOL    HW138672   1.088   2.992  15.145  0.6662 -0.1466  0.1069
 9071SOL    HW238673   1.085   3.093  15.049  2.6788 -0.0616 -3.0962
 9072SOL     OW38674   3.232   0.426  10.379  0.7945 -0.1262  0.1728
 9072SOL    HW138675   3.245   0.484  10.454 -1.3071 -1.7476  1.8068
 9072SOL    HW238676   3.299   0.359  10.387  0.9921  0.0897  0.3196
 9073SOL     OW38677   1.356   3.619   4.904  0.1021 -0.0789 -0.4753
 9073SOL    HW138678   1.287   3.655   4.848 -2.5478 -1.9554  1.6137
 9073SOL    HW238679   1.425   3.625   4.837  1.3325  0.7472  0.8743
 9074SOL     OW38680   0.042   2.523  17.363  0.3962  0.3385 -0.2659
 9074SOL    HW138681   0.011   2.487  17.280 -0.1028  0.5435 -0.1695
 9074SOL    HW238682   0.111   2.587  17.345  1.0968 -1.1698 -2.8597
 9075SOL     OW38683   4.699   4.487  11.356 -0.0430  0.4638  0.1006
 9075SOL    HW138684   4.629   4.435  11.396  0.6831  1.2255  2.3613
 9075SOL    HW238685   4.704   4.551  11.427  0.1890  0.2138  0.3070
 9076SOL     OW38686   2.744   0.425  10.997 -0.2145 -0.5146  0.1005
 9076SOL    HW138687   2.779   0.384  11.076  0.2735 -0.1860  0.0508
 9076SOL    HW238688   2.680   0.489  11.027  1.4872  2.0916 -1.9273
 9077SOL     OW38689   0.632   0.908   1.827 -0.0950  0.1129 -0.1198
 9077SOL    HW138690   0.637   0.985   1.771 -0.7906 -2.2522 -3.4265
 9077SOL    HW238691   0.694   0.933   1.896 -0.0201 -2.6689  0.8210
 9078SOL     OW38692   3.617   0.991  16.736  1.1630 -0.8730 -0.2567
 9078SOL    HW138693   3.651   0.960  16.820 -0.2744 -0.0474  0.6350
 9078SOL    HW238694   3.644   1.083  16.738  1.7858 -1.0687  0.1723
 9079SOL     OW38695   1.101   3.177   1.015  0.2657 -0.1410 -0.2525
 9079SOL    HW138696   1.016   3.219   1.030  0.4737  0.4263 -0.6396
 9079SOL    HW238697   1.102   3.196   0.921  0.9575 -0.8117 -0.3761
 9080SOL     OW38698   3.153   3.721   8.973  0.3599  0.6121 -0.2821
 9080SOL    HW138699   3.092   3.648   8.982 -0.0170  1.2764  2.5384
 9080SOL    HW238700   3.094   3.784   8.931  0.7433  1.6526  0.7307
 9081SOL     OW38701   1.745   3.290  13.249  0.0744 -0.2067  0.3960
 9081SOL    HW138702   1.821   3.284  13.191 -0.7178 -0.8014 -0.5755
 9081SOL    HW238703   1.766   3.223  13.314  1.9711 -0.0276 -0.0452
 9082SOL     OW38704   3.879   0.632   7.675 -0.0537  0.0740  0.0869
 9082SOL    HW138705   3.838   0.715   7.699 -0.9828 -0.0602 -1.0632
 9082SOL    HW238706   3.934   0.626   7.753 -1.8257 -0.6083  1.2911
 9083SOL     OW38707   3.464   3.394   2.606  0.3879 -0.0170 -0.1513
 9083SOL    HW138708   3.497   3.314   2.646 -0.1134 -0.3151 -0.3304
 9083SOL    HW238709   3.533   3.456   2.630  0.8688  0.2121 -2.1294
 9084SOL     OW38710   1.271   3.103  10.231 -0.5179 -0.2583 -0.2978
 9084SOL    HW138711   1.176   3.097  10.232 -0.4490 -1.5684 -0.9685
 9084SOL    HW238712   1.285   3.123  10.323 -0.7030 -2.0726  0.1277
 9085SOL     OW38713   0.653   1.260   2.844 -0.3934 -0.3773  0.0641
 9085SOL    HW138714   0.560   1.276   2.862 -0.1471  0.9190  0.1538
 9085SOL    HW238715   0.647   1.262   2.749  0.0043  2.5682  0.1032
 9086SOL     OW38716   3.264   2.078  11.351 -0.2653  0.1407 -0.0850
 9086SOL    HW138717   3.353   2.045  11.341  0.3410  1.2917  1.4532
 9086SOL    HW238718   3.269   2.169  11.322  1.7140  0.7966  2.3163
 9087SOL     OW38719   2.391   1.267   4.962  0.3062  0.5355 -0.6686
 9087SOL    HW138720   2.356   1.319   5.034  1.0274  1.4772 -0.9955
 9087SOL    HW238721   2.433   1.336   4.910  0.5452 -0.8673 -2.3322
 9088SOL     OW38722   0.259   4.295  10.439  0.5464  0.1534  0.0966
 9088SOL    HW138723   0.278   4.220  10.383 -1.9959  0.7223 -1.5034
 9088SOL    HW238724   0.345   4.329  10.466  0.9261 -0.5121 -0.2636
 9089SOL     OW38725   1.410   2.267  15.123 -0.6626 -0.6313  0.6467
 9089SOL    HW138726   1.495   2.267  15.167 -0.6188  2.6638  0.6180
 9089SOL    HW238727   1.395   2.175  15.143  0.4263 -0.5337  1.9082
 9090SOL     OW38728   1.840   2.998   8.574  0.4980 -0.3918 -0.1230
 9090SOL    HW138729   1.771   2.962   8.629  0.5016 -0.6420 -0.2842
 9090SOL    HW238730   1.844   2.941   8.497 -1.4227  0.3746 -0.7952
 9091SOL     OW38731   1.104   2.806   1.354  0.1276 -0.3173  0.3835
 9091SOL    HW138732   1.150   2.755   1.286 -2.3572  1.4953 -2.6479
 9091SOL    HW238733   1.015   2.796   1.320 -0.3047 -0.5439  1.5882
 9092SOL     OW38734   2.199   1.279   3.697 -0.1234  0.2760  0.3516
 9092SOL    HW138735   2.140   1.343   3.737 -0.3166  0.8102 -0.7854
 9092SOL    HW238736   2.237   1.330   3.626  0.0062  1.7378  1.4617
 9093SOL     OW38737   3.843   1.129   0.675  0.0166 -0.4294  0.4954
 9093SOL    HW138738   3.832   1.156   0.766  2.4099  2.7575 -0.1474
 9093SOL    HW238739   3.935   1.102   0.672 -0.9654 -3.4006 -2.9098
 9094SOL     OW38740   4.405   3.251  15.953  0.3286 -0.1381  0.4588
 9094SOL    HW138741   4.381   3.159  15.940  1.5171 -0.1754 -1.4457
 9094SOL    HW238742   4.353   3.262  16.032 -1.2014  3.5016 -1.0732
 9095SOL     OW38743   3.462   1.213   6.522  0.0099 -0.0505  0.4415
 9095SOL    HW138744   3.462   1.304   6.492  1.9188 -0.7218 -1.6498
 9095SOL    HW238745   3.481   1.224   6.615  2.8233 -0.3363 -0.1025
 9096SOL     OW38746   4.571   4.204  11.877 -0.0890  0.0222 -0.2063
 9096SOL    HW138747   4.615   4.238  11.800  0.8901 -1.0260 -0.1142
 9096SOL    HW238748   4.608   4.116  11.876 -2.4123 -0.9187 -2.2784
 9097SOL     OW38749   1.140   0.236   7.838  0.4111 -0.5006  0.5563
 9097SOL    HW138750   1.105   0.169   7.779  2.2796  0.0667 -1.1596
 9097SOL    HW238751   1.060   0.286   7.855 -0.0577 -1.2474  0.5232
 9098SOL     OW38752   3.985   3.434   6.827 -0.0537  0.7649  0.2437
 9098SOL    HW138753   3.930   3.509   6.801  2.0851  2.2590  0.0234
 9098SOL    HW238754   4.062   3.482   6.857  0.4757  0.8483 -1.2079
 9099SOL     OW38755   0.904   1.746   0.287  1.2407  0.6382  0.1239
 9099SOL    HW138756   0.942   1.798   0.358 -0.2207  0.8809  0.7265
 9099SOL    HW238757   0.871   1.675   0.342  0.5224 -0.7688 -2.1432
 9100SOL     OW38758   2.196   3.590   3.708  0.2388 -0.0785  0.1447
 9100SOL    HW138759   2.256   3.557   3.640  1.7491  2.4285  0.2466
 9100SOL    HW238760   2.120   3.531   3.706 -0.4064  0.6826  2.6576
 9101SOL     OW38761   0.420   4.485   1.041 -0.0868  0.8322  0.0008
 9101SOL    HW138762   0.329   4.511   1.023  0.1687  1.1270 -0.8377
 9101SOL    HW238763   0.463   4.546   0.983 -1.0829 -0.4578 -2.0826
 9102SOL     OW38764   3.728   1.284   4.121  0.3029 -0.0895  0.2275
 9102SOL    HW138765   3.793   1.333   4.071  1.5554 -2.6535 -0.6382
 9102SOL    HW238766   3.779   1.207   4.144  0.0305 -0.4318 -0.3046
 9103SOL     OW38767   1.613   4.129   5.563  0.2760 -0.5694 -0.1633
 9103SOL    HW138768   1.623   4.078   5.483 -2.6589 -2.0385  0.4026
 9103SOL    HW238769   1.647   4.213   5.531  0.0171 -1.0375 -1.6831
 9104SOL     OW38770   4.273   2.774  16.956  0.4831 -0.5126 -0.1423
 9104SOL    HW138771   4.270   2.852  17.012 -0.0899 -0.5313 -0.1538
 9104SOL    HW238772   4.359   2.736  16.975  1.5090 -0.0365 -3.7169
 9105SOL     OW38773   2.013   2.920   0.048 -1.2945 -0.1070  0.0710
 9105SOL    HW138774   1.942   2.976   0.017 -1.5815 -0.1653  0.6133
 9105SOL    HW238775   1.962   2.857   0.098  0.0454 -0.9345  0.4114
 9106SOL     OW38776   1.416   0.579   8.088  0.1801 -0.2193  0.6173
 9106SOL    HW138777   1.322   0.563   8.097 -0.4395  2.5493 -1.1288
 9106SOL    HW238778   1.438   0.529   8.010 -1.6850  1.0397 -0.7145
 9107SOL     OW38779   2.821   4.285   8.582 -0.1700 -0.4423  0.3075
 9107SOL    HW138780   2.807   4.200   8.541  1.7235  0.2776 -1.8061
 9107SOL    HW238781   2.757   4.338   8.535 -0.5046 -0.8963  0.2437
 9108SOL     OW38782   2.780   3.747   0.695  0.3158  0.0132 -0.0109
 9108SOL    HW138783   2.733   3.727   0.776  0.0595  3.3540  0.6809
 9108SOL    HW238784   2.798   3.841   0.696  2.1743 -0.3338 -0.5644
 9109SOL     OW38785   0.666   1.714   3.847 -0.2068  0.1777  0.1901
 9109SOL    HW138786   0.736   1.768   3.883  1.6433 -2.5094  0.6174
 9109SOL    HW238787   0.692   1.723   3.755 -0.3585  0.6961  0.1976
 9110SOL     OW38788   0.444   0.852   2.082  0.2412 -0.3986  0.1830
 9110SOL    HW138789   0.428   0.936   2.038  0.0672 -0.8799 -0.6789
 9110SOL    HW238790   0.477   0.886   2.165  1.6185 -2.1395  0.3481
 9111SOL     OW38791   4.390   2.458   6.824 -0.0409  0.5159  0.3428
 9111SOL    HW138792   4.374   2.363   6.824  1.2501  0.3106 -2.1285
 9111SOL    HW238793   4.345   2.480   6.743  0.6105 -1.2535 -0.4937
 9112SOL     OW38794   2.937   3.618   6.827  0.3570 -0.3858  0.0242
 9112SOL    HW138795   2.909   3.538   6.871 -0.1603 -1.8076 -2.8464
 9112SOL    HW238796   3.005   3.652   6.884 -1.0561 -0.7435  1.9137
 9113SOL     OW38797   0.963   3.735   2.514  0.3227 -0.8331 -0.1297
 9113SOL    HW138798   0.876   3.769   2.537  1.0350  0.3038  0.9153
 9113SOL    HW238799   0.974   3.767   2.424 -1.1190  0.3781  0.1298
 9114SOL     OW38800   2.984   4.133   0.348 -0.2618  0.2606  0.5007
 9114SOL    HW138801   2.984   4.037   0.346 -1.5849  0.2415  1.6795
 9114SOL    HW238802   3.052   4.151   0.284  0.2063  0.0525  0.9364
 9115SOL     OW38803   2.475   4.360   6.798 -0.1552 -0.1458 -0.1349
 9115SOL    HW138804   2.568   4.356   6.818 -0.5741 -0.0541  1.7761
 9115SOL    HW238805   2.455   4.270   6.825  1.8538 -0.5317  0.0895
 9116SOL     OW38806   0.898   0.418   7.323 -0.0158 -0.2709  0.0319
 9116SOL    HW138807   0.806   0.427   7.298  0.0357  0.4315  0.0955
 9116SOL    HW238808   0.944   0.499   7.304  0.2192 -0.2137  0.8688
 9117SOL     OW38809   1.610   1.687   3.804  0.6758  0.1466  0.0435
 9117SOL    HW138810   1.586   1.621   3.868  1.6294  0.7937  1.0637
 9117SOL    HW238811   1.650   1.623   3.745  0.3959  1.2039 -1.2963
 9118SOL     OW38812   1.061   0.935   9.872 -0.1768 -1.0458 -0.1987
 9118SOL    HW138813   1.123   0.862   9.864  0.3975 -0.3646 -1.8549
 9118SOL    HW238814   1.048   0.964   9.782  1.2381 -0.5697 -0.2481
 9119SOL     OW38815   3.795   0.108   4.167  0.2713  0.1406 -0.4705
 9119SOL    HW138816   3.889   0.091   4.155  0.3889  0.6918 -0.3250
 9119SOL    HW238817   3.747   0.089   4.087 -0.4758  1.0509 -0.2444
 9120SOL     OW38818   2.665   0.076   7.415  0.7555  0.1686 -0.2088
 9120SOL    HW138819   2.685   0.163   7.381 -1.9105  0.4616 -1.0141
 9120SOL    HW238820   2.570   0.084   7.408  0.7370  0.6769  0.6177
 9121SOL     OW38821   2.240   2.246   1.645  0.2640 -0.3627  0.5935
 9121SOL    HW138822   2.236   2.150   1.645 -2.4991 -0.2436  1.4201
 9121SOL    HW238823   2.295   2.261   1.721  1.7118  0.3221 -0.5952
 9122SOL     OW38824   1.461   4.553   7.588  0.0355 -0.0586 -0.5261
 9122SOL    HW138825   1.527   4.540   7.520  1.2592  1.5038  0.3666
 9122SOL    HW238826   1.409   4.624   7.550  1.6964 -0.0424 -2.7677
 9123SOL     OW38827   3.351   1.987   5.746 -0.0581 -0.0428  0.5620
 9123SOL    HW138828   3.267   1.992   5.699  0.1637  0.4060  0.2171
 9123SOL    HW238829   3.346   1.893   5.767 -2.3484 -0.0626 -0.0080
 9124SOL     OW38830   3.206   2.015  17.107 -0.1256 -0.0179 -0.0515
 9124SOL    HW138831   3.295   2.050  17.111 -0.1597  0.1039 -0.3959
 9124SOL    HW238832   3.206   1.923  17.132 -1.1455 -0.0027  0.0284
 9125SOL     OW38833   0.121   4.642  15.338  0.4269 -0.0262  0.1503
 9125SOL    HW138834   0.077   4.561  15.367  1.5789 -0.2668  1.2361
 9125SOL    HW238835   0.045   4.692  15.308  0.4410  0.7281  1.3729
 9126SOL     OW38836   2.889   4.686   3.505  0.2310  0.2138 -0.1568
 9126SOL    HW138837   2.957   0.029   3.501  0.6215 -0.1994 -0.4381
 9126SOL    HW238838   2.938   4.608   3.481  1.4903  1.4661 -1.6561
 9127SOL     OW38839   2.952   1.806   8.886  0.2450  0.1781  0.6533
 9127SOL    HW138840   2.935   1.859   8.808 -0.4835  2.2242  2.2195
 9127SOL    HW238841   2.874   1.753   8.900 -0.3178  1.3034  1.7311
 9128SOL     OW38842   3.083   1.659   7.968  0.3263 -0.1821  0.0648
 9128SOL    HW138843   3.069   1.572   7.930 -0.5223 -0.4604  1.0045
 9128SOL    HW238844   3.048   1.705   7.892  0.2367 -1.9438 -0.9626
 9129SOL     OW38845   3.670   0.352   4.817 -0.1781 -0.5689  0.0402
 9129SOL    HW138846   3.582   0.361   4.781 -0.2438  0.5453  0.4750
 9129SOL    HW238847   3.698   0.281   4.760  0.2207 -1.9030  1.8886
 9130SOL     OW38848   2.982   1.425   4.699 -0.1024 -0.0442  0.5061
 9130SOL    HW138849   2.925   1.376   4.640  3.0864 -2.8141 -0.2883
 9130SOL    HW238850   3.051   1.363   4.721 -1.7199 -1.4693  1.6210
 9131SOL     OW38851   1.947   4.721   2.962  0.0629  0.0703  0.7930
 9131SOL    HW138852   1.980   4.652   2.905  1.0901  1.5216 -0.3536
 9131SOL    HW238853   1.870   4.667   2.980 -0.1700  0.5354  1.1813
 9132SOL     OW38854   0.355   1.812  10.537 -0.5164 -0.6423  0.0692
 9132SOL    HW138855   0.353   1.878  10.607  0.3532 -0.3876 -0.1583
 9132SOL    HW238856   0.269   1.770  10.547  0.1625 -1.7340  1.2046
 9133SOL     OW38857   0.840   0.704   4.684 -0.3105 -0.6062 -0.2102
 9133SOL    HW138858   0.856   0.610   4.672  0.0828 -0.7068  1.1400
 9133SOL    HW238859   0.821   0.728   4.593 -1.0586 -1.0351 -0.1663
 9134SOL     OW38860   3.167   1.400   2.450 -0.1270  0.0956 -0.0494
 9134SOL    HW138861   3.193   1.443   2.532 -1.7747  1.5774 -0.2845
 9134SOL    HW238862   3.092   1.349   2.482  0.5627 -1.7865 -1.5041
 9135SOL     OW38863   1.060   4.618   6.889  0.3184 -0.2083  0.2934
 9135SOL    HW138864   1.064   4.669   6.809 -1.2201 -0.0421  0.3248
 9135SOL    HW238865   0.982   4.662   6.923 -0.1043 -1.4379  0.9296
 9136SOL     OW38866   3.386   1.133  15.818 -0.2202  0.1187  0.4704
 9136SOL    HW138867   3.314   1.174  15.770  0.4472  0.6697 -0.0662
 9136SOL    HW238868   3.443   1.209  15.828  1.5690 -1.1048 -0.3465
 9137SOL     OW38869   2.671   2.136   1.809 -0.4977 -0.8242  0.4527
 9137SOL    HW138870   2.711   2.185   1.881 -2.4366  0.8531  0.4073
 9137SOL    HW238871   2.721   2.054   1.808 -1.1028 -1.2033  1.5373
 9138SOL     OW38872   1.209   2.762   6.751  0.0895 -0.2446  0.3779
 9138SOL    HW138873   1.158   2.835   6.785  2.4803  1.0665  1.1381
 9138SOL    HW238874   1.190   2.778   6.658  0.0101  2.4486  0.8671
 9139SOL     OW38875   3.442   4.557   6.938  0.4900  0.0293  0.4262
 9139SOL    HW138876   3.530   4.557   6.900  0.6902  0.5838  0.8845
 9139SOL    HW238877   3.397   4.629   6.894  2.5911  0.5328 -0.8903
 9140SOL     OW38878   3.662   1.610   6.879  0.2418  0.2771  0.7677
 9140SOL    HW138879   3.608   1.550   6.930 -1.2027  0.7454 -0.1808
 9140SOL    HW238880   3.682   1.671   6.950  1.1395  2.0156 -0.9677
 9141SOL     OW38881   3.451   4.294   5.957 -0.7215  0.4704  0.0734
 9141SOL    HW138882   3.400   4.235   5.902 -1.4946  1.3579 -0.1586
 9141SOL    HW238883   3.392   4.307   6.031 -1.9721  0.4131 -0.9227
 9142SOL     OW38884   1.888   2.318   0.442 -0.6089 -0.1129 -0.3808
 9142SOL    HW138885   1.883   2.413   0.454 -0.3255 -0.4149  2.2177
 9142SOL    HW238886   1.962   2.312   0.381 -0.0299  0.9713  0.2074
 9143SOL     OW38887   1.280   3.700   1.233  0.2294 -0.3385 -0.0762
 9143SOL    HW138888   1.345   3.764   1.261  1.5411 -1.3921 -0.7079
 9143SOL    HW238889   1.325   3.616   1.228 -1.1007 -1.1839  2.1438
 9144SOL     OW38890   3.847   2.727  15.357  0.1331  0.1487  0.0987
 9144SOL    HW138891   3.770   2.711  15.411 -0.1011 -0.3521 -0.3819
 9144SOL    HW238892   3.818   2.809  15.316 -0.7638 -0.6548 -0.8822
 9145SOL     OW38893   4.200   3.968   9.664  0.7716  0.2322  0.1312
 9145SOL    HW138894   4.260   4.042   9.656  0.5669  0.5328  1.2858
 9145SOL    HW238895   4.110   3.999   9.675 -0.4543 -3.4867  0.5884
 9146SOL     OW38896   4.544   3.694   6.739 -0.2238  0.6358 -0.1459
 9146SOL    HW138897   4.473   3.744   6.698  0.0017  2.6319  1.9186
 9146SOL    HW238898   4.608   3.766   6.744 -1.1213  1.3930  0.4350
 9147SOL     OW38899   2.942   2.797   2.616  0.2856 -0.3593 -0.2810
 9147SOL    HW138900   2.958   2.705   2.592  1.8211  0.3705 -2.0618
 9147SOL    HW238901   3.025   2.837   2.591 -1.0063  1.4673 -1.5850
 9148SOL     OW38902   3.564   2.008   5.171 -0.3887 -0.1564 -0.1672
 9148SOL    HW138903   3.571   2.065   5.094  1.5836 -2.0033 -1.3581
 9148SOL    HW238904   3.500   1.947   5.133  0.4537 -2.1909  1.6564
 9149SOL     OW38905   0.438   4.071   5.514 -0.0314  0.3694  0.5335
 9149SOL    HW138906   0.352   4.111   5.526 -0.0382  0.3812  0.4436
 9149SOL    HW238907   0.479   4.081   5.600  0.0325 -0.4695  0.5993
 9150SOL     OW38908   1.435   4.148   3.030  0.3928  0.0372 -0.2655
 9150SOL    HW138909   1.354   4.101   3.049  0.2672 -0.4389 -1.9300
 9150SOL    HW238910   1.431   4.145   2.934 -1.4014 -2.1727 -0.1131
 9151SOL     OW38911   4.121   2.604   6.341 -0.5716 -0.0631  0.1882
 9151SOL    HW138912   4.159   2.628   6.256 -1.9981 -1.2439 -0.7717
 9151SOL    HW238913   4.054   2.541   6.315  0.0112  0.1899 -1.9735
 9152SOL     OW38914   3.613   2.775   1.161 -0.4904  0.2351  0.0328
 9152SOL    HW138915   3.593   2.805   1.073  2.0457  1.0253 -0.2776
 9152SOL    HW238916   3.529   2.754   1.203  0.6489  0.0327  2.2528
 9153SOL     OW38917   4.523   3.891   7.694 -0.5774 -0.1790  0.0377
 9153SOL    HW138918   4.603   3.838   7.702 -0.4986  0.0385  0.6621
 9153SOL    HW238919   4.487   3.878   7.782 -0.3782 -1.7244 -0.1032
 9154SOL     OW38920   4.440   2.415   3.845  0.3909  0.1242  0.3195
 9154SOL    HW138921   4.400   2.328   3.852  1.0431 -0.0707  1.7247
 9154SOL    HW238922   4.489   2.399   3.765 -0.6848  1.7182 -0.6448
 9155SOL     OW38923   3.737   2.158  14.695  0.4733 -0.4403  0.4137
 9155SOL    HW138924   3.767   2.210  14.769  0.0233 -0.4713  0.6173
 9155SOL    HW238925   3.643   2.177  14.704  0.3610 -0.3754 -0.8097
 9156SOL     OW38926   4.455   0.487   4.469 -0.5722  0.1859  0.1746
 9156SOL    HW138927   4.491   0.565   4.427 -0.8838  0.1022 -0.2563
 9156SOL    HW238928   4.361   0.507   4.463 -1.1900 -2.5417  0.5383
 9157SOL     OW38929   0.760   0.557  15.357  0.3956  0.1352 -0.2536
 9157SOL    HW138930   0.732   0.507  15.280 -2.3747 -0.7474  1.3247
 9157SOL    HW238931   0.847   0.517  15.359 -0.2655 -1.2050  1.6210
 9158SOL     OW38932   4.411   4.654   9.689  0.0422  0.0949  0.1194
 9158SOL    HW138933   4.344   4.637   9.623 -0.5187  1.8998  0.2333
 9158SOL    HW238934   4.490   4.624   9.644  0.3685  0.0738  0.7134
 9159SOL     OW38935   0.783   4.662  14.989 -0.1788  0.6919  0.1357
 9159SOL    HW138936   0.727   4.604  14.938  0.0590 -0.5823  1.3161
 9159SOL    HW238937   0.741   4.640  15.072 -1.1598 -1.3412 -0.9158
 9160SOL     OW38938   0.892   2.208   3.765 -0.2693 -0.5352 -0.3124
 9160SOL    HW138939   0.839   2.273   3.811 -2.1676 -1.0381 -1.8124
 9160SOL    HW238940   0.925   2.259   3.691  0.8202 -0.5441  0.1542
 9161SOL     OW38941   2.302   2.630   2.703 -0.1103 -0.3992  1.0592
 9161SOL    HW138942   2.282   2.718   2.734 -0.7615  0.0985 -0.7462
 9161SOL    HW238943   2.244   2.570   2.749 -2.4643  0.3661 -0.9013
 9162SOL     OW38944   0.313   0.277  12.765 -0.2035 -0.4551  0.1091
 9162SOL    HW138945   0.220   0.296  12.764  0.2219  1.6705  1.2098
 9162SOL    HW238946   0.347   0.337  12.699  0.7248 -1.4672 -0.3464
 9163SOL     OW38947   1.924   1.092  15.993 -0.2559  0.1733 -0.2136
 9163SOL    HW138948   1.850   1.121  16.047  0.8111  3.3078 -0.4420
 9163SOL    HW238949   1.941   1.169  15.939 -1.3284 -0.8577 -2.0083
 9164SOL     OW38950   4.166   1.631  16.079  0.3222  0.0079  0.0672
 9164SOL    HW138951   4.260   1.619  16.068  0.0740 -2.4393  0.7517
 9164SOL    HW238952   4.144   1.584  16.159  0.6265 -0.7187 -0.2822
 9165SOL     OW38953   3.628   1.661   7.753  0.2770  0.3718 -0.1767
 9165SOL    HW138954   3.606   1.624   7.667  0.4797  1.2710 -0.6146
 9165SOL    HW238955   3.693   1.594   7.775  2.2914  1.6338 -2.2809
 9166SOL     OW38956   3.888   1.313  15.756  0.5454 -0.2009 -0.2832
 9166SOL    HW138957   3.969   1.356  15.729  0.2749 -0.0998 -0.9430
 9166SOL    HW238958   3.827   1.376  15.717 -2.3186 -2.4099  0.6093
 9167SOL     OW38959   3.025   4.351   7.053  0.0285 -0.2756 -0.0788
 9167SOL    HW138960   2.975   4.276   7.087  1.0870 -0.8000  0.3100
 9167SOL    HW238961   3.108   4.343   7.100  0.1261  2.8360  0.2639
 9168SOL     OW38962   2.533   1.088   7.345 -0.1043 -1.0318 -0.2060
 9168SOL    HW138963   2.584   1.012   7.373  0.6924 -0.3429  0.2026
 9168SOL    HW238964   2.489   1.054   7.267 -0.2760  0.7553 -0.8744
 9169SOL     OW38965   2.843   1.551   4.874 -0.0036  0.1165 -0.3716
 9169SOL    HW138966   2.893   1.513   4.802 -0.1801  2.4081 -1.7161
 9169SOL    HW238967   2.793   1.620   4.830 -0.1363 -0.1349 -0.6135
 9170SOL     OW38968   4.001   1.237   4.529 -0.2914  0.7285  0.5495
 9170SOL    HW138969   3.955   1.302   4.476 -0.0199  1.3932  1.1244
 9170SOL    HW238970   3.971   1.269   4.615 -1.8833 -0.4695  0.4408
 9171SOL     OW38971   2.007   0.769   3.494 -0.5929  0.3644 -0.1651
 9171SOL    HW138972   1.938   0.811   3.442 -0.6070 -0.1736 -0.5836
 9171SOL    HW238973   2.024   0.689   3.445 -0.0612 -1.0919  2.3895
 9172SOL     OW38974   0.659   1.696   9.983  0.3307 -0.3296 -0.2925
 9172SOL    HW138975   0.588   1.632   9.990  0.4630 -0.1696  2.5421
 9172SOL    HW238976   0.654   1.704   9.887 -0.1295 -1.1294 -0.3305
 9173SOL     OW38977   2.722   2.192  10.791  0.4400  0.1317 -0.3923
 9173SOL    HW138978   2.735   2.224  10.702 -0.2586  0.3257 -0.4197
 9173SOL    HW238979   2.773   2.259  10.836  0.1265  0.4221 -0.4771
 9174SOL     OW38980   3.396   0.479   6.725  0.4444 -0.1406  0.3643
 9174SOL    HW138981   3.365   0.554   6.674  0.3152  1.0238  2.1340
 9174SOL    HW238982   3.417   0.520   6.809 -1.4209  0.7986  0.3805
 9175SOL     OW38983   0.009   2.588   3.362 -0.1932  0.1880 -0.3114
 9175SOL    HW138984   0.047   2.503   3.387 -2.3575 -0.1921  1.7321
 9175SOL    HW238985   0.022   2.644   3.438  0.8426 -0.3451 -0.0915
 9176SOL     OW38986   1.822   3.614   4.452 -0.0045 -0.0469 -0.5360
 9176SOL    HW138987   1.757   3.550   4.421 -0.3737 -0.1477  0.4625
 9176SOL    HW238988   1.869   3.645   4.375  0.1038 -0.1960 -0.5304
 9177SOL     OW38989   1.911   2.812   3.887 -0.0630 -0.2079 -0.2561
 9177SOL    HW138990   1.971   2.842   3.818  2.1240  0.7761  2.0572
 9177SOL    HW238991   1.832   2.785   3.840  0.1205 -0.0748 -0.6380
 9178SOL     OW38992   1.952   0.068   8.847 -0.5116  0.2657 -0.2369
 9178SOL    HW138993   1.977   0.043   8.758 -0.6184  0.3722 -0.2959
 9178SOL    HW238994   1.901   4.716   8.872  1.2472 -0.6479  0.5925
 9179SOL     OW38995   3.159   1.743  12.830  0.6525 -0.3174 -0.1196
 9179SOL    HW138996   3.201   1.755  12.745  0.4707  0.4876 -0.0913
 9179SOL    HW238997   3.223   1.783  12.888 -0.9335  0.6694  0.9524
 9180SOL     OW38998   0.352   2.461  17.347  0.0062 -0.4776 -0.3949
 9180SOL    HW138999   0.430   2.463  17.291 -1.2889 -1.7546 -2.2375
 9180SOL    HW239000   0.301   2.539  17.323  1.0919  0.7466  1.2654
 9181SOL     OW39001   2.754   2.444   4.330 -0.1956 -0.0676 -0.2083
 9181SOL    HW139002   2.781   2.519   4.278  1.0484 -0.6793 -0.4506
 9181SOL    HW239003   2.803   2.374   4.287  1.1189  0.4810  0.4057
 9182SOL     OW39004   4.620   0.508  15.906 -0.4502  0.0840 -0.1502
 9182SOL    HW139005   4.533   0.496  15.869  0.1595 -2.4020 -0.7884
 9182SOL    HW239006   4.607   0.503  16.001 -2.4495  2.2891 -0.3333
 9183SOL     OW39007   4.343   2.860  15.265 -0.1362 -0.2278 -0.1425
 9183SOL    HW139008   4.260   2.908  15.256  0.6352  1.0918 -0.2687
 9183SOL    HW239009   4.324   2.769  15.286 -3.6161  0.7937  1.0984
 9184SOL     OW39010   0.401   1.252  11.689  0.2474 -0.5336  0.2409
 9184SOL    HW139011   0.408   1.266  11.595  1.5745 -0.3677  0.3652
 9184SOL    HW239012   0.472   1.189  11.703  1.5862  1.0841  0.7529
 9185SOL     OW39013   0.086   3.031  12.525  0.1933 -0.9418 -0.0579
 9185SOL    HW139014   0.026   3.015  12.452  0.7737 -0.8169 -0.5682
 9185SOL    HW239015   0.024   3.013  12.596  1.7829 -0.0373  1.5707
 9186SOL     OW39016   2.696   2.519   0.214 -0.5883  0.4411  0.2008
 9186SOL    HW139017   2.772   2.574   0.195 -0.5542  0.3356  0.0274
 9186SOL    HW239018   2.650   2.569   0.281 -1.2272 -2.8464  2.2123
 9187SOL     OW39019   0.594   3.488  17.411 -0.0469 -0.4356 -0.1158
 9187SOL    HW139020   0.675   3.517  17.454  0.7368 -0.2013 -1.7463
 9187SOL    HW239021   0.551   3.432  17.476  0.4196  0.6500  1.1138
 9188SOL     OW39022   0.208   0.416  16.336  0.2743 -0.2082 -0.0449
 9188SOL    HW139023   0.234   0.368  16.414 -0.1389 -0.0646  0.1784
 9188SOL    HW239024   0.293   0.459  16.321 -0.6166  1.4151 -0.4085
 9189SOL     OW39025   2.962   0.652   2.612  0.0199  0.3421  0.1397
 9189SOL    HW139026   2.876   0.613   2.624  0.0683  0.7588  1.9019
 9189SOL    HW239027   2.968   0.669   2.518  0.6394  1.3156  0.3612
 9190SOL     OW39028   3.678   4.298   6.122 -0.1279  0.3654  0.1721
 9190SOL    HW139029   3.623   4.321   6.046  1.8736  1.3553 -0.9619
 9190SOL    HW239030   3.684   4.203   6.115  1.2144  0.4359  0.3969
 9191SOL     OW39031   2.196   3.323   2.719 -1.2855 -0.4508  0.4726
 9191SOL    HW139032   2.119   3.376   2.741 -0.9448  0.2425  0.0005
 9191SOL    HW239033   2.271   3.375   2.745 -0.9926 -1.1993  1.1086
 9192SOL     OW39034   3.309   4.647   1.612 -0.3254  0.1915 -0.1896
 9192SOL    HW139035   3.258   4.637   1.532  1.1562  0.8813 -1.2382
 9192SOL    HW239036   3.298   0.017   1.627 -1.4886  0.6604 -4.0826
 9193SOL     OW39037   1.468   4.413  11.086 -0.6415  0.1690 -0.3236
 9193SOL    HW139038   1.482   4.321  11.109 -1.9079 -0.1015 -0.6182
 9193SOL    HW239039   1.395   4.395  11.026  0.5460  1.0402 -2.0458
 9194SOL     OW39040   0.847   1.458   3.390  0.2970  0.2127 -0.2868
 9194SOL    HW139041   0.926   1.484   3.343 -1.5570  3.9250 -1.3496
 9194SOL    HW239042   0.877   1.380   3.436 -1.0302  0.5744  1.2000
 9195SOL     OW39043   2.101   2.696   4.251 -0.2022 -0.3038 -0.5632
 9195SOL    HW139044   2.075   2.769   4.306 -0.6962  0.2124 -1.4832
 9195SOL    HW239045   2.196   2.709   4.253 -0.0714 -1.6493  1.2494
 9196SOL     OW39046   3.695   1.694   8.923 -0.6104 -0.8179 -0.3457
 9196SOL    HW139047   3.721   1.619   8.977  0.3699 -0.4860 -0.3544
 9196SOL    HW239048   3.619   1.723   8.974 -0.6206  2.1784 -2.0893
 9197SOL     OW39049   4.678   4.028   1.044  0.2327  0.0099 -0.0927
 9197SOL    HW139050   0.001   4.036   1.126 -1.4211 -0.3522  0.8927
 9197SOL    HW239051   0.002   4.091   0.991  0.4540 -0.2919 -0.2529
 9198SOL     OW39052   2.301   2.513   8.888  0.3859  0.5619 -0.1158
 9198SOL    HW139053   2.295   2.503   8.983 -2.4681 -2.9367 -0.6715
 9198SOL    HW239054   2.294   2.422   8.858 -0.7608  0.3607  0.7480
 9199SOL     OW39055   3.083   0.828   4.981  0.6105  0.3312  0.0418
 9199SOL    HW139056   3.090   0.874   5.064  1.7369 -1.3592  0.8898
 9199SOL    HW239057   3.165   0.778   4.983  0.4165 -0.0224 -0.7498
 9200SOL     OW39058   4.696   0.617   7.860 -0.0925 -0.2376  0.2897
 9200SOL    HW139059   0.026   0.638   7.935 -0.3626 -0.8555  0.6593
 9200SOL    HW239060   0.038   0.591   7.795 -0.2236 -0.2258  0.1508
 9201SOL     OW39061   2.178   4.302   5.264 -0.1053 -0.6886  0.4110
 9201SOL    HW139062   2.101   4.359   5.258 -0.2623 -1.0262 -1.0078
 9201SOL    HW239063   2.243   4.366   5.236 -1.0675  0.1886  0.1766
 9202SOL     OW39064   0.970   2.383  10.611 -0.1142  0.5767 -0.0525
 9202SOL    HW139065   0.911   2.328  10.560  0.3399  0.6664 -0.6825
 9202SOL    HW239066   0.962   2.344  10.698 -1.7264  1.2337  0.0963
 9203SOL     OW39067   1.664   0.428  13.603 -0.3680 -0.4295 -0.4450
 9203SOL    HW139068   1.583   0.386  13.634  1.2757 -1.7960  1.9676
 9203SOL    HW239069   1.662   0.405  13.510 -1.5759 -0.8025 -0.3303
 9204SOL     OW39070   3.453   2.746  14.111 -0.3657 -0.0868  0.6495
 9204SOL    HW139071   3.536   2.697  14.104 -0.1543  0.1933  1.2332
 9204SOL    HW239072   3.451   2.770  14.203 -0.9367 -1.6132  1.0422
 9205SOL     OW39073   2.282   0.229   5.800  0.1457  0.0975 -0.7494
 9205SOL    HW139074   2.302   0.319   5.827  0.0732  1.1901 -4.4496
 9205SOL    HW239075   2.203   0.204   5.848  1.2397 -0.1375  0.9279
 9206SOL     OW39076   1.106   0.313   2.080 -0.1791  0.1258  0.1431
 9206SOL    HW139077   1.112   0.405   2.056  2.2266 -0.2256 -0.6195
 9206SOL    HW239078   1.017   0.292   2.052 -0.2344  1.0954 -0.3945
 9207SOL     OW39079   2.490   2.472   3.680  0.3590  0.3201 -0.5328
 9207SOL    HW139080   2.521   2.411   3.614  1.9449  0.2216  0.2912
 9207SOL    HW239081   2.396   2.468   3.663  0.0872 -1.6981  1.4469
 9208SOL     OW39082   2.324   1.647   1.512 -0.1205  0.2707  0.1513
 9208SOL    HW139083   2.243   1.694   1.529 -0.7350 -0.7973  0.2068
 9208SOL    HW239084   2.338   1.633   1.606  1.7033  1.2139  0.0165
 9209SOL     OW39085   1.468   0.192   3.968  0.3058 -0.1825  0.0778
 9209SOL    HW139086   1.381   0.230   3.983  1.8316  3.7002 -0.9606
 9209SOL    HW239087   1.501   0.227   4.051  0.2667 -1.4458  0.6216
 9210SOL     OW39088   3.887   3.200   4.142  0.2529  0.1533  0.0798
 9210SOL    HW139089   3.930   3.149   4.073 -1.8670 -0.6820 -0.6192
 9210SOL    HW239090   3.961   3.234   4.192 -0.5168  0.6962  0.8474
 9211SOL     OW39091   0.618   0.699   7.974  0.0193 -0.3731 -0.2260
 9211SOL    HW139092   0.630   0.630   8.039  0.8825  0.7221  0.7770
 9211SOL    HW239093   0.684   0.760   8.007  0.6844 -0.8995 -0.5632
 9212SOL     OW39094   0.730   0.363  11.406  0.3311 -0.0238 -0.7901
 9212SOL    HW139095   0.681   0.281  11.417 -1.1777  0.9390 -0.2802
 9212SOL    HW239096   0.815   0.339  11.443  1.7255  1.5915 -2.9533
 9213SOL     OW39097   4.454   4.227   5.621 -0.5767 -0.1347  0.7207
 9213SOL    HW139098   4.453   4.156   5.685 -1.2211 -0.3053  0.5203
 9213SOL    HW239099   4.482   4.307   5.666 -1.2829 -0.1128  1.1014
 9214SOL     OW39100   3.778   3.280   3.827  0.0733 -0.1729  0.5085
 9214SOL    HW139101   3.849   3.235   3.872 -0.9636 -1.9440  0.3642
 9214SOL    HW239102   3.774   3.354   3.888  0.3447  1.8867 -1.9915
 9215SOL     OW39103   1.080   3.495  10.316  0.4634  0.1546 -0.0007
 9215SOL    HW139104   1.172   3.522  10.316 -0.1404  2.2017 -0.0127
 9215SOL    HW239105   1.079   3.402  10.296  0.1245 -0.1237  1.2777
 9216SOL     OW39106   1.682   0.452   5.343 -0.1226 -0.2874 -0.4876
 9216SOL    HW139107   1.644   0.525   5.392 -1.8885 -0.8456 -1.0090
 9216SOL    HW239108   1.739   0.487   5.275 -0.7350  0.5992 -0.5564
 9217SOL     OW39109   0.463   2.546   7.250 -0.2263 -0.3729 -0.5850
 9217SOL    HW139110   0.553   2.541   7.219 -0.0512  0.4580 -0.2034
 9217SOL    HW239111   0.425   2.559   7.163  0.5343  1.2413 -0.6778
 9218SOL     OW39112   1.364   0.874   8.367  0.1435  0.3091 -0.3530
 9218SOL    HW139113   1.439   0.819   8.344  1.2637  2.3520 -1.5979
 9218SOL    HW239114   1.289   0.822   8.339  0.6296 -0.3298 -0.4669
 9219SOL     OW39115   2.742   4.376   6.898  0.4147  0.2437  0.0623
 9219SOL    HW139116   2.768   4.456   6.944 -2.1184  0.4050  1.2204
 9219SOL    HW239117   2.756   4.314   6.970 -1.6525 -1.4618 -1.0162
 9220SOL     OW39118   1.398   4.301   0.129 -0.1630  0.1381  0.1195
 9220SOL    HW139119   1.448   4.294   0.210 -0.2978  0.8331  0.2637
 9220SOL    HW239120   1.457   4.266   0.063 -1.4325 -2.1882  0.1983
 9221SOL     OW39121   2.885   3.690   5.441 -0.1292 -0.0282 -0.0539
 9221SOL    HW139122   2.891   3.597   5.460  1.8688  0.5836  2.3232
 9221SOL    HW239123   2.969   3.723   5.472 -0.4380 -0.0614  0.8067
 9222SOL     OW39124   4.438   1.468   5.806 -0.1199  0.1493 -0.4427
 9222SOL    HW139125   4.354   1.512   5.818 -0.1300  0.0871 -0.2768
 9222SOL    HW239126   4.462   1.521   5.730  0.9058  2.0036  1.1655
 9223SOL     OW39127   1.233   3.763   3.754  0.0486 -0.0165  0.5331
 9223SOL    HW139128   1.173   3.748   3.827 -1.3356  1.7462 -0.2424
 9223SOL    HW239129   1.306   3.795   3.807  0.2722 -1.4205  1.0845
 9224SOL     OW39130   1.786   0.066   7.523  0.4520  0.0760 -0.3268
 9224SOL    HW139131   1.753   0.068   7.613  2.3977  0.1774  0.3678
 9224SOL    HW239132   1.820   0.154   7.509  0.2993  0.2110  0.1621
 9225SOL     OW39133   1.424   1.570   3.072  0.1732 -0.3432 -0.2080
 9225SOL    HW139134   1.342   1.520   3.070 -0.8140  1.1923  1.4494
 9225SOL    HW239135   1.430   1.571   3.168 -1.0723 -3.6806 -0.1044
 9226SOL     OW39136   4.511   4.664   5.199 -0.2550  0.5212 -0.7241
 9226SOL    HW139137   4.501   0.022   5.150  0.0795 -1.1500 -3.5491
 9226SOL    HW239138   4.560   4.612   5.136 -1.6123 -0.9324 -0.5671
 9227SOL     OW39139   2.991   3.109   6.838  0.0802  0.0325  0.4210
 9227SOL    HW139140   3.076   3.084   6.875  0.2812  1.1014  0.6828
 9227SOL    HW239141   2.968   3.166   6.911  0.4612  0.2191  0.3908
 9228SOL     OW39142   3.620   1.521  13.385 -0.2471 -0.5661  0.1794
 9228SOL    HW139143   3.660   1.434  13.393 -0.4511 -0.6653  0.1187
 9228SOL    HW239144   3.557   1.497  13.318  0.5216 -1.8439 -0.0842
 9229SOL     OW39145   4.371   3.551  16.243 -0.4173  0.4160 -0.2697
 9229SOL    HW139146   4.371   3.456  16.233  2.0374  0.1589  2.4208
 9229SOL    HW239147   4.419   3.565  16.325 -0.7641  0.7608 -0.1252
 9230SOL     OW39148   4.437   1.717   5.048 -0.3167  0.3851  0.0255
 9230SOL    HW139149   4.361   1.673   5.009  1.7318 -2.9853 -0.1661
 9230SOL    HW239150   4.497   1.711   4.974 -0.0231 -0.7041  0.3411
 9231SOL     OW39151   1.985   3.727   4.995 -0.0044  0.3162 -0.5117
 9231SOL    HW139152   2.066   3.773   5.018  0.0974 -0.5481  0.8862
 9231SOL    HW239153   1.974   3.661   5.063  0.5917  0.9929  0.2462
 9232SOL     OW39154   3.395   0.432  13.587 -0.4590  0.4799 -0.4583
 9232SOL    HW139155   3.353   0.486  13.520 -0.5290 -1.6551 -2.1446
 9232SOL    HW239156   3.352   0.463  13.667 -0.0352  0.7511 -0.3384
 9233SOL     OW39157   2.633   4.600   7.887 -0.0279  0.3907  0.7374
 9233SOL    HW139158   2.648   4.651   7.967  0.1208  1.1235  0.2407
 9233SOL    HW239159   2.601   4.522   7.932  0.6347 -0.1543  0.2644
 9234SOL     OW39160   2.206   1.379   8.520  0.0339  0.3366  0.5066
 9234SOL    HW139161   2.248   1.325   8.453  2.0569  3.8565 -1.0641
 9234SOL    HW239162   2.260   1.458   8.524  0.0431  0.3575 -0.0583
 9235SOL     OW39163   4.150   4.320   8.515 -0.2438 -0.2980 -0.7013
 9235SOL    HW139164   4.197   4.248   8.473  0.6839 -0.0741 -0.0548
 9235SOL    HW239165   4.084   4.276   8.569 -0.1377 -0.1597 -0.4596
 9236SOL     OW39166   1.471   4.076   0.351  0.1421  0.5498  0.6573
 9236SOL    HW139167   1.512   4.012   0.409  0.4496  0.1961  0.0456
 9236SOL    HW239168   1.536   4.145   0.346  0.6575 -0.0041 -0.3111
 9237SOL     OW39169   2.266   3.582   2.254  0.0042 -0.8199  0.6235
 9237SOL    HW139170   2.332   3.518   2.281  1.7545  0.9137  0.4954
 9237SOL    HW239171   2.228   3.628   2.328  0.6973  1.2134 -0.2802
 9238SOL     OW39172   1.808   1.209   4.773 -0.2048  0.3536  0.2651
 9238SOL    HW139173   1.864   1.282   4.800 -0.0917  1.3974 -2.7407
 9238SOL    HW239174   1.726   1.246   4.740  0.3472  0.2708 -1.2056
 9239SOL     OW39175   1.908   1.633   1.088 -0.5876 -0.3775 -0.3969
 9239SOL    HW139176   1.925   1.539   1.092 -0.8615 -0.3997  0.2978
 9239SOL    HW239177   1.922   1.654   1.180 -0.2015  1.0776 -0.7941
 9240SOL     OW39178   0.163   0.153   9.261 -0.0682  0.4387 -0.5109
 9240SOL    HW139179   0.177   0.188   9.173  0.5126  0.4526 -0.4146
 9240SOL    HW239180   0.099   0.218   9.290  0.4775  0.6219  0.2791
 9241SOL     OW39181   3.656   4.039  11.769  0.5387 -0.0996 -0.0656
 9241SOL    HW139182   3.619   4.127  11.770  3.2740  1.0394 -0.4407
 9241SOL    HW239183   3.740   4.054  11.727  0.7027  0.1106  0.3441
 9242SOL     OW39184   3.801   4.171   0.802 -0.6769 -0.3047 -0.8020
 9242SOL    HW139185   3.803   4.077   0.821  1.4721 -0.1198 -0.0911
 9242SOL    HW239186   3.784   4.181   0.709 -2.6507  0.3236 -0.3884
 9243SOL     OW39187   0.719   2.419  11.777 -0.1965  0.3962 -0.4928
 9243SOL    HW139188   0.675   2.470  11.845 -1.6876 -1.4968 -0.0519
 9243SOL    HW239189   0.687   2.468  11.701  1.7393  3.6215  0.7685
 9244SOL     OW39190   0.557   4.492  11.983 -0.3162  0.0073  0.7057
 9244SOL    HW139191   0.640   4.445  11.981 -0.0156  0.3429  4.2588
 9244SOL    HW239192   0.570   4.551  12.058  0.8577  1.5373 -0.7010
 9245SOL     OW39193   4.074   0.271  15.455 -0.6067  0.3785  0.2342
 9245SOL    HW139194   4.043   0.182  15.469  2.2069 -0.1508  3.1566
 9245SOL    HW239195   4.147   0.284  15.516 -1.9963  3.7866  1.1620
 9246SOL     OW39196   0.579   3.170  11.424  0.8503 -0.1843  0.2423
 9246SOL    HW139197   0.590   3.258  11.460 -0.5581 -0.8827  2.4374
 9246SOL    HW239198   0.617   3.116  11.493 -1.0076  0.4113  1.7168
 9247SOL     OW39199   3.395   0.878  12.473 -0.1988 -0.1976  0.0245
 9247SOL    HW139200   3.387   0.973  12.483 -1.1698 -0.1336 -1.3616
 9247SOL    HW239201   3.366   0.842  12.557 -0.8254 -2.0444 -0.9821
 9248SOL     OW39202   4.556   1.323   6.015 -0.2478 -0.3075  0.1690
 9248SOL    HW139203   4.518   1.372   5.943 -1.9349 -1.8148  0.0425
 9248SOL    HW239204   4.648   1.345   6.000 -0.2969 -0.5921 -0.5363
 9249SOL     OW39205   0.797   2.207   3.414  0.0454  0.0420  0.1467
 9249SOL    HW139206   0.887   2.227   3.438 -0.3559  0.6048  1.1708
 9249SOL    HW239207   0.800   2.187   3.320  1.5687  0.0061  0.2030
 9250SOL     OW39208   0.388   0.799  11.932  0.3345 -0.1708  0.1089
 9250SOL    HW139209   0.300   0.764  11.923  0.7798 -1.4569  0.7424
 9250SOL    HW239210   0.411   0.826  11.843  1.4735 -1.8698 -0.1232
 9251SOL     OW39211   3.864   3.568  11.066  0.0287  0.1149  0.0861
 9251SOL    HW139212   3.895   3.655  11.045  0.8854  0.3507  2.3636
 9251SOL    HW239213   3.866   3.573  11.162  0.0885  0.5185  0.0605
 9252SOL     OW39214   0.397   4.577  16.701  0.1399 -0.2814  0.4185
 9252SOL    HW139215   0.311   4.613  16.681  0.0367  0.1254  1.5651
 9252SOL    HW239216   0.432   4.636  16.767 -1.5552  1.5962 -0.3644
 9253SOL     OW39217   2.198   1.873  16.452  0.1880 -0.2284  0.1892
 9253SOL    HW139218   2.151   1.855  16.371 -0.8678 -3.1632  1.4443
 9253SOL    HW239219   2.228   1.962  16.434 -0.8224  0.6161  2.7244
 9254SOL     OW39220   4.506   1.535  13.503 -0.0940 -0.2574 -0.3581
 9254SOL    HW139221   4.469   1.591  13.571 -2.1082 -0.7188 -1.0807
 9254SOL    HW239222   4.445   1.461  13.511 -1.0156  0.5178 -0.2521
 9255SOL     OW39223   2.657   3.642   8.472 -0.5301  0.4509  0.2403
 9255SOL    HW139224   2.612   3.559   8.454  0.7417  0.0249 -0.9833
 9255SOL    HW239225   2.666   3.628   8.567 -0.9769 -1.7661 -0.0317
 9256SOL     OW39226   1.156   1.849  16.036 -0.2721 -0.5288 -0.7004
 9256SOL    HW139227   1.103   1.772  16.014 -0.6611  0.0685 -1.8544
 9256SOL    HW239228   1.189   1.877  15.950 -0.0654 -1.7532 -1.0252
 9257SOL     OW39229   2.540   0.026   6.178 -0.2734 -0.1341  0.3734
 9257SOL    HW139230   2.592   0.064   6.108 -1.8900  0.3335 -0.5745
 9257SOL    HW239231   2.542   0.090   6.250 -0.9994 -0.0180  0.2925
 9258SOL     OW39232   0.248   3.096   7.314 -0.4873 -0.3202 -0.4561
 9258SOL    HW139233   0.170   3.119   7.264 -1.3349  0.3539  1.1404
 9258SOL    HW239234   0.208   3.038   7.379 -2.0496  0.6233 -0.5565
 9259SOL     OW39235   1.019   3.528  14.445 -0.2026  0.3671 -0.3330
 9259SOL    HW139236   0.975   3.508  14.363  2.3553 -0.1702 -1.5622
 9259SOL    HW239237   0.949   3.487  14.497  0.8475 -0.7049  0.2462
 9260SOL     OW39238   4.682   0.183   5.344  0.4207  0.0628 -0.3059
 9260SOL    HW139239   4.705   0.108   5.290  0.0851 -0.5920  0.4640
 9260SOL    HW239240   0.041   0.230   5.345  2.0573 -2.9243  2.2104
 9261SOL     OW39241   0.709   4.628   3.449  0.2419  0.2639 -0.1368
 9261SOL    HW139242   0.744   4.700   3.502  1.5645 -0.2933 -0.2567
 9261SOL    HW239243   0.640   4.600   3.509 -1.3013  0.9353 -1.6011
 9262SOL     OW39244   1.137   2.407  11.850  0.4359  0.1625  0.4229
 9262SOL    HW139245   1.222   2.434  11.815  0.9566 -0.5724  1.1299
 9262SOL    HW239246   1.158   2.366  11.934 -1.8661 -0.4758  0.6936
 9263SOL     OW39247   0.768   1.143   3.058 -0.4566 -0.2062  0.4307
 9263SOL    HW139248   0.740   1.051   3.051 -0.2235 -0.1077 -1.8418
 9263SOL    HW239249   0.712   1.189   2.996  0.3799 -1.5471 -1.3289
 9264SOL     OW39250   4.230   2.325   7.486  0.1434  0.0651 -0.3200
 9264SOL    HW139251   4.181   2.370   7.555  1.2122  0.5256  0.1423
 9264SOL    HW239252   4.319   2.324   7.523  0.2190  2.9691 -0.4506
 9265SOL     OW39253   3.883   1.960   2.476 -0.5729  0.5836  0.2491
 9265SOL    HW139254   3.858   1.891   2.415 -2.3283  2.5163 -1.2205
 9265SOL    HW239255   3.854   2.039   2.428  3.2032  1.0458 -1.2902
 9266SOL     OW39256   0.871   1.943   3.855 -0.6164 -0.2502  0.3125
 9266SOL    HW139257   0.880   2.015   3.792  4.3547 -0.4337  0.8042
 9266SOL    HW239258   0.923   1.982   3.925  0.0029 -1.7496  0.6975
 9267SOL     OW39259   3.817   0.365   6.703 -0.3676 -0.0646  0.8608
 9267SOL    HW139260   3.841   0.282   6.662 -0.4786  0.4675 -0.3044
 9267SOL    HW239261   3.904   0.400   6.718 -1.8109  3.0729  1.8600
 9268SOL     OW39262   2.231   4.427   6.920  0.6112  0.5529 -0.6185
 9268SOL    HW139263   2.326   4.418   6.934  0.3645  0.2117  0.8736
 9268SOL    HW239264   2.239   4.506   6.868 -1.1061  1.9990  1.3168
 9269SOL     OW39265   1.940   0.502   1.811 -0.4632 -0.2326  0.2475
 9269SOL    HW139266   2.016   0.470   1.763 -0.8523 -1.0504  0.1836
 9269SOL    HW239267   1.982   0.504   1.897 -0.6413 -1.5844  0.3709
 9270SOL     OW39268   4.035   3.957   3.504 -0.0503 -0.0341 -0.4454
 9270SOL    HW139269   4.100   4.006   3.555 -0.3504  0.9937 -1.0337
 9270SOL    HW239270   3.974   4.030   3.495  1.0406  0.8610 -0.6674
 9271SOL     OW39271   3.988   1.981  13.228 -0.0589 -0.1578 -0.6451
 9271SOL    HW139272   4.083   1.990  13.240 -0.2955 -0.6250  1.4415
 9271SOL    HW239273   3.982   1.947  13.138  0.2632  0.8324 -1.0313
 9272SOL     OW39274   1.536   2.362   5.535  0.0784 -0.1866 -0.2111
 9272SOL    HW139275   1.535   2.353   5.439  2.2042 -0.4486 -0.2052
 9272SOL    HW239276   1.472   2.297   5.563  1.0335 -0.5138  1.1982
 9273SOL     OW39277   4.378   4.081   9.298  0.0022 -0.6461 -0.2226
 9273SOL    HW139278   4.417   4.128   9.372  0.8286 -0.0399 -1.0399
 9273SOL    HW239279   4.364   3.997   9.340 -0.2565 -0.6562 -0.3327
 9274SOL     OW39280   1.866   1.389   2.541 -0.1746  0.0064  0.0558
 9274SOL    HW139281   1.819   1.466   2.510  0.1476  0.5898  1.0036
 9274SOL    HW239282   1.857   1.344   2.457  1.1723 -1.1011  0.5007
 9275SOL     OW39283   0.491   1.995   0.990  0.0467  0.1700  0.0710
 9275SOL    HW139284   0.526   1.979   0.903 -1.3470  1.5793 -0.7380
 9275SOL    HW239285   0.471   2.088   0.981 -1.8866 -0.2325  0.3385
 9276SOL     OW39286   1.464   0.981   9.446  0.3855 -0.0163  0.2991
 9276SOL    HW139287   1.455   0.953   9.355  0.3858  0.9874 -0.0036
 9276SOL    HW239288   1.416   0.906   9.483 -1.2532  1.1364  0.5105
 9277SOL     OW39289   4.366   2.906   6.876 -0.5550  0.0459  0.2054
 9277SOL    HW139290   4.393   2.845   6.807 -2.7319  0.6138 -1.1741
 9277SOL    HW239291   4.347   2.976   6.814 -1.8330  0.8480  1.4989
 9278SOL     OW39292   0.900   1.218   5.366  0.2805  0.0410 -0.3584
 9278SOL    HW139293   0.919   1.296   5.419 -2.3153  0.9880 -0.7698
 9278SOL    HW239294   0.876   1.159   5.437 -2.9299  3.2729  1.2721
 9279SOL     OW39295   0.899   1.426   8.330 -0.4154  0.6109 -0.3836
 9279SOL    HW139296   0.914   1.400   8.421 -3.2850 -0.4492 -0.1911
 9279SOL    HW239297   0.823   1.484   8.340 -0.2174  0.8317 -0.1854
 9280SOL     OW39298   4.220   3.681   5.484  0.0303 -0.2282  0.0442
 9280SOL    HW139299   4.127   3.680   5.506 -0.0373  0.8272 -0.1999
 9280SOL    HW239300   4.250   3.618   5.550  2.0937 -1.0067 -1.6383
 9281SOL     OW39301   0.883   1.265   7.263  0.5164  0.4110  0.4071
 9281SOL    HW139302   0.809   1.323   7.280  0.5382  1.1166 -1.8730
 9281SOL    HW239303   0.930   1.315   7.196  0.2567  1.2788  0.8778
 9282SOL     OW39304   2.812   2.864   1.914 -0.4755 -0.2760  0.2419
 9282SOL    HW139305   2.855   2.945   1.941 -1.9573  0.8069 -0.6568
 9282SOL    HW239306   2.886   2.808   1.939 -1.1967 -0.1001  2.7686
 9283SOL     OW39307   0.245   3.410   5.510  0.2802  0.8074 -0.4475
 9283SOL    HW139308   0.259   3.499   5.476  1.6802  1.3493  1.5678
 9283SOL    HW239309   0.235   3.427   5.604 -0.3736 -1.4226 -0.1229
 9284SOL     OW39310   2.281   3.466   4.948  0.3050  0.0172  0.2854
 9284SOL    HW139311   2.289   3.534   4.881  0.3804  0.2883  0.5727
 9284SOL    HW239312   2.372   3.438   4.956 -0.0439 -0.4836  2.4034
 9285SOL     OW39313   3.324   0.181   8.760  0.1696 -0.0266 -0.1411
 9285SOL    HW139314   3.291   0.206   8.673  0.8965 -4.2776 -1.6297
 9285SOL    HW239315   3.297   0.261   8.805 -0.3616  0.7837 -1.8619
 9286SOL     OW39316   1.797   1.733   8.623 -0.4863 -0.2992  0.3927
 9286SOL    HW139317   1.725   1.757   8.681  1.5603  1.0949  2.3926
 9286SOL    HW239318   1.746   1.687   8.557 -0.0889  0.4048 -0.4007
 9287SOL     OW39319   1.109   2.986   1.828  0.8662  0.0221  0.0802
 9287SOL    HW139320   1.082   2.951   1.743 -0.8304  1.1519  0.1650
 9287SOL    HW239321   1.025   3.000   1.871  0.3166  0.9884 -1.3493
 9288SOL     OW39322   0.007   1.031   2.842  0.0988 -0.0853  0.2736
 9288SOL    HW139323   0.073   0.966   2.864  1.6924  0.3446 -3.3342
 9288SOL    HW239324   4.698   0.994   2.761  3.7100  0.3163 -1.4089
 9289SOL     OW39325   4.064   2.942   1.359  0.0295  0.8362 -0.1672
 9289SOL    HW139326   3.973   2.970   1.373  0.0497  1.5204 -1.4397
 9289SOL    HW239327   4.048   2.857   1.319  1.8984  0.7177 -0.6353
 9290SOL     OW39328   1.334   1.272   6.896 -0.6564 -0.5903  0.1669
 9290SOL    HW139329   1.351   1.278   6.802  2.2576  3.2136  0.9436
 9290SOL    HW239330   1.314   1.363   6.917 -3.7456 -0.8954 -1.3735
 9291SOL     OW39331   2.710   2.840   8.183 -0.1058  0.7655  0.1119
 9291SOL    HW139332   2.690   2.917   8.131 -0.1693  2.4577  2.6334
 9291SOL    HW239333   2.750   2.875   8.263  0.6829 -0.1602  0.1288
 9292SOL     OW39334   4.264   1.784   5.239  0.3091 -0.0343 -0.5159
 9292SOL    HW139335   4.211   1.834   5.176 -0.2121  0.8192  0.6105
 9292SOL    HW239336   4.340   1.760   5.186 -0.5045  0.0028 -1.7170
 9293SOL     OW39337   1.261   2.558   1.283  0.0481  0.1139 -0.1819
 9293SOL    HW139338   1.347   2.532   1.317  1.0611  1.0072 -2.0911
 9293SOL    HW239339   1.243   2.490   1.218 -0.6185 -0.0503  0.1767
 9294SOL     OW39340   2.900   2.570   5.402  0.4530  0.4066  0.2667
 9294SOL    HW139341   2.942   2.614   5.328 -0.5790  1.0587  0.0723
 9294SOL    HW239342   2.935   2.481   5.393 -1.0540  0.0454 -1.9186
 9295SOL     OW39343   2.422   0.781   9.884  0.3367  0.6281  0.1388
 9295SOL    HW139344   2.470   0.775   9.801 -0.2073 -0.8347 -0.0703
 9295SOL    HW239345   2.450   0.867   9.914  1.6505 -0.2358  1.4229
 9296SOL     OW39346   0.190   4.124  15.172 -0.7624 -0.2852 -0.2475
 9296SOL    HW139347   0.221   4.215  15.177  0.3299 -0.6039 -1.1295
 9296SOL    HW239348   0.248   4.099  15.100  0.9335 -0.2214  1.1080
 9297SOL     OW39349   1.430   0.672  16.017 -0.0572 -0.1067 -0.3507
 9297SOL    HW139350   1.379   0.700  16.093 -0.6478  0.3850 -0.9219
 9297SOL    HW239351   1.381   0.732  15.960  0.8351 -0.7941 -1.8663
 9298SOL     OW39352   2.176   3.362   6.351  0.2083 -0.2260  0.1463
 9298SOL    HW139353   2.089   3.387   6.381 -0.0073 -0.9285  0.1179
 9298SOL    HW239354   2.159   3.349   6.258 -1.0528  0.9243  0.2254
 9299SOL     OW39355   0.797   3.568   2.338 -0.1676  0.2157  0.1389
 9299SOL    HW139356   0.868   3.601   2.282  0.2356 -1.7364 -0.4726
 9299SOL    HW239357   0.772   3.648   2.385 -0.0725  0.3536 -0.0431
 9300SOL     OW39358   1.751   3.767   0.475 -0.2824  0.0938  0.2340
 9300SOL    HW139359   1.739   3.862   0.484  2.4123  0.5243 -0.6294
 9300SOL    HW239360   1.843   3.759   0.502 -0.7187 -0.9427  1.3968
 9301SOL     OW39361   2.371   2.978   5.624  0.0275 -0.2974  0.1475
 9301SOL    HW139362   2.415   3.063   5.618  2.2450 -1.6180 -1.8878
 9301SOL    HW239363   2.438   2.940   5.681  0.9918 -2.0398 -2.1673
 9302SOL     OW39364   2.097   4.662   2.186  0.3295  0.1717 -0.2103
 9302SOL    HW139365   2.062   4.646   2.274  1.6381  0.2467  0.3278
 9302SOL    HW239366   2.144   4.582   2.166  1.2771  0.4482  0.9327
 9303SOL     OW39367   4.517   3.987   3.727  0.3501  0.0257 -0.5037
 9303SOL    HW139368   4.572   3.932   3.672 -0.1024 -0.6600 -0.2758
 9303SOL    HW239369   4.563   3.998   3.810  1.2221 -2.9418 -0.5755
 9304SOL     OW39370   0.891   4.089   4.214 -0.3660 -0.2228 -0.5565
 9304SOL    HW139371   0.895   4.156   4.146  2.5461  0.0492 -0.1303
 9304SOL    HW239372   0.796   4.081   4.223 -0.5237  1.6679 -0.6150
 9305SOL     OW39373   2.507   3.057   3.325 -0.3657 -0.2004  0.0102
 9305SOL    HW139374   2.544   3.102   3.249  0.1861 -1.4222 -0.4436
 9305SOL    HW239375   2.498   2.966   3.297 -1.7536  0.3424 -1.2897
 9306SOL     OW39376   4.591   3.259  14.920  0.6797 -0.1695 -0.2028
 9306SOL    HW139377   4.652   3.303  14.860 -1.5670  0.6917 -1.8283
 9306SOL    HW239378   4.659   3.213  14.970 -0.7807 -2.3214 -0.2132
 9307SOL     OW39379   2.264   4.198   3.058  0.2678 -0.3024  0.1677
 9307SOL    HW139380   2.316   4.202   2.978  0.1725  3.0315  0.2611
 9307SOL    HW239381   2.208   4.124   3.037 -0.2500 -0.0582  0.6883
 9308SOL     OW39382   1.876   0.332   7.359  0.0438 -0.7185  0.5012
 9308SOL    HW139383   1.789   0.333   7.319 -0.5931 -2.2255  1.8398
 9308SOL    HW239384   1.852   0.352   7.449 -1.1565  3.4483 -0.7380
 9309SOL     OW39385   4.596   4.281  10.781  0.1708 -0.0628 -0.6309
 9309SOL    HW139386   4.648   4.357  10.808 -0.5478  0.3977 -0.5458
 9309SOL    HW239387   4.642   4.256  10.701  3.5179  0.7636  0.9860
 9310SOL     OW39388   3.633   3.595   2.690  0.1136  0.4479  0.5079
 9310SOL    HW139389   3.632   3.637   2.604 -1.5911  1.5105  1.0344
 9310SOL    HW239390   3.556   3.637   2.730 -0.1901  1.1324 -0.7779
 9311SOL     OW39391   2.129   4.257   3.426  1.2019  0.2626 -0.0457
 9311SOL    HW139392   2.114   4.172   3.384 -1.0663  0.9991 -0.6833
 9311SOL    HW239393   2.041   4.277   3.456  1.2804  0.7442 -0.1394
 9312SOL     OW39394   1.414   0.777   4.518 -0.0822  0.3509 -0.1403
 9312SOL    HW139395   1.355   0.753   4.447  0.5492 -1.0277 -0.1983
 9312SOL    HW239396   1.459   0.693   4.527 -0.3904  0.2112  0.0975
 9313SOL     OW39397   2.615   3.157   8.538 -0.4373 -0.7383 -0.7005
 9313SOL    HW139398   2.635   3.181   8.629 -0.8119  1.3812 -1.1860
 9313SOL    HW239399   2.690   3.104   8.509 -1.7581 -2.6756 -0.5381
 9314SOL     OW39400   4.016   0.529   5.433  0.3598 -0.0847  0.3215
 9314SOL    HW139401   3.930   0.566   5.414  0.5637  0.2333 -0.0072
 9314SOL    HW239402   3.986   0.438   5.433  1.1941 -0.3584 -1.1201
 9315SOL     OW39403   2.672   3.306   4.265  0.0301  0.8280 -0.3774
 9315SOL    HW139404   2.660   3.322   4.172  1.9940 -2.8990 -1.3091
 9315SOL    HW239405   2.675   3.398   4.290  0.2328  0.8854 -0.6117
 9316SOL     OW39406   3.527   1.507   1.884 -0.1349  0.5325 -0.7552
 9316SOL    HW139407   3.522   1.430   1.940  1.0754  1.6047  0.8387
 9316SOL    HW239408   3.435   1.534   1.883 -1.2754 -3.2922  1.8643
 9317SOL     OW39409   2.933   1.407  14.713  0.0883 -0.3735 -0.3235
 9317SOL    HW139410   2.982   1.338  14.758  0.8228  1.7722  2.1691
 9317SOL    HW239411   2.842   1.376  14.708 -0.6409  1.5842  0.6764
 9318SOL     OW39412   2.798   1.469   6.428  0.0481 -0.4586  0.0568
 9318SOL    HW139413   2.875   1.416   6.447  1.9475  2.2901 -0.0349
 9318SOL    HW239414   2.721   1.425   6.465 -0.8819  1.9206  0.9462
 9319SOL     OW39415   1.378   0.953   1.996  0.3212  0.0725 -0.9465
 9319SOL    HW139416   1.407   0.874   1.950 -1.8939 -1.7834  0.8321
 9319SOL    HW239417   1.458   1.004   2.007 -0.2525  1.5426 -3.6767
 9320SOL     OW39418   1.393   1.598   0.605  0.1817 -0.3106  0.2797
 9320SOL    HW139419   1.318   1.566   0.554  0.8306  1.0702 -1.5470
 9320SOL    HW239420   1.464   1.582   0.543 -0.2538 -1.1404 -0.0113
 9321SOL     OW39421   2.834   1.611   3.555  0.1302  0.1555 -0.3091
 9321SOL    HW139422   2.910   1.578   3.508  0.4203  1.7329 -0.9562
 9321SOL    HW239423   2.870   1.691   3.594  0.7417 -0.3805  0.2227
 9322SOL     OW39424   1.245   4.535  15.640  0.3032 -0.2981  0.3306
 9322SOL    HW139425   1.330   4.562  15.673  0.5321  0.0947 -0.5672
 9322SOL    HW239426   1.266   4.527  15.546  0.1654  1.4993  0.1486
 9323SOL     OW39427   3.276   2.898  13.964  0.6290  0.4102 -0.1198
 9323SOL    HW139428   3.347   2.848  14.005 -2.0937 -1.7976  1.9524
 9323SOL    HW239429   3.203   2.859  14.012 -1.1343  3.2535 -0.5113
 9324SOL     OW39430   1.526   0.279   3.150  0.1977 -0.1655  0.4238
 9324SOL    HW139431   1.577   0.199   3.151  0.0636 -0.2422  2.4157
 9324SOL    HW239432   1.478   0.272   3.068  1.2070  0.8520 -0.2467
 9325SOL     OW39433   3.962   0.261   5.409  0.6049 -0.1400  0.0386
 9325SOL    HW139434   4.046   0.237   5.448  0.8687  0.0024 -0.4365
 9325SOL    HW239435   3.917   0.180   5.430  0.5290 -0.0958  0.0436
 9326SOL     OW39436   4.122   2.147   8.770 -0.6752  0.0660 -0.0736
 9326SOL    HW139437   4.071   2.068   8.749 -2.2535  0.4785  2.2738
 9326SOL    HW239438   4.194   2.126   8.711 -0.1530  1.2996  0.1433
 9327SOL     OW39439   3.496   3.981  15.673 -0.4036 -0.5201  0.4824
 9327SOL    HW139440   3.501   3.929  15.593  1.8231  1.6267 -0.7781
 9327SOL    HW239441   3.454   4.060  15.639 -1.1617 -1.4209 -0.6669
 9328SOL     OW39442   3.332   0.167  15.564  0.0174 -0.0460  0.0125
 9328SOL    HW139443   3.387   0.174  15.486  0.3593  1.8037  0.4293
 9328SOL    HW239444   3.318   0.072  15.559 -0.7907  0.0874 -0.2710
 9329SOL     OW39445   3.201   0.648   4.759  0.2471  0.3680 -0.5312
 9329SOL    HW139446   3.111   0.671   4.782  0.8581 -0.6992  2.9952
 9329SOL    HW239447   3.222   0.724   4.705 -1.3341  1.4241  0.3313
 9330SOL     OW39448   1.613   3.305  11.808  0.1649 -0.0758 -0.5785
 9330SOL    HW139449   1.628   3.399  11.809  1.8236 -0.3539  0.3782
 9330SOL    HW239450   1.700   3.267  11.822  0.1277  1.0798  2.6647
 9331SOL     OW39451   0.872   0.615   6.467  0.1598  0.1436 -0.7697
 9331SOL    HW139452   0.879   0.523   6.492  1.5373  0.2039 -0.9643
 9331SOL    HW239453   0.959   0.653   6.465  0.6874 -1.0976 -1.4730
 9332SOL     OW39454   2.458   0.840   9.480  0.4194  0.0935 -0.0684
 9332SOL    HW139455   2.508   0.805   9.405  3.9506  1.2253  1.7386
 9332SOL    HW239456   2.499   0.783   9.545  0.1342 -2.7499 -2.3598
 9333SOL     OW39457   4.577   1.748   4.797 -0.1186  0.1372  0.2089
 9333SOL    HW139458   4.656   1.795   4.824  1.3050 -1.1032 -1.7918
 9333SOL    HW239459   4.522   1.826   4.791 -1.4494 -0.6656  2.0194
 9334SOL     OW39460   0.217   4.722  17.407  0.0453  0.1024 -0.5379
 9334SOL    HW139461   0.270   4.672  17.469  0.3052 -0.4926 -1.2383
 9334SOL    HW239462   0.129   0.011  17.443  0.5902  1.5384  0.2516
 9335SOL     OW39463   3.036   3.102   5.872 -0.1257  0.0201  0.5605
 9335SOL    HW139464   2.975   3.028   5.874  0.3844 -0.3628  2.0206
 9335SOL    HW239465   3.015   3.128   5.782 -2.3298 -1.7256  0.5814
 9336SOL     OW39466   4.272   4.199  16.034  0.3635 -0.5656  0.7772
 9336SOL    HW139467   4.304   4.252  16.108 -0.9136  1.5785 -0.1962
 9336SOL    HW239468   4.180   4.202  16.063  0.3013 -1.5953  0.6879
 9337SOL     OW39469   1.139   1.560   3.875 -0.0237 -0.1364  0.1561
 9337SOL    HW139470   1.090   1.624   3.822  0.2527  0.4306  0.5846
 9337SOL    HW239471   1.121   1.599   3.960  2.0318 -0.5746  0.7772
 9338SOL     OW39472   2.504   3.369   8.415 -0.2070 -0.1343  0.2020
 9338SOL    HW139473   2.496   3.348   8.322  1.7118  3.2689 -0.7027
 9338SOL    HW239474   2.554   3.293   8.447  0.6046 -0.1119 -1.0075
 9339SOL     OW39475   1.120   0.777  10.555 -0.3063  0.5809  0.6693
 9339SOL    HW139476   1.173   0.712  10.509 -3.0089 -1.8892  1.0504
 9339SOL    HW239477   1.165   0.805  10.635  2.9336 -1.3924 -0.4713
 9340SOL     OW39478   4.123   3.760   7.457  0.4039 -0.0075 -0.5155
 9340SOL    HW139479   4.181   3.803   7.393  1.5103  0.4734  0.8081
 9340SOL    HW239480   4.142   3.673   7.424  0.9881  0.0408 -0.3145
 9341SOL     OW39481   2.750   2.727   9.561  0.0363 -0.1312 -0.1383
 9341SOL    HW139482   2.807   2.802   9.547  0.9072 -0.2277  2.8570
 9341SOL    HW239483   2.729   2.685   9.478  1.7404  0.1072 -0.6743
 9342SOL     OW39484   1.488   0.345  11.767 -0.0996 -0.2329 -0.6178
 9342SOL    HW139485   1.528   0.353  11.680 -0.9001 -0.2485 -0.9811
 9342SOL    HW239486   1.436   0.425  11.773 -0.9131 -1.0036  2.3916
 9343SOL     OW39487   1.896   0.338   7.644  0.2962 -0.2313 -0.2910
 9343SOL    HW139488   1.867   0.369   7.730  3.0230  0.4701  0.3821
 9343SOL    HW239489   1.983   0.376   7.632 -0.4949  2.0155  1.0610
 9344SOL     OW39490   1.995   3.478   2.782 -0.2532 -0.1429  0.2248
 9344SOL    HW139491   1.983   3.506   2.873  0.1505 -1.5265  0.7067
 9344SOL    HW239492   2.037   3.555   2.745 -2.1245  0.2364 -1.1007
 9345SOL     OW39493   2.019   4.529  10.491 -0.2496  0.1128 -0.3519
 9345SOL    HW139494   2.072   4.596  10.534  0.1253 -0.7986  0.6112
 9345SOL    HW239495   2.073   4.453  10.514 -1.2309 -0.2516  0.7666
 9346SOL     OW39496   2.529   0.099  15.654 -0.0700  0.2036  0.7517
 9346SOL    HW139497   2.516   0.116  15.561 -0.4136  0.3216  0.8184
 9346SOL    HW239498   2.519   0.191  15.678 -0.0444  0.3140  0.3442
 9347SOL     OW39499   1.479   1.915   7.840 -0.3624  0.0610 -0.6553
 9347SOL    HW139500   1.461   2.008   7.827  2.3077  0.7013  0.2786
 9347SOL    HW239501   1.389   1.883   7.842 -0.6964  1.0785  0.3410
 9348SOL     OW39502   0.149   0.159   7.314  0.0862  0.2243  0.1326
 9348SOL    HW139503   0.217   0.093   7.330 -0.1694  0.1466  0.8806
 9348SOL    HW239504   0.102   0.121   7.240  0.9850  0.6466 -0.6606
 9349SOL     OW39505   3.752   1.925  12.886 -0.0142  0.4605 -1.0114
 9349SOL    HW139506   3.734   1.990  12.954 -1.9428 -0.0393 -1.0299
 9349SOL    HW239507   3.837   1.888  12.909 -0.4608  1.3236  2.0488
 9350SOL     OW39508   0.200   4.125   6.681  0.0212  0.2767 -0.3850
 9350SOL    HW139509   0.196   4.134   6.586  0.1231 -4.1151 -0.8012
 9350SOL    HW239510   0.193   4.218   6.702 -1.7724  0.6185 -2.4819
 9351SOL     OW39511   0.848   2.246  10.863  0.9394 -0.3018 -0.1800
 9351SOL    HW139512   0.885   2.158  10.872  1.0790 -0.1330  0.9111
 9351SOL    HW239513   0.838   2.275  10.954  2.2309  2.4592 -0.9293
 9352SOL     OW39514   1.767   3.861  14.204  0.2199  0.0405 -0.4733
 9352SOL    HW139515   1.798   3.785  14.254 -0.2253 -0.3046 -0.7254
 9352SOL    HW239516   1.730   3.828  14.122 -2.6006 -0.4373  0.9893
 9353SOL     OW39517   0.511   4.134   7.987  0.0150 -0.5150 -0.2123
 9353SOL    HW139518   0.500   4.102   7.898 -1.6275  0.0113 -0.1902
 9353SOL    HW239519   0.447   4.083   8.037 -0.0038  0.5342  0.8510
 9354SOL     OW39520   3.442   3.839   6.807 -0.2546  0.1579  0.0145
 9354SOL    HW139521   3.358   3.854   6.763 -0.2219 -3.1998 -1.1536
 9354SOL    HW239522   3.493   3.917   6.783  1.1855 -0.4062  1.2450
 9355SOL     OW39523   1.588   3.938   6.207 -0.4091 -0.0732  0.1770
 9355SOL    HW139524   1.503   3.982   6.205  0.0183  0.7406 -0.1216
 9355SOL    HW239525   1.645   4.009   6.237  0.2154 -1.6965  2.8426
 9356SOL     OW39526   3.188   0.929  13.792 -0.4528 -0.1798 -0.0944
 9356SOL    HW139527   3.196   0.890  13.705  1.3865  0.9451 -0.4361
 9356SOL    HW239528   3.171   1.023  13.784  0.6996  0.2474  2.6004
 9357SOL     OW39529   3.714   0.867  15.814 -0.0352 -0.4290  0.1919
 9357SOL    HW139530   3.785   0.874  15.878  1.5437 -1.8115 -1.3999
 9357SOL    HW239531   3.667   0.949  15.830 -0.0146 -0.1720 -1.0124
 9358SOL     OW39532   3.597   1.614   1.179 -0.2732  0.3383  0.4085
 9358SOL    HW139533   3.510   1.594   1.214  0.3392 -1.5513  0.8470
 9358SOL    HW239534   3.576   1.693   1.131 -2.9311 -1.7780 -1.9126
 9359SOL     OW39535   2.961   0.813   8.764 -0.2971  0.0719  0.5911
 9359SOL    HW139536   2.919   0.899   8.758 -1.8733 -0.7232  0.1497
 9359SOL    HW239537   2.883   0.760   8.780 -1.3031  1.7160  1.1644
 9360SOL     OW39538   2.944   0.616   3.089  0.3779 -0.1474 -0.3569
 9360SOL    HW139539   3.026   0.650   3.053  0.3558  0.4588  0.1696
 9360SOL    HW239540   2.903   0.573   3.014  1.2649 -0.0418 -0.8956
 9361SOL     OW39541   3.175   1.856  10.450  0.3136 -0.4428 -0.4216
 9361SOL    HW139542   3.119   1.779  10.464  1.4356 -1.1755  0.1163
 9361SOL    HW239543   3.227   1.817  10.380  0.0555  1.4035 -1.6282
 9362SOL     OW39544   1.947   2.077   3.587 -0.0205  0.2901  0.3076
 9362SOL    HW139545   1.880   2.031   3.639 -0.5026  0.8830  0.2080
 9362SOL    HW239546   1.915   2.065   3.498 -2.0016 -3.0699  1.4480
 9363SOL     OW39547   1.077   0.452   4.487 -0.5949  0.3638 -0.1559
 9363SOL    HW139548   1.123   0.420   4.564  0.3942 -0.7001 -1.2045
 9363SOL    HW239549   0.983   0.443   4.505 -0.4636 -1.6773 -0.5920
 9364SOL     OW39550   2.473   1.933   1.970  0.3059 -0.0600  0.1231
 9364SOL    HW139551   2.492   1.986   2.047  2.6494 -1.0505  0.2207
 9364SOL    HW239552   2.563   1.903   1.953  0.1048  0.0329 -1.0993
 9365SOL     OW39553   0.859   4.699   3.752  0.0226 -0.4496  0.1290
 9365SOL    HW139554   0.784   4.659   3.797  0.8712 -1.6110  0.5005
 9365SOL    HW239555   0.813   0.038   3.696  2.9535  0.6244 -1.0658
 9366SOL     OW39556   2.737   2.733   9.136  0.3830  0.2321 -0.4242
 9366SOL    HW139557   2.813   2.678   9.156 -0.4660  0.3336  3.0349
 9366SOL    HW239558   2.697   2.666   9.081  0.8585 -1.6691  1.5659
 9367SOL     OW39559   3.126   0.933   1.717 -0.5139 -0.4523  0.1103
 9367SOL    HW139560   3.032   0.944   1.735 -0.1946  0.7590  1.0438
 9367SOL    HW239561   3.127   0.894   1.630  0.8362 -1.1985  0.4671
 9368SOL     OW39562   2.059   3.280   0.721  0.1742  0.3261 -0.3231
 9368SOL    HW139563   2.126   3.264   0.787  1.4208  1.9345 -1.1966
 9368SOL    HW239564   2.025   3.366   0.747  0.3240 -0.2984  1.8765
 9369SOL     OW39565   0.068   2.448   3.827  0.2930 -0.1346  0.3602
 9369SOL    HW139566   0.037   2.538   3.816  0.8759  0.0500  0.2308
 9369SOL    HW239567   0.154   2.456   3.785  0.2415  0.0345  0.2896
 9370SOL     OW39568   4.129   0.388   9.950 -0.1407 -0.4895  0.2147
 9370SOL    HW139569   4.092   0.474   9.972  1.4878  0.4224 -0.5936
 9370SOL    HW239570   4.099   0.340  10.028 -0.8877 -0.0899  0.1728
 9371SOL     OW39571   3.984   3.881   5.185 -0.5247  0.8459  0.4154
 9371SOL    HW139572   4.021   3.948   5.243  1.5039 -0.1210  0.2221
 9371SOL    HW239573   3.902   3.862   5.231 -0.1485 -1.7104  0.0053
 9372SOL     OW39574   3.963   0.148   6.571  0.2404  0.0757  0.7857
 9372SOL    HW139575   3.873   0.115   6.567  0.1964 -0.0280  2.5552
 9372SOL    HW239576   4.018   0.070   6.576 -1.0359 -0.8028  1.2590
 9373SOL     OW39577   0.346   2.590   5.322  0.6486 -0.2369  0.4172
 9373SOL    HW139578   0.413   2.629   5.265  1.4672  0.4023  1.8112
 9373SOL    HW239579   0.292   2.663   5.351  1.1552  0.0930  0.5210
 9374SOL     OW39580   0.182   0.728   6.549  0.5150  0.1554  0.1754
 9374SOL    HW139581   0.190   0.819   6.580  2.0910  0.2384 -0.4966
 9374SOL    HW239582   0.110   0.699   6.605  1.7527  1.4111  2.4106
 9375SOL     OW39583   2.122   0.774   7.697  0.0242  0.2724 -0.3613
 9375SOL    HW139584   2.183   0.750   7.767 -2.0653  2.4741  2.2135
 9375SOL    HW239585   2.173   0.830   7.638  1.0664 -1.8035 -1.4447
 9376SOL     OW39586   2.803   0.440   7.568  0.7490  0.2815  0.1822
 9376SOL    HW139587   2.751   0.427   7.648 -0.8447  1.2821 -0.6942
 9376SOL    HW239588   2.887   0.473   7.598  0.8032  0.9928 -0.7849
 9377SOL     OW39589   2.228   1.118   6.553 -0.6019 -0.2516  0.1231
 9377SOL    HW139590   2.256   1.050   6.615  1.2780 -0.6073 -1.0896
 9377SOL    HW239591   2.161   1.067   6.507 -0.1078  0.7169 -1.6675
 9378SOL     OW39592   1.518   3.184  17.570 -0.5942  0.8291  0.2081
 9378SOL    HW139593   1.537   3.274  17.598  0.1240  0.3192  1.3509
 9378SOL    HW239594   1.531   3.197  17.476  1.1310  1.8607  0.5939
 9379SOL     OW39595   4.311   3.321  11.211 -0.0516 -0.2145  0.0263
 9379SOL    HW139596   4.352   3.406  11.228  0.3815 -0.5576  0.7135
 9379SOL    HW239597   4.365   3.262  11.264 -0.6355 -1.1100 -0.3620
 9380SOL     OW39598   1.823   3.713  15.454  0.0951 -0.4138 -0.0989
 9380SOL    HW139599   1.738   3.669  15.453 -1.1756  2.0612 -0.5566
 9380SOL    HW239600   1.790   3.795  15.418  1.0687  0.0937  0.1606
 9381SOL     OW39601   3.524   0.581  10.077  0.4448 -0.4322  0.9570
 9381SOL    HW139602   3.606   0.584  10.028 -0.4015  0.5237 -0.4171
 9381SOL    HW239603   3.570   0.553  10.156  0.7432  0.4377  1.1022
 9382SOL     OW39604   0.572   3.937  13.103 -0.0213 -0.3154 -0.2260
 9382SOL    HW139605   0.521   3.967  13.028 -0.5301 -3.1384 -1.0099
 9382SOL    HW239606   0.659   3.968  13.077 -0.0170  1.4659  1.8649
 9383SOL     OW39607   3.876   3.676   1.357 -0.2411 -0.2084  0.5753
 9383SOL    HW139608   3.846   3.733   1.428 -2.1188 -0.0859 -0.3159
 9383SOL    HW239609   3.956   3.718   1.326  1.8276 -2.7900  2.3696
 9384SOL     OW39610   1.014   0.430   6.804  0.2383 -0.1788  0.4348
 9384SOL    HW139611   1.084   0.428   6.739 -1.3282  2.2497 -1.3218
 9384SOL    HW239612   1.036   0.503   6.862 -1.3775  1.5477 -1.1294
 9385SOL     OW39613   2.049   2.331  13.716 -0.1296  1.0212 -0.0385
 9385SOL    HW139614   2.134   2.306  13.679 -0.2685  0.9849 -0.3277
 9385SOL    HW239615   2.044   2.420  13.682 -1.2700  1.9462  2.5001
 9386SOL     OW39616   2.120   3.088   7.129  0.9613  0.5522 -0.5630
 9386SOL    HW139617   2.090   2.998   7.122  0.0366  0.7428  0.9089
 9386SOL    HW239618   2.039   3.137   7.114  1.5445  1.6550 -0.1548
 9387SOL     OW39619   2.379   3.514   0.666 -0.4690 -0.2736 -0.2224
 9387SOL    HW139620   2.400   3.607   0.672  1.0054 -0.8101  2.8310
 9387SOL    HW239621   2.453   3.470   0.624  0.3889  1.2084 -0.2683
 9388SOL     OW39622   4.320   0.543   3.809 -0.3215  0.2554 -0.5765
 9388SOL    HW139623   4.237   0.584   3.834 -0.0527  1.0191 -0.9134
 9388SOL    HW239624   4.376   0.539   3.886  1.7056  0.3841 -2.0213
 9389SOL     OW39625   0.237   0.550   1.965  0.2285  0.1428  0.2469
 9389SOL    HW139626   0.155   0.599   1.968  1.2937  1.7048  2.8769
 9389SOL    HW239627   0.227   0.498   1.885  1.5575 -3.3818  2.3822
 9390SOL     OW39628   2.060   4.487   1.099 -0.1865 -0.2027  0.0668
 9390SOL    HW139629   1.979   4.438   1.089  0.3520 -0.9227 -0.7500
 9390SOL    HW239630   2.024   4.564   1.054 -1.6850 -0.4026  0.9191
 9391SOL     OW39631   3.927   0.608   4.723  0.3410 -0.0766 -0.2381
 9391SOL    HW139632   3.883   0.552   4.659  2.5247 -0.1575 -1.6693
 9391SOL    HW239633   3.857   0.635   4.782  0.4309  1.8957 -1.0556
 9392SOL     OW39634   3.343   2.853   3.020 -0.1000  0.2955  0.1956
 9392SOL    HW139635   3.251   2.829   3.029 -0.6243  2.0578 -0.5756
 9392SOL    HW239636   3.364   2.920   3.085  2.7521 -2.4140  2.0617
 9393SOL     OW39637   4.646   0.241  14.301 -0.3376 -0.2451  0.0254
 9393SOL    HW139638   4.690   0.326  14.311  0.7105 -0.9013  1.0126
 9393SOL    HW239639   4.578   0.256  14.367  0.5719  1.6887  0.5092
 9394SOL     OW39640   1.520   3.830   9.844 -0.4998  0.0615 -0.1115
 9394SOL    HW139641   1.608   3.868   9.836 -0.1006 -1.3089 -2.2590
 9394SOL    HW239642   1.537   3.746   9.886 -0.0630 -0.7530 -1.9118
 9395SOL     OW39643   1.073   1.671   5.539 -0.0761 -0.6396 -0.9157
 9395SOL    HW139644   1.045   1.758   5.511 -0.6417 -0.5359 -0.0167
 9395SOL    HW239645   1.118   1.630   5.465  4.2461  1.7394  0.3564
 9396SOL     OW39646   1.405   3.592   8.057  0.4783 -0.2497 -0.0806
 9396SOL    HW139647   1.382   3.566   7.967 -1.7579 -1.2539  0.7889
 9396SOL    HW239648   1.494   3.557   8.056 -0.6703 -3.1865  1.7326
 9397SOL     OW39649   4.290   1.189  14.135  0.0522 -0.4546  0.5082
 9397SOL    HW139650   4.376   1.193  14.175  0.5078  0.8743 -0.5589
 9397SOL    HW239651   4.303   1.188  14.040  0.0334 -2.0734  0.5334
 9398SOL     OW39652   2.270   1.710   3.572  0.1361  0.4180 -0.1508
 9398SOL    HW139653   2.188   1.747   3.538  0.5639  1.0008 -0.5365
 9398SOL    HW239654   2.261   1.634   3.514 -2.0248  0.7005 -0.2079
 9399SOL     OW39655   0.854   1.164   1.582  0.0971  0.1928 -0.4750
 9399SOL    HW139656   0.905   1.191   1.505  0.5531 -1.8515 -0.8942
 9399SOL    HW239657   0.919   1.150   1.651  0.7639  2.2647 -0.6722
 9400SOL     OW39658   4.681   2.153   3.396 -0.6121 -0.5016 -0.2019
 9400SOL    HW139659   0.025   2.197   3.448 -0.6733  0.6743 -1.1124
 9400SOL    HW239660   4.710   2.171   3.307 -0.9455 -0.3409 -0.2797
 9401SOL     OW39661   3.855   2.752  12.824 -0.2362 -0.0928 -0.8164
 9401SOL    HW139662   3.901   2.830  12.793  1.6584 -1.2987 -1.0967
 9401SOL    HW239663   3.849   2.767  12.919  0.2196 -0.6492 -0.6975
 9402SOL     OW39664   0.482   4.106  14.000  0.3286 -0.3258  0.2182
 9402SOL    HW139665   0.548   4.090  13.932 -0.9018 -0.7820 -0.8716
 9402SOL    HW239666   0.515   4.057  14.075  2.4912  0.5410 -0.1693
 9403SOL     OW39667   3.748   4.534   7.459 -0.9074 -0.6857 -0.3536
 9403SOL    HW139668   3.682   4.524   7.391  0.0337  0.7897 -1.4711
 9403SOL    HW239669   3.724   4.462   7.517  0.5203 -1.4142 -0.6790
 9404SOL     OW39670   4.579   3.029   1.249  0.2290  0.2820  0.2555
 9404SOL    HW139671   4.485   3.011   1.252  0.2176  0.1291 -1.1252
 9404SOL    HW239672   4.617   2.980   1.322  1.1080  0.7865  0.1461
 9405SOL     OW39673   0.238   3.127   4.644 -0.4506  0.3328  0.1511
 9405SOL    HW139674   0.313   3.080   4.610 -1.9300 -2.5867  0.8984
 9405SOL    HW239675   0.170   3.059   4.646  1.0040 -1.1153  0.8737
 9406SOL     OW39676   0.351   3.652   9.086  0.0392  1.1107 -0.5622
 9406SOL    HW139677   0.417   3.707   9.043  1.7325 -1.5182 -1.3394
 9406SOL    HW239678   0.399   3.583   9.132 -0.9212  1.3444  0.7909
 9407SOL     OW39679   0.322   1.980  15.944 -0.0369 -0.6954  0.1623
 9407SOL    HW139680   0.317   2.068  15.907  1.4634 -2.5009 -4.3883
 9407SOL    HW239681   0.241   1.937  15.916  0.5514 -1.2622 -0.6934
 9408SOL     OW39682   3.943   1.961   8.656 -0.4798 -1.0476  0.2450
 9408SOL    HW139683   3.975   1.871   8.653 -0.9818 -1.2773  2.0365
 9408SOL    HW239684   3.849   1.943   8.660 -1.3050  3.0309 -0.7559
 9409SOL     OW39685   2.409   1.210   8.750 -0.4842  0.1974  0.5767
 9409SOL    HW139686   2.413   1.287   8.806  0.6942  0.1744  0.5403
 9409SOL    HW239687   2.421   1.142   8.816 -1.4618  0.8475  1.4231
 9410SOL     OW39688   2.523   2.628   3.887  0.4274  0.0290  0.4187
 9410SOL    HW139689   2.529   2.557   3.822  0.6273  0.1446  0.3109
 9410SOL    HW239690   2.429   2.642   3.899  0.2729 -0.8175  0.2055
 9411SOL     OW39691   3.747   2.848   9.675 -0.5408  0.3747 -0.4486
 9411SOL    HW139692   3.786   2.935   9.671 -0.5234  0.3211 -1.6555
 9411SOL    HW239693   3.819   2.786   9.662 -0.0812  0.9456 -0.6368
 9412SOL     OW39694   3.250   0.861   6.742 -0.4290 -0.5247 -0.0343
 9412SOL    HW139695   3.345   0.867   6.735 -0.2855 -0.1919  2.1277
 9412SOL    HW239696   3.224   0.953   6.739  1.8909  0.1459  0.5598
 9413SOL     OW39697   3.242   1.638   2.979 -0.1916  0.0816 -0.4090
 9413SOL    HW139698   3.315   1.699   2.983 -1.9409  2.3550 -3.3920
 9413SOL    HW239699   3.270   1.582   2.906 -0.4565  1.6181 -1.6985
 9414SOL     OW39700   1.320   2.230   5.065 -0.3489 -0.5996  0.2666
 9414SOL    HW139701   1.377   2.218   4.988  1.7640 -0.1906  1.7624
 9414SOL    HW239702   1.310   2.143   5.104  0.0183 -0.7726 -0.0176
 9415SOL     OW39703   3.009   1.623  13.535  0.4519  0.0855  0.4730
 9415SOL    HW139704   2.993   1.553  13.472  2.2675  0.2657 -0.1920
 9415SOL    HW239705   2.920   1.656  13.540  0.8659  1.3712 -0.5892
 9416SOL     OW39706   1.753   3.340   3.156  0.0919  0.0047  0.1501
 9416SOL    HW139707   1.757   3.430   3.124  0.3874 -0.3200 -0.7047
 9416SOL    HW239708   1.661   3.327   3.134  0.2326 -1.5549  0.4869
 9417SOL     OW39709   2.208   2.987   0.985  0.3775  0.0704  0.3861
 9417SOL    HW139710   2.232   2.896   0.971  2.3185  0.5520  0.5886
 9417SOL    HW239711   2.130   2.967   1.038 -0.6067  0.1120 -1.0287
 9418SOL     OW39712   2.428   1.486   5.937 -0.0252  0.0787 -0.1858
 9418SOL    HW139713   2.462   1.403   5.970 -1.9791 -0.5741  0.1957
 9418SOL    HW239714   2.448   1.554   6.001  0.4878 -0.7129  0.4883
 9419SOL     OW39715   2.843   2.248   3.301 -0.0734 -0.3115 -0.0512
 9419SOL    HW139716   2.752   2.268   3.280  0.3595  0.1990 -1.4385
 9419SOL    HW239717   2.874   2.339   3.311  0.5921 -0.6549  0.9665
 9420SOL     OW39718   3.714   1.871   4.606 -0.3448 -0.4140 -0.0410
 9420SOL    HW139719   3.761   1.848   4.526  1.0621 -0.1952  0.7387
 9420SOL    HW239720   3.700   1.783   4.639  0.5801 -0.2495  0.7819
 9421SOL     OW39721   3.122   3.651   7.423  0.4274 -0.4827  0.4041
 9421SOL    HW139722   3.055   3.587   7.396 -0.4709 -0.0272  1.5342
 9421SOL    HW239723   3.110   3.679   7.514 -2.7273  0.0215 -0.1573
 9422SOL     OW39724   2.794   3.572   5.057 -0.0054 -0.4133 -0.5992
 9422SOL    HW139725   2.883   3.538   5.054  1.5746  3.7917 -1.0041
 9422SOL    HW239726   2.795   3.640   4.990  0.5169  0.1553 -0.0080
 9423SOL     OW39727   3.256   0.145   3.301 -0.0929 -0.5210  0.0531
 9423SOL    HW139728   3.206   0.221   3.332 -0.0655 -0.9810  1.2359
 9423SOL    HW239729   3.222   0.086   3.369 -2.9322 -0.5434 -1.3877
 9424SOL     OW39730   0.786   4.536  16.847  0.3302  0.4708 -0.3916
 9424SOL    HW139731   0.772   4.445  16.874 -2.2113  0.9994  0.0964
 9424SOL    HW239732   0.704   4.576  16.875 -1.2005 -1.7156 -1.7889
 9425SOL     OW39733   1.930   4.442  11.393  0.0521 -0.2179 -0.2657
 9425SOL    HW139734   2.016   4.430  11.432  1.0611  1.1551 -2.0516
 9425SOL    HW239735   1.913   4.352  11.365 -1.9010  0.3592 -0.9445
 9426SOL     OW39736   4.472   2.021   2.444  0.2723 -0.5867 -0.2279
 9426SOL    HW139737   4.449   2.061   2.527  2.9084  1.1887 -0.3526
 9426SOL    HW239738   4.567   2.021   2.438  0.2681  0.7208 -0.2557
 9427SOL     OW39739   4.018   2.884   3.743 -0.3510 -0.1355  0.4293
 9427SOL    HW139740   4.109   2.880   3.714 -0.1830  1.9337  0.6716
 9427SOL    HW239741   3.965   2.892   3.664  0.0759  0.8130  0.2442
 9428SOL     OW39742   2.881   3.261   0.950  0.5319 -0.0547 -0.2830
 9428SOL    HW139743   2.923   3.182   0.914  2.1927  1.5232 -1.7887
 9428SOL    HW239744   2.964   3.305   0.969 -0.0167  1.1540 -0.7239
 9429SOL     OW39745   3.394   0.274   4.850  0.4745  0.8074  0.0486
 9429SOL    HW139746   3.382   0.237   4.763 -2.2939  3.0074 -0.4946
 9429SOL    HW239747   3.384   0.195   4.904 -0.9736  1.1138  0.2096
 9430SOL     OW39748   1.097   0.841   1.962  0.7129  0.1668 -0.0479
 9430SOL    HW139749   1.187   0.872   1.955  1.0073 -1.0177 -1.4533
 9430SOL    HW239750   1.072   0.844   1.870 -0.2052 -1.8273  0.1260
 9431SOL     OW39751   1.212   3.096  14.279 -0.2207 -0.3457  0.0597
 9431SOL    HW139752   1.134   3.124  14.325 -0.6213 -0.1347 -0.7504
 9431SOL    HW239753   1.271   3.094  14.354 -0.1836 -1.2580  0.0098
 9432SOL     OW39754   3.236   3.976  10.358  0.4263  0.0710  0.5747
 9432SOL    HW139755   3.147   3.962  10.323  0.3947  1.9886 -0.1027
 9432SOL    HW239756   3.267   4.058  10.321  1.6115  0.0152  1.4456
 9433SOL     OW39757   0.011   1.168   9.024 -0.4344  0.3680 -0.4927
 9433SOL    HW139758   4.713   1.214   8.943 -2.0571  1.8241  0.7887
 9433SOL    HW239759   0.106   1.174   9.026 -0.4899  1.4230 -1.0546
 9434SOL     OW39760   1.200   2.529   6.009 -0.7346  0.0348 -0.4157
 9434SOL    HW139761   1.240   2.493   5.930  2.2887  1.7774  0.3054
 9434SOL    HW239762   1.111   2.553   5.985 -0.5761  0.3482 -0.6922
 9435SOL     OW39763   3.218   0.724   2.181 -0.0509 -0.3684  0.4431
 9435SOL    HW139764   3.268   0.656   2.136 -0.7602 -0.0903 -0.7566
 9435SOL    HW239765   3.193   0.784   2.111  0.3444  0.3970  0.9542
 9436SOL     OW39766   0.804   3.130   6.426 -0.1715 -0.0502 -0.0235
 9436SOL    HW139767   0.790   3.156   6.335  1.0887  1.0901  0.1102
 9436SOL    HW239768   0.723   3.147   6.475  0.3292  0.5480  0.5880
 9437SOL     OW39769   2.055   4.598   2.511 -0.3729  0.3926  0.2170
 9437SOL    HW139770   2.041   4.572   2.602  2.9499 -0.4244  0.5081
 9437SOL    HW239771   2.149   4.617   2.503  0.0383 -0.9604  1.9010
 9438SOL     OW39772   1.273   1.908   5.768  0.3753 -0.0715 -0.0097
 9438SOL    HW139773   1.191   1.935   5.809  1.6300  0.6783  2.0099
 9438SOL    HW239774   1.294   1.851   5.842 -0.6465  1.9904  1.8462
 9439SOL     OW39775   3.255   1.940   8.647  0.0160  0.2384  0.7958
 9439SOL    HW139776   3.231   1.847   8.647 -0.8504  0.4811 -1.7418
 9439SOL    HW239777   3.307   1.938   8.728  2.4622  0.7538 -0.7633
 9440SOL     OW39778   2.537   1.168   7.957 -0.6954  0.2117  0.4778
 9440SOL    HW139779   2.487   1.140   8.034 -0.6399 -1.1842  0.0036
 9440SOL    HW239780   2.541   1.087   7.906 -1.3697 -0.2205  1.1156
 9441SOL     OW39781   1.215   0.751   1.087 -0.1519  0.1519 -0.4670
 9441SOL    HW139782   1.207   0.843   1.114  1.2925  0.3349 -0.6645
 9441SOL    HW239783   1.247   0.712   1.168  0.0036 -0.5091 -0.8443
 9442SOL     OW39784   2.955   4.021   2.542 -0.1702  0.2078 -0.0510
 9442SOL    HW139785   2.938   4.039   2.634 -0.6950 -2.3926  0.3495
 9442SOL    HW239786   2.934   3.928   2.535 -1.0943  0.5340 -1.7700
 9443SOL     OW39787   0.517   2.869   2.880 -0.1133 -0.1953 -0.2073
 9443SOL    HW139788   0.458   2.821   2.822  1.0508 -3.5228  1.3191
 9443SOL    HW239789   0.601   2.839   2.845 -1.5313 -1.1740 -2.7656
 9444SOL     OW39790   4.173   2.287   6.001  0.1260 -0.3599  0.0776
 9444SOL    HW139791   4.205   2.203   6.032 -0.9785 -1.2745 -1.2745
 9444SOL    HW239792   4.101   2.257   5.945 -0.7023  2.2094 -0.2380
 9445SOL     OW39793   4.468   2.178   6.938  0.5116  0.6826  0.1170
 9445SOL    HW139794   4.432   2.242   6.999 -3.0103 -1.4661  0.2649
 9445SOL    HW239795   4.544   2.228   6.907  0.0015  2.7588  2.2081
 9446SOL     OW39796   2.225   1.817   6.021  0.6370 -0.2597 -0.6573
 9446SOL    HW139797   2.218   1.903   6.062 -1.9371 -1.3141  1.0892
 9446SOL    HW239798   2.296   1.823   5.957 -1.7616 -1.0691 -3.3855
 9447SOL     OW39799   3.437   0.130   8.390  0.2978 -0.0096  0.1553
 9447SOL    HW139800   3.506   0.124   8.456 -1.3732  1.4297  2.0203
 9447SOL    HW239801   3.367   0.083   8.435 -0.9966  2.6680  0.9620
 9448SOL     OW39802   3.388   3.863  12.283  0.2146 -0.0246 -0.1804
 9448SOL    HW139803   3.440   3.783  12.289  2.7878  1.8072  1.6389
 9448SOL    HW239804   3.449   3.933  12.306  0.5142 -0.8366  1.5194
 9449SOL     OW39805   3.150   4.554   3.590  0.3050  0.1832 -0.1672
 9449SOL    HW139806   3.084   4.487   3.610  2.9098 -1.7400  1.9278
 9449SOL    HW239807   3.124   4.621   3.652 -1.0587  1.1882 -1.8226
 9450SOL     OW39808   4.689   0.518   0.824  0.1062  0.1890 -0.0769
 9450SOL    HW139809   4.691   0.435   0.777  0.8571  0.6487 -0.8544
 9450SOL    HW239810   4.659   0.568   0.749  0.3646 -0.6895 -0.7593
 9451SOL     OW39811   3.879   0.262   0.652 -0.1230 -0.2499  0.7070
 9451SOL    HW139812   3.850   0.350   0.674  0.5656  0.4595 -1.2529
 9451SOL    HW239813   3.973   0.276   0.658  0.0470 -0.5579 -1.1175
 9452SOL     OW39814   3.493   0.889   5.007 -0.1289 -0.0247  0.1627
 9452SOL    HW139815   3.417   0.844   5.045 -0.0801  0.5073  0.8900
 9452SOL    HW239816   3.528   0.823   4.947 -0.0802  0.5525 -0.4499
 9453SOL     OW39817   1.726   2.387  16.020 -0.2153 -0.2765 -0.2114
 9453SOL    HW139818   1.704   2.477  16.044 -3.6052 -0.7777 -1.4304
 9453SOL    HW239819   1.821   2.381  16.032 -0.0402  0.6481 -1.1027
 9454SOL     OW39820   2.119   3.994   6.419 -0.4018  0.1753 -0.1910
 9454SOL    HW139821   2.157   3.947   6.346  2.7255  1.0770  0.8867
 9454SOL    HW239822   2.095   4.071   6.368 -4.2626 -0.3120  0.8623
 9455SOL     OW39823   4.539   1.583   2.679  0.5078  0.5805 -0.1303
 9455SOL    HW139824   4.468   1.519   2.680  0.4898  0.6104  0.2652
 9455SOL    HW239825   4.553   1.580   2.773 -2.1147  0.4560  0.2565
 9456SOL     OW39826   3.963   4.446  16.699  0.3412  0.0423  0.5100
 9456SOL    HW139827   3.871   4.473  16.705  0.9931  1.7966  2.6816
 9456SOL    HW239828   4.008   4.522  16.736 -0.4623 -0.0276  1.6386
 9457SOL     OW39829   1.752   0.924   7.113 -0.4500 -0.0128  0.8180
 9457SOL    HW139830   1.669   0.964   7.086  0.6381  1.1943 -0.7477
 9457SOL    HW239831   1.747   0.944   7.206  1.1264 -1.3550  1.1934
 9458SOL     OW39832   1.866   2.243   7.391 -0.3386  0.6522 -0.0307
 9458SOL    HW139833   1.879   2.149   7.383 -4.3387  0.1838 -1.0724
 9458SOL    HW239834   1.771   2.249   7.401 -0.9506 -1.8851 -4.4262
 9459SOL     OW39835   3.836   0.236   9.384 -0.4219 -0.6509  0.3230
 9459SOL    HW139836   3.836   0.155   9.334 -1.1154  0.4902 -1.5226
 9459SOL    HW239837   3.898   0.212   9.454  0.2539 -2.4372 -0.8702
 9460SOL     OW39838   0.875   3.643  10.441  0.2296  0.5436  0.1748
 9460SOL    HW139839   0.947   3.596  10.398  0.0569 -0.0582  0.5416
 9460SOL    HW239840   0.818   3.568  10.459  0.9503 -0.0653 -0.0342
 9461SOL     OW39841   2.670   1.644   8.936  0.5311  0.0054 -0.1723
 9461SOL    HW139842   2.618   1.566   8.956  1.0191 -0.1744  0.4083
 9461SOL    HW239843   2.700   1.619   8.849 -0.1033  0.2550 -0.4626
 9462SOL     OW39844   2.359   3.364  17.625 -0.3609  0.1817  0.1576
 9462SOL    HW139845   2.325   3.318   0.004 -0.9881 -0.8936 -0.7653
 9462SOL    HW239846   2.288   3.350  17.563 -0.0529  3.3616 -0.9064
 9463SOL     OW39847   1.804   1.277   2.307  0.5944  0.1441 -0.0075
 9463SOL    HW139848   1.718   1.280   2.349 -0.0859  0.2489 -1.4055
 9463SOL    HW239849   1.778   1.332   2.233  1.7586 -1.0253 -1.2784
 9464SOL     OW39850   0.014   4.182  10.558 -0.1625  0.8813 -0.1817
 9464SOL    HW139851   0.106   4.164  10.539 -0.4807 -2.9809  1.8470
 9464SOL    HW239852   4.709   4.229  10.480 -1.5809 -0.5227 -0.4923
 9465SOL     OW39853   0.323   2.776   5.062  0.5256  0.6384 -0.4186
 9465SOL    HW139854   0.416   2.779   5.084  1.0062 -1.6282 -2.1259
 9465SOL    HW239855   0.305   2.870   5.065  2.0652  0.9463 -1.0621
 9466SOL     OW39856   2.916   3.399   0.294  0.5016  0.7534  0.1162
 9466SOL    HW139857   2.925   3.363   0.382 -0.9715 -0.6913 -0.3296
 9466SOL    HW239858   2.953   3.329   0.241  0.9655 -0.3945  1.9570
 9467SOL     OW39859   0.055   0.041   4.164 -0.0483  0.0950 -0.2913
 9467SOL    HW139860   0.116   0.096   4.213 -0.6065  0.9848 -0.5829
 9467SOL    HW239861   4.709   0.107   4.164 -0.3863 -0.2674  1.9045
 9468SOL     OW39862   4.497   3.941   6.294  0.1968 -0.0498 -0.4776
 9468SOL    HW139863   4.411   3.899   6.299 -0.7755  1.5801 -3.7742
 9468SOL    HW239864   4.541   3.878   6.237 -1.7509 -3.0957  1.3689
 9469SOL     OW39865   3.564   1.153   3.945 -0.2938 -0.2794 -0.3174
 9469SOL    HW139866   3.612   1.198   4.014 -0.1140 -1.8787  0.5770
 9469SOL    HW239867   3.489   1.116   3.991 -0.4719 -0.8037 -1.0341
 9470SOL     OW39868   1.510   0.863   6.440 -0.0899 -0.1537 -0.5606
 9470SOL    HW139869   1.490   0.955   6.457 -2.7560 -0.7813 -0.2520
 9470SOL    HW239870   1.536   0.843   6.530 -0.2283 -1.4851 -0.8087
 9471SOL     OW39871   4.293   1.437  12.331  0.2109 -0.2439 -0.5723
 9471SOL    HW139872   4.218   1.486  12.297  0.5055 -1.0321 -2.3733
 9471SOL    HW239873   4.270   1.420  12.422  0.4316 -0.7630 -0.6096
 9472SOL     OW39874   4.453   4.308   9.417  0.8015 -0.0641  0.2281
 9472SOL    HW139875   4.538   4.353   9.413  2.0488 -2.3432  0.7778
 9472SOL    HW239876   4.413   4.325   9.332 -1.9962 -0.9331  1.3647
 9473SOL     OW39877   1.286   1.780   9.081 -0.5553 -0.2693  0.1252
 9473SOL    HW139878   1.340   1.816   9.011  0.8854 -2.4286  0.1593
 9473SOL    HW239879   1.201   1.797   9.040 -0.2003 -0.9702 -0.9038
 9474SOL     OW39880   2.256   2.254   1.004  0.8436 -0.7907  0.2898
 9474SOL    HW139881   2.308   2.179   1.032  1.3792 -0.8523 -0.8859
 9474SOL    HW239882   2.252   2.249   0.908  0.3745  0.2354  0.2507
 9475SOL     OW39883   3.575   1.106   1.716 -0.6633  0.6938 -0.1520
 9475SOL    HW139884   3.671   1.111   1.717 -0.5196 -1.4339 -1.8298
 9475SOL    HW239885   3.552   1.101   1.809  1.6481  0.5918  0.4215
 9476SOL     OW39886   1.142   3.905   6.021  0.6858 -0.3020  0.7535
 9476SOL    HW139887   1.188   3.851   6.084 -0.1592 -3.4490 -1.3526
 9476SOL    HW239888   1.210   3.949   5.971 -0.6020  0.3452 -0.4310
 9477SOL     OW39889   3.699   2.063   7.467 -0.3459 -0.5006  0.1120
 9477SOL    HW139890   3.767   2.090   7.405 -0.5014  2.4786  1.2207
 9477SOL    HW239891   3.747   2.028   7.542 -1.2669  0.0425  0.9490
 9478SOL     OW39892   4.594   0.967   6.605 -0.1438  0.0220 -0.1273
 9478SOL    HW139893   4.503   0.992   6.590 -0.4993 -1.8887 -1.0931
 9478SOL    HW239894   4.600   0.981   6.700  4.8246 -1.6983 -0.1684
 9479SOL     OW39895   0.832   1.016   0.804  0.4506  0.2917 -0.1371
 9479SOL    HW139896   0.914   1.029   0.758  0.1990  0.2130 -0.6015
 9479SOL    HW239897   0.858   1.024   0.896 -2.2906  0.0654  0.6540
 9480SOL     OW39898   1.118   1.154   7.057  0.0547 -0.0130  0.3456
 9480SOL    HW139899   1.042   1.195   7.016 -0.5013 -1.8466 -0.4537
 9480SOL    HW239900   1.178   1.205   7.002  1.3681 -1.5488  0.3453
 9481SOL     OW39901   1.222   2.367   8.687 -0.0136 -0.1053  0.3764
 9481SOL    HW139902   1.179   2.422   8.753  2.2396  0.2032  1.5903
 9481SOL    HW239903   1.208   2.424   8.611 -1.9694  1.2481  1.7655
 9482SOL     OW39904   0.539   2.326   4.142 -0.4223  0.4351 -0.3804
 9482SOL    HW139905   0.468   2.382   4.172  0.6175  0.1891  2.5676
 9482SOL    HW239906   0.506   2.314   4.053  0.3114  2.3872 -0.9186
 9483SOL     OW39907   0.499   3.842  14.771  0.0867  0.2171 -0.2359
 9483SOL    HW139908   0.443   3.767  14.748 -1.0345  0.8435  0.4307
 9483SOL    HW239909   0.509   3.841  14.866 -0.7283  1.1989 -0.1412
 9484SOL     OW39910   0.918   0.945   5.778 -0.4818  0.0905 -0.1711
 9484SOL    HW139911   0.967   0.974   5.700  0.6866  0.8958  0.8545
 9484SOL    HW239912   0.981   0.977   5.843  0.0478 -2.2776  0.4665
 9485SOL     OW39913   3.838   0.157   1.499  0.2188 -0.4770 -0.4815
 9485SOL    HW139914   3.844   0.163   1.594 -0.3555 -1.8445 -0.3617
 9485SOL    HW239915   3.755   0.114   1.481 -0.1022  0.0209 -0.1981
 9486SOL     OW39916   1.723   3.064   3.411  0.1977 -0.4858 -0.1603
 9486SOL    HW139917   1.631   3.060   3.384 -0.1326  2.0824  0.5986
 9486SOL    HW239918   1.708   3.061   3.505  0.1647  3.8533  0.0008
 9487SOL     OW39919   4.662   1.769  11.091 -0.2476 -0.4829  0.2086
 9487SOL    HW139920   4.572   1.793  11.113  0.2160  1.0621  0.4295
 9487SOL    HW239921   4.705   1.853  11.107  0.5251 -1.4508  3.0657
 9488SOL     OW39922   4.180   0.066   6.847 -0.0200 -0.1901 -0.3753
 9488SOL    HW139923   4.096   0.029   6.875 -0.6074  0.3930 -1.3602
 9488SOL    HW239924   4.181   0.155   6.883  0.8056 -0.8119  1.1260
 9489SOL     OW39925   1.732   4.584   3.747  0.0032  0.1921  0.0783
 9489SOL    HW139926   1.824   4.576   3.722  0.1568 -1.0511  1.0619
 9489SOL    HW239927   1.682   4.554   3.671 -2.2858 -1.2255  2.1654
 9490SOL     OW39928   2.314   0.728   5.740 -0.1861 -0.3879  0.1208
 9490SOL    HW139929   2.354   0.786   5.805 -0.3389 -1.1903  0.9177
 9490SOL    HW239930   2.374   0.731   5.666  1.9699 -2.2693  1.8094
 9491SOL     OW39931   1.639   2.561   8.141 -0.2463  0.7417 -0.2522
 9491SOL    HW139932   1.627   2.466   8.149  1.0454  0.5087 -1.0714
 9491SOL    HW239933   1.639   2.583   8.234 -3.3714 -0.7357  0.0964
 9492SOL     OW39934   0.560   3.373   6.959 -0.0912  0.4750 -0.2349
 9492SOL    HW139935   0.636   3.321   6.936 -0.8771 -0.1200 -1.4697
 9492SOL    HW239936   0.541   3.333   7.044  1.0000 -1.4066 -0.9105
 9493SOL     OW39937   2.854   2.047   1.512 -0.0323  0.0107  0.2946
 9493SOL    HW139938   2.900   2.072   1.592 -0.1025  1.9521 -0.2614
 9493SOL    HW239939   2.876   2.119   1.453 -0.4926  0.4686  0.6793
 9494SOL     OW39940   3.066   4.341   6.760 -0.4066 -0.3883  0.2966
 9494SOL    HW139941   3.029   4.372   6.842 -0.8751 -0.3847  0.0862
 9494SOL    HW239942   2.999   4.374   6.700  0.9946 -0.7592 -1.4867
 9495SOL     OW39943   4.665   1.433   2.099  0.7147  0.1428  0.1873
 9495SOL    HW139944   4.706   1.482   2.171 -0.6009  1.7058 -0.1495
 9495SOL    HW239945   4.611   1.498   2.055  1.7473 -0.2696 -1.7044
 9496SOL     OW39946   1.534   3.707   1.934 -0.0254  0.5584 -0.1318
 9496SOL    HW139947   1.459   3.678   1.882 -0.0971 -0.0815  0.3283
 9496SOL    HW239948   1.588   3.628   1.934 -1.3695 -0.3660 -1.7709
 9497SOL     OW39949   1.488   3.317   3.043 -0.2713 -0.1368  0.1875
 9497SOL    HW139950   1.509   3.228   3.012  0.9674 -0.1144  0.9587
 9497SOL    HW239951   1.480   3.353   2.955  1.0450 -2.1110 -0.7529
 9498SOL     OW39952   4.007   1.852  12.992  0.0492 -0.0278 -0.5184
 9498SOL    HW139953   3.975   1.769  12.958  0.4905 -0.5623  0.3631
 9498SOL    HW239954   4.100   1.828  12.996 -0.6689 -2.1478  3.5065
 9499SOL     OW39955   0.641   4.559  12.883  0.2069  0.3556 -0.1621
 9499SOL    HW139956   0.577   4.500  12.924 -1.0565  0.5416 -1.8531
 9499SOL    HW239957   0.599   4.566  12.798  0.6484 -1.9891 -0.5893
 9500SOL     OW39958   4.166   0.557   4.369 -0.4285 -0.1770  0.0417
 9500SOL    HW139959   4.128   0.640   4.399  0.0916  0.0684  0.0060
 9500SOL    HW239960   4.113   0.502   4.427  1.2526 -0.5249  1.2271
 9501SOL     OW39961   4.221   3.154  16.512 -0.9982 -0.1807 -0.5945
 9501SOL    HW139962   4.221   3.149  16.608 -1.3705 -1.4361 -0.6601
 9501SOL    HW239963   4.210   3.068  16.471  0.5676 -0.4722 -0.3955
 9502SOL     OW39964   2.016   4.259   3.748 -0.3566  0.2484 -0.1301
 9502SOL    HW139965   1.937   4.262   3.694 -1.6531 -0.7146  1.7415
 9502SOL    HW239966   2.064   4.342   3.736  1.4512 -0.8224 -0.3494
 9503SOL     OW39967   4.388   4.239   4.648 -0.4916 -0.5835 -1.0830
 9503SOL    HW139968   4.443   4.313   4.672 -1.6421  0.1699 -0.7686
 9503SOL    HW239969   4.451   4.207   4.583 -0.7930 -0.7849 -1.2750
 9504SOL     OW39970   0.024   2.100   5.187 -0.0615 -0.2377 -0.0880
 9504SOL    HW139971   0.069   2.180   5.216  2.3359 -1.8885  0.6603
 9504SOL    HW239972   0.086   2.037   5.222  0.9716  0.7416 -0.1750
 9505SOL     OW39973   4.493   2.428  15.841 -0.2366  0.0486 -0.2670
 9505SOL    HW139974   4.526   2.417  15.752 -0.6220 -0.3095 -0.3635
 9505SOL    HW239975   4.556   2.371  15.885  0.7110  0.9509 -0.4305
 9506SOL     OW39976   1.935   3.266  15.928  0.7063  0.7214 -0.2248
 9506SOL    HW139977   1.966   3.199  15.867  0.7770 -0.1400  0.7624
 9506SOL    HW239978   2.012   3.271  15.985 -0.1063  2.2772  0.7235
 9507SOL     OW39979   2.592   3.804   5.048  0.1405  0.1774  0.1828
 9507SOL    HW139980   2.542   3.824   5.127  0.9125 -0.3034  0.7902
 9507SOL    HW239981   2.678   3.785   5.085 -0.5287 -2.2011  0.4945
 9508SOL     OW39982   1.993   2.083  11.590 -1.1148 -0.4433  0.0540
 9508SOL    HW139983   2.015   2.058  11.680  1.1044  2.3536  0.2909
 9508SOL    HW239984   1.918   2.139  11.607  1.1375  2.5979 -0.0209
 9509SOL     OW39985   0.234   3.287   6.802  0.2329  0.2131 -0.0957
 9509SOL    HW139986   0.193   3.232   6.734  0.7629  0.4252 -0.5879
 9509SOL    HW239987   0.301   3.326   6.745 -0.6957  2.7789  0.5600
 9510SOL     OW39988   1.100   4.279   7.389  0.1086 -0.4100 -0.0919
 9510SOL    HW139989   1.191   4.296   7.362  0.1659  2.0615  1.7091
 9510SOL    HW239990   1.112   4.227   7.469 -1.0083 -2.1491 -1.0539
 9511SOL     OW39991   0.758   2.544  13.396 -0.4704  0.2888 -0.3140
 9511SOL    HW139992   0.745   2.635  13.368  1.1764 -0.2681 -2.8987
 9511SOL    HW239993   0.702   2.496  13.335 -1.6746  0.7653  0.4082
 9512SOL     OW39994   0.946   0.588   3.463  0.4489  0.1793 -0.0615
 9512SOL    HW139995   1.034   0.573   3.430 -0.3089  1.8736 -2.8710
 9512SOL    HW239996   0.966   0.640   3.541 -2.3923  0.9367  0.1613
 9513SOL     OW39997   3.617   0.347   7.973  0.1482 -0.3726 -0.6739
 9513SOL    HW139998   3.686   0.412   7.966  1.6204 -2.2595 -3.8265
 9513SOL    HW239999   3.681   0.276   7.975  0.8278  0.1576 -3.3372
 9514SOL     OW40000   4.326   2.920   2.213 -0.3344  0.2186 -0.4599
 9514SOL    HW140001   4.266   2.990   2.239  0.5029 -0.0992  2.3067
 9514SOL    HW240002   4.380   2.955   2.143  0.0390 -0.3920 -0.4801
 9515SOL     OW40003   1.141   0.474   2.392  0.0138  0.0296 -0.1083
 9515SOL    HW140004   1.146   0.427   2.309 -0.1329 -0.7058  0.2982
 9515SOL    HW240005   1.227   0.516   2.401 -0.3307  1.2871 -2.7991
 9516SOL     OW40006   3.889   0.583   7.381  0.5644 -0.1713  0.0143
 9516SOL    HW140007   3.840   0.601   7.461  2.9044 -1.9161  1.8632
 9516SOL    HW240008   3.968   0.636   7.395 -0.3331  0.9111  0.9276
 9517SOL     OW40009   2.722   3.765   9.018 -0.6059 -0.4349  0.4992
 9517SOL    HW140010   2.716   3.680   8.974 -0.4196 -0.5469  0.6919
 9517SOL    HW240011   2.688   3.733   9.102  0.3852 -0.0953  1.0191
 9518SOL     OW40012   4.437   2.740   6.601 -0.0593 -0.2043  0.4806
 9518SOL    HW140013   4.454   2.754   6.508 -1.4002  1.1326  0.4381
 9518SOL    HW240014   4.527   2.716   6.624 -0.0610 -0.2082  0.4834
 9519SOL     OW40015   0.641   0.134   0.961 -0.0918 -0.5050  0.5462
 9519SOL    HW140016   0.734   0.111   0.957 -0.1356 -0.5174 -0.4837
 9519SOL    HW240017   0.624   0.208   1.020 -1.6652 -1.4365  1.2356
 9520SOL     OW40018   3.409   4.228  11.074 -0.6382 -0.4931  0.0467
 9520SOL    HW140019   3.500   4.258  11.084 -0.4653 -1.0334  0.0728
 9520SOL    HW240020   3.421   4.139  11.042  1.2303 -0.9028  1.8421
 9521SOL     OW40021   2.101   0.553  13.114 -0.3938 -0.1748 -0.4482
 9521SOL    HW140022   2.149   0.537  13.033 -1.3065 -1.1737 -0.7773
 9521SOL    HW240023   2.039   0.618  13.082 -1.0090  0.1493  1.3707
 9522SOL     OW40024   0.740   4.656   5.002  0.0480 -0.0658  0.0090
 9522SOL    HW140025   0.662   4.650   5.057 -1.5983 -1.6680 -2.4417
 9522SOL    HW240026   0.766   4.565   4.989 -0.8374 -0.3569  0.2714
 9523SOL     OW40027   2.637   2.283   6.394 -0.3741  0.0945  0.1792
 9523SOL    HW140028   2.640   2.342   6.318  1.7638  0.2802  0.3834
 9523SOL    HW240029   2.585   2.341   6.450  0.9777 -1.1365  2.6841
 9524SOL     OW40030   1.744   2.237  17.323  0.2892  0.1912  0.0251
 9524SOL    HW140031   1.807   2.169  17.345 -0.4269 -0.7354 -0.7738
 9524SOL    HW240032   1.792   2.320  17.319 -1.5281  1.3085  1.0461
 9525SOL     OW40033   2.988   4.660   2.758 -0.0460 -0.0493  0.0000
 9525SOL    HW140034   2.964   4.665   2.665  1.3780  1.0691 -0.2989
 9525SOL    HW240035   3.046   4.584   2.755  0.5583  0.4512 -1.1595
 9526SOL     OW40036   0.825   0.054   3.248 -0.1067  0.3832 -0.0277
 9526SOL    HW140037   0.787   4.722   3.316  1.1528 -1.8662 -1.1747
 9526SOL    HW240038   0.892   0.098   3.300  0.2699 -0.5661  0.2985
 9527SOL     OW40039   2.492   4.046   7.391 -0.2684  0.1898  0.1877
 9527SOL    HW140040   2.481   3.979   7.459  0.0389  0.9444  0.9780
 9527SOL    HW240041   2.412   4.096   7.408  0.1066  0.6293  0.6602
 9528SOL     OW40042   3.991   4.543   8.682  0.7154  0.0179 -0.1821
 9528SOL    HW140043   4.086   4.553   8.681  0.4870  2.0525 -1.4130
 9528SOL    HW240044   3.990   4.529   8.777  0.0578 -1.6043 -0.4299
 9529SOL     OW40045   1.316   3.655   1.795  0.5132 -0.3490  0.3271
 9529SOL    HW140046   1.242   3.679   1.739 -0.6749 -1.5821  1.3588
 9529SOL    HW240047   1.385   3.633   1.733 -0.2189  0.2137 -0.6855
 9530SOL     OW40048   0.861   2.964  16.891  0.6470  1.0616 -0.6451
 9530SOL    HW140049   0.926   3.027  16.862  1.4304  0.3754 -0.4093
 9530SOL    HW240050   0.879   2.908  16.816  0.8606 -2.0340  1.6822
 9531SOL     OW40051   1.645   4.642   1.818 -0.2369  0.3531  0.0168
 9531SOL    HW140052   1.640   4.548   1.802  0.6207  0.0582  1.5121
 9531SOL    HW240053   1.573   4.681   1.768 -0.6592 -0.2149  0.1788
 9532SOL     OW40054   2.347   0.627  15.896  0.4108 -0.3816 -0.1729
 9532SOL    HW140055   2.357   0.706  15.843  0.0938 -0.5914 -0.5434
 9532SOL    HW240056   2.269   0.589  15.856 -0.5687  3.6808 -2.0998
 9533SOL     OW40057   1.399   4.196   9.171  0.4072  0.2558 -0.5394
 9533SOL    HW140058   1.443   4.209   9.087  0.2718  0.2861 -0.6067
 9533SOL    HW240059   1.315   4.159   9.141  0.4478 -0.4956  0.2925
 9534SOL     OW40060   2.301   4.464  10.299 -0.6742  0.0774 -0.2736
 9534SOL    HW140061   2.353   4.390  10.331 -2.2126 -0.8075  0.1654
 9534SOL    HW240062   2.232   4.411  10.260 -0.3596 -1.9056  1.8398
 9535SOL     OW40063   2.942   1.803   6.204  0.5035  0.4148 -0.0851
 9535SOL    HW140064   2.878   1.733   6.191 -0.1704  0.8205  1.0344
 9535SOL    HW240065   2.893   1.851   6.270 -0.7154 -0.0053 -0.6860
 9536SOL     OW40066   2.715   1.769  12.902  0.5446  0.8700 -0.2260
 9536SOL    HW140067   2.797   1.731  12.872 -0.3672 -0.4614 -1.0142
 9536SOL    HW240068   2.692   1.703  12.968  2.8424  0.2217 -0.0528
 9537SOL     OW40069   0.326   2.904   6.731  0.3199  0.1645 -0.5545
 9537SOL    HW140070   0.374   2.969   6.783  0.9822 -0.5986 -0.2134
 9537SOL    HW240071   0.247   2.950   6.703  0.2675 -0.0319 -0.7283
 9538SOL     OW40072   3.883   4.477   4.062 -0.1326 -0.2656  0.0384
 9538SOL    HW140073   3.882   4.548   3.998 -3.9294  1.9015  2.5793
 9538SOL    HW240074   3.796   4.441   4.048  0.7197 -2.6424  0.8623
 9539SOL     OW40075   3.134   1.636   9.222  0.2535 -0.4049 -0.1793
 9539SOL    HW140076   3.184   1.606   9.298 -0.6619 -1.2077  0.0974
 9539SOL    HW240077   3.123   1.558   9.168  1.4172  0.4306 -1.6274
 9540SOL     OW40078   2.938   3.932   6.945 -0.1750 -0.5952 -0.2155
 9540SOL    HW140079   2.962   3.972   7.028  1.8485 -1.5301 -0.3551
 9540SOL    HW240080   2.844   3.917   6.956 -0.2490  1.1401  1.5478
 9541SOL     OW40081   1.416   0.411  12.102 -0.2595 -0.5994 -0.4560
 9541SOL    HW140082   1.389   0.380  12.189  0.7592 -0.0342  0.0598
 9541SOL    HW240083   1.382   0.340  12.048 -0.8882  0.2938 -1.2260
 9542SOL     OW40084   2.081   4.220   4.045  0.3373 -0.1245  0.4024
 9542SOL    HW140085   2.075   4.232   3.950  0.0266 -0.6824  0.3524
 9542SOL    HW240086   2.026   4.294   4.070  0.1803  0.2167 -0.9668
 9543SOL     OW40087   2.347   2.910   5.176  0.3292 -0.2074 -0.7591
 9543SOL    HW140088   2.380   2.871   5.095  0.6317  0.6010 -1.0235
 9543SOL    HW240089   2.364   2.843   5.242 -0.3816 -0.9481 -1.3325
 9544SOL     OW40090   0.104   1.977   7.493  0.1257 -0.1470 -0.4993
 9544SOL    HW140091   0.016   2.008   7.470  0.1136  2.4148  3.0631
 9544SOL    HW240092   0.150   1.998   7.412  0.8745 -0.8945 -0.2587
 9545SOL     OW40093   2.687   3.138   2.015 -0.5157 -0.0628 -1.2201
 9545SOL    HW140094   2.749   3.130   1.943  0.2962  2.9503 -0.8671
 9545SOL    HW240095   2.640   3.220   1.998 -2.3256 -0.6522  0.9174
 9546SOL     OW40096   3.749   3.121   8.763 -0.6859  0.8290 -0.0934
 9546SOL    HW140097   3.806   3.170   8.703  0.0196  0.7236  0.4922
 9546SOL    HW240098   3.692   3.074   8.701 -0.1471  1.3473 -0.9911
 9547SOL     OW40099   0.876   2.236  15.805 -0.2879  0.8170 -0.0381
 9547SOL    HW140100   0.810   2.181  15.764  0.1855  0.0716  0.1965
 9547SOL    HW240101   0.853   2.318  15.760 -1.0767 -0.8857 -2.7523
 9548SOL     OW40102   3.062   0.597   2.847 -0.3036 -0.2444  0.2365
 9548SOL    HW140103   3.008   0.603   2.769 -0.3673  1.1036  0.3717
 9548SOL    HW240104   3.146   0.620   2.806 -0.1382 -1.2743  0.0132
 9549SOL     OW40105   2.565   1.426   8.202 -0.2980  0.4721 -0.2376
 9549SOL    HW140106   2.476   1.415   8.236 -0.8929  0.5912 -1.7621
 9549SOL    HW240107   2.536   1.464   8.119 -0.4407  0.0231 -0.3947
 9550SOL     OW40108   4.276   3.709   9.165  0.4206 -0.0686 -0.1218
 9550SOL    HW140109   4.337   3.725   9.093 -0.7835 -0.4491 -1.2243
 9550SOL    HW240110   4.213   3.776   9.139  0.0977 -0.9494 -1.6128
 9551SOL     OW40111   2.559   3.181   5.953 -0.0450  0.3005  0.2995
 9551SOL    HW140112   2.565   3.095   5.996 -1.7940  0.9167  1.7619
 9551SOL    HW240113   2.641   3.223   5.978 -0.0300 -0.3858  1.4154
 9552SOL     OW40114   1.151   0.626  12.366 -0.2142  0.3487 -0.2822
 9552SOL    HW140115   1.197   0.645  12.447  0.6937 -1.4731 -0.3612
 9552SOL    HW240116   1.222   0.605  12.305 -1.1126 -0.1948 -1.1353
 9553SOL     OW40117   3.973   4.578   5.975  0.3687  0.3849  0.3529
 9553SOL    HW140118   3.913   4.580   6.050  1.1506 -1.0686  1.0138
 9553SOL    HW240119   3.913   4.588   5.901  1.6911  0.0167 -0.7575
 9554SOL     OW40120   0.950   2.590   0.569  0.4327 -1.0217 -0.1389
 9554SOL    HW140121   0.991   2.658   0.623  0.3264 -0.8861 -0.2295
 9554SOL    HW240122   0.968   2.511   0.620 -0.5497 -1.4102 -0.3907
 9555SOL     OW40123   1.863   2.381   4.663  0.3887 -0.2338 -0.0773
 9555SOL    HW140124   1.897   2.433   4.591  2.2733 -1.2285  0.0858
 9555SOL    HW240125   1.893   2.291   4.651 -0.4709 -0.6421  0.8590
 9556SOL     OW40126   1.022   0.976   8.559  0.3182 -0.1728 -0.2515
 9556SOL    HW140127   1.051   0.886   8.548  1.4972  0.1564  0.0976
 9556SOL    HW240128   1.102   1.021   8.588 -0.5481  0.2881  1.3815
 9557SOL     OW40129   4.508   4.681   2.517 -1.0161  0.0420 -0.1215
 9557SOL    HW140130   4.504   0.033   2.575  0.4702  0.6973 -0.8721
 9557SOL    HW240131   4.415   4.666   2.502 -1.8493  2.0772  2.9402
 9558SOL     OW40132   2.808   3.821   5.206 -0.0404 -0.2157 -0.0932
 9558SOL    HW140133   2.898   3.786   5.207  1.3380  3.3458  0.8772
 9558SOL    HW240134   2.802   3.830   5.301  2.5066  1.5119 -0.0869
 9559SOL     OW40135   2.691   2.110   9.827 -0.4550 -0.0602  0.3066
 9559SOL    HW140136   2.654   2.195   9.850 -1.8074 -0.5636 -0.0078
 9559SOL    HW240137   2.749   2.098   9.902 -2.5031  1.0671  2.0618
 9560SOL     OW40138   1.722   1.931   3.742  0.8644  0.0439 -0.1649
 9560SOL    HW140139   1.641   1.886   3.765  0.7228  0.7262  0.6804
 9560SOL    HW240140   1.701   1.955   3.652 -1.8512  1.2536  0.7848
 9561SOL     OW40141   0.788   3.593   4.380 -1.1025  0.4595 -0.1336
 9561SOL    HW140142   0.787   3.677   4.333 -1.2617  0.4260 -0.1913
 9561SOL    HW240143   0.701   3.554   4.375  0.5367 -3.2899  0.5092
 9562SOL     OW40144   2.520   4.688  17.341  0.0674  0.2655  0.1432
 9562SOL    HW140145   2.451   4.709  17.405 -1.1141  3.1832 -2.1154
 9562SOL    HW240146   2.550   4.604  17.377 -2.7068 -1.5363 -1.7565
 9563SOL     OW40147   1.608   2.480  13.601  0.6585 -0.4151 -0.2770
 9563SOL    HW140148   1.545   2.416  13.567  1.7358 -1.7103  0.1827
 9563SOL    HW240149   1.607   2.471  13.696  0.3158  0.5802 -0.1785
 9564SOL     OW40150   2.646   3.442  10.519 -0.3093 -0.4766 -0.5148
 9564SOL    HW140151   2.560   3.446  10.479 -1.0425 -0.7903  1.0215
 9564SOL    HW240152   2.624   3.405  10.605  1.4653 -1.9490 -0.6714
 9565SOL     OW40153   4.311   0.879   6.808  0.3478  0.4361 -0.0756
 9565SOL    HW140154   4.333   0.790   6.779 -0.0665  0.3639 -0.1706
 9565SOL    HW240155   4.276   0.906   6.724 -0.8209  1.8328  0.8643
   4.72413   4.72413  17.69815
