Membrane in water
40155
    1TCq1    O1    1   2.359   3.963  11.007 -0.1500  0.4758 -0.0088
    1TCq1    C1    2   2.405   3.923  11.128 -0.3849  0.8474 -0.3118
    1TCq1    O2    3   2.348   3.937  11.235  0.3989 -0.4767  0.3891
    1TCq1    C2    4   2.525   3.839  11.118  0.7176 -0.3978 -0.0799
    1TCq1    C3    5   2.607   3.848  11.006 -0.1050  0.1017 -0.1628
    1TCq1    C4    6   2.728   3.777  11.005  0.2815  0.1192  0.0396
    1TCq1    C5    7   2.768   3.701  11.109  0.1475  0.1882  0.1630
    1TCq1    C6    8   2.686   3.700  11.213  0.2366  0.4901 -0.1697
    1TCq1    C7    9   2.563   3.761  11.226  0.1766 -0.2040 -0.7535
    1TCq1    C8   10   2.747   3.647  11.334 -0.0073  0.5151  0.5662
    1TCq1    O4   11   2.723   3.691  11.444 -0.1928  0.6838 -0.1556
    1TCq1    C9   12   2.819   3.801  10.897 -0.2972  0.7656 -0.5645
    1TCq1    O5   13   2.925   3.728  10.896  0.2680 -0.5439  0.5005
    1TCq1    O6   14   2.802   3.902  10.825 -0.0387  0.1367 -0.3239
    1TCq1    H1   15   2.405   3.916  10.934 -1.2271  0.6334 -0.7790
    1TCq1    H2   16   2.581   3.918  10.927  0.4653  1.4271  0.8067
    1TCq1    H3   17   2.870   3.663  11.105  0.6658  1.6264 -0.4000
    1TCq1    H4   18   2.508   3.752  11.319  0.2236  2.4820 -0.4676
    2MPD2     C   19   3.025   3.284  11.557  0.0357  0.1152  0.3687
    2MPD2    C1   20   2.982   3.404  11.608  0.2728  0.1900  0.0859
    2MPD2    C2   21   2.911   3.484  11.523  0.3632 -0.1846 -0.1023
    2MPD2    C3   22   2.893   3.455  11.387  1.0230  0.4349  0.5070
    2MPD2    C4   23   2.951   3.344  11.335  0.3877  0.4748  0.3485
    2MPD2    C5   24   3.010   3.259  11.425 -0.3393  0.3160  0.2405
    2MPD2     H   25   2.887   3.580  11.567  2.6982  1.5801 -2.6972
    2MPD2    H1   26   2.940   3.323  11.229 -3.4269 -2.0436  1.2538
    2MPD2    H2   27   3.075   3.205  11.613 -0.5918  0.2629  1.1432
    2MPD2    H3   28   3.051   3.164  11.391  0.8687 -0.2412  3.2602
    2MPD2     N   29   2.815   3.525  11.299  0.0360  0.2079  0.0468
    2MPD2    H5   30   2.808   3.499  11.201 -1.3810 -1.8998  0.6943
    2MPD2    N1   31   3.009   3.447  11.737  0.6167 -0.0503  0.3689
    2MPD2    H7   32   2.976   3.540  11.760  2.7386  1.2707 -1.9078
    3TCq1    O1   33   3.280   4.515  10.772  0.9557 -0.0003 -0.5259
    3TCq1    C1   34   3.217   4.410  10.719  0.2959  0.6274  0.3529
    3TCq1    O2   35   3.281   4.344  10.639  0.1001  0.6071  0.1024
    3TCq1    C2   36   3.088   4.472  10.690  0.5683 -0.2422  0.2747
    3TCq1    C3   37   3.046   4.476  10.558  0.2069  0.3497 -0.1769
    3TCq1    C4   38   2.928   4.536  10.529 -0.4452 -0.3574  0.3821
    3TCq1    C5   39   2.856   4.594  10.630  0.4263  0.1881  0.0298
    3TCq1    C6   40   2.896   4.583  10.760 -0.2111  0.6080  0.0476
    3TCq1    C7   41   3.013   4.519  10.793  0.3258  0.0682  0.3203
    3TCq1    C8   42   2.813   4.625  10.869 -0.3135 -0.4153 -0.2539
    3TCq1    O4   43   2.865   4.617  10.980 -0.4420  0.1410 -0.2746
    3TCq1    C9   44   2.891   4.538  10.393  0.2521 -0.0370 -0.2602
    3TCq1    O5   45   2.963   4.468  10.316 -0.6881 -0.2105  0.1819
    3TCq1    O6   46   2.775   4.566  10.359 -0.1184 -0.1329  0.1181
    3TCq1    H1   47   3.225   4.587  10.808  1.1346 -0.0016 -0.2505
    3TCq1    H2   48   3.104   4.420  10.486 -1.0324  1.4460 -1.9979
    3TCq1    H3   49   2.776   4.657  10.593 -0.9733 -0.6493  1.6184
    3TCq1    H4   50   3.060   4.540  10.888 -0.5227 -0.4142  0.8525
    4MPD2     C   51   2.373   0.101  11.075 -0.0967  0.7623  0.5305
    4MPD2    C1   52   2.379   0.135  10.938 -0.1918  0.1486 -0.5838
    4MPD2    C2   53   2.487   0.086  10.866 -0.4451 -0.0294 -0.1069
    4MPD2    C3   54   2.589   0.009  10.918 -0.9867  0.9634 -0.1729
    4MPD2    C4   55   2.571   4.693  11.048  0.4749 -0.5954 -1.2043
    4MPD2    C5   56   2.464   0.014  11.122 -0.2721 -0.2184 -0.5875
    4MPD2     H   57   2.497   0.117  10.763  0.6831  0.6042  0.1907
    4MPD2    H1   58   2.644   4.620  11.081 -1.1683 -1.8284 -0.3419
    4MPD2    H2   59   2.299   0.153  11.135 -0.7151 -1.1867  1.4266
    4MPD2    H3   60   2.434   4.707  11.222  0.1530 -0.8058 -0.6395
    4MPD2     N   61   2.699   4.698  10.835  0.2119 -0.5141  0.4512
    4MPD2    H5   62   2.694   0.000  10.737 -0.5776 -3.2037 -0.1948
    4MPD2    N1   63   2.295   0.221  10.862 -0.3461  0.4592 -0.1618
    4MPD2    H7   64   2.312   0.220  10.762  0.9979 -1.7799  0.0706
    5TCq1    O1   65   3.242   2.456  11.379  0.0281  0.1222  0.0321
    5TCq1    C1   66   3.122   2.407  11.366 -0.0037  0.0568  0.2459
    5TCq1    O2   67   3.038   2.473  11.301  0.5107 -0.8114 -0.3521
    5TCq1    C2   68   3.124   2.262  11.372  0.1173  0.0079  0.1250
    5TCq1    C3   69   3.204   2.190  11.456  0.4191  0.3083 -0.4326
    5TCq1    C4   70   3.213   2.057  11.432 -0.7608 -0.0541 -0.1641
    5TCq1    C5   71   3.123   1.993  11.350  0.1037  0.4810 -0.0107
    5TCq1    C6   72   3.027   2.065  11.283 -0.2407  0.1635  0.4725
    5TCq1    C7   73   3.032   2.205  11.291  0.5362 -0.9341  0.9462
    5TCq1    C8   74   2.925   1.999  11.202  0.0282 -0.0697  1.0684
    5TCq1    O4   75   2.927   1.877  11.208 -0.3787 -0.1441  0.8290
    5TCq1    C9   76   3.317   1.989  11.509  0.5697  0.2032 -0.3324
    5TCq1    O5   77   3.325   1.868  11.497 -0.4410  0.3042  0.1559
    5TCq1    O6   78   3.402   2.067  11.569  0.0979  0.1604  0.1863
    5TCq1    H1   79   3.303   2.393  11.423  1.3408  1.2533 -0.1538
    5TCq1    H2   80   3.267   2.232  11.534 -0.6673  1.4912 -0.1791
    5TCq1    H3   81   3.146   1.893  11.316 -0.1617  1.1456 -2.1406
    5TCq1    H4   82   2.957   2.275  11.255  2.1901 -0.8653 -2.4030
    6MPD2     C   83   2.700   2.128  10.945  0.3191  0.0880 -0.5070
    6MPD2    C1   84   2.794   2.038  10.997 -0.0615  0.0456 -0.1666
    6MPD2    C2   85   2.816   1.918  10.937  0.5813  0.2542 -0.4989
    6MPD2    C3   86   2.740   1.880  10.823 -0.5666  1.1889  1.3867
    6MPD2    C4   87   2.632   1.958  10.780 -0.5172 -0.2930 -0.3454
    6MPD2    C5   88   2.617   2.080  10.845  0.5586  0.0592  0.2515
    6MPD2     H   89   2.898   1.859  10.977 -1.1659 -1.1623  0.9950
    6MPD2    H1   90   2.580   1.931  10.689 -2.6161  1.6621  0.2750
    6MPD2    H2   91   2.668   2.221  10.991  0.9078 -0.3242  0.7432
    6MPD2    H3   92   2.537   2.144  10.808 -0.2128 -2.0582 -1.7620
    6MPD2     N   93   2.764   1.755  10.751  0.4863  0.5433 -0.4693
    6MPD2    H5   94   2.844   1.699  10.777  0.7119 -0.2876 -2.9646
    6MPD2    N1   95   2.858   2.084  11.118 -0.1740  0.1740 -0.3234
    6MPD2    H7   96   2.870   2.182  11.144 -0.1825  0.3073 -0.8104
    7TCq1    O1   97   0.363   1.580  12.876  0.2924  0.4956  0.0649
    7TCq1    C1   98   0.385   1.709  12.904  0.2914 -0.0901 -0.4953
    7TCq1    O2   99   0.395   1.796  12.815 -0.3136 -0.2038  0.2352
    7TCq1    C2  100   0.439   1.721  13.036  0.0022 -0.8878  0.3537
    7TCq1    C3  101   0.410   1.841  13.089 -0.0964  0.6365 -0.4490
    7TCq1    C4  102   0.466   1.870  13.215 -0.8854  0.1429  0.0725
    7TCq1    C5  103   0.537   1.781  13.288 -0.1266 -0.7845 -0.2209
    7TCq1    C6  104   0.559   1.655  13.225  0.7985 -0.6006  0.0013
    7TCq1    C7  105   0.518   1.627  13.098  0.5843  0.3171  0.6002
    7TCq1    C8  106   0.612   1.542  13.295  0.0830 -0.0814 -0.9055
    7TCq1    O4  107   0.613   1.436  13.239  1.0077  0.6897 -0.3824
    7TCq1    C9  108   0.424   1.992  13.275  0.1332 -0.4904  0.1482
    7TCq1    O5  109   0.340   2.065  13.217  0.2973  0.3565  0.1330
    7TCq1    O6  110   0.456   2.005  13.395  0.3383 -0.0892 -0.0811
    7TCq1    H1  111   0.344   1.540  12.964  0.2875  0.6579  0.1374
    7TCq1    H2  112   0.342   1.904  13.033  2.0723  1.8722 -1.7455
    7TCq1    H3  113   0.553   1.815  13.390 -0.8245 -1.1991  0.0315
    7TCq1    H4  114   0.562   1.541  13.050  0.1502 -0.1998  1.1370
    8MPD2     C  115   0.645   1.292  13.743  0.0016 -0.3270 -0.1785
    8MPD2    C1  116   0.664   1.249  13.614 -0.1629  0.2795  0.4266
    8MPD2    C2  117   0.655   1.335  13.509  0.5967  0.2771 -0.2522
    8MPD2    C3  118   0.633   1.468  13.537 -0.4235  0.9578 -0.0501
    8MPD2    C4  119   0.626   1.512  13.665 -0.4681  0.0812  0.8783
    8MPD2    C5  120   0.630   1.423  13.773  0.2363 -0.6526  0.2808
    8MPD2     H  121   0.678   1.306  13.407  0.2930  0.0254 -0.2482
    8MPD2    H1  122   0.618   1.617  13.689  1.7556  0.7217 -1.2269
    8MPD2    H2  123   0.647   1.231  13.833 -0.2716 -0.7387 -0.4534
    8MPD2    H3  124   0.632   1.449  13.878 -0.2843 -2.2974  0.7043
    8MPD2     N  125   0.622   1.565  13.433 -0.1090 -0.7618  0.0750
    8MPD2    H5  126   0.616   1.664  13.457 -1.2953 -0.2386 -2.4157
    8MPD2    N1  127   0.687   1.108  13.591 -0.1790 -0.6358 -0.0671
    8MPD2    H7  128   0.702   1.057  13.678  0.1337  0.8889  0.7770
    9TCq1    O1  129   2.424   0.536  10.936  0.6001 -0.0508 -0.2674
    9TCq1    C1  130   2.509   0.479  11.024  0.6099 -0.1506 -0.0268
    9TCq1    O2  131   2.521   0.506  11.147 -0.2716 -0.1894 -0.6224
    9TCq1    C2  132   2.618   0.417  10.949  0.1006 -0.1399  0.0314
    9TCq1    C3  133   2.667   0.491  10.839  0.4138  0.0797  0.3255
    9TCq1    C4  134   2.790   0.468  10.796 -0.9179 -0.3020 -0.3675
    9TCq1    C5  135   2.869   0.375  10.856 -0.4112  0.4396  0.3090
    9TCq1    C6  136   2.815   0.306  10.966  0.0468 -0.3499 -0.5103
    9TCq1    C7  137   2.690   0.324  11.019  0.5581 -0.5580 -0.2446
    9TCq1    C8  138   2.918   0.228  11.034 -0.0839 -0.0339  0.2070
    9TCq1    O4  139   3.020   0.203  10.973 -0.2694  0.6072  0.4115
    9TCq1    C9  140   2.847   0.551  10.700 -0.2138  0.4495  0.0904
    9TCq1    O5  141   2.766   0.621  10.631  0.8188 -0.4711  0.4025
    9TCq1    O6  142   2.967   0.539  10.680  0.1248 -0.1226  0.4515
    9TCq1    H1  143   2.449   0.508  10.845  1.5740  0.2105 -0.0760
    9TCq1    H2  144   2.626   0.584  10.803 -1.7129 -0.9446  0.0866
    9TCq1    H3  145   2.973   0.362  10.828 -0.7101  3.3940 -2.2039
    9TCq1    H4  146   2.644   0.274  11.104  1.6483 -3.5224 -1.4188
   10MPD2     C  147   3.115   0.115  11.224 -0.0822  0.4600  0.5538
   10MPD2    C1  148   2.978   0.126  11.254  0.3822  0.3762 -0.2651
   10MPD2    C2  149   2.941   0.068  11.374  1.2327  0.0167 -0.1670
   10MPD2    C3  150   3.032   0.002  11.463 -0.3757  0.5532 -0.3283
   10MPD2    C4  151   3.168   0.007  11.433 -0.5278  0.7264  0.7502
   10MPD2    C5  152   3.199   0.052  11.306 -0.0868 -0.4344 -0.1727
   10MPD2     H  153   2.838   0.080  11.407  0.6547  1.9165 -2.6956
   10MPD2    H1  154   3.241   4.689  11.501  0.0580 -1.4184 -1.1685
   10MPD2    H2  155   3.155   0.159  11.134  2.1638  1.1260  1.8912
   10MPD2    H3  156   3.303   0.052  11.274 -0.6610 -2.1710 -2.0345
   10MPD2     N  157   3.000   4.682  11.596 -0.1715  0.4928  0.0175
   10MPD2    H5  158   3.086   4.655  11.643 -0.5839 -0.5888  0.1544
   10MPD2    N1  159   2.885   0.185  11.159  0.1310 -0.0276 -0.3630
   10MPD2    H7  160   2.787   0.198  11.184  0.5087 -0.2676  1.2305
   11TCq1    O1  161   4.179   4.565  14.475 -0.6805 -0.0505  0.0160
   11TCq1    C1  162   4.116   4.456  14.525 -0.4110 -0.1827 -0.7125
   11TCq1    O2  163   4.164   4.401  14.628 -0.6734 -0.0354  1.2455
   11TCq1    C2  164   4.054   4.394  14.416 -0.0330  0.5470  0.4085
   11TCq1    C3  165   4.055   4.255  14.416 -0.2620  0.3597  0.2598
   11TCq1    C4  166   3.975   4.197  14.325 -0.2476  0.4169  0.4833
   11TCq1    C5  167   3.908   4.271  14.234 -0.2369 -0.0262 -0.6095
   11TCq1    C6  168   3.911   4.409  14.236 -0.3029 -0.1729 -0.2888
   11TCq1    C7  169   3.981   4.469  14.330 -0.1190 -0.0399 -0.2177
   11TCq1    C8  170   3.818   4.493  14.156 -0.8092  0.8213  0.3441
   11TCq1    O4  171   3.767   4.590  14.208 -0.3685  0.2671  0.3236
   11TCq1    C9  172   3.988   4.052  14.306  0.5666 -0.2328  0.7026
   11TCq1    O5  173   3.924   3.992  14.214  0.3294  0.6317  0.3280
   11TCq1    O6  174   4.069   3.989  14.379  0.5348  0.1258  0.1526
   11TCq1    H1  175   4.138   4.583  14.387  0.3938 -2.0142 -0.9052
   11TCq1    H2  176   4.107   4.200  14.494  1.7475  0.7722 -0.7915
   11TCq1    H3  177   3.866   4.215  14.152  0.1510  0.6034 -1.2369
   11TCq1    H4  178   3.962   4.575  14.338 -0.4171 -0.0479 -0.8250
   12MPD2     C  179   3.682   4.620  13.913  0.2680  0.0550  0.7042
   12MPD2    C1  180   3.739   4.501  13.919 -0.2019  0.3060  1.2325
   12MPD2    C2  181   3.725   4.413  13.815 -0.1381 -0.7963 -0.6095
   12MPD2    C3  182   3.649   4.440  13.707  0.0686  0.0154 -0.3739
   12MPD2    C4  183   3.585   4.563  13.699 -0.1732  0.8658 -0.1690
   12MPD2    C5  184   3.611   4.655  13.802  1.0164 -0.0186 -0.2351
   12MPD2     H  185   3.763   4.312  13.828  0.6304 -0.5611 -1.0062
   12MPD2    H1  186   3.514   4.588  13.621  1.2382 -0.4516 -1.8885
   12MPD2    H2  187   3.695   4.707  13.977 -1.2729  0.4147  0.5394
   12MPD2    H3  188   3.574   0.034  13.793  3.1304  0.5447 -2.4696
   12MPD2     N  189   3.608   4.341  13.611 -0.2297  0.4991 -0.2891
   12MPD2    H5  190   3.532   4.365  13.549  0.6354  1.2672 -1.0367
   12MPD2    N1  191   3.815   4.448  14.028 -0.2968  0.0297  0.0596
   12MPD2    H7  192   3.869   4.365  14.007  1.7211  0.7830  2.2619
   13TCq1    O1  193   2.523   4.601  10.476  0.0273 -0.2730 -0.1587
   13TCq1    C1  194   2.455   4.521  10.562  0.8529  0.6178  0.1093
   13TCq1    O2  195   2.365   4.557  10.634 -0.3829  0.1035  0.2824
   13TCq1    C2  196   2.560   4.434  10.611  0.5722  0.4652 -0.1370
   13TCq1    C3  197   2.632   4.359  10.524  0.3122 -0.2838  0.5142
   13TCq1    C4  198   2.688   4.241  10.572 -0.1632  0.3833 -0.0117
   13TCq1    C5  199   2.686   4.205  10.701  0.5932  0.1321  0.8833
   13TCq1    C6  200   2.623   4.298  10.780  0.4835 -0.2230  0.3632
   13TCq1    C7  201   2.567   4.416  10.741 -0.9320 -0.2510 -0.1756
   13TCq1    C8  202   2.623   4.274  10.922  0.1401 -0.0808 -0.6451
   13TCq1    O4  203   2.531   4.334  10.973 -0.0057 -0.6196  0.2838
   13TCq1    C9  204   2.780   4.171  10.483  0.1382 -0.1007  0.4120
   13TCq1    O5  205   2.833   4.064  10.528  0.1577 -0.3679  0.3050
   13TCq1    O6  206   2.783   4.210  10.365 -0.4420 -0.4070 -0.4822
   13TCq1    H1  207   2.604   4.574  10.427 -0.7441 -3.0834  0.1271
   13TCq1    H2  208   2.621   4.371  10.416  2.1241  0.6432  0.4269
   13TCq1    H3  209   2.733   4.113  10.732 -1.8077 -1.0321  1.0566
   13TCq1    H4  210   2.507   4.483  10.801 -1.2287 -1.7948  1.2357
   14MPD2     C  211   2.827   4.054  11.138  0.3920  0.9757 -0.6626
   14MPD2    C1  212   2.730   4.148  11.106 -0.7629  0.2790  0.6557
   14MPD2    C2  213   2.655   4.201  11.206 -0.8519  0.1624  0.3813
   14MPD2    C3  214   2.680   4.164  11.340  0.3940  0.2397 -0.1094
   14MPD2    C4  215   2.776   4.069  11.367 -0.2700  0.9609 -0.2121
   14MPD2    C5  216   2.845   4.018  11.270  0.4596 -0.2031  0.1357
   14MPD2     H  217   2.590   4.284  11.182 -0.6552  0.3091  0.3604
   14MPD2    H1  218   2.793   4.039  11.470  0.5643 -1.8896 -1.1795
   14MPD2    H2  219   2.885   4.009  11.059 -0.5731 -0.3335 -0.6240
   14MPD2    H3  220   2.925   3.946  11.282  0.6865 -0.0130 -0.2331
   14MPD2     N  221   2.616   4.238  11.446  0.0027  0.2579 -0.4112
   14MPD2    H5  222   2.564   4.319  11.412  1.3804  1.6878  0.8531
   14MPD2    N1  223   2.719   4.195  10.970  0.0719  0.1062  0.7941
   14MPD2    H7  224   2.784   4.155  10.903 -0.8569 -3.8638  2.2794
   15TCq1    O1  225   0.971   4.356   2.781  0.1556  0.2789 -0.0956
   15TCq1    C1  226   0.924   4.355   2.658  0.0224 -0.2322  1.0860
   15TCq1    O2  227   0.813   4.321   2.627 -0.0470 -0.6560  0.3257
   15TCq1    C2  228   1.037   4.356   2.568 -0.1801  0.0306 -0.6559
   15TCq1    C3  229   1.148   4.434   2.600 -0.1683 -0.1364 -0.1000
   15TCq1    C4  230   1.269   4.413   2.531  0.0264 -1.7358  0.5029
   15TCq1    C5  231   1.273   4.318   2.441 -0.3880  0.7621  0.0722
   15TCq1    C6  232   1.160   4.239   2.412  0.6067 -0.0231  0.3398
   15TCq1    C7  233   1.039   4.263   2.466  0.6305 -0.5619  1.3965
   15TCq1    C8  234   1.169   4.141   2.297 -0.1867 -0.1366  0.3387
   15TCq1    O4  235   1.271   4.131   2.231 -0.2938  0.4413 -0.2550
   15TCq1    C9  236   1.389   4.472   2.587  0.2147 -0.1411 -0.0646
   15TCq1    O5  237   1.376   4.581   2.648 -0.4506  0.2540  0.4813
   15TCq1    O6  238   1.501   4.425   2.559 -0.0705  0.8330  0.1640
   15TCq1    H1  239   1.065   4.384   2.784 -0.1208  1.4429 -1.8460
   15TCq1    H2  240   1.155   4.520   2.666 -0.7920  0.4039 -0.7388
   15TCq1    H3  241   1.368   4.294   2.395 -0.7951 -0.4695 -0.1202
   15TCq1    H4  242   0.946   4.221   2.430  1.0558 -0.2829 -0.0300
   16MPD2     C  243   0.901   3.893   2.215  0.7192  0.3042 -0.2130
   16MPD2    C1  244   1.026   3.949   2.215  0.4986  0.1802 -0.4383
   16MPD2    C2  245   1.126   3.893   2.138  0.2029  0.1189 -0.9326
   16MPD2    C3  246   1.092   3.791   2.050 -0.0055 -0.2791  0.0570
   16MPD2    C4  247   0.964   3.746   2.038  0.2603  0.4987 -0.5208
   16MPD2    C5  248   0.865   3.804   2.119  0.2687  0.2981  0.2027
   16MPD2     H  249   1.229   3.920   2.158  1.1030 -1.0559 -3.9931
   16MPD2    H1  250   0.927   3.665   1.977 -0.1390 -0.6345  1.2094
   16MPD2    H2  251   0.822   3.939   2.273  0.1025 -0.8437 -0.1330
   16MPD2    H3  252   0.765   3.761   2.116  0.7381 -0.8912  1.9030
   16MPD2     N  253   1.200   3.736   1.973  0.7539 -0.3081  0.5332
   16MPD2    H5  254   1.293   3.770   1.994  1.3603 -2.1930  0.8945
   16MPD2    N1  255   1.059   4.058   2.297 -0.2752 -0.0725 -0.5067
   16MPD2    H7  256   0.988   4.076   2.367  0.1121 -0.4601 -0.0103
   17TCq1    O1  257   2.377   3.606  10.127  0.3075 -0.3705 -0.0490
   17TCq1    C1  258   2.441   3.488  10.156  0.3199 -0.1448 -0.6685
   17TCq1    O2  259   2.423   3.383  10.096  0.0820 -0.0649  0.2707
   17TCq1    C2  260   2.569   3.519  10.224 -0.1759  0.7017  0.1121
   17TCq1    C3  261   2.615   3.651  10.227 -0.0499 -0.2233  0.6745
   17TCq1    C4  262   2.741   3.668  10.282  0.1879 -0.0092  0.5692
   17TCq1    C5  263   2.825   3.558  10.316 -0.8003 -0.6041  0.3178
   17TCq1    C6  264   2.762   3.436  10.320 -0.4633  0.1167  0.3132
   17TCq1    C7  265   2.637   3.411  10.271 -0.2285 -0.3633  0.0619
   17TCq1    C8  266   2.834   3.315  10.369 -0.5908 -0.7004  0.7311
   17TCq1    O4  267   2.769   3.217  10.394 -0.3922 -0.0109 -0.5583
   17TCq1    C9  268   2.792   3.805  10.294  0.2469  0.2691 -0.1026
   17TCq1    O5  269   2.912   3.830  10.326  0.5014  0.0686 -0.4020
   17TCq1    O6  270   2.703   3.894  10.281 -0.1587  0.2152 -0.4833
   17TCq1    H1  271   2.370   3.665  10.206 -0.1642 -0.9657  0.3549
   17TCq1    H2  272   2.564   3.737  10.185  1.0112 -0.9601 -2.1607
   17TCq1    H3  273   2.924   3.570  10.358 -0.9766 -2.1592  1.1461
   17TCq1    H4  274   2.595   3.311  10.269 -0.8118 -0.1056 -0.4009
   18MPD2     C  275   3.040   3.132  10.449  0.5053  0.0428  0.8799
   18MPD2    C1  276   3.066   3.257  10.407 -0.4959  0.4562 -0.0724
   18MPD2    C2  277   3.193   3.312  10.404  0.0952  0.9994  0.5299
   18MPD2    C3  278   3.298   3.238  10.447  0.4551  0.0879  0.0925
   18MPD2    C4  279   3.274   3.110  10.480 -0.0989 -0.6896 -0.1921
   18MPD2    C5  280   3.146   3.059  10.493  0.0810 -0.0646  0.0685
   18MPD2     H  281   3.204   3.414  10.369 -3.1907  0.8928 -0.7864
   18MPD2    H1  282   3.355   3.043  10.508 -0.9083 -0.6470  2.2601
   18MPD2    H2  283   2.942   3.085  10.445  0.4676  0.0779  1.3527
   18MPD2    H3  284   3.126   2.963  10.540 -3.4751  1.6525  1.9878
   18MPD2     N  285   3.438   3.287  10.449 -0.5714 -0.2271 -0.4636
   18MPD2    H5  286   3.508   3.218  10.475 -1.0276 -0.3305  0.4671
   18MPD2    N1  287   2.964   3.340  10.368  0.3773  0.4213 -0.0005
   18MPD2    H7  288   3.000   3.428  10.333  1.2355 -0.3695 -1.1209
   19TMC2    C1  289   0.222   4.484  13.428 -0.4191 -0.5566  0.1509
   19TMC2    C2  290   0.205   4.533  13.303 -0.2845 -0.7583 -0.6943
   19TMC2    C3  291   0.143   4.446  13.208 -0.1961 -0.1848 -0.2544
   19TMC2    C4  292   0.166   4.364  13.461 -0.2878  0.3160  0.2748
   19TMC2    C5  293   0.097   4.286  13.370  0.7958  0.2567  0.2713
   19TMC2    C6  294   0.083   4.324  13.237  0.5277  0.3507  0.0453
   19TMC2     C  295   0.331   4.538  13.505  0.9526 -0.1119  0.7506
   19TMC2     O  296   0.368   4.654  13.475  0.1388  0.5133  0.4026
   19TMC2     H  297   0.254   4.624  13.269 -0.0828 -0.9183 -0.8253
   19TMC2    H1  298   0.168   4.336  13.566  0.0970  2.2354  0.7841
   19TMC2    H2  299   0.030   4.262  13.166  0.6371 -1.7979  1.8262
   19TMC2    C7  300   0.019   4.179  13.425  0.4086  0.3284 -0.1982
   19TMC2    C8  301   0.090   4.537  13.097 -0.4968  1.0787  0.0185
   19TMC2    O1  302   4.708   4.094  13.344 -0.0332 -0.1191  0.4355
   19TMC2    O2  303   0.070   4.653  13.118 -0.4601  0.1174  0.2611
   19TMC2    O5  304   0.010   4.445  13.033 -0.2440  0.4246  0.2407
   19TMC2    H5  305   0.059   4.374  12.987 -0.6558  1.0837 -1.2129
   20MPD2     C  306   0.574   4.593  13.648 -0.0219 -0.1322 -0.1368
   20MPD2    C1  307   0.467   4.528  13.706 -0.7505 -0.7160 -0.0867
   20MPD2    C2  308   0.454   4.512  13.844  0.0275 -0.6759 -0.6283
   20MPD2    C3  309   0.551   4.557  13.925  0.4804 -0.3209 -0.2328
   20MPD2    C4  310   0.666   4.609  13.868  0.8915  0.3323  0.4538
   20MPD2    C5  311   0.677   4.624  13.730 -0.1798 -0.1641 -0.1504
   20MPD2     H  312   0.370   4.463  13.892  1.5484 -1.6241  1.0729
   20MPD2    H1  313   0.747   4.651  13.926  1.0198  2.5823 -1.3864
   20MPD2    H2  314   0.582   4.587  13.540  1.7962 -0.5546  0.0163
   20MPD2    H3  315   0.768   4.670  13.692 -0.6758  1.6883  0.8913
   20MPD2     N  316   0.543   4.542  14.067  0.1902 -0.0813 -0.2523
   20MPD2    H5  317   0.614   4.590  14.122 -0.6458 -0.4609  1.1701
   20MPD2    N1  318   0.365   4.476  13.626 -0.2905  0.3902 -0.6009
   20MPD2    H7  319   0.307   4.398  13.657  0.3987 -0.0646 -0.4507
   21MPD2     C  320   3.180   4.531  14.399  0.3447  0.1260 -0.4169
   21MPD2    C1  321   3.081   4.435  14.392  0.0002  0.3005  0.0073
   21MPD2    C2  322   2.955   4.477  14.438 -0.1619  0.3909  0.1254
   21MPD2    C3  323   2.925   4.606  14.471 -0.4350 -0.0006  0.6496
   21MPD2    C4  324   3.025   4.699  14.455  0.1834 -0.0034 -0.2797
   21MPD2    C5  325   3.152   4.660  14.433 -0.4581  0.2642 -0.0208
   21MPD2     H  326   2.881   4.400  14.460 -0.2158  0.3297 -0.2710
   21MPD2    H1  327   3.008   0.083  14.467 -1.8889 -0.2966 -0.7556
   21MPD2    H2  328   3.285   4.508  14.390  0.6787  1.2266  0.6779
   21MPD2    H3  329   3.232   0.009  14.424  0.0646 -0.1020  1.8070
   21MPD2     N  330   2.800   4.655  14.506  0.3667 -0.1782  0.0464
   21MPD2    H5  331   2.785   0.030  14.530  0.0429 -0.7218  2.0535
   21MPD2    N1  332   3.106   4.300  14.370  0.3846  0.0827  0.5244
   21MPD2    H7  333   3.046   4.234  14.418  1.5071 -0.9059  0.5592
   22TCq2    C1  334   2.688   4.579  14.496 -0.4162  0.0382 -0.7571
   22TCq2    O2  335   2.671   4.465  14.457  0.4011  0.0562 -0.3234
   22TCq2    C2  336   2.569   4.659  14.480  0.4788  0.8554 -0.3354
   22TCq2    C3  337   2.453   4.595  14.505 -0.0063  0.5347  0.0807
   22TCq2    C4  338   2.337   4.666  14.505 -0.0409  0.0487  0.0996
   22TCq2    C5  339   2.333   0.071  14.469 -0.1170 -0.2964 -0.0608
   22TCq2    C6  340   2.448   0.131  14.418 -0.5272 -0.0884 -0.1661
   22TCq2    C7  341   2.564   0.060  14.427  0.1872 -0.4597 -0.7449
   22TCq2    C8  342   2.436   0.232  14.315 -0.5603  0.3484 -0.6021
   22TCq2    O4  343   2.540   0.278  14.272 -0.1836 -0.1343 -0.0817
   22TCq2    C9  344   2.211   4.598  14.535 -0.5709  0.3716  0.0165
   22TCq2    O5  345   2.122   4.666  14.592 -0.4351  0.0141  0.1352
   22TCq2    O6  346   2.191   4.479  14.496  0.4900 -0.3322 -0.7184
   22TCq2    H2  347   2.451   4.495  14.547 -2.1691  1.3310  1.8675
   22TCq2    H3  348   2.234   0.114  14.472  0.2855  0.7289 -1.2292
   22TCq2    H4  349   2.648   0.111  14.382  0.5682 -0.4718 -0.0486
   23MPD2     C  350   3.749   0.683  14.461 -0.0143  0.3673  0.6098
   23MPD2    C1  351   3.680   0.636  14.575 -1.0472  0.8756  0.0233
   23MPD2    C2  352   3.548   0.677  14.595  0.0095  0.5820  0.3481
   23MPD2    C3  353   3.490   0.778  14.522 -0.1054 -0.1066  0.2627
   23MPD2    C4  354   3.571   0.837  14.426 -0.0270  0.3952  0.4518
   23MPD2    C5  355   3.692   0.781  14.386 -0.3498  0.3669 -0.9378
   23MPD2     H  356   3.501   0.638  14.684  1.7484 -0.3807  0.8320
   23MPD2    H1  357   3.545   0.929  14.374 -1.5509 -0.5779 -0.5201
   23MPD2    H2  358   3.843   0.648  14.420  0.8908  0.4276  2.6644
   23MPD2    H3  359   3.740   0.806  14.292 -0.5147 -1.7436 -1.5855
   23MPD2     N  360   3.360   0.829  14.546  0.7143 -0.0164  0.5576
   23MPD2    H5  361   3.350   0.922  14.506 -1.6844 -0.1209  0.8924
   23MPD2    N1  362   3.731   0.532  14.659 -0.4651  0.1330 -0.7319
   23MPD2    H7  363   3.670   0.494  14.730  2.1190 -2.6155  0.0058
   24TCq2    C1  364   3.250   0.764  14.603  0.5313 -0.0407  0.1827
   24TCq2    O2  365   3.244   0.649  14.655  0.3619 -0.5623  0.5894
   24TCq2    C2  366   3.129   0.851  14.597  0.7768  0.4256  0.1620
   24TCq2    C3  367   3.129   0.988  14.585  0.1222  0.2542  0.4018
   24TCq2    C4  368   3.010   1.044  14.563 -0.1204  0.1933  0.2484
   24TCq2    C5  369   2.892   0.973  14.551 -0.1342 -0.3106 -0.4306
   24TCq2    C6  370   2.897   0.840  14.569 -0.5093 -0.6102  0.6195
   24TCq2    C7  371   3.013   0.776  14.593  0.0634 -0.2803 -0.6956
   24TCq2    C8  372   2.783   0.755  14.546  0.1109  0.4205 -0.7876
   24TCq2    O4  373   2.801   0.643  14.588 -0.3621 -0.0320  0.3239
   24TCq2    C9  374   3.012   1.187  14.531  0.1267  0.2965 -0.7428
   24TCq2    O5  375   2.899   1.246  14.526  0.1381  0.1506 -0.0350
   24TCq2    O6  376   3.121   1.242  14.515  0.3617  0.2625  0.1500
   24TCq2    H2  377   3.218   1.050  14.588  0.7716 -0.7564  1.6361
   24TCq2    H3  378   2.803   1.024  14.515  0.5881  1.7081  0.5818
   24TCq2    H4  379   3.011   0.671  14.620 -0.1830 -0.6104 -1.9833
   25TMC2    C1  380   2.640   2.594  11.409  0.7582 -0.1713 -0.0360
   25TMC2    C2  381   2.732   2.531  11.484 -0.2200  0.0915  0.3273
   25TMC2    C3  382   2.757   2.577  11.611 -0.6108 -0.6163  0.8255
   25TMC2    C4  383   2.575   2.708  11.447 -0.1906  0.3553 -0.3183
   25TMC2    C5  384   2.615   2.759  11.571 -0.1614  0.2050  0.2856
   25TMC2    C6  385   2.707   2.701  11.649  0.2263  0.0705 -0.1247
   25TMC2     C  386   2.607   2.532  11.284  0.3944 -0.0442 -0.5810
   25TMC2     O  387   2.688   2.462  11.224 -0.2871  0.1326 -0.6195
   25TMC2     H  388   2.787   2.444  11.449  0.3333 -0.0679  1.5925
   25TMC2    H1  389   2.506   2.757  11.380 -1.1173 -2.0683 -1.1600
   25TMC2    H2  390   2.738   2.758  11.736 -1.2750  1.4088 -0.4791
   25TMC2    C7  391   2.555   2.882  11.625  0.1015  0.4257 -0.1801
   25TMC2    C8  392   2.877   2.539  11.672  0.4368  0.0795  0.2205
   25TMC2    O1  393   2.592   2.921  11.735 -1.0608  0.3094  0.1034
   25TMC2    O2  394   2.970   2.481  11.620 -0.5714 -0.0023 -0.0115
   25TMC2    O5  395   2.865   2.550  11.806 -0.3208 -0.1589  0.2381
   25TMC2    H5  396   2.789   2.592  11.852 -0.9730 -0.5486 -0.4992
   26MPD2     C  397   2.266   2.400  10.940 -0.3845 -0.8194  0.3822
   26MPD2    C1  398   2.194   2.457  11.045 -0.3625  0.8902 -0.1341
   26MPD2    C2  399   2.274   2.509  11.146  0.0367 -0.3570 -0.7113
   26MPD2    C3  400   2.403   2.507  11.146  0.3274 -0.7845  0.3350
   26MPD2    C4  401   2.472   2.467  11.033  0.2238 -0.2166  0.9015
   26MPD2    C5  402   2.401   2.405  10.927 -0.7733  0.3364  0.5380
   26MPD2     H  403   2.227   2.551  11.235  1.3801 -0.4996  0.0696
   26MPD2    H1  404   2.580   2.456  11.022  0.1699  1.3869 -1.1629
   26MPD2    H2  405   2.215   2.343  10.863 -0.2531  1.7737 -1.6211
   26MPD2    H3  406   2.451   2.361  10.842  1.5545  1.1813  1.4550
   26MPD2     N  407   2.466   2.546  11.265 -0.2766  0.1370  0.5104
   26MPD2    H5  408   2.409   2.570  11.345 -1.2493  1.2172 -0.5027
   26MPD2    N1  409   2.055   2.451  11.047  0.2612 -0.0434 -0.3198
   26MPD2    H7  410   2.008   2.413  10.965  0.0005  1.7558 -0.9904
   27TMC2    C1  411   1.444   0.558  11.828  0.3488 -0.4792  0.8560
   27TMC2    C2  412   1.404   0.562  11.694 -0.1275 -0.1314  0.8255
   27TMC2    C3  413   1.387   0.686  11.637  0.6026 -0.0190 -0.9035
   27TMC2    C4  414   1.486   0.674  11.889 -0.4140 -0.1186  0.1872
   27TMC2    C5  415   1.469   0.798  11.827 -0.4592 -0.7001 -0.2315
   27TMC2    C6  416   1.420   0.809  11.698  0.6053 -0.1732  0.3117
   27TMC2     C  417   1.384   0.451  11.911 -0.1522  0.0528  0.3327
   27TMC2     O  418   1.376   0.469  12.033  0.0432  0.0628  0.5051
   27TMC2     H  419   1.372   0.480  11.631  0.9758 -1.4786  2.0344
   27TMC2    H1  420   1.531   0.658  11.987 -1.3222  0.6977  0.7461
   27TMC2    H2  421   1.407   0.904  11.647 -1.0539 -0.1347  0.8315
   27TMC2    C7  422   1.433   0.913  11.905 -0.1410 -0.9084  0.0952
   27TMC2    C8  423   1.356   0.678  11.495  0.6036 -0.9248  0.7335
   27TMC2    O1  424   1.415   1.018  11.847  0.2083 -0.6941  0.2387
   27TMC2    O2  425   1.382   0.577  11.432 -0.4115 -0.0391 -0.1734
   27TMC2    O5  426   1.335   0.803  11.443 -0.2376  0.3645  0.2287
   27TMC2    H5  427   1.299   0.868  11.507  0.5619  1.9502 -0.9354
   28MPD2     C  428   1.119   0.030  11.961 -0.2462 -0.5174  0.2813
   28MPD2    C1  429   1.108   0.146  12.031 -0.3922  0.1847  0.3332
   28MPD2    C2  430   1.198   0.249  12.001 -0.0921  0.2841 -0.0464
   28MPD2    C3  431   1.281   0.236  11.890 -0.1369 -0.0688  0.7083
   28MPD2    C4  432   1.277   0.115  11.818 -0.3173  0.2706 -0.2506
   28MPD2    C5  433   1.203   0.016  11.860 -0.1779  0.8666  0.4015
   28MPD2     H  434   1.198   0.339  12.063 -2.2718  0.4576 -0.2739
   28MPD2    H1  435   1.335   0.096  11.729  2.3796 -0.5041  1.6547
   28MPD2    H2  436   1.060   4.663  11.981 -1.1644 -0.0577 -0.3486
   28MPD2    H3  437   1.205   4.648  11.799  1.9703  2.2265 -1.5327
   28MPD2     N  438   1.358   0.339  11.835 -0.1477  0.1875  0.1157
   28MPD2    H5  439   1.402   0.321  11.746  1.6515 -0.5859  1.1738
   28MPD2    N1  440   0.999   0.160  12.122  0.0071 -0.0983 -0.3358
   28MPD2    H7  441   0.942   0.077  12.133 -0.8188  0.7780  1.9935
   29MPD2     C  442   0.689   2.477  14.192 -0.2864 -0.1877  0.8325
   29MPD2    C1  443   0.753   2.438  14.313  0.7534  0.2886 -0.6302
   29MPD2    C2  444   0.805   2.541  14.392 -0.7428 -0.1499  0.2719
   29MPD2    C3  445   0.777   2.674  14.367 -0.0744 -0.3867  0.0604
   29MPD2    C4  446   0.702   2.705  14.256 -0.5121 -0.2920  1.1590
   29MPD2    C5  447   0.658   2.608  14.166 -0.7317 -0.0517  0.0090
   29MPD2     H  448   0.864   2.524  14.482  1.3910 -0.6891 -1.2279
   29MPD2    H1  449   0.678   2.810  14.243 -1.3479 -0.4528  1.4361
   29MPD2    H2  450   0.645   2.398  14.132 -0.4683  0.8917 -0.4422
   29MPD2    H3  451   0.609   2.638  14.074  1.2344 -0.3331 -1.1237
   29MPD2     N  452   0.818   2.776  14.460  0.4498  0.2738 -0.0127
   29MPD2    H5  453   0.796   2.871  14.432 -2.3426 -0.5792 -0.6744
   29MPD2    N1  454   0.781   2.305  14.341  0.2210  0.1888  0.0761
   29MPD2    H7  455   0.853   2.287  14.410 -0.4162  1.3737  1.0622
   30TCq2    C1  456   0.880   2.761  14.580  0.1513 -0.0523  0.5725
   30TCq2    O2  457   0.901   2.657  14.640 -0.4773  0.5080 -0.0285
   30TCq2    C2  458   0.920   2.888  14.638  0.0166 -0.5591  0.4447
   30TCq2    C3  459   0.954   2.882  14.770 -0.3657 -0.2663 -0.6038
   30TCq2    C4  460   0.992   2.997  14.830 -0.0775  0.3982  0.1019
   30TCq2    C5  461   0.996   3.116  14.756  0.0972 -0.4869  0.7283
   30TCq2    C6  462   0.985   3.115  14.620  0.0835  0.5209  0.3758
   30TCq2    C7  463   0.940   2.995  14.562 -0.5918  0.0374 -0.0501
   30TCq2    C8  464   0.978   3.246  14.552 -0.2186 -0.2935  0.5005
   30TCq2    O4  465   0.924   3.261  14.441 -0.2447  0.1318  0.1177
   30TCq2    C9  466   1.011   3.010  14.973 -0.3639  0.0956  0.3885
   30TCq2    O5  467   1.085   3.104  15.013  0.2720 -0.0447 -0.0442
   30TCq2    O6  468   0.975   2.913  15.043  0.0135 -0.2099  0.2479
   30TCq2    H2  469   0.940   2.798  14.837 -2.0366  1.0901  0.7674
   30TCq2    H3  470   1.011   3.206  14.814 -1.0649  0.8561 -1.0676
   30TCq2    H4  471   0.908   3.006  14.459  0.2346  0.3201 -0.2749
   31MPD2     C  472   4.041   2.085  14.800  0.3154 -0.6233 -0.0989
   31MPD2    C1  473   3.939   2.049  14.715 -0.0582 -0.2162 -0.9094
   31MPD2    C2  474   3.845   1.959  14.760  0.4901 -1.0891 -0.3232
   31MPD2    C3  475   3.863   1.896  14.883  0.3174  0.0457 -0.3214
   31MPD2    C4  476   3.965   1.934  14.965 -0.8013 -0.4334 -0.1866
   31MPD2    C5  477   4.059   2.022  14.917 -0.3973 -1.1892  0.0984
   31MPD2     H  478   3.787   1.908  14.684  2.4633 -0.5550 -2.1920
   31MPD2    H1  479   3.974   1.898  15.067  0.1435 -1.3486 -0.6071
   31MPD2    H2  480   4.113   2.162  14.779 -0.2106  0.7248  3.0023
   31MPD2    H3  481   4.140   2.052  14.982  0.3791 -0.1775 -1.3293
   31MPD2     N  482   3.778   1.793  14.943  0.6877  0.1021  0.4811
   31MPD2    H5  483   3.822   1.739  15.017  0.9594 -0.6086 -0.1992
   31MPD2    N1  484   3.925   2.122  14.590 -0.9358 -0.7222 -0.8273
   31MPD2    H7  485   4.008   2.175  14.567 -1.2417  0.9485  1.7837
   32TCq2    C1  486   3.657   1.755  14.882  1.1580 -0.2438 -0.9772
   32TCq2    O2  487   3.605   1.801  14.782  0.0654 -0.2512 -0.8629
   32TCq2    C2  488   3.597   1.630  14.929  0.4278 -0.1326 -0.1036
   32TCq2    C3  489   3.499   1.577  14.855 -0.5623  0.5273 -0.9493
   32TCq2    C4  490   3.423   1.477  14.904 -0.4002 -0.0196  0.4050
   32TCq2    C5  491   3.430   1.448  15.040  0.4281 -0.0561 -0.4279
   32TCq2    C6  492   3.528   1.495  15.117 -0.3848 -1.0388  0.1948
   32TCq2    C7  493   3.620   1.583  15.061 -0.6589 -1.0724 -0.2887
   32TCq2    C8  494   3.539   1.436  15.245  0.3902  0.6455 -1.2208
   32TCq2    O4  495   3.645   1.440  15.298 -0.2626  0.3701  0.4672
   32TCq2    C9  496   3.317   1.431  14.829  0.4296 -0.4058  0.2114
   32TCq2    O5  497   3.212   1.408  14.897 -0.0919 -0.4189 -0.6763
   32TCq2    O6  498   3.306   1.468  14.708  0.1818  0.8252 -0.5680
   32TCq2    H2  499   3.476   1.616  14.757 -1.7115 -0.5569 -1.1145
   32TCq2    H3  500   3.377   1.358  15.069 -1.2156  0.3091 -2.2372
   32TCq2    H4  501   3.697   1.623  15.126  0.3328 -0.1074 -2.0377
   33MPD2     C  502   3.778   4.040  10.270  0.0280  0.0436 -0.0132
   33MPD2    C1  503   3.669   3.959  10.278 -0.1933  0.0227 -0.1714
   33MPD2    C2  504   3.561   4.004  10.208  0.0266  0.4398  0.8888
   33MPD2    C3  505   3.561   4.121  10.130 -0.1263 -0.0304 -0.3458
   33MPD2    C4  506   3.665   4.205  10.141  0.4090 -0.6580 -0.1786
   33MPD2    C5  507   3.778   4.161  10.205  0.2851  0.5405 -0.1230
   33MPD2     H  508   3.478   3.934  10.206 -0.5813  1.1243  2.1300
   33MPD2    H1  509   3.667   4.302  10.092 -1.5652 -0.8858 -0.7478
   33MPD2    H2  510   3.869   4.011  10.320  0.4710 -0.3313 -1.0323
   33MPD2    H3  511   3.872   4.212  10.220  0.7028 -0.0049 -0.9086
   33MPD2     N  512   3.457   4.162  10.045  0.0390  0.4731 -0.0865
   33MPD2    H5  513   3.463   4.256  10.007  0.5046  0.5732  0.2374
   33MPD2    N1  514   3.676   3.825  10.330 -0.2920  0.5257 -0.4951
   33MPD2    H7  515   3.587   3.776  10.323 -0.7758  1.1783  1.0545
   34TCq2    C1  516   3.352   4.080  10.020 -0.6161  0.9582 -0.1878
   34TCq2    O2  517   3.328   3.959  10.051  0.4191  0.6417 -0.2280
   34TCq2    C2  518   3.244   4.157   9.967  0.0587  0.4708 -0.3418
   34TCq2    C3  519   3.125   4.130  10.024  0.1003  0.1678  0.0240
   34TCq2    C4  520   3.022   4.208  10.003 -0.3214  0.0464 -0.3859
   34TCq2    C5  521   3.031   4.324   9.923  0.3483 -0.9050 -0.6927
   34TCq2    C6  522   3.154   4.347   9.873  0.4663 -0.0946  0.1133
   34TCq2    C7  523   3.260   4.267   9.896  0.5659  0.7277  0.5938
   34TCq2    C8  524   3.185   4.489   9.871  0.2084 -0.3411 -0.0597
   34TCq2    O4  525   3.303   4.521   9.874 -0.1342  0.4662 -0.2813
   34TCq2    C9  526   2.896   4.166  10.066 -0.9362  0.1256 -0.8525
   34TCq2    O5  527   2.901   4.065  10.143 -0.3443  0.4510 -0.0504
   34TCq2    O6  528   2.792   4.239  10.056  0.1365 -0.1588  0.1104
   34TCq2    H2  529   3.113   4.046  10.092  1.1487  2.3881  2.9890
   34TCq2    H3  530   2.937   4.373   9.898 -1.1422 -3.4756 -0.2201
   34TCq2    H4  531   3.355   4.306   9.860  0.4752 -0.7251 -1.2282
   35MPD2     C  532   0.576   0.952  11.501  0.1953 -0.1800 -0.3532
   35MPD2    C1  533   0.578   0.825  11.553  0.0180  0.8000  0.1805
   35MPD2    C2  534   0.525   0.722  11.478  1.0520 -0.4011 -0.3628
   35MPD2    C3  535   0.474   0.746  11.352 -0.4160 -0.5027 -0.0364
   35MPD2    C4  536   0.475   0.868  11.294  0.4286  0.1806 -0.3475
   35MPD2    C5  537   0.530   0.970  11.372 -0.1839 -0.1599  0.0082
   35MPD2     H  538   0.511   0.623  11.522  0.2791  0.1722  0.6842
   35MPD2    H1  539   0.437   0.888  11.195  0.7031  2.2323 -0.0518
   35MPD2    H2  540   0.622   1.031  11.559 -1.7297 -0.0670  1.0252
   35MPD2    H3  541   0.535   1.069  11.327 -0.8971 -1.0509 -2.0160
   35MPD2     N  542   0.397   0.647  11.296  0.4938 -0.4732  0.0070
   35MPD2    H5  543   0.388   0.566  11.356  0.0411 -0.0695  0.4840
   35MPD2    N1  544   0.629   0.799  11.685  0.0101 -0.6730 -1.2684
   35MPD2    H7  545   0.645   0.880  11.744  0.5978 -0.1610 -2.1264
   36TCq2    C1  546   0.317   0.654  11.185 -0.0263  0.0993 -0.4419
   36TCq2    O2  547   0.299   0.737  11.093 -0.3947  0.7833 -0.0304
   36TCq2    C2  548   0.207   0.559  11.202  0.3145  0.6448  0.6209
   36TCq2    C3  549   0.100   0.571  11.115 -0.4456 -0.1271  0.0832
   36TCq2    C4  550   4.696   0.539  11.151 -0.8225  0.1331 -0.0937
   36TCq2    C5  551   4.669   0.466  11.261  0.4187 -0.6248  0.5460
   36TCq2    C6  552   0.051   0.446  11.344  1.0532  0.4264 -0.3762
   36TCq2    C7  553   0.178   0.495  11.319  0.7745 -0.2043 -0.3366
   36TCq2    C8  554   0.021   0.353  11.454  0.6093 -1.1146 -0.1292
   36TCq2    O4  555   4.647   0.284  11.434  0.0144 -0.2056  0.4511
   36TCq2    C9  556   4.588   0.574  11.064  0.3113  0.4156  0.7527
   36TCq2    O5  557   4.470   0.542  11.098 -0.4038  0.0846 -0.3287
   36TCq2    O6  558   4.619   0.640  10.956  0.3851 -0.4543  0.4076
   36TCq2    H2  559   0.117   0.629  11.025 -0.8874 -1.2396 -0.7245
   36TCq2    H3  560   4.569   0.429  11.282 -0.4721  1.5704  0.1829
   36TCq2    H4  561   0.258   0.453  11.379  1.2868  1.6388  0.2474
   37TMC2    C1  562   2.131   1.170  11.378  0.4363  0.2506  0.2692
   37TMC2    C2  563   2.110   1.244  11.266 -1.1928 -0.1426 -0.2578
   37TMC2    C3  564   2.210   1.252  11.172  0.8137 -0.0630  0.2637
   37TMC2    C4  565   2.253   1.105  11.401  0.3125 -0.2665 -0.0835
   37TMC2    C5  566   2.354   1.117  11.305  0.2851  0.1749 -0.2881
   37TMC2    C6  567   2.325   1.185  11.186  0.1036 -0.1658 -0.6508
   37TMC2     C  568   2.017   1.129  11.452 -0.0775  0.4231  0.6546
   37TMC2     O  569   1.909   1.167  11.403  0.2346 -0.0510 -0.2846
   37TMC2     H  570   2.024   1.310  11.257 -0.8912  0.5368  1.7418
   37TMC2    H1  571   2.274   1.050  11.492  2.4153  0.8599  0.1095
   37TMC2    H2  572   2.399   1.194  11.107  0.0530 -1.1160 -0.8010
   37TMC2    C7  573   2.490   1.055  11.329 -0.1160 -0.5915 -0.6097
   37TMC2    C8  574   2.177   1.284  11.033 -0.0410  0.4323  0.7008
   37TMC2    O1  575   2.488   0.984  11.429 -0.4398  0.1979 -0.1227
   37TMC2    O2  576   2.267   1.322  10.958 -0.2215 -0.3606 -0.6533
   37TMC2    O5  577   2.088   1.190  10.999 -0.0894  0.0435  0.7914
   37TMC2    H5  578   2.024   1.172  11.072 -1.7766  2.1182 -0.1528
   38MPD2     C  579   1.776   0.880  11.817  0.6612 -0.6658  0.5747
   38MPD2    C1  580   1.908   0.844  11.818  0.2237  0.2328 -0.2807
   38MPD2    C2  581   1.987   0.896  11.730  0.3757  0.5891  0.0535
   38MPD2    C3  582   1.943   0.981  11.636 -0.8289 -0.1302 -0.0346
   38MPD2    C4  583   1.810   0.992  11.611 -0.2314  0.0663  0.0575
   38MPD2    C5  584   1.723   0.947  11.709 -1.0504  0.6481  0.4807
   38MPD2     H  585   2.093   0.876  11.737 -0.2655 -2.7151  0.0812
   38MPD2    H1  586   1.781   1.071  11.543  1.7445  1.2635  0.5932
   38MPD2    H2  587   1.715   0.864  11.905  1.0259  0.2081  0.9852
   38MPD2    H3  588   1.626   0.993  11.717 -0.2480  1.9920  2.5880
   38MPD2     N  589   2.041   1.053  11.565  0.2769 -0.5495 -0.2269
   38MPD2    H5  590   2.138   1.041  11.594  0.1587 -0.8813  0.0212
   38MPD2    N1  591   1.966   0.762  11.918  0.3671  0.2236  0.2106
   38MPD2    H7  592   2.068   0.762  11.913  0.3899 -1.9920  0.6415
   39MPD2     C  593   1.329   2.769   1.682 -0.5405  0.3059 -0.0869
   39MPD2    C1  594   1.290   2.899   1.710 -0.1845  0.0998 -0.1960
   39MPD2    C2  595   1.160   2.931   1.675 -0.4917  0.3355 -0.1617
   39MPD2    C3  596   1.079   2.836   1.612  0.0725  0.6388 -0.7657
   39MPD2    C4  597   1.120   2.704   1.605 -0.4155 -0.0958 -0.0609
   39MPD2    C5  598   1.252   2.674   1.625  0.0688  0.2582 -0.5454
   39MPD2     H  599   1.134   3.036   1.676  0.0374  0.4629 -0.0581
   39MPD2    H1  600   1.054   2.635   1.555 -0.5903 -0.5336  0.7642
   39MPD2    H2  601   1.431   2.747   1.709 -0.6889  2.0384  1.8782
   39MPD2    H3  602   1.287   2.573   1.607  3.5517  1.9677 -3.2955
   39MPD2     N  603   0.958   2.874   1.557  0.2809 -0.3354 -0.1478
   39MPD2    H5  604   0.910   2.801   1.505  0.0870  0.1907 -0.7211
   39MPD2    N1  605   1.382   2.987   1.778 -0.3272 -0.5737  0.3840
   39MPD2    H7  606   1.480   2.962   1.790  0.1769  1.6096  0.9252
   40TCq2    C1  607   1.345   3.116   1.824  0.6610 -0.3611  0.6028
   40TCq2    O2  608   1.236   3.162   1.847 -0.4073  0.1368  1.1432
   40TCq2    C2  609   1.461   3.197   1.868 -0.0829  0.0645 -0.0818
   40TCq2    C3  610   1.437   3.289   1.972  0.1370  0.1281 -0.0736
   40TCq2    C4  611   1.527   3.372   2.018  0.3657  0.0398  0.1957
   40TCq2    C5  612   1.651   3.369   1.962 -0.0289 -0.3426  0.3773
   40TCq2    C6  613   1.672   3.276   1.854  0.0812  0.2601 -0.3148
   40TCq2    C7  614   1.580   3.183   1.809 -0.0165  0.4700  0.3571
   40TCq2    C8  615   1.791   3.284   1.773 -0.7362 -0.3174 -0.3620
   40TCq2    O4  616   1.805   3.204   1.683  0.5803  0.0512  0.3901
   40TCq2    C9  617   1.504   3.462   2.127 -0.5796 -0.1404  0.2838
   40TCq2    O5  618   1.390   3.457   2.182  0.5183  0.3533 -0.2646
   40TCq2    O6  619   1.579   3.565   2.134 -0.1300  0.1754 -0.3474
   40TCq2    H2  620   1.336   3.309   2.006 -0.2894  0.8856 -1.8243
   40TCq2    H3  621   1.725   3.441   1.995 -1.3435  1.2531 -0.1233
   40TCq2    H4  622   1.591   3.127   1.717 -0.9815 -0.3713  0.7512
   41TMC2    C1  623   4.271   0.946  13.781  0.2130  0.2754 -0.7683
   41TMC2    C2  624   4.409   0.954  13.790  0.7582  0.3118  1.0126
   41TMC2    C3  625   4.465   0.992  13.670 -0.0262 -0.1565  0.4619
   41TMC2    C4  626   4.195   0.983  13.670  0.5022 -0.0466 -0.0609
   41TMC2    C5  627   4.256   1.028  13.561 -0.2964  0.0205 -0.6168
   41TMC2    C6  628   4.389   1.024  13.558  0.1296  0.3495 -0.4227
   41TMC2     C  629   4.206   0.931  13.907 -0.5117 -0.1947 -0.1947
   41TMC2     O  630   4.098   0.989  13.919 -0.2377  0.0732 -0.0927
   41TMC2     H  631   4.469   0.951  13.880  0.1188 -1.7822  1.3511
   41TMC2    H1  632   4.088   0.995  13.676  0.3818 -1.1726  0.1240
   41TMC2    H2  633   4.442   1.071  13.476 -0.1846 -1.0720 -1.4460
   41TMC2    C7  634   4.191   1.092  13.444  0.0070 -0.2507  0.2411
   41TMC2    C8  635   4.606   1.021  13.668  0.1472 -0.0967 -0.5353
   41TMC2    O1  636   4.075   1.134  13.466  0.7389  0.3826  0.0731
   41TMC2    O2  637   4.658   1.089  13.583 -0.3081 -0.1886  1.0188
   41TMC2    O5  638   4.657   0.902  13.713 -0.1589  0.7739  0.2961
   41TMC2    H5  639   4.589   0.847  13.759 -0.5754  1.4469  0.4822
   42MPD2     C  640   4.286   0.680  14.157 -0.1537  0.0626  0.4779
   42MPD2    C1  641   4.229   0.797  14.116 -0.3272 -0.1914 -0.3009
   42MPD2    C2  642   4.138   0.865  14.195 -0.1099  0.0493 -0.6310
   42MPD2    C3  643   4.098   0.817  14.316  0.0648 -0.6791  0.0826
   42MPD2    C4  644   4.165   0.705  14.363  0.1728 -0.1586  0.0183
   42MPD2    C5  645   4.253   0.631  14.281 -0.5260 -0.0038  0.1960
   42MPD2     H  646   4.113   0.966  14.164  0.0694 -0.3332 -2.0159
   42MPD2    H1  647   4.147   0.660  14.460 -1.8365  0.4571 -0.0680
   42MPD2    H2  648   4.355   0.624  14.096 -2.5221 -1.7288 -0.5671
   42MPD2    H3  649   4.306   0.546  14.321 -0.7443  0.0899  0.6858
   42MPD2     N  650   4.009   0.896  14.400  0.9182  0.0496 -0.0634
   42MPD2    H5  651   4.002   0.875  14.499 -0.9761 -0.9630 -0.3983
   42MPD2    N1  652   4.271   0.843  13.989 -0.1727 -0.3987 -0.4806
   42MPD2    H7  653   4.353   0.802  13.946 -0.2244  0.6959 -1.6329
   43MPD2     C  654   1.271   4.216   0.341  0.2564 -0.3962  0.4330
   43MPD2    C1  655   1.356   4.118   0.409  0.5422  0.0442  0.3141
   43MPD2    C2  656   1.326   4.093   0.540 -0.4882  0.3410  0.4229
   43MPD2    C3  657   1.223   4.158   0.608  0.1707  0.4705  0.1725
   43MPD2    C4  658   1.138   4.251   0.540  0.0400 -0.5054 -0.4259
   43MPD2    C5  659   1.171   4.282   0.409  0.5026  0.5368 -0.1544
   43MPD2     H  660   1.386   4.015   0.586 -0.7752  1.0450  2.0157
   43MPD2    H1  661   1.062   4.309   0.591  0.2850  1.2393 -2.0581
   43MPD2    H2  662   1.287   4.223   0.234 -1.5505  0.3836  0.2136
   43MPD2    H3  663   1.098   4.337   0.350 -0.9734 -0.6683  0.5500
   43MPD2     N  664   1.204   4.151   0.745  0.1023  0.1659 -0.5534
   43MPD2    H5  665   1.141   4.219   0.786 -0.1741 -1.8096  2.2964
   43MPD2    N1  666   1.461   4.040   0.346 -0.1726  0.4347  0.1260
   43MPD2    H7  667   1.516   3.993   0.417 -0.1438  0.0310 -0.1623
   44TCq2    C1  668   1.437   4.146   1.280 -0.5973  0.8216 -1.2693
   44TCq2    O2  669   1.541   4.093   1.241 -0.1977 -0.1106  0.1122
   44TCq2    C2  670   1.310   4.133   1.206 -0.5834  0.4936  0.5419
   44TCq2    C3  671   1.195   4.215   1.231 -0.5300  0.7378  0.2745
   44TCq2    C4  672   1.113   4.255   1.128  0.7896  0.4467 -0.1363
   44TCq2    C5  673   1.139   4.211   0.999  0.1193 -0.9669 -0.0429
   44TCq2    C6  674   1.251   4.133   0.979 -0.6593 -0.7046  0.5234
   44TCq2    C7  675   1.333   4.085   1.079  0.4784  0.7753  0.1095
   44TCq2    C8  676   1.280   4.086   0.839 -0.2949 -0.3569  0.2634
   44TCq2    O4  677   1.365   3.997   0.829  0.5908 -0.2997 -0.0019
   44TCq2    C9  678   1.010   4.347   1.153 -0.8319 -0.2753 -0.9694
   44TCq2    O5  679   0.950   4.401   1.058  0.0184 -0.5035 -0.1621
   44TCq2    O6  680   0.998   4.379   1.275 -0.3404  0.6276 -0.1965
   44TCq2    H2  681   1.174   4.250   1.331 -2.9532  1.4802 -0.4967
   44TCq2    H3  682   1.094   4.277   0.925 -0.4802  0.3070  1.4526
   44TCq2    H4  683   1.425   4.032   1.061 -0.5487 -0.6280 -0.9851
   45TMC2    C1  684   1.206   1.672   9.230 -0.7388  0.2963  0.6314
   45TMC2    C2  685   1.146   1.669   9.107 -0.5386 -0.2160  0.5319
   45TMC2    C3  686   1.104   1.785   9.042 -0.2265  0.2158  0.0837
   45TMC2    C4  687   1.235   1.793   9.287 -0.0295 -0.1612  0.1123
   45TMC2    C5  688   1.214   1.908   9.217 -0.0648 -0.0572  0.1600
   45TMC2    C6  689   1.140   1.906   9.102  0.8650  0.3532  0.5313
   45TMC2     C  690   1.202   1.558   9.313 -0.4129 -0.3400 -0.0340
   45TMC2     O  691   1.248   1.566   9.422 -0.1094  0.2572  0.2676
   45TMC2     H  692   1.151   1.578   9.048 -1.7265  0.0981 -0.0553
   45TMC2    H1  693   1.292   1.793   9.379  0.5914  0.3679 -0.2723
   45TMC2    H2  694   1.113   1.997   9.050  1.3971  1.1212  1.6222
   45TMC2    C7  695   1.254   2.039   9.254  0.2598 -0.3070  0.1580
   45TMC2    C8  696   1.044   1.789   8.910  0.2332 -0.2010  0.0238
   45TMC2    O1  697   1.247   2.125   9.170 -0.2268  0.0853 -0.4658
   45TMC2    O2  698   1.108   1.842   8.818  0.3996 -0.3501  0.5130
   45TMC2    O5  699   0.960   1.682   8.890  0.2237  0.2922 -0.0933
   45TMC2    H5  700   0.936   1.639   8.974 -0.8706 -0.3020 -0.7063
   46MPD2     C  701   1.184   1.274   9.403 -0.7335  0.2232  0.1690
   46MPD2    C1  702   1.100   1.331   9.311  0.5389 -0.7282  0.0323
   46MPD2    C2  703   0.993   1.256   9.267  0.0031 -0.2361  0.3928
   46MPD2    C3  704   0.961   1.133   9.323  0.9771  0.1960 -0.8034
   46MPD2    C4  705   1.035   1.087   9.433  0.5539 -0.2463  0.0921
   46MPD2    C5  706   1.150   1.153   9.468 -0.4828  0.1041  0.5607
   46MPD2     H  707   0.932   1.309   9.195 -0.5434 -1.9567 -0.4135
   46MPD2    H1  708   1.005   1.004   9.496 -0.2757  0.7174  0.9669
   46MPD2    H2  709   1.278   1.320   9.435 -1.5742  1.1579  1.3029
   46MPD2    H3  710   1.211   1.123   9.552 -0.0088  0.0560  0.1996
   46MPD2     N  711   0.832   1.082   9.285 -0.7245  0.0248 -0.1476
   46MPD2    H5  712   0.784   1.132   9.211 -0.8653  1.0982  0.6633
   46MPD2    N1  713   1.120   1.462   9.255  0.5816  0.4162  0.2712
   46MPD2    H7  714   1.059   1.492   9.180 -1.5312 -2.7164  0.7305
   47TMC2    C1  715   3.895   2.026   8.662 -0.0711  0.0610  0.2539
   47TMC2    C2  716   3.886   2.134   8.585  0.0074 -0.8350  0.1331
   47TMC2    C3  717   3.795   2.226   8.614  0.1195 -0.1304 -0.5905
   47TMC2    C4  718   3.795   2.003   8.754  0.7017 -0.5412 -0.7484
   47TMC2    C5  719   3.700   2.101   8.778 -0.6853 -0.4278  0.3803
   47TMC2    C6  720   3.701   2.218   8.708 -0.1583 -0.0390 -0.8380
   47TMC2     C  721   4.000   1.930   8.637 -0.5187  0.0251 -0.2511
   47TMC2     O  722   4.067   1.951   8.538 -0.3274 -0.3039  0.3378
   47TMC2     H  723   3.943   2.145   8.493 -0.5493  1.0695  0.0207
   47TMC2    H1  724   3.790   1.908   8.806 -0.2186 -1.0819 -1.8443
   47TMC2    H2  725   3.640   2.305   8.732  3.1570  1.5689  1.7903
   47TMC2    C7  726   3.589   2.064   8.859 -0.6132 -0.0468 -0.2297
   47TMC2    C8  727   3.797   2.347   8.541  0.5684 -0.4283 -0.4362
   47TMC2    O1  728   3.499   2.149   8.866 -0.0129  0.4796  0.3115
   47TMC2    O2  729   3.901   2.393   8.495  0.1456  0.0496 -0.4780
   47TMC2    O5  730   3.669   2.375   8.499  0.0125  0.0730  0.7369
   47TMC2    H5  731   3.620   2.293   8.523 -3.1831  1.0185 -2.3980
   48MPD2     C  732   4.214   1.724   8.639 -0.1410  0.2198 -0.6903
   48MPD2    C1  733   4.126   1.749   8.739  0.1934  0.6084 -0.0553
   48MPD2    C2  734   4.137   1.671   8.854  0.5201  0.3584  0.6470
   48MPD2    C3  735   4.243   1.587   8.876  0.1517 -0.3715  0.6802
   48MPD2    C4  736   4.341   1.566   8.782  0.0438  0.0179 -0.5111
   48MPD2    C5  737   4.319   1.633   8.660  0.3872 -0.4187  0.0040
   48MPD2     H  738   4.064   1.678   8.934  0.3526 -1.3098  0.6361
   48MPD2    H1  739   4.427   1.501   8.794  0.7193  1.1493  0.8100
   48MPD2    H2  740   4.204   1.772   8.542 -0.8760 -0.3522 -0.9015
   48MPD2    H3  741   4.391   1.610   8.583 -0.6910  1.9168 -1.7122
   48MPD2     N  742   4.241   1.519   8.996 -0.1618  0.4854  0.1563
   48MPD2    H5  743   4.152   1.525   9.045 -0.1931  1.3095 -0.0070
   48MPD2    N1  744   4.016   1.845   8.736 -0.0621 -0.1970 -0.2438
   48MPD2    H7  745   3.952   1.851   8.815 -1.8435 -1.4318 -1.5946
   49MPD2     C  746   1.557   3.537   9.956 -0.7141  0.8495  0.1719
   49MPD2    C1  747   1.602   3.423  10.015  0.0636 -0.5726  0.6332
   49MPD2    C2  748   1.711   3.431  10.102  0.4359  0.2452  0.7162
   49MPD2    C3  749   1.783   3.548  10.129 -0.4263  0.2724 -0.9328
   49MPD2    C4  750   1.738   3.656  10.058 -0.6805 -0.3287 -0.0663
   49MPD2    C5  751   1.632   3.652   9.971 -0.2572  0.3260  0.5992
   49MPD2     H  752   1.741   3.337  10.146 -0.3478  1.5783  4.0454
   49MPD2    H1  753   1.789   3.751  10.074  0.1598 -1.0673  1.6157
   49MPD2    H2  754   1.467   3.534   9.896  0.0762  0.5456 -1.0057
   49MPD2    H3  755   1.611   3.746   9.922  0.6134 -1.2644 -2.8100
   49MPD2     N  756   1.890   3.558  10.227 -0.2585  0.4927 -0.2007
   49MPD2    H5  757   1.920   3.653  10.247  1.2817  0.1116 -0.6803
   49MPD2    N1  758   1.554   3.285   9.985 -0.2026  0.1492 -0.5869
   49MPD2    H7  759   1.597   3.214  10.044  1.1953  0.9435 -0.6479
   50TCq2    C1  760   1.472   3.256   9.882 -0.2773 -0.4174 -0.0204
   50TCq2    O2  761   1.444   3.329   9.788 -0.3209 -0.4917 -0.1637
   50TCq2    C2  762   1.460   3.113   9.860  0.1860 -0.2806  0.5293
   50TCq2    C3  763   1.468   3.063   9.729  0.3121  0.4275 -0.0310
   50TCq2    C4  764   1.452   2.932   9.711  0.2828  0.8411  0.2221
   50TCq2    C5  765   1.438   2.844   9.815  0.2730 -0.2021 -0.6294
   50TCq2    C6  766   1.434   2.894   9.939 -0.4271  0.0053  0.0961
   50TCq2    C7  767   1.448   3.025   9.967 -0.2774 -0.5353 -0.1874
   50TCq2    C8  768   1.388   2.816  10.050 -1.0175  0.4544 -0.0988
   50TCq2    O4  769   1.415   2.862  10.159 -0.3318 -0.0721 -0.5766
   50TCq2    C9  770   1.469   2.877   9.579 -0.3711  0.3628 -0.4988
   50TCq2    O5  771   1.458   2.963   9.488  0.6045  0.0994  0.5000
   50TCq2    O6  772   1.495   2.753   9.568  0.5444 -0.0192 -0.3657
   50TCq2    H2  773   1.486   3.130   9.646  1.0522 -0.2589 -0.4217
   50TCq2    H3  774   1.440   2.737   9.800  2.7148 -0.0320 -1.4430
   50TCq2    H4  775   1.431   3.062  10.067 -3.4997  1.2483 -1.3631
   51MPD2     C  776   2.516   2.810   0.785 -0.4219  0.0614  0.8506
   51MPD2    C1  777   2.511   2.708   0.881  0.5778 -0.0513  0.4741
   51MPD2    C2  778   2.573   2.737   1.002 -0.0160 -0.2391 -0.5232
   51MPD2    C3  779   2.632   2.858   1.030  0.7060  0.0237 -0.0256
   51MPD2    C4  780   2.626   2.953   0.934  0.6756 -0.1884 -0.1699
   51MPD2    C5  781   2.561   2.930   0.822 -0.0205 -0.3609  0.6392
   51MPD2     H  782   2.573   2.662   1.081  1.3373 -1.4247 -1.6317
   51MPD2    H1  783   2.668   3.049   0.960 -0.3104 -0.3803  2.1459
   51MPD2    H2  784   2.444   2.806   0.704  1.7986 -3.4001 -0.9484
   51MPD2    H3  785   2.539   3.009   0.751  1.2474  1.0446  1.8103
   51MPD2     N  786   2.708   2.884   1.149 -0.2227  0.0516  0.0899
   51MPD2    H5  787   2.752   2.976   1.151 -0.2609  0.1086 -1.5527
   51MPD2    N1  788   2.446   2.586   0.857 -0.3406 -0.0423  1.2845
   51MPD2    H7  789   2.474   2.511   0.920  0.1274  1.4887  2.8989
   52TCq2    C1  790   2.727   2.799   1.253  0.6930  0.1477 -0.1197
   52TCq2    O2  791   2.678   2.689   1.273  0.0909 -0.5221  0.0172
   52TCq2    C2  792   2.789   2.862   1.367 -0.2984 -0.1709  0.8027
   52TCq2    C3  793   2.789   2.792   1.481 -0.9730 -0.2878 -0.4541
   52TCq2    C4  794   2.860   2.838   1.587  0.1436 -0.5451  0.3782
   52TCq2    C5  795   2.922   2.962   1.581  0.0023 -0.1977 -1.6387
   52TCq2    C6  796   2.913   3.039   1.465 -0.4589  0.6328  0.2074
   52TCq2    C7  797   2.844   2.985   1.353  0.2423 -0.3534 -0.1596
   52TCq2    C8  798   2.963   3.171   1.471 -0.0114 -0.7607 -0.0101
   52TCq2    O4  799   2.980   3.237   1.372 -0.1456  0.1939  0.4208
   52TCq2    C9  800   2.873   2.749   1.701  1.2443  0.3928  0.1619
   52TCq2    O5  801   2.929   2.789   1.804  1.0686  0.4128  0.3441
   52TCq2    O6  802   2.846   2.631   1.671 -0.0466  0.0953  0.5101
   52TCq2    H2  803   2.740   2.696   1.494  0.8032 -1.3180 -1.3155
   52TCq2    H3  804   2.995   2.977   1.660 -0.2008 -3.5162 -0.7991
   52TCq2    H4  805   2.836   3.046   1.264  0.1544  2.0377  1.4856
   53TMC2    C1  806   3.092   0.730  11.582  0.3545  0.4214  0.5088
   53TMC2    C2  807   3.201   0.644  11.592 -0.2887 -0.0175  0.4526
   53TMC2    C3  808   3.216   0.575  11.707 -0.4834 -0.8790 -0.1963
   53TMC2    C4  809   3.006   0.754  11.690 -0.4290  0.2014  0.4944
   53TMC2    C5  810   3.031   0.685  11.803 -0.0478 -1.0304  0.2325
   53TMC2    C6  811   3.139   0.603  11.817 -0.6247 -0.0827 -0.0000
   53TMC2     C  812   3.079   0.811  11.460 -0.1704  0.3791  0.0332
   53TMC2     O  813   3.177   0.817  11.384 -0.8407 -0.1489  0.1136
   53TMC2     H  814   3.266   0.636  11.506 -2.3002 -1.8470 -0.8993
   53TMC2    H1  815   2.926   0.826  11.679  0.0392  1.2064  3.6586
   53TMC2    H2  816   3.140   0.537  11.903 -1.2371 -2.1520 -1.5718
   53TMC2    C7  817   2.979   0.753  11.916  0.5815 -0.7333 -0.3286
   53TMC2    C8  818   3.302   0.452  11.715 -0.4284  0.9074 -0.0647
   53TMC2    O1  819   2.881   0.828  11.903 -0.9816 -0.0801 -0.5873
   53TMC2    O2  820   3.315   0.396  11.820 -0.3497 -0.1922  0.3019
   53TMC2    O5  821   3.342   0.404  11.598 -0.0141  0.3253 -0.4006
   53TMC2    H5  822   3.330   0.464  11.521 -1.1672  0.5685 -0.0353
   54MPD2     C  823   2.989   0.995  11.236 -0.2481 -0.1878 -0.9894
   54MPD2    C1  824   2.911   0.928  11.325 -0.4842  0.4658  0.6608
   54MPD2    C2  825   2.781   0.965  11.330 -0.6857 -0.2682  1.3699
   54MPD2    C3  826   2.720   1.041  11.233 -0.1194 -0.1167 -0.6092
   54MPD2    C4  827   2.796   1.095  11.133  0.9889  0.3971  0.1891
   54MPD2    C5  828   2.923   1.054  11.131 -0.3604  0.1150 -0.5188
   54MPD2     H  829   2.727   0.915  11.409 -1.1611  0.5806  1.5863
   54MPD2    H1  830   2.760   1.150  11.047 -0.9041 -1.0285  0.0696
   54MPD2    H2  831   3.097   0.995  11.239 -0.2517  1.1843 -1.0101
   54MPD2    H3  832   2.987   1.085  11.050  0.9662 -1.0460  0.0943
   54MPD2     N  833   2.584   1.076  11.226  0.7512 -0.0573 -0.3365
   54MPD2    H5  834   2.552   1.115  11.138  3.9877  1.9193 -0.6421
   54MPD2    N1  835   2.951   0.850  11.439 -0.2555 -0.4578 -0.6644
   54MPD2    H7  836   2.881   0.813  11.502  0.8660 -0.1094  0.8073
   55MPD2     C  837   4.079   2.923   1.045  0.1060  0.6983  0.3277
   55MPD2    C1  838   3.972   2.844   1.005  0.3877 -0.6278 -0.1767
   55MPD2    C2  839   3.850   2.909   0.993  0.4086  0.4176  0.2128
   55MPD2    C3  840   3.839   3.042   0.994  0.2895  0.3791  0.2331
   55MPD2    C4  841   3.953   3.118   1.020 -0.0104 -0.3492 -0.1319
   55MPD2    C5  842   4.071   3.058   1.057  0.0219  0.1561  0.2791
   55MPD2     H  843   3.770   2.842   0.963 -0.7600  1.7482  0.3774
   55MPD2    H1  844   3.949   3.226   1.026 -0.5389 -0.4128  0.6124
   55MPD2    H2  845   4.177   2.883   1.066  0.1662 -0.1106 -1.5317
   55MPD2    H3  846   4.148   3.124   1.094 -0.6149  0.9344  0.2153
   55MPD2     N  847   3.712   3.095   0.971 -0.7094 -0.1835 -0.1783
   55MPD2    H5  848   3.635   3.035   0.941  0.1488  0.9524 -4.7484
   55MPD2    N1  849   4.001   2.709   0.992  0.1290 -0.5501  0.0629
   55MPD2    H7  850   4.097   2.678   0.985 -0.5685 -2.4380 -1.2313
   56TCq2    C1  851   3.899   2.615   0.978  0.2501  0.1080  0.0457
   56TCq2    O2  852   3.778   2.627   0.999  0.2671  0.0397 -0.3432
   56TCq2    C2  853   3.946   2.479   0.980 -0.6299  0.0950 -0.0954
   56TCq2    C3  854   4.073   2.446   1.008 -0.2190  0.1609  0.4979
   56TCq2    C4  855   4.116   2.320   0.981 -0.4287  0.3680  0.5651
   56TCq2    C5  856   4.030   2.220   0.933 -0.1898  0.6693 -0.7893
   56TCq2    C6  857   3.894   2.258   0.916 -0.1038 -0.2644  0.0089
   56TCq2    C7  858   3.852   2.385   0.936  0.2570  0.4786  0.1896
   56TCq2    C8  859   3.791   2.158   0.918  0.2824 -0.1999 -0.3506
   56TCq2    O4  860   3.828   2.043   0.936  0.0908  0.7630  0.7380
   56TCq2    C9  861   4.254   2.297   1.001  0.5799 -0.1237  0.2249
   56TCq2    O5  862   4.329   2.396   0.973 -0.4205  0.2576  0.5194
   56TCq2    O6  863   4.289   2.174   1.032  0.2400  0.0125  0.1646
   56TCq2    H2  864   4.144   2.517   1.050  0.0256 -0.3141  0.8939
   56TCq2    H3  865   4.065   2.123   0.899 -0.2892 -0.1561  1.5150
   56TCq2    H4  866   3.750   2.413   0.917  0.7927  0.1998 -3.0647
   57TMC2    C1  867   2.534   4.392  13.286  0.0394  0.9146  0.1615
   57TMC2    C2  868   2.408   4.399  13.237 -0.4572  0.6475 -0.4637
   57TMC2    C3  869   2.390   4.441  13.105  0.1310 -0.5249 -0.1620
   57TMC2    C4  870   2.642   4.425  13.206  0.3353  0.0916  0.3112
   57TMC2    C5  871   2.619   4.433  13.073 -0.1471 -1.1373 -0.3713
   57TMC2    C6  872   2.493   4.441  13.015  0.6925  0.3463 -0.0706
   57TMC2     C  873   2.560   4.365  13.425 -0.0876  0.0376  0.0497
   57TMC2     O  874   2.468   4.386  13.506  0.0051  0.3322  0.3665
   57TMC2     H  875   2.326   4.390  13.308  0.8955 -3.7956  0.5671
   57TMC2    H1  876   2.744   4.419  13.243  1.1942 -0.7376 -2.1411
   57TMC2    H2  877   2.493   4.457  12.908 -1.0802  0.6008 -0.0317
   57TMC2    C7  878   2.732   4.488  12.999 -0.4659  0.1868 -0.1019
   57TMC2    C8  879   2.258   4.449  13.052 -0.1574  0.4707  0.1664
   57TMC2    O1  880   2.711   4.570  12.912  0.5268  0.3000  0.1674
   57TMC2    O2  881   2.160   4.426  13.125 -0.8999  0.2306  0.1406
   57TMC2    O5  882   2.259   4.519  12.934  0.4841  0.2416  1.0654
   57TMC2    H5  883   2.345   4.560  12.911 -0.5763  1.0721 -1.4430
   58MPD2     C  884   2.877   4.219  13.802  0.1926  0.1641 -0.6044
   58MPD2    C1  885   2.759   4.298  13.816 -0.5839 -0.7694  0.5342
   58MPD2    C2  886   2.688   4.318  13.699  0.0684  0.0870  0.3724
   58MPD2    C3  887   2.738   4.271  13.574  0.3786 -0.2180 -0.4844
   58MPD2    C4  888   2.853   4.191  13.568 -0.4436 -0.3255  0.3063
   58MPD2    C5  889   2.917   4.169  13.686 -0.0051 -0.1148  0.3285
   58MPD2     H  890   2.595   4.374  13.709 -0.5581 -1.2449  2.0513
   58MPD2    H1  891   2.894   4.150  13.477 -0.2398  0.7617 -0.0920
   58MPD2    H2  892   2.936   4.192  13.889  2.7714  0.1697 -2.3522
   58MPD2    H3  893   3.004   4.104  13.684 -1.9299 -2.6939 -0.7496
   58MPD2     N  894   2.684   4.304  13.446  0.3005  0.6888 -0.6202
   58MPD2    H5  895   2.748   4.280  13.371  0.9557  1.8674 -0.4346
   58MPD2    N1  896   2.727   4.373  13.932  0.2322  0.3749 -0.4153
   58MPD2    H7  897   2.645   4.431  13.923 -0.4004 -0.5636 -0.6774
   59MPD2     C  898   0.810   4.497  12.899 -0.1138  0.5676 -0.0843
   59MPD2    C1  899   0.930   4.524  12.839  0.3493 -0.3561 -0.0002
   59MPD2    C2  900   1.028   4.579  12.917 -0.4957 -0.0939 -0.4861
   59MPD2    C3  901   1.016   4.601  13.055 -0.5020  0.7927 -0.5508
   59MPD2    C4  902   0.893   4.579  13.112 -0.2487  0.3340  0.2651
   59MPD2    C5  903   0.795   4.523  13.035  0.3716 -0.3230  0.2060
   59MPD2     H  904   1.126   4.591  12.872 -1.5640  1.9309 -2.2650
   59MPD2    H1  905   0.861   4.595  13.214 -0.9188 -1.3235  0.3262
   59MPD2    H2  906   0.734   4.445  12.842 -0.4525  2.6723 -1.5784
   59MPD2    H3  907   0.697   4.506  13.077 -0.0639 -2.6807 -1.7387
   59MPD2     N  908   1.131   4.642  13.135  0.0064 -0.7104 -0.3251
   59MPD2    H5  909   1.102   4.638  13.233  1.0885 -1.7951 -0.0445
   59MPD2    N1  910   0.950   4.494  12.706 -0.4569  0.5809  0.5135
   59MPD2    H7  911   1.046   4.506  12.678 -1.3307  3.1690 -1.3910
   60TCq2    C1  912   0.855   4.466  12.607 -0.4682  0.5553  0.1914
   60TCq2    O2  913   0.735   4.466  12.614  0.5385  0.1095  0.7003
   60TCq2    C2  914   0.913   4.433  12.479  0.5877 -0.4075 -0.4549
   60TCq2    C3  915   1.041   4.383  12.486  0.1669 -0.4810 -0.0861
   60TCq2    C4  916   1.108   4.370  12.363  0.3719  0.3847 -0.6654
   60TCq2    C5  917   1.044   4.414  12.245 -0.2854 -0.1689  0.1219
   60TCq2    C6  918   0.918   4.463  12.242  0.3767 -0.1645 -0.0679
   60TCq2    C7  919   0.852   4.479  12.362 -0.3852 -0.1729  0.0764
   60TCq2    C8  920   0.859   4.483  12.107 -1.0387  0.3022  0.2782
   60TCq2    O4  921   0.918   4.430  12.016  0.2023  0.0328 -0.8313
   60TCq2    C9  922   1.233   4.298  12.355 -0.8655 -0.1347  0.0136
   60TCq2    O5  923   1.283   4.272  12.465  0.4946 -0.5021 -0.9799
   60TCq2    O6  924   1.285   4.300  12.242  0.4369  0.4254 -0.2711
   60TCq2    H2  925   1.083   4.348  12.579 -0.7291 -1.2018  0.0530
   60TCq2    H3  926   1.098   4.406  12.151 -0.2919 -1.0200  0.1863
   60TCq2    H4  927   0.754   4.523  12.369  0.5594  1.6475  1.9092
   61MPD2     C  928   4.665   1.136  13.995  0.6163  0.3157  0.8287
   61MPD2    C1  929   4.546   1.178  14.045  0.3781 -1.3630  0.6380
   61MPD2    C2  930   4.522   1.310  14.049 -0.2631 -0.1426 -0.1824
   61MPD2    C3  931   4.612   1.395  13.994  0.3903 -0.7419  0.4919
   61MPD2    C4  932   0.005   1.350  13.930 -0.2042 -0.4805  0.3464
   61MPD2    C5  933   0.029   1.217  13.938  0.7945 -0.7014 -0.1590
   61MPD2     H  934   4.432   1.340  14.101  0.0854  1.1216 -0.3172
   61MPD2    H1  935   0.064   1.414  13.865  1.3228 -0.8658  1.3742
   61MPD2    H2  936   4.691   1.031  13.983  0.6963  0.4276 -0.0018
   61MPD2    H3  937   0.119   1.180  13.891  0.5836  0.9267 -1.8489
   61MPD2     N  938   4.594   1.539  14.002  0.2792 -0.2183 -0.4667
   61MPD2    H5  939   4.671   1.601  13.979 -1.5891  3.2181  2.4581
   61MPD2    N1  940   4.472   1.101  14.126 -0.0045 -0.1133  0.1831
   61MPD2    H7  941   4.381   1.137  14.154  1.4108  2.3900  1.5442
   62TCq2    C1  942   4.512   0.997  14.202 -0.3498 -0.4758  0.4207
   62TCq2    O2  943   4.617   0.935  14.203 -0.2272 -0.6837 -0.2337
   62TCq2    C2  944   4.428   0.992  14.323  0.1731  0.9590 -0.7705
   62TCq2    C3  945   4.442   0.879  14.407 -0.2766  0.6124 -0.5441
   62TCq2    C4  946   4.380   0.883  14.532 -1.2062 -0.8352  0.3044
   62TCq2    C5  947   4.310   0.997  14.570 -0.5711  0.0924 -0.1998
   62TCq2    C6  948   4.294   1.104  14.484  0.0815  1.1605  0.0177
   62TCq2    C7  949   4.357   1.106  14.365  0.5239 -0.2282 -0.2512
   62TCq2    C8  950   4.229   1.230  14.522 -0.7814  0.4950  0.2604
   62TCq2    O4  951   4.251   1.330  14.447 -0.2427 -0.1209  0.0675
   62TCq2    C9  952   4.379   0.763  14.608  0.5177 -0.1290 -0.5464
   62TCq2    O5  953   4.467   0.676  14.586  0.3525 -0.2614  0.0824
   62TCq2    O6  954   4.309   0.771  14.713 -0.6449  0.1642 -0.4513
   62TCq2    H2  955   4.506   0.795  14.385  0.5048  1.0530  0.0111
   62TCq2    H3  956   4.261   0.991  14.666  1.8404 -0.0559  1.0096
   62TCq2    H4  957   4.334   1.186  14.296 -0.0705  0.5962  0.9027
   63TMC2    C1  958   4.487   1.356  10.648 -0.0267  0.3335 -0.0816
   63TMC2    C2  959   4.588   1.434  10.696 -0.0908 -0.0310  0.7351
   63TMC2    C3  960   4.640   1.518  10.609 -0.1971 -0.3655 -0.3348
   63TMC2    C4  961   4.420   1.383  10.530 -0.5942  0.0404  0.2346
   63TMC2    C5  962   4.471   1.493  10.467  0.0446 -0.2760  0.4509
   63TMC2    C6  963   4.584   1.555  10.493  0.1771  0.4657  0.8288
   63TMC2     C  964   4.421   1.289  10.740  0.6073  1.0466  0.1394
   63TMC2     O  965   4.423   1.324  10.858 -0.1431 -0.1322 -0.0816
   63TMC2     H  966   4.620   1.416  10.798 -2.0168  2.5000  1.7856
   63TMC2    H1  967   4.327   1.348  10.487 -0.3412 -0.1186 -0.1811
   63TMC2    H2  968   4.616   1.645  10.442  0.4780  0.5841  1.2274
   63TMC2    C7  969   4.399   1.537  10.352  0.4231  0.1115 -0.0699
   63TMC2    C8  970   4.711   1.621  10.670  0.0313  0.0892  0.1810
   63TMC2    O1  971   4.323   1.454  10.304  0.3714  0.4080  0.0423
   63TMC2    O2  972   4.682   1.737  10.646 -0.0789  0.0094 -1.3498
   63TMC2    O5  973   0.056   1.580  10.776  0.2608 -0.5374 -0.1520
   63TMC2    H5  974   0.066   1.482  10.771  0.7451 -0.5753  1.6558
   64MPD2     C  975   4.049   0.958  10.837 -0.1761 -0.4874  0.1138
   64MPD2    C1  976   4.085   0.939  10.706  0.5795 -0.5038  0.4714
   64MPD2    C2  977   4.190   1.014  10.655 -0.5466 -0.5710 -0.0877
   64MPD2    C3  978   4.251   1.118  10.732  0.0890 -0.5429 -0.7533
   64MPD2    C4  979   4.196   1.151  10.855  0.6074  0.4206  0.4331
   64MPD2    C5  980   4.097   1.064  10.907  0.0373  0.0436 -0.0088
   64MPD2     H  981   4.242   0.978  10.566 -1.1026  3.1395 -1.9233
   64MPD2    H1  982   4.233   1.233  10.916 -1.5370  1.3380  0.4744
   64MPD2    H2  983   3.987   0.893  10.897 -1.3857 -1.9800 -2.7612
   64MPD2    H3  984   4.076   1.088  11.011 -0.8512 -1.2522  0.1014
   64MPD2     N  985   4.351   1.191  10.674  0.2314 -0.0439 -0.3794
   64MPD2    H5  986   4.367   1.171  10.576 -0.2865  2.1067 -0.8809
   64MPD2    N1  987   4.023   0.840  10.621  0.0943 -0.5043 -0.0751
   64MPD2    H7  988   4.061   0.841  10.527  0.4917 -0.0083  0.0924
   65MPD2     C  989   0.620   0.590  15.696 -0.0157 -0.7816  0.2566
   65MPD2    C1  990   0.589   0.620  15.563  0.5992 -0.4440 -0.0303
   65MPD2    C2  991   0.509   0.528  15.497  0.0718  0.0666  0.1527
   65MPD2    C3  992   0.460   0.411  15.558  0.5247  0.3297  0.5588
   65MPD2    C4  993   0.480   0.395  15.694  0.1275 -0.4033 -0.0760
   65MPD2    C5  994   0.564   0.480  15.761 -0.1395  0.1640 -0.1041
   65MPD2     H  995   0.482   0.545  15.394  1.2370 -0.0050 -0.1659
   65MPD2    H1  996   0.440   0.312  15.751 -3.3209  1.6547  0.4678
   65MPD2    H2  997   0.685   0.652  15.756 -1.0218 -0.4963  1.0366
   65MPD2    H3  998   0.586   0.459  15.865 -1.4590 -1.7582 -0.2040
   65MPD2     N  999   0.374   0.315  15.495 -0.3530 -0.3154 -0.7574
   65MPD2    H5 1000   0.341   0.238  15.553 -3.2679  0.7380 -1.0327
   65MPD2    N1 1001   0.622   0.742  15.491  0.3367 -0.2452 -0.3410
   65MPD2    H7 1002   0.588   0.749  15.396  0.0777 -3.2061 -0.4410
   66TCq2    C1 1003   0.689   0.856  15.530 -0.0859 -0.5431  0.5230
   66TCq2    O2 1004   0.724   0.890  15.642 -0.6522  0.0776  0.3479
   66TCq2    C2 1005   0.711   0.951  15.424 -0.3153 -0.1818  0.5499
   66TCq2    C3 1006   0.702   0.911  15.292  0.6375  0.0602 -0.5771
   66TCq2    C4 1007   0.641   0.988  15.198  0.5632 -0.4221  0.2674
   66TCq2    C5 1008   0.582   1.107  15.231  0.2598  0.0903 -0.9162
   66TCq2    C6 1009   0.596   1.141  15.364 -0.0072 -0.5114  0.4980
   66TCq2    C7 1010   0.654   1.066  15.464  0.3019 -0.4361 -0.1959
   66TCq2    C8 1011   0.556   1.271  15.401 -1.2122  0.4168  0.4817
   66TCq2    O4 1012   0.548   1.344  15.305 -1.0668  0.4859  0.1243
   66TCq2    C9 1013   0.628   0.943  15.063  0.0002  0.1529 -0.2060
   66TCq2    O5 1014   0.712   0.855  15.034  0.0400 -0.3410  0.1558
   66TCq2    O6 1015   0.543   0.989  14.986 -0.4754 -0.3165 -0.2706
   66TCq2    H2 1016   0.722   0.811  15.257  0.3576 -1.2403  2.9933
   66TCq2    H3 1017   0.531   1.171  15.159  0.8943  1.4248 -0.1882
   66TCq2    H4 1018   0.685   1.114  15.556  0.8971 -1.0812 -0.0671
   67MPD2     C 1019   1.047   0.317  14.102 -0.3674  0.1700 -0.3168
   67MPD2    C1 1020   0.929   0.308  14.181 -0.0934 -0.9172  0.4785
   67MPD2    C2 1021   0.806   0.273  14.129 -0.5191 -0.6051 -0.3494
   67MPD2    C3 1022   0.798   0.237  13.995  0.1076  0.6728 -0.0808
   67MPD2    C4 1023   0.909   0.249  13.919 -0.9488 -0.0710  0.7056
   67MPD2    C5 1024   1.030   0.284  13.967 -0.0503 -1.0851 -0.4329
   67MPD2     H 1025   0.723   0.256  14.198 -1.2238  2.8054 -0.3643
   67MPD2    H1 1026   0.902   0.226  13.814 -2.0497  0.5713  0.6451
   67MPD2    H2 1027   1.144   0.346  14.140 -1.1229  1.8651  0.3260
   67MPD2    H3 1028   1.113   0.285  13.898 -1.8091 -0.7941 -2.5295
   67MPD2     N 1029   0.677   0.195  13.933 -0.1058  0.1870  0.4859
   67MPD2    H5 1030   0.668   0.186  13.833  1.0265 -0.4878  0.4349
   67MPD2    N1 1031   0.933   0.329  14.320  0.8917 -0.4255  0.5221
   67MPD2    H7 1032   0.839   0.342  14.357  1.3027  0.0951  1.3796
   68TCq2    C1 1033   1.044   0.348  14.392  0.1873 -0.7441 -0.2688
   68TCq2    O2 1034   1.151   0.297  14.364  0.3519 -0.1977  0.5164
   68TCq2    C2 1035   1.007   0.392  14.529  0.1047  0.3044  0.6716
   68TCq2    C3 1036   0.904   0.486  14.542 -0.2029 -0.0682 -0.4099
   68TCq2    C4 1037   0.896   0.556  14.657  0.5819 -0.7485 -0.6002
   68TCq2    C5 1038   0.974   0.525  14.771  0.1639 -0.0059  0.5379
   68TCq2    C6 1039   1.071   0.433  14.753  0.0385 -0.1169 -0.3971
   68TCq2    C7 1040   1.097   0.368  14.630  0.0196 -0.0399  0.0424
   68TCq2    C8 1041   1.178   0.410  14.849  0.0179 -0.2520  0.0408
   68TCq2    O4 1042   1.265   0.334  14.806  0.3556 -0.3049  0.4993
   68TCq2    C9 1043   0.792   0.662  14.668 -0.3554 -0.2307 -0.1483
   68TCq2    O5 1044   0.753   0.688  14.784 -0.2801 -0.1084 -0.0525
   68TCq2    O6 1045   0.749   0.716  14.562 -0.7040  0.6663 -0.4069
   68TCq2    H2 1046   0.850   0.515  14.452 -1.7179 -3.5993 -0.6111
   68TCq2    H3 1047   0.965   0.590  14.857  1.1556  1.4815 -0.4744
   68TCq2    H4 1048   1.181   0.302  14.610 -1.8853 -2.4914  0.1545
   69TMC2    C1 1049   2.016   1.758  11.946  0.7049 -0.1709 -0.0313
   69TMC2    C2 1050   1.900   1.737  11.879  0.5370 -0.5941  0.4847
   69TMC2    C3 1051   1.902   1.774  11.746  0.0629 -0.8064 -0.5391
   69TMC2    C4 1052   2.133   1.803  11.895 -0.2815 -1.0478 -0.4410
   69TMC2    C5 1053   2.135   1.830  11.757  0.1894 -0.3335  0.3897
   69TMC2    C6 1054   2.019   1.815  11.686 -0.3043 -0.2252  1.0500
   69TMC2     C 1055   2.025   1.713  12.086  0.5575 -0.4676  0.1383
   69TMC2     O 1056   1.951   1.620  12.110 -0.0021  0.0854 -0.8763
   69TMC2     H 1057   1.816   1.710  11.942  0.2711  1.8881  1.1923
   69TMC2    H1 1058   2.217   1.805  11.964 -0.4795  0.8699 -0.2645
   69TMC2    H2 1059   2.021   1.809  11.578  0.0531 -2.4725  1.1929
   69TMC2    C7 1060   2.266   1.836  11.695  0.4802 -0.2802  0.1422
   69TMC2    C8 1061   1.780   1.810  11.678 -0.0574 -0.1489  0.1655
   69TMC2    O1 1062   2.366   1.818  11.768 -0.7453  0.0439 -0.5884
   69TMC2    O2 1063   1.771   1.868  11.571  0.4124 -0.3635  0.1501
   69TMC2    O5 1064   1.681   1.745  11.738  0.3225  0.0528  0.2658
   69TMC2    H5 1065   1.719   1.670  11.787  2.2700 -0.0888 -1.4546
   70MPD2     C 1066   2.171   1.877  12.372 -1.0882  0.6293  0.5402
   70MPD2    C1 1067   2.113   1.772  12.305 -0.0131  0.4856  0.1052
   70MPD2    C2 1068   2.090   1.653  12.373  0.1537  0.0211  0.4046
   70MPD2    C3 1069   2.141   1.638  12.496  0.6715 -0.5882 -0.0441
   70MPD2    C4 1070   2.204   1.742  12.561  0.0367  0.3364  0.5057
   70MPD2    C5 1071   2.213   1.864  12.504  0.0867 -0.0663  0.4278
   70MPD2     H 1072   2.032   1.572  12.330  0.4040  0.2495 -0.3582
   70MPD2    H1 1073   2.265   1.730  12.650  1.8088 -1.1372 -0.9190
   70MPD2    H2 1074   2.182   1.969  12.316 -2.5917  0.6261  0.2195
   70MPD2    H3 1075   2.257   1.952  12.550 -1.6548  0.7421  0.5211
   70MPD2     N 1076   2.147   1.515  12.568  0.4868 -0.3878  0.0977
   70MPD2    H5 1077   2.187   1.524  12.661  0.6301  0.2050 -0.0223
   70MPD2    N1 1078   2.101   1.794  12.165  0.5542 -0.4161  0.4622
   70MPD2    H7 1079   2.137   1.881  12.128  2.1408 -0.6223  1.5194
   71TMC2    C1 1080   1.619   2.097   2.215 -0.6319 -0.0848 -0.0894
   71TMC2    C2 1081   1.711   2.056   2.298  0.4503 -0.6591  0.8720
   71TMC2    C3 1082   1.679   1.968   2.402  0.7800 -0.3045 -0.0934
   71TMC2    C4 1083   1.488   2.051   2.222 -0.8258  0.4041 -0.3039
   71TMC2    C5 1084   1.458   1.962   2.318  0.2953  0.2904 -0.0978
   71TMC2    C6 1085   1.551   1.919   2.410  0.2116  0.2473 -0.7432
   71TMC2     C 1086   1.658   2.187   2.106  0.8173 -0.0065 -0.1185
   71TMC2     O 1087   1.573   2.198   2.019 -0.6321 -0.1040  0.4323
   71TMC2     H 1088   1.812   2.097   2.299  0.1420  0.0532  3.3869
   71TMC2    H1 1089   1.417   2.095   2.154  0.6166  1.1126 -1.3370
   71TMC2    H2 1090   1.524   1.847   2.486 -0.5777 -0.1891 -1.4326
   71TMC2    C7 1091   1.332   1.888   2.329  0.0844 -0.2476  0.1916
   71TMC2    C8 1092   1.751   1.975   2.514 -0.9340 -0.6146 -0.1365
   71TMC2    O1 1093   1.326   1.785   2.396 -0.2757 -0.9943  0.4191
   71TMC2    O2 1094   1.777   1.876   2.582  0.2227 -0.4191 -0.2196
   71TMC2    O5 1095   1.738   2.102   2.561  0.3950  0.2318  0.3951
   71TMC2    H5 1096   1.708   2.160   2.488 -0.0124 -1.2864 -0.6570
   72MPD2     C 1097   1.946   2.515   1.840  0.0342 -0.2470 -0.0909
   72MPD2    C1 1098   1.825   2.468   1.808  0.3663 -0.5928 -0.0106
   72MPD2    C2 1099   1.770   2.379   1.897  0.3476  0.1550  0.5767
   72MPD2    C3 1100   1.836   2.334   2.011 -0.4037  0.2983  0.7698
   72MPD2    C4 1101   1.953   2.398   2.040 -0.0703 -0.1557  0.3748
   72MPD2    C5 1102   2.009   2.489   1.953 -0.4978  0.2285 -0.2137
   72MPD2     H 1103   1.678   2.335   1.859  1.9519 -1.2894 -1.6525
   72MPD2    H1 1104   2.013   2.384   2.130  1.9552  1.7477 -0.6626
   72MPD2    H2 1105   2.001   2.577   1.770  0.0845 -1.1985 -0.8797
   72MPD2    H3 1106   2.098   2.540   1.989 -0.2816  0.8729 -1.6630
   72MPD2     N 1107   1.786   2.234   2.106  0.0428  0.5969 -0.0223
   72MPD2    H5 1108   1.854   2.225   2.181  0.9348  1.3887 -0.7227
   72MPD2    N1 1109   1.758   2.488   1.682 -0.4190  0.6852  0.3432
   72MPD2    H7 1110   1.672   2.437   1.665  0.2286 -0.2513 -0.1666
   73TMC2    C1 1111   0.278   3.925  13.365 -0.0712 -0.9870  0.0303
   73TMC2    C2 1112   0.371   3.890  13.273  0.0848 -0.0583 -0.4942
   73TMC2    C3 1113   0.405   3.755  13.270  0.4293 -1.0537 -0.5744
   73TMC2    C4 1114   0.204   3.831  13.428  0.7498  0.1514 -1.1851
   73TMC2    C5 1115   0.239   3.695  13.417 -0.0925 -0.5488  0.0448
   73TMC2    C6 1116   0.340   3.654  13.335  0.2334  0.7328  0.1793
   73TMC2     C 1117   0.330   4.028  13.456 -0.6123  0.1813  0.9719
   73TMC2     O 1118   0.305   4.009  13.574 -0.2700  0.1612  0.1520
   73TMC2     H 1119   0.434   3.958  13.217  1.5319  0.3308  1.6128
   73TMC2    H1 1120   0.124   3.873  13.488  3.4344 -0.4734  2.8119
   73TMC2    H2 1121   0.363   3.548  13.326 -2.2598  0.3910 -2.3922
   73TMC2    C7 1122   0.225   3.616  13.544 -0.0437 -0.3338  0.1347
   73TMC2    C8 1123   0.519   3.715  13.190  0.0923  0.0828 -0.4998
   73TMC2    O1 1124   0.226   3.489  13.545  0.1147  0.4534  0.1068
   73TMC2    O2 1125   0.548   3.783  13.093  0.3187 -0.0489 -0.5135
   73TMC2    O5 1126   0.602   3.671  13.285 -0.3115 -0.4625 -0.1988
   73TMC2    H5 1127   0.571   3.673  13.378  1.4186  0.5059  0.3514
   74MPD2     C 1128   0.733   4.323  13.596  0.5906  0.7296 -0.4150
   74MPD2    C1 1129   0.648   4.239  13.666 -0.1933 -0.7360  0.8999
   74MPD2    C2 1130   0.545   4.167  13.607 -0.0864  0.4725  0.2146
   74MPD2    C3 1131   0.521   4.192  13.471  0.4048 -0.0944 -0.1936
   74MPD2    C4 1132   0.609   4.278  13.399  0.5350 -0.1030 -0.5743
   74MPD2    C5 1133   0.709   4.341  13.462  0.6479  0.3763  0.1722
   74MPD2     H 1134   0.472   4.102  13.654 -0.8993  0.9530 -0.3750
   74MPD2    H1 1135   0.602   4.275  13.291 -0.3726 -2.2929 -0.4600
   74MPD2    H2 1136   0.816   4.375  13.641  0.9137 -0.8492  0.8235
   74MPD2    H3 1137   0.777   4.404  13.405  2.0840  0.6744  2.1866
   74MPD2     N 1138   0.420   4.120  13.402  0.0303  0.1818 -0.0245
   74MPD2    H5 1139   0.421   4.114  13.301 -1.7828  0.2055 -0.0411
   74MPD2    N1 1140   0.677   4.222  13.808  0.3033  0.1003  0.2450
   74MPD2    H7 1141   0.759   4.269  13.846  1.2868 -1.0494 -0.4820
   75TCq2    C1 1142   0.565   0.179  14.006 -0.7829 -0.3295  0.3994
   75TCq2    O2 1143   0.537   0.180  14.125 -0.0228 -0.3156  0.1163
   75TCq2    C2 1144   0.447   0.152  13.921  0.6969 -0.6058 -0.1679
   75TCq2    C3 1145   0.352   0.066  13.971  0.6173 -0.2456 -0.4389
   75TCq2    C4 1146   0.244   0.034  13.895  0.5589  0.1987  0.1142
   75TCq2    C5 1147   0.233   0.084  13.765  0.6069 -0.4875  0.8119
   75TCq2    C6 1148   0.332   0.159  13.718  0.6691 -0.5489  0.1771
   75TCq2    C7 1149   0.438   0.195  13.796 -0.1921  0.0863  0.1174
   75TCq2    C8 1150   0.305   0.253  13.607 -0.0270 -0.6015  0.2220
   75TCq2    O4 1151   0.346   0.371  13.618  0.2852  0.5104 -0.3167
   75TCq2    C9 1152   0.132   4.688  13.955 -0.4709  1.0285 -0.8796
   75TCq2    O5 1153   0.025   4.688  13.895  0.0138  0.4323  0.5935
   75TCq2    O6 1154   0.143   4.639  14.067  0.3600 -0.0526  0.5579
   75TCq2    H2 1155   0.340   0.034  14.074 -0.0235 -0.6583 -0.6363
   75TCq2    H3 1156   0.144   0.079  13.704  1.9792  2.8512 -1.4790
   75TCq2    H4 1157   0.508   0.266  13.752  1.6185 -1.5603  0.3296
   76MPD2     C 1158   3.127   1.190  11.979 -0.6579 -0.5249  0.4747
   76MPD2    C1 1159   3.173   1.182  11.848  0.3518 -0.5130 -0.1852
   76MPD2    C2 1160   3.269   1.082  11.815 -0.1818  0.4076 -0.1562
   76MPD2    C3 1161   3.308   0.988  11.905  1.0016  0.2393  0.1010
   76MPD2    C4 1162   3.247   0.981  12.026 -0.7541  0.0942 -0.1007
   76MPD2    C5 1163   3.162   1.082  12.056  0.0009 -0.7220 -0.4013
   76MPD2     H 1164   3.312   1.078  11.716  0.1772 -0.2969  0.0280
   76MPD2    H1 1165   3.285   0.906  12.095  0.2166  0.2058 -0.5219
   76MPD2    H2 1166   3.055   1.260  12.019  0.4984  2.1279 -2.1109
   76MPD2    H3 1167   3.129   1.078  12.160  0.3928 -1.4384 -0.3062
   76MPD2     N 1168   3.418   0.900  11.881 -0.7536  0.0094  0.6082
   76MPD2    H5 1169   3.437   0.841  11.961 -1.5203  0.0482  0.8156
   76MPD2    N1 1170   3.138   1.276  11.748 -0.1699 -0.1757  0.3057
   76MPD2    H7 1171   3.164   1.250  11.653  1.7856  0.9883  0.5308
   77TCq2    C1 1172   3.509   0.901  11.776  0.4476 -0.2929  0.7482
   77TCq2    O2 1173   3.518   0.984  11.688  0.2349 -0.5827  0.4260
   77TCq2    C2 1174   3.622   0.814  11.810 -0.1053 -0.4866 -0.0430
   77TCq2    C3 1175   3.586   0.712  11.894  0.2450 -0.8802  0.1261
   77TCq2    C4 1176   3.673   0.674  11.986 -0.7880  1.0130 -0.2217
   77TCq2    C5 1177   3.794   0.737  12.001  0.5980  0.1660  0.9298
   77TCq2    C6 1178   3.834   0.825  11.902 -0.2613 -0.1159 -0.0680
   77TCq2    C7 1179   3.749   0.861  11.801  0.2292 -0.5270 -0.1820
   77TCq2    C8 1180   3.973   0.837  11.877  0.2676 -0.2568 -0.3232
   77TCq2    O4 1181   4.005   0.853  11.760 -0.6505  0.7627 -0.1390
   77TCq2    C9 1182   3.642   0.571  12.076  0.7017 -0.5109 -0.1726
   77TCq2    O5 1183   3.540   0.502  12.054 -0.2279 -0.2354 -0.6180
   77TCq2    O6 1184   3.719   0.539  12.172  0.0236  0.3271  0.2660
   77TCq2    H2 1185   3.488   0.665  11.890 -0.8682  1.3839  0.4744
   77TCq2    H3 1186   3.858   0.704  12.082  1.4099 -0.5518  0.0054
   77TCq2    H4 1187   3.780   0.933  11.725  0.5096 -0.9961 -0.5102
   78MPD1     C 1188   0.144   2.589   1.551  0.2316 -0.5228  0.3236
   78MPD1    C1 1189   0.236   2.534   1.639  0.3384 -0.1188  0.7652
   78MPD1    C2 1190   0.235   2.391   1.648 -0.6330  0.0984  0.0305
   78MPD1    C3 1191   0.164   2.315   1.558 -0.0400 -0.0566  0.0988
   78MPD1    C4 1192   0.082   2.373   1.465  0.0161  0.1976  0.2874
   78MPD1    C5 1193   0.071   2.505   1.471 -0.2256  0.7177  1.8324
   78MPD1     H 1194   0.303   2.343   1.717 -1.5152 -1.1209  0.0519
   78MPD1    H1 1195   0.027   2.331   1.382  0.8958 -1.0537  0.3290
   78MPD1    H2 1196   0.134   2.697   1.548  0.9804 -0.4274  1.2466
   78MPD1    H3 1197   0.012   2.569   1.407  1.7470  0.5044 -0.1808
   78MPD1     N 1198   0.164   2.173   1.556 -0.0840  0.2168  0.4401
   78MPD1    H5 1199   0.117   2.130   1.477 -0.9573  2.1262 -0.0771
   78MPD1    N1 1200   0.313   2.609   1.727  0.2235 -0.6123  0.3214
   78MPD1    H6 1201   0.332   2.700   1.684 -1.2022 -0.3166  0.3383
   78MPD1    H7 1202   0.397   2.559   1.757 -0.2453 -1.9458 -0.5961
   79TCq2    C1 1203   0.222   2.086   1.645 -0.1284  0.0103 -0.6870
   79TCq2    O2 1204   0.266   2.102   1.759 -0.1250  0.3523  0.1631
   79TCq2    C2 1205   0.193   1.952   1.598  0.8197 -0.2831  0.2530
   79TCq2    C3 1206   0.086   1.924   1.507  0.0997  0.1604  0.4639
   79TCq2    C4 1207   0.089   1.802   1.449 -0.8197 -0.3224  0.0835
   79TCq2    C5 1208   0.187   1.715   1.466  1.3874  0.3973 -0.1468
   79TCq2    C6 1209   0.293   1.746   1.542  0.2199 -0.4504  0.8669
   79TCq2    C7 1210   0.303   1.866   1.607 -0.2041 -0.2711  0.2914
   79TCq2    C8 1211   0.418   1.661   1.545  0.0351  0.1049 -0.5019
   79TCq2    O4 1212   0.517   1.698   1.604 -0.5588  0.3616  0.1684
   79TCq2    C9 1213   4.697   1.771   1.361 -0.0100  0.1368 -0.3221
   79TCq2    O5 1214   4.612   1.863   1.343 -0.3474  0.2386 -0.3684
   79TCq2    O6 1215   4.680   1.648   1.353 -0.3157 -0.0332 -0.0648
   79TCq2    H2 1216   4.716   1.980   1.507  0.8374  1.4200 -1.2686
   79TCq2    H3 1217   0.174   1.630   1.399  0.8399  0.1678  0.2487
   79TCq2    H4 1218   0.384   1.880   1.677 -0.3523  0.4445  0.3249
   80MPD2     C 1219   2.729   0.700  12.535  0.1666  0.2378  0.1981
   80MPD2    C1 1220   2.689   0.637  12.418 -0.1235  0.4155  0.2201
   80MPD2    C2 1221   2.558   0.647  12.366 -0.0560 -0.1339  0.2534
   80MPD2    C3 1222   2.468   0.706  12.449  0.1421 -0.4729  0.6546
   80MPD2    C4 1223   2.505   0.754  12.576 -0.9129  0.0174 -0.6248
   80MPD2    C5 1224   2.635   0.753  12.622 -0.3754 -0.7049 -0.2849
   80MPD2     H 1225   2.520   0.598  12.277  1.4669 -0.7653 -0.0454
   80MPD2    H1 1226   2.434   0.805  12.641  0.2676 -2.6648  2.7402
   80MPD2    H2 1227   2.832   0.695  12.570 -0.1212  1.3544  1.1867
   80MPD2    H3 1228   2.673   0.793  12.715 -0.0908  3.3723 -2.1666
   80MPD2     N 1229   2.336   0.717  12.418 -0.5775 -0.0567 -0.1784
   80MPD2    H5 1230   2.265   0.722  12.490  1.7152 -1.6953  2.1962
   80MPD2    N1 1231   2.788   0.573  12.335 -0.3816  0.4709  0.2222
   80MPD2    H7 1232   2.750   0.549  12.244 -0.8685  0.0438  0.5362
   81TCq2    C1 1233   2.909   0.530  12.372 -0.3720  0.1497 -0.2144
   81TCq2    O2 1234   2.967   0.526  12.482 -0.5578  0.5796  0.2628
   81TCq2    C2 1235   2.962   0.441  12.274  0.9394  0.0275  0.0483
   81TCq2    C3 1236   3.076   0.374  12.307 -0.3139 -0.1409 -0.1192
   81TCq2    C4 1237   3.156   0.312  12.211  0.0736  0.1866 -0.0225
   81TCq2    C5 1238   3.116   0.313  12.082  0.2062 -0.9038  0.0469
   81TCq2    C6 1239   2.993   0.375  12.059 -0.7819  0.4528  0.5224
   81TCq2    C7 1240   2.915   0.435  12.147  0.1641 -0.1996  0.0125
   81TCq2    C8 1241   2.912   0.321  11.960  0.3332 -0.8008 -0.4777
   81TCq2    O4 1242   2.882   0.397  11.871 -0.1501 -0.8765  0.5399
   81TCq2    C9 1243   3.290   0.261  12.238 -0.4618  0.3024  0.3760
   81TCq2    O5 1244   3.370   0.274  12.141  0.1807 -0.3186  0.5850
   81TCq2    O6 1245   3.331   0.261  12.356 -0.6085  0.5776 -0.4653
   81TCq2    H2 1246   3.115   0.383  12.408  1.7697 -0.8852 -0.8661
   81TCq2    H3 1247   3.171   0.258  12.006  0.0427  0.2353 -0.8950
   81TCq2    H4 1248   2.826   0.487  12.114 -0.8715 -3.1997 -1.9123
   82MPD2     C 1249   1.107   0.141  10.776 -0.1262 -0.0142 -0.0450
   82MPD2    C1 1250   1.017   0.051  10.827 -0.9033 -0.7752 -0.1751
   82MPD2    C2 1251   1.046   4.648  10.872  0.2987 -0.3828  0.1619
   82MPD2    C3 1252   1.177   4.608  10.864  0.3285 -0.3060  0.5195
   82MPD2    C4 1253   1.271   4.697  10.811 -0.5722  0.3031 -0.1194
   82MPD2    C5 1254   1.239   0.105  10.776  0.6298 -0.3955  0.0582
   82MPD2     H 1255   0.967   4.584  10.910  0.9338 -0.1878  1.8233
   82MPD2    H1 1256   1.379   4.683  10.817 -0.5756  0.6873  0.9045
   82MPD2    H2 1257   1.074   0.243  10.756  2.5787  1.2292  1.8370
   82MPD2    H3 1258   1.319   0.174  10.753 -1.0329  2.1007  1.7584
   82MPD2     N 1259   1.219   4.480  10.904  0.0297 -0.5760  0.5278
   82MPD2    H5 1260   1.312   4.443  10.886  0.4799  1.9831 -2.4186
   82MPD2    N1 1261   0.884   0.104  10.819  0.7327  0.0237  0.0815
   82MPD2    H7 1262   0.874   0.186  10.760 -0.9312 -2.6179 -3.2245
   83TCq2    C1 1263   1.129   4.381  10.929  0.3798 -0.8934 -0.0894
   83TCq2    O2 1264   1.008   4.377  10.945 -0.0001  0.2396  0.0415
   83TCq2    C2 1265   1.180   4.253  10.974  0.6100  0.5508  0.4188
   83TCq2    C3 1266   1.301   4.252  11.043  0.1201  0.7967  0.0677
   83TCq2    C4 1267   1.320   4.167  11.153 -0.2523 -0.0871  0.1605
   83TCq2    C5 1268   1.218   4.095  11.194 -0.5467 -0.5536  0.5094
   83TCq2    C6 1269   1.097   4.099  11.127 -0.0746  0.3691 -0.2773
   83TCq2    C7 1270   1.080   4.162  11.011  0.6651  0.4668 -0.2252
   83TCq2    C8 1271   0.987   4.112  11.219  0.2265  0.2783  0.5143
   83TCq2    O4 1272   0.984   4.050  11.322 -0.3334  0.2070  0.1067
   83TCq2    C9 1273   1.452   4.162  11.229 -0.2396 -0.2591 -0.0954
   83TCq2    O5 1274   1.536   4.252  11.197  0.3433 -0.1761  0.1609
   83TCq2    O6 1275   1.459   4.077  11.318  0.1633 -0.3641  0.0523
   83TCq2    H2 1276   1.384   4.309  11.002  1.8272  0.1355  2.5977
   83TCq2    H3 1277   1.224   4.046  11.291  1.9361 -0.1899  0.5317
   83TCq2    H4 1278   0.989   4.152  10.953  0.9089  2.4080 -0.9469
   84TCq2    C1 1279   1.946   3.452  10.306  0.2323 -0.7280  0.0661
   84TCq2    O2 1280   1.915   3.337  10.322 -0.4079 -0.3632  0.2212
   84TCq2    C2 1281   2.045   3.501  10.404  0.0424 -0.0639 -0.6529
   84TCq2    C3 1282   2.133   3.599  10.374 -0.4416 -0.8462  0.0593
   84TCq2    C4 1283   2.203   3.661  10.474  0.2142  0.4135  0.1011
   84TCq2    C5 1284   2.190   3.620  10.602 -0.0669  0.6289  0.1346
   84TCq2    C6 1285   2.091   3.531  10.629 -0.5075 -0.7961 -0.0134
   84TCq2    C7 1286   2.024   3.463  10.533  0.4057  0.4388 -0.3012
   84TCq2    C8 1287   2.063   3.491  10.769  0.8197  0.3819 -0.4636
   84TCq2    O4 1288   1.958   3.427  10.794 -0.1774 -0.8070 -0.4821
   84TCq2    C9 1289   2.306   3.756  10.449  0.4333 -0.3011  0.9639
   84TCq2    O5 1290   2.359   3.747  10.336 -0.5090 -0.1958  0.3650
   84TCq2    O6 1291   2.341   3.833  10.546  0.6563  0.0174  0.6910
   84TCq2    H2 1292   2.147   3.626  10.270  1.6569 -0.5977  0.4088
   84TCq2    H3 1293   2.224   3.681  10.684 -0.7112 -1.0993  1.6861
   84TCq2    H4 1294   1.946   3.397  10.569 -0.6240 -0.2492 -3.8564
   85MPD2     C 1295   2.891   1.587  16.295  0.0749 -0.1936  0.3654
   85MPD2    C1 1296   2.837   1.561  16.172 -0.6331  1.0958 -0.6408
   85MPD2    C2 1297   2.837   1.661  16.078 -0.1624 -0.5156 -0.2506
   85MPD2    C3 1298   2.911   1.779  16.099 -0.0015  0.2634 -0.2247
   85MPD2    C4 1299   2.976   1.802  16.219  0.2396  0.0442  0.3455
   85MPD2    C5 1300   2.967   1.701  16.315 -0.0526 -0.1607  0.4200
   85MPD2     H 1301   2.783   1.654  15.984  1.7595  0.3693 -1.4336
   85MPD2    H1 1302   3.039   1.884  16.250  3.4968 -1.5405 -2.1611
   85MPD2    H2 1303   2.875   1.514  16.373  0.8570 -1.0263 -0.2664
   85MPD2    H3 1304   3.019   1.718  16.408 -0.5436 -0.4373  0.7476
   85MPD2     N 1305   2.941   1.867  15.991 -0.2123  0.2874 -0.1421
   85MPD2    H5 1306   2.912   1.842  15.897  0.7955 -0.1567 -0.3400
   85MPD2    N1 1307   2.767   1.440  16.135 -0.0401  0.0416 -0.0109
   85MPD2    H7 1308   2.713   1.433  16.050 -0.1483 -3.2334  0.3418
   86TCq2    C1 1309   3.018   1.977  15.995  0.4466  0.3573  0.6212
   86TCq2    O2 1310   3.033   2.058  16.087 -0.4511  0.8039  0.1154
   86TCq2    C2 1311   3.044   2.023  15.858  0.6258 -0.2616  0.3203
   86TCq2    C3 1312   3.113   2.140  15.846  0.0956 -1.0890  0.2491
   86TCq2    C4 1313   3.172   2.184  15.730 -0.1732  0.6432  0.1456
   86TCq2    C5 1314   3.171   2.101  15.620  0.1043  0.7035 -0.0294
   86TCq2    C6 1315   3.098   1.988  15.628  0.1583  0.2674  0.7203
   86TCq2    C7 1316   3.031   1.944  15.744  0.0379  0.0113  0.1747
   86TCq2    C8 1317   3.127   1.879  15.532  0.0170  0.2286  0.2368
   86TCq2    O4 1318   3.088   1.764  15.563  0.4086  0.0971 -0.4377
   86TCq2    C9 1319   3.241   2.313  15.721  0.2596 -0.0973  0.1986
   86TCq2    O5 1320   3.273   2.354  15.609  0.1515  0.2087  0.3781
   86TCq2    O6 1321   3.251   2.381  15.828 -0.7684  0.6466  0.1206
   86TCq2    H2 1322   3.122   2.201  15.935  1.7248 -1.0344  0.0508
   86TCq2    H3 1323   3.229   2.129  15.534  1.4506  1.2080  1.0388
   86TCq2    H4 1324   2.959   1.863  15.738  0.7590 -0.5749 -0.5330
   87MPD2     C 1325   1.116   0.430   1.024  0.1938 -0.7190 -1.1816
   87MPD2    C1 1326   1.136   0.533   1.112 -0.4480  0.0816 -0.1537
   87MPD2    C2 1327   1.061   0.649   1.109 -0.3398 -0.1824 -0.1244
   87MPD2    C3 1328   0.956   0.655   1.018  0.2442 -0.3659  0.7914
   87MPD2    C4 1329   0.937   0.551   0.935  0.2708  0.2170  0.6032
   87MPD2    C5 1330   1.018   0.443   0.936 -1.1117 -0.5179 -0.2164
   87MPD2     H 1331   1.079   0.728   1.181  0.1584 -0.2901 -0.1302
   87MPD2    H1 1332   0.855   0.547   0.864 -2.4091 -0.8751  3.7278
   87MPD2    H2 1333   1.185   0.348   1.041  0.9960 -0.0529 -1.2219
   87MPD2    H3 1334   1.006   0.364   0.863  0.8855  0.3452 -1.5010
   87MPD2     N 1335   0.864   0.767   1.010  0.1865 -0.2207  0.2523
   87MPD2    H5 1336   0.791   0.759   0.939 -0.0084 -0.4301  0.4752
   87MPD2    N1 1337   1.245   0.511   1.202  0.3785 -0.1048 -0.3771
   87MPD2    H7 1338   1.296   0.424   1.189  0.4772  0.0437 -0.9494
   88TCq2    C1 1339   1.259   0.570   1.326  0.0201 -0.3812  0.4075
   88TCq2    O2 1340   1.178   0.649   1.377 -0.1879 -0.5339  0.5962
   88TCq2    C2 1341   1.384   0.548   1.391 -0.5232 -0.3080  0.3202
   88TCq2    C3 1342   1.376   0.521   1.528 -0.4867  0.4681 -0.0990
   88TCq2    C4 1343   1.495   0.482   1.585 -0.3030 -0.7595 -0.9488
   88TCq2    C5 1344   1.610   0.472   1.513  0.0441  0.0004 -0.0661
   88TCq2    C6 1345   1.606   0.491   1.376  0.4099  0.5895  0.2652
   88TCq2    C7 1346   1.496   0.538   1.316 -0.2628  0.3844 -0.2503
   88TCq2    C8 1347   1.699   0.423   1.285 -0.9322 -0.3589 -0.1138
   88TCq2    O4 1348   1.673   0.412   1.162 -0.0512  0.5880  0.3730
   88TCq2    C9 1349   1.496   0.468   1.725 -0.2800  0.2900 -0.1102
   88TCq2    O5 1350   1.583   0.394   1.771 -0.1234 -0.0359  0.0533
   88TCq2    O6 1351   1.445   0.565   1.786 -0.5653  0.4106 -0.5763
   88TCq2    H2 1352   1.282   0.538   1.579  0.2922 -2.2693  2.2643
   88TCq2    H3 1353   1.698   0.433   1.563 -1.3596 -2.3314  0.5494
   88TCq2    H4 1354   1.493   0.539   1.207  3.5471  0.2620 -0.3456
   89MPD2     C 1355   2.064   3.362   1.647 -0.6208 -0.0847 -0.5927
   89MPD2    C1 1356   1.985   3.437   1.736 -0.0068  0.1837  0.4683
   89MPD2    C2 1357   2.053   3.558   1.764 -0.3760  0.8735 -0.3066
   89MPD2    C3 1358   2.169   3.604   1.698 -0.0098  0.1299  0.1013
   89MPD2    C4 1359   2.232   3.521   1.604  0.1595 -0.0197  0.5814
   89MPD2    C5 1360   2.174   3.404   1.577  0.4821  0.3685 -0.1433
   89MPD2     H 1361   2.005   3.623   1.837 -0.9374 -0.7250  0.7397
   89MPD2    H1 1362   2.317   3.551   1.543 -0.0597  1.7513  1.1444
   89MPD2    H2 1363   2.045   3.257   1.627  1.0498 -0.5672  0.2853
   89MPD2    H3 1364   2.217   3.330   1.510  0.5521 -0.3920  0.7324
   89MPD2     N 1365   2.222   3.735   1.736  0.3929  0.4564 -0.3318
   89MPD2    H5 1366   2.165   3.784   1.805 -0.2780 -2.6770  1.3417
   89MPD2    N1 1367   1.864   3.396   1.797 -0.0259 -0.0929 -0.0597
   89MPD2    H7 1368   1.821   3.460   1.864  2.0287 -0.2662  1.4210
   90TCq2    C1 1369   2.341   3.788   1.689 -0.2404 -0.4894 -0.0722
   90TCq2    O2 1370   2.424   3.729   1.620  0.0484 -0.3631 -0.1023
   90TCq2    C2 1371   2.348   3.933   1.714  0.7165  0.7372 -0.1224
   90TCq2    C3 1372   2.254   4.011   1.781  0.6962 -0.3365 -0.0819
   90TCq2    C4 1373   2.275   4.142   1.795  0.3133 -0.3661 -0.6362
   90TCq2    C5 1374   2.376   4.202   1.729  0.3940 -0.1707  0.0505
   90TCq2    C6 1375   2.475   4.128   1.673 -0.0234  0.0834  0.0859
   90TCq2    C7 1376   2.460   3.987   1.659 -0.0900 -0.2980  0.5181
   90TCq2    C8 1377   2.601   4.194   1.653  0.1172 -0.2818 -0.5263
   90TCq2    O4 1378   2.627   4.291   1.724  0.3639 -0.0612  0.5365
   90TCq2    C9 1379   2.184   4.221   1.871 -0.4374  0.0315  0.2269
   90TCq2    O5 1380   2.227   4.335   1.893  0.4675  0.1106 -0.3293
   90TCq2    O6 1381   2.119   4.152   1.956  0.3282 -0.6395  0.2650
   90TCq2    H2 1382   2.162   3.969   1.820  0.9600 -1.9459 -1.1970
   90TCq2    H3 1383   2.385   4.310   1.732 -0.4680 -0.0585 -1.1113
   90TCq2    H4 1384   2.549   3.932   1.636 -0.8739 -0.7530 -1.3686
   91TMC2    C1 1385   3.103   2.732  16.740 -0.9206  0.7635 -0.0766
   91TMC2    C2 1386   3.160   2.727  16.863  0.3901 -0.0048 -0.2324
   91TMC2    C3 1387   3.132   2.827  16.954  0.1356 -0.4920 -0.0072
   91TMC2    C4 1388   3.009   2.828  16.711 -0.2832 -0.1297 -0.4995
   91TMC2    C5 1389   2.991   2.930  16.805 -0.3700 -0.4586  0.0658
   91TMC2    C6 1390   3.053   2.939  16.926  0.1130 -0.4533  0.3251
   91TMC2     C 1391   3.130   2.631  16.638  0.4112 -0.4770 -0.1870
   91TMC2     O 1392   3.045   2.582  16.567 -0.2533 -0.5488 -0.0599
   91TMC2     H 1393   3.240   2.657  16.884  1.4045  1.3364  0.3887
   91TMC2    H1 1394   2.980   2.845  16.608 -0.6404  1.2945 -0.1617
   91TMC2    H2 1395   3.036   3.022  16.992 -2.7759 -0.8195  0.0767
   91TMC2    C7 1396   2.923   3.052  16.771 -0.3253 -0.1989  0.8996
   91TMC2    C8 1397   3.188   2.805  17.092  0.4833  0.6461  0.0064
   91TMC2    O1 1398   2.972   3.152  16.822 -0.8857  0.5546 -0.6150
   91TMC2    O2 1399   3.297   2.756  17.113 -0.3612 -0.5546  0.0658
   91TMC2    O5 1400   3.107   2.856  17.179 -0.3315  0.6031  0.4793
   91TMC2    H5 1401   3.017   2.867  17.141 -0.7288 -2.0625  0.7024
   92MPD2     C 1402   3.291   2.503  16.422  0.2348 -1.0065  0.3668
   92MPD2    C1 1403   3.337   2.549  16.543 -0.8528  0.1206 -0.6220
   92MPD2    C2 1404   3.478   2.542  16.567  0.6911  0.2062 -0.6987
   92MPD2    C3 1405   3.567   2.498  16.468  0.3516  0.2475  0.2675
   92MPD2    C4 1406   3.514   2.476  16.346 -0.1735 -0.9760  0.0666
   92MPD2    C5 1407   3.380   2.464  16.321 -0.6242 -0.3588 -0.3233
   92MPD2     H 1408   3.523   2.571  16.661 -0.0116 -0.3538 -0.1931
   92MPD2    H1 1409   3.575   2.455  16.259 -0.1649  1.1083 -0.4268
   92MPD2    H2 1410   3.186   2.487  16.399  0.4372  0.1415 -1.3336
   92MPD2    H3 1411   3.337   2.434  16.226  0.4432 -0.0572 -0.8979
   92MPD2     N 1412   3.712   2.495  16.485 -1.3149 -0.4055 -0.3763
   92MPD2    H5 1413   3.780   2.491  16.409  1.0052 -0.3997  1.6807
   92MPD2    N1 1414   3.266   2.617  16.639  0.3485 -0.1455 -0.0484
   92MPD2    H7 1415   3.316   2.667  16.711  0.9561 -2.0830  0.8906
   93MPD2     C 1416   0.287   2.755  13.703  0.2935  0.3179 -0.4211
   93MPD2    C1 1417   0.280   2.894  13.717 -0.6183 -0.2083 -0.3502
   93MPD2    C2 1418   0.165   2.953  13.681 -0.6560  0.6076 -0.4204
   93MPD2    C3 1419   0.062   2.872  13.628 -0.1951  0.6595  0.3577
   93MPD2    C4 1420   0.070   2.740  13.615 -0.1072 -0.6214 -0.2274
   93MPD2    C5 1421   0.187   2.678  13.658 -0.5149 -0.0200  0.3380
   93MPD2     H 1422   0.142   3.058  13.699 -0.3682  0.3682  1.3854
   93MPD2    H1 1423   4.713   2.685  13.567 -0.8136  1.0787 -0.9963
   93MPD2    H2 1424   0.368   2.699  13.748  0.4626  0.2151 -0.8614
   93MPD2    H3 1425   0.194   2.570  13.659 -0.0371  0.0127  0.4649
   93MPD2     N 1426   4.665   2.939  13.589  0.4052  0.0784  0.4392
   93MPD2    H5 1427   4.667   3.039  13.604  1.8527  0.1672 -0.3675
   93MPD2    N1 1428   0.386   2.972  13.778  1.0985  0.4655  0.1715
   93MPD2    H7 1429   0.371   3.072  13.780 -1.6952  0.0582 -0.2733
   94TCq2    C1 1430   0.491   2.916  13.848  0.3468 -0.4501 -0.4797
   94TCq2    O2 1431   0.521   2.803  13.874  0.6231 -0.8637  0.4168
   94TCq2    C2 1432   0.583   3.022  13.900 -0.0280  0.8389 -0.2993
   94TCq2    C3 1433   0.589   3.137  13.832  0.3069  0.1662 -0.2357
   94TCq2    C4 1434   0.677   3.229  13.875  0.5749  0.2730 -0.4090
   94TCq2    C5 1435   0.763   3.201  13.977 -0.0425  0.3086 -0.1554
   94TCq2    C6 1436   0.765   3.079  14.029 -0.2985 -0.3948  0.3696
   94TCq2    C7 1437   0.680   2.986  13.991  0.0604 -0.5034  0.1315
   94TCq2    C8 1438   0.883   3.032  14.089 -0.7465  0.0528 -0.7600
   94TCq2    O4 1439   0.896   2.910  14.097  0.8051 -0.0568 -0.5758
   94TCq2    C9 1440   0.678   3.355  13.812  0.1575 -0.4985  0.3566
   94TCq2    O5 1441   0.769   3.437  13.849  0.3331  0.0247  0.3881
   94TCq2    O6 1442   0.619   3.354  13.702 -0.6926 -0.5796 -0.2420
   94TCq2    H2 1443   0.521   3.169  13.754  1.4735 -1.0970 -1.7573
   94TCq2    H3 1444   0.839   3.275  13.997  0.9655 -0.1175 -2.3398
   94TCq2    H4 1445   0.687   2.883  14.024 -0.1410 -0.6239 -0.2079
   95TMC2    C1 1446   0.250   4.144  15.887 -0.1064  0.5346  0.1563
   95TMC2    C2 1447   0.327   4.041  15.851  0.0120 -0.0768  0.1399
   95TMC2    C3 1448   0.374   3.965  15.949 -0.7094 -0.0390  0.0558
   95TMC2    C4 1449   0.226   4.173  16.015 -0.7908 -0.4040  0.4335
   95TMC2    C5 1450   0.288   4.096  16.115  0.1426  0.3172  0.5226
   95TMC2    C6 1451   0.359   3.986  16.083 -0.3559 -0.5928 -0.9367
   95TMC2     C 1452   0.184   4.233  15.791  0.7835 -0.5700  0.2890
   95TMC2     O 1453   0.184   4.352  15.820 -0.6382 -0.1945  0.3694
   95TMC2     H 1454   0.338   4.015  15.746  0.8706 -0.8298  0.4166
   95TMC2    H1 1455   0.188   4.273  16.033 -0.4184 -0.2153  0.1795
   95TMC2    H2 1456   0.380   3.914  16.161 -0.1055 -0.0899 -0.5457
   95TMC2    C7 1457   0.257   4.114  16.253  0.5279 -0.6985 -0.3089
   95TMC2    C8 1458   0.449   3.843  15.918  0.3194  0.3621 -0.5933
   95TMC2    O1 1459   0.329   4.051  16.330 -0.1786  0.2644  0.4357
   95TMC2    O2 1460   0.457   3.756  15.998 -0.3967 -0.9387 -0.0212
   95TMC2    O5 1461   0.512   3.851  15.803 -0.1365 -0.1182 -0.4552
   95TMC2    H5 1462   0.519   3.939  15.762  1.6945 -0.1591 -0.2278
   96MPD2     C 1463   4.669   4.299  15.344 -0.5085 -0.0247  0.5740
   96MPD2    C1 1464   0.018   4.386  15.422  0.4213 -0.0453 -0.0409
   96MPD2    C2 1465   0.073   4.342  15.539 -0.1502  0.8588 -0.0431
   96MPD2    C3 1466   0.066   4.212  15.577  0.8437 -0.7795 -0.2071
   96MPD2    C4 1467   4.716   4.128  15.502 -0.1784  0.3908 -0.2817
   96MPD2    C5 1468   4.659   4.170  15.389  0.0800  0.3478  0.6567
   96MPD2     H 1469   0.140   4.406  15.596  2.1961 -2.8310  1.4007
   96MPD2    H1 1470   4.702   4.025  15.533  0.3011  1.0178  1.9856
   96MPD2    H2 1471   4.624   4.332  15.252 -0.4034 -1.1629  0.1185
   96MPD2    H3 1472   4.603   4.100  15.328  1.1016  0.4889 -0.4455
   96MPD2     N 1473   0.135   4.162  15.687 -0.1354 -0.0452  0.3748
   96MPD2    H5 1474   0.129   4.061  15.692 -1.1513  0.0427  0.9822
   96MPD2    N1 1475   0.051   4.517  15.369 -0.3810  0.0584 -0.1269
   96MPD2    H7 1476   0.027   4.544  15.274  2.1611  1.5138 -0.3655
   97MPD2     C 1477   1.622   2.357   0.713  0.4108 -0.1525  0.2846
   97MPD2    C1 1478   1.740   2.413   0.681  0.7812 -0.0850  0.4591
   97MPD2    C2 1479   1.763   2.455   0.550  0.1805 -0.6894 -0.2276
   97MPD2    C3 1480   1.661   2.439   0.453  1.1068 -0.5315  0.4866
   97MPD2    C4 1481   1.544   2.389   0.492  0.6190 -0.1889  0.1828
   97MPD2    C5 1482   1.522   2.340   0.618 -0.4630  0.2726 -0.0572
   97MPD2     H 1483   1.863   2.490   0.527 -0.8210  1.3669 -1.4516
   97MPD2    H1 1484   1.455   2.366   0.435  1.6114 -2.1875 -0.5574
   97MPD2    H2 1485   1.611   2.329   0.817  0.7715 -0.0525  0.3513
   97MPD2    H3 1486   1.425   2.294   0.637  0.1042 -0.5557  0.8525
   97MPD2     N 1487   1.683   2.460   0.314 -0.0941  0.0087 -0.7676
   97MPD2    H5 1488   1.604   2.448   0.251  0.1077 -0.9960 -0.8273
   97MPD2    N1 1489   1.830   2.454   0.785 -0.3475 -0.3597 -0.2038
   97MPD2    H7 1490   1.803   2.432   0.880 -1.3623 -0.6917 -0.5675
   98TCq2    C1 1491   1.795   2.514   0.261  0.2093 -0.0774  0.0932
   98TCq2    O2 1492   1.897   2.548   0.320  0.3428  0.1607 -0.5151
   98TCq2    C2 1493   1.796   2.531   0.120  0.4851  0.0205  0.6652
   98TCq2    C3 1494   1.784   2.420   0.044  0.1740  0.3069  0.1751
   98TCq2    C4 1495   1.856   2.406  17.619  0.7187  0.7779  0.1300
   98TCq2    C5 1496   1.935   2.510  17.580  0.6065 -0.0683 -0.4053
   98TCq2    C6 1497   1.953   2.622  17.658  0.3648 -0.1464 -1.0073
   98TCq2    C7 1498   1.885   2.634   0.083 -0.2640  0.2087  0.0956
   98TCq2    C8 1499   2.054   2.713  17.628 -0.3886  0.5487 -0.0963
   98TCq2    O4 1500   2.134   2.670  17.543  0.1603  0.3439  0.6883
   98TCq2    C9 1501   1.862   2.288  17.544 -0.3164  0.2371  0.0727
   98TCq2    O5 1502   1.923   2.301  17.431  0.0928 -0.2295 -0.1241
   98TCq2    O6 1503   1.786   2.196  17.578 -0.0242 -0.4666  0.0737
   98TCq2    H2 1504   1.729   2.335   0.083 -0.0229 -0.7812 -2.4468
   98TCq2    H3 1505   1.991   2.505  17.488 -1.5004 -0.8480 -1.6540
   98TCq2    H4 1506   1.905   2.713   0.155  0.1112 -0.7629  1.0506
   99MPD2     C 1507   1.691   4.372   1.675  0.0009 -0.1849  0.3576
   99MPD2    C1 1508   1.557   4.401   1.686  0.6110  0.0922 -0.1729
   99MPD2    C2 1509   1.473   4.354   1.587  0.7700 -0.5770  0.6279
   99MPD2    C3 1510   1.509   4.275   1.482 -0.4590 -0.8565 -0.1750
   99MPD2    C4 1511   1.645   4.254   1.467  0.4396  0.1329 -0.1512
   99MPD2    C5 1512   1.733   4.294   1.565 -0.6596  0.3420 -0.9497
   99MPD2     H 1513   1.372   4.393   1.586  0.3583 -1.6406  0.8999
   99MPD2    H1 1514   1.686   4.190   1.389 -0.2363  0.5052 -0.8039
   99MPD2    H2 1515   1.765   4.395   1.752  0.6555  0.3539 -0.4351
   99MPD2    H3 1516   1.836   4.268   1.545 -0.4846  1.5428 -1.6358
   99MPD2     N 1517   1.414   4.230   1.388  0.5537 -0.0129 -0.8195
   99MPD2    H5 1518   1.316   4.252   1.406  1.0993  1.9305 -0.2249
   99MPD2    N1 1519   1.506   4.487   1.792 -0.2255 -0.0254  0.0827
   99MPD2    H7 1520   1.405   4.501   1.802 -0.0428 -0.3572  2.4829
  100TCq2    C1 1521   1.588   4.576   1.860  0.0327  0.0907 -0.1450
  100TCq2    O2 1522   1.710   4.587   1.852  0.2149 -0.7319  0.1719
  100TCq2    C2 1523   1.520   4.677   1.936 -0.5372 -0.4395  1.1017
  100TCq2    C3 1524   1.591   0.057   1.975 -0.0553  0.7589  0.6683
  100TCq2    C4 1525   1.530   0.145   2.063 -0.1860  0.1777  0.4090
  100TCq2    C5 1526   1.405   0.120   2.125  0.4230 -0.5619  0.9106
  100TCq2    C6 1527   1.357   4.715   2.104  0.6243  0.3522  0.0834
  100TCq2    C7 1528   1.410   4.633   2.012 -0.4000  0.1263 -0.0707
  100TCq2    C8 1529   1.222   4.682   2.159 -0.5781 -0.3486 -0.0524
  100TCq2    O4 1530   1.178   0.034   2.247 -0.9420 -0.5291 -0.5426
  100TCq2    C9 1531   1.603   0.259   2.109 -0.2502 -0.3812  0.8388
  100TCq2    O5 1532   1.710   0.282   2.049  0.2111  0.1304 -0.5094
  100TCq2    O6 1533   1.539   0.335   2.186  0.3438  0.7277  1.0056
  100TCq2    H2 1534   1.680   0.090   1.921 -0.1429  1.3455  0.8777
  100TCq2    H3 1535   1.350   0.184   2.193 -2.2195 -1.7208 -0.1572
  100TCq2    H4 1536   1.377   4.531   1.998 -0.2236 -0.3806  3.2880
  101MPD2     C 1537   1.983   0.203  12.808 -0.0683 -0.0914 -1.1080
  101MPD2    C1 1538   1.863   0.262  12.856  0.3989  0.3843 -0.6464
  101MPD2    C2 1539   1.806   0.201  12.961  0.1938  0.1951  0.0827
  101MPD2    C3 1540   1.843   0.070  13.004 -0.4300 -0.5218 -0.0930
  101MPD2    C4 1541   1.950   0.008  12.950  0.7723 -0.2396 -0.0670
  101MPD2    C5 1542   2.022   0.077  12.854  0.4930  0.5862  0.9091
  101MPD2     H 1543   1.718   0.250  13.001  1.3632  1.2941  1.3067
  101MPD2    H1 1544   1.992   4.644  12.999 -1.3788 -0.9266  0.5501
  101MPD2    H2 1545   2.046   0.264  12.743  0.9252 -0.0615 -0.1210
  101MPD2    H3 1546   2.120   0.046  12.818  0.6159  2.0493 -0.0080
  101MPD2     N 1547   1.767   0.005  13.108 -0.0637 -0.0431 -0.0870
  101MPD2    H5 1548   1.783   4.628  13.117 -0.5601  0.0735  2.1609
  101MPD2    N1 1549   1.817   0.378  12.796 -0.1315  0.1675 -0.4022
  101MPD2    H7 1550   1.875   0.416  12.722 -0.4247  1.6618  0.1325
  102TCq2    C1 1551   1.801   0.782  12.496  0.2739  0.2626 -0.1985
  102TCq2    O2 1552   1.916   0.787  12.547 -0.2864 -0.3287  0.2194
  102TCq2    C2 1553   1.704   0.682  12.549  0.6503  0.5961  0.3643
  102TCq2    C3 1554   1.567   0.701  12.528 -0.5968 -0.6096 -0.4371
  102TCq2    C4 1555   1.487   0.641  12.616  0.3195  0.0686  0.0679
  102TCq2    C5 1556   1.532   0.561  12.713 -0.0141 -0.1779  0.3272
  102TCq2    C6 1557   1.663   0.530  12.721  0.1298  0.1019 -0.2736
  102TCq2    C7 1558   1.753   0.598  12.642  0.0634 -0.5847  0.2380
  102TCq2    C8 1559   1.707   0.450  12.834 -0.0810  0.3984  0.1188
  102TCq2    O4 1560   1.643   0.445  12.937 -0.0995 -0.4731  0.2704
  102TCq2    C9 1561   1.344   0.656  12.604  0.7368 -0.1912 -0.1264
  102TCq2    O5 1562   1.302   0.668  12.482 -0.4790 -0.0139  0.5866
  102TCq2    O6 1563   1.274   0.628  12.702 -0.3563  0.0537  0.5242
  102TCq2    H2 1564   1.520   0.760  12.450  0.6551 -0.0510 -0.7770
  102TCq2    H3 1565   1.458   0.530  12.786 -0.7076 -0.6638 -0.5853
  102TCq2    H4 1566   1.859   0.604  12.659 -0.1936 -0.3779  1.8007
  103TMC2    C1 1567   4.457   0.988  12.493  0.2434  0.4342  0.2285
  103TMC2    C2 1568   4.588   1.010  12.465 -0.4314  0.7592 -0.3414
  103TMC2    C3 1569   4.665   1.073  12.558 -0.4275 -0.0205  0.1952
  103TMC2    C4 1570   4.398   1.034  12.609 -0.6466  0.0930 -0.2298
  103TMC2    C5 1571   4.480   1.079  12.701 -0.1554 -0.4325  0.3807
  103TMC2    C6 1572   4.618   1.096  12.687 -0.5627  0.1851  0.2130
  103TMC2     C 1573   4.365   0.954  12.395  0.0497 -0.0219  0.0434
  103TMC2     O 1574   4.247   0.962  12.414  0.5381 -0.1738  0.3025
  103TMC2     H 1575   4.626   0.982  12.368  0.1990 -0.5821  0.3019
  103TMC2    H1 1576   4.291   1.025  12.626 -0.7238  2.0540  0.3062
  103TMC2    H2 1577   4.685   1.126  12.767 -1.5943 -1.3891  1.6955
  103TMC2    C7 1578   4.440   1.084  12.842  0.3188  0.2348 -0.2012
  103TMC2    C8 1579   0.084   1.068  12.544  0.2754 -0.2796  0.1067
  103TMC2    O1 1580   4.525   1.069  12.927 -0.0218 -0.1545  0.1571
  103TMC2    O2 1581   0.161   1.078  12.639  0.1559 -0.7610 -0.1401
  103TMC2    O5 1582   0.108   1.119  12.422 -0.3374 -0.6134 -0.5051
  103TMC2    H5 1583   0.035   1.138  12.359 -1.1895 -1.9422  0.0942
  104MPD2     C 1584   4.456   0.839  12.047  0.5644  0.0912  0.0118
  104MPD2    C1 1585   4.367   0.873  12.153 -0.5462  0.0902 -0.1024
  104MPD2    C2 1586   4.234   0.872  12.135  0.3135 -1.0927 -0.3157
  104MPD2    C3 1587   4.184   0.840  12.010 -0.6415 -0.2848 -0.5614
  104MPD2    C4 1588   4.270   0.817  11.910  0.1189  0.8076  0.7495
  104MPD2    C5 1589   4.403   0.807  11.930  0.0538  0.9593  0.1036
  104MPD2     H 1590   4.156   0.896  12.206  0.3069 -0.6020 -0.4893
  104MPD2    H1 1591   4.244   0.780  11.812 -2.8487  1.1195  1.3952
  104MPD2    H2 1592   4.562   0.820  12.055  0.1792 -1.7809  0.6102
  104MPD2    H3 1593   4.469   0.798  11.845  2.1759  0.7636  1.7644
  104MPD2     N 1594   4.045   0.839  11.993  0.3507 -0.0774 -0.0599
  104MPD2    H5 1595   3.992   0.858  12.078 -0.7413  0.8693 -0.9570
  104MPD2    N1 1596   4.429   0.912  12.279  0.0116 -0.0902 -0.1406
  104MPD2    H7 1597   4.530   0.907  12.281  0.1106 -0.0379 -4.5216
  105MPD2     C 1598   2.109   4.503  17.670 -1.0484 -0.6115 -0.4974
  105MPD2    C1 1599   1.997   4.576  17.688 -0.0253  0.8108  0.1034
  105MPD2    C2 1600   1.955   4.605   0.119  0.3045 -0.0774  0.2428
  105MPD2    C3 1601   2.017   4.555   0.228  0.0446 -0.2802  0.2329
  105MPD2    C4 1602   2.135   4.481   0.212 -0.0467  0.1540 -0.1375
  105MPD2    C5 1603   2.185   4.465   0.084 -0.1624 -0.3377 -0.4600
  105MPD2     H 1604   1.870   4.671   0.127  1.2935  1.2663 -0.1991
  105MPD2    H1 1605   2.183   4.442   0.301 -0.1818  1.4987  0.5233
  105MPD2    H2 1606   2.165   4.504  17.577  0.9771  1.0404  0.7382
  105MPD2    H3 1607   2.272   4.404   0.064  0.9024  0.2432  2.4708
  105MPD2     N 1608   1.964   4.589   0.355 -0.2800  0.0351  0.6114
  105MPD2    H5 1609   1.881   4.647   0.364  0.0651  0.5947  0.2341
  105MPD2    N1 1610   1.924   4.631  17.579  0.2425  0.2984 -0.0356
  105MPD2    H7 1611   1.836   4.672  17.607 -0.3890  0.1819 -1.8660
  106TCq2    C1 1612   2.008   4.549   0.479 -0.1046  0.3350 -0.3899
  106TCq2    O2 1613   2.108   4.486   0.510 -0.0208 -0.4023 -0.4332
  106TCq2    C2 1614   1.922   4.590   0.594 -0.3293  0.7091 -0.2182
  106TCq2    C3 1615   1.795   4.641   0.572  0.6489 -0.1102  0.8506
  106TCq2    C4 1616   1.739   4.695   0.681 -0.1773 -0.0423  0.8591
  106TCq2    C5 1617   1.799   4.695   0.801  0.4508 -0.0180  0.2888
  106TCq2    C6 1618   1.922   4.644   0.818  0.1117 -0.3832 -0.3223
  106TCq2    C7 1619   1.988   4.589   0.715 -0.0554 -0.2065 -0.4357
  106TCq2    C8 1620   1.993   4.689   0.939  0.2490  0.6734 -0.2227
  106TCq2    O4 1621   2.112   4.660   0.945  0.1298  0.6363  0.1106
  106TCq2    C9 1622   1.599   0.017   0.669  0.0678  0.0507  0.0631
  106TCq2    O5 1623   1.542   0.064   0.773 -0.3180 -0.3538  0.3027
  106TCq2    O6 1624   1.549   0.005   0.557 -0.2633 -0.3363 -1.1652
  106TCq2    H2 1625   1.740   4.603   0.487  1.6923  1.9160 -0.7188
  106TCq2    H3 1626   1.735   4.720   0.884  0.8367  1.7219  0.0599
  106TCq2    H4 1627   2.085   4.545   0.735 -1.1381 -1.1844  2.6465
  107TMC2    C1 1628   1.596   3.619  11.626 -0.3891 -0.4201 -0.0847
  107TMC2    C2 1629   1.492   3.591  11.542  0.0129 -0.0154 -0.8399
  107TMC2    C3 1630   1.522   3.529  11.423 -0.1197 -0.1448 -0.2077
  107TMC2    C4 1631   1.726   3.610  11.576  0.3651 -0.6809  1.0101
  107TMC2    C5 1632   1.751   3.558  11.452  0.3107 -0.4493 -0.2444
  107TMC2    C6 1633   1.647   3.512  11.372  0.2071 -0.6492  0.5828
  107TMC2     C 1634   1.568   3.704  11.735 -0.4743 -0.0670  0.0628
  107TMC2     O 1635   1.458   3.695  11.790  0.1610 -0.4520  0.5307
  107TMC2     H 1636   1.393   3.597  11.586  0.0308 -1.0320 -0.6658
  107TMC2    H1 1637   1.812   3.626  11.639  1.1443  0.6838 -0.4089
  107TMC2    H2 1638   1.661   3.476  11.271 -1.0029 -1.2904  0.6328
  107TMC2    C7 1639   1.894   3.544  11.407 -0.4216  0.4791  0.1415
  107TMC2    C8 1640   1.415   3.485  11.338  0.0578  0.1638  0.1468
  107TMC2    O1 1641   1.980   3.583  11.484  0.3682  0.2541  0.1637
  107TMC2    O2 1642   1.304   3.504  11.380 -0.7296  0.1846 -0.8785
  107TMC2    O5 1643   1.453   3.368  11.286 -0.6157  0.3247 -1.1091
  107TMC2    H5 1644   1.550   3.356  11.296 -0.9477 -2.1813 -0.9760
  108MPD2     C 1645   1.778   3.956  11.906 -0.0661  0.1716  0.1196
  108MPD2    C1 1646   1.663   3.886  11.885 -0.6946 -0.0317  0.3264
  108MPD2    C2 1647   1.564   3.890  11.983  0.1377 -0.0015  0.0488
  108MPD2    C3 1648   1.585   3.959  12.099  0.4829  0.1931  0.0245
  108MPD2    C4 1649   1.701   4.023  12.124 -0.2083  0.6876  0.3428
  108MPD2    C5 1650   1.793   4.024  12.024  0.0931  0.0768  0.0077
  108MPD2     H 1651   1.475   3.831  11.964 -0.3238  1.0023 -0.8976
  108MPD2    H1 1652   1.730   4.068  12.218 -0.0899 -1.4166  1.3050
  108MPD2    H2 1653   1.854   3.952  11.828  0.8887 -2.7490  1.2066
  108MPD2    H3 1654   1.883   4.080  12.049  0.2342 -0.2878  0.3063
  108MPD2     N 1655   1.489   3.945  12.209 -0.3679  0.5985 -0.0286
  108MPD2    H5 1656   1.506   3.993  12.297  0.3203 -0.0001  0.1618
  108MPD2    N1 1657   1.675   3.791  11.774 -0.2469  0.4486 -0.6658
  108MPD2    H7 1658   1.751   3.803  11.708 -1.1115  3.2274 -1.1877
  109MPD2     C 1659   1.381   1.573   2.002  0.2167 -0.1128 -0.1504
  109MPD2    C1 1660   1.440   1.593   1.881 -0.4743  0.2019 -0.3550
  109MPD2    C2 1661   1.567   1.643   1.872  0.2214 -0.1510  0.6673
  109MPD2    C3 1662   1.629   1.695   1.981  1.2021 -0.2351  0.0009
  109MPD2    C4 1663   1.566   1.684   2.101 -0.3728 -0.2209 -0.0229
  109MPD2    C5 1664   1.447   1.611   2.112 -0.2128  0.1210  0.5512
  109MPD2     H 1665   1.607   1.667   1.775  0.3271  0.9615  0.9915
  109MPD2    H1 1666   1.617   1.718   2.191  0.5546 -1.0159 -0.2462
  109MPD2    H2 1667   1.284   1.530   2.023 -1.3096  3.4209  0.0667
  109MPD2    H3 1668   1.403   1.596   2.210  1.3191 -1.8642  0.9412
  109MPD2     N 1669   1.762   1.759   1.965  0.2240 -0.5299  0.0106
  109MPD2    H5 1670   1.793   1.746   1.869 -0.5553 -3.0361  0.1097
  109MPD2    N1 1671   1.361   1.570   1.775 -0.1807 -0.1825 -0.0029
  109MPD2    H7 1672   1.270   1.533   1.802 -1.0358  0.6433 -1.7704
  110TCq2    C1 1673   1.846   1.808   2.060 -0.2054  0.1554 -0.4835
  110TCq2    O2 1674   1.839   1.812   2.184  0.4376 -0.6909  0.3878
  110TCq2    C2 1675   1.941   1.893   1.994  0.0303 -0.4745 -0.5559
  110TCq2    C3 1676   2.047   1.918   2.076 -0.0302 -0.0243  0.1488
  110TCq2    C4 1677   2.123   2.020   2.050  0.0256  0.4123  0.5708
  110TCq2    C5 1678   2.112   2.094   1.933 -0.6334 -0.5263 -0.7383
  110TCq2    C6 1679   2.006   2.063   1.856  0.1084  0.0399  0.2118
  110TCq2    C7 1680   1.917   1.962   1.878  0.3751  0.0260  0.3953
  110TCq2    C8 1681   1.997   2.146   1.732 -0.1537  0.3770  0.0084
  110TCq2    O4 1682   2.082   2.232   1.714 -0.2414  0.2760 -0.0768
  110TCq2    C9 1683   2.232   2.066   2.131 -0.0613 -0.0788  0.4333
  110TCq2    O5 1684   2.306   2.155   2.084 -0.3562 -0.2253  0.3358
  110TCq2    O6 1685   2.229   2.034   2.255 -0.5522 -0.7010  0.3888
  110TCq2    H2 1686   2.053   1.861   2.168 -3.1343 -1.5542 -0.5797
  110TCq2    H3 1687   2.168   2.186   1.925 -3.1902  0.8937 -2.3279
  110TCq2    H4 1688   1.834   1.931   1.816  0.0030  3.0531 -0.6156
  111TMC2    C1 1689   2.291   1.594  11.244 -0.4841  0.0401  0.1084
  111TMC2    C2 1690   2.354   1.570  11.125 -0.1422 -0.1523 -0.2038
  111TMC2    C3 1691   2.472   1.503  11.136  0.7680 -0.5200  0.2429
  111TMC2    C4 1692   2.333   1.561  11.368 -1.1120 -0.8044 -0.6800
  111TMC2    C5 1693   2.450   1.497  11.378  0.2692  0.2386  0.2908
  111TMC2    C6 1694   2.519   1.464  11.259 -0.1235 -0.0139 -0.0426
  111TMC2     C 1695   2.154   1.646  11.227  0.3781  0.9602 -0.1084
  111TMC2     O 1696   2.122   1.702  11.122  0.1380 -0.1165 -0.0506
  111TMC2     H 1697   2.302   1.592  11.032 -1.2974  0.9884  0.7023
  111TMC2    H1 1698   2.288   1.601  11.457  1.8050 -0.1206  0.4887
  111TMC2    H2 1699   2.605   1.399  11.262  0.7758  1.2506  1.2226
  111TMC2    C7 1700   2.486   1.426  11.506 -0.1950  0.4788  0.3339
  111TMC2    C8 1701   2.542   1.446  11.023 -0.7128  0.2413 -0.7851
  111TMC2    O1 1702   2.398   1.418  11.592 -0.8617 -0.0031  0.1339
  111TMC2    O2 1703   2.609   1.343  11.037  0.3140 -0.1606  0.0939
  111TMC2    O5 1704   2.550   1.537  10.922  0.0274  0.2317 -0.2130
  111TMC2    H5 1705   2.476   1.602  10.924  1.8665  2.2825  2.6844
  112MPD2     C 1706   1.651   1.639  11.335 -0.0829 -0.5931 -0.2436
  112MPD2    C1 1707   1.720   1.690  11.225  0.4003 -0.0820  0.1025
  112MPD2    C2 1708   1.858   1.692  11.220  0.4165  0.4793  0.2155
  112MPD2    C3 1709   1.927   1.633  11.324  0.3717  0.1170  0.5246
  112MPD2    C4 1710   1.861   1.581  11.425  0.1176  0.3019  0.1314
  112MPD2    C5 1711   1.724   1.582  11.439  0.0978 -0.4380 -0.5628
  112MPD2     H 1712   1.902   1.746  11.137 -0.2640 -0.1329 -0.5300
  112MPD2    H1 1713   1.907   1.515  11.498 -3.1815 -2.2094 -0.0797
  112MPD2    H2 1714   1.544   1.631  11.346  0.0030 -0.4839  0.6693
  112MPD2    H3 1715   1.683   1.525  11.521  1.1710 -0.2893  0.0778
  112MPD2     N 1716   2.067   1.612  11.321  0.5623 -0.1057  0.1238
  112MPD2    H5 1717   2.109   1.570  11.404 -1.9796 -1.2499  0.8426
  112MPD2    N1 1718   1.658   1.728  11.106 -0.4055  0.1339 -0.0022
  112MPD2    H7 1719   1.719   1.744  11.026 -0.2705  3.2465  0.7378
  113MPD2     C 1720   0.996   3.939   1.288 -0.0215 -0.7713 -0.0266
  113MPD2    C1 1721   0.866   3.982   1.295 -0.0171  0.6003 -0.9289
  113MPD2    C2 1722   0.764   3.923   1.220  0.3252 -0.3611  0.6998
  113MPD2    C3 1723   0.792   3.818   1.134 -0.0418 -0.3582  0.8873
  113MPD2    C4 1724   0.921   3.774   1.121  0.2736 -0.2592  0.1235
  113MPD2    C5 1725   1.020   3.837   1.200 -0.2034  0.2959  0.0272
  113MPD2     H 1726   0.664   3.963   1.231  0.6000  0.7123 -0.6242
  113MPD2    H1 1727   0.946   3.697   1.049 -0.7103  0.5095 -1.0317
  113MPD2    H2 1728   1.080   3.974   1.347  0.6021 -2.7860  0.2852
  113MPD2    H3 1729   1.120   3.796   1.193 -0.9020 -1.5206  0.6654
  113MPD2     N 1730   0.693   3.758   1.045  0.1746  0.3809 -0.3732
  113MPD2    H5 1731   0.728   3.694   0.975  0.7506  1.3028 -0.9344
  113MPD2    N1 1732   0.821   4.091   1.368  0.0832 -0.1470 -0.2791
  113MPD2    H7 1733   0.729   4.128   1.346 -1.2535 -1.9445  2.3890
  114TCq2    C1 1734   0.553   3.783   1.058 -0.0806  0.0582  0.4897
  114TCq2    O2 1735   0.494   3.826   1.158 -0.2377  0.3880  0.8240
  114TCq2    C2 1736   0.466   3.743   0.945 -0.0469  0.2127 -0.6832
  114TCq2    C3 1737   0.509   3.666   0.843 -0.9063  0.0063 -0.2513
  114TCq2    C4 1738   0.427   3.639   0.733 -0.3343 -0.0187 -0.0052
  114TCq2    C5 1739   0.297   3.683   0.728 -0.6547 -0.7216 -0.1081
  114TCq2    C6 1740   0.257   3.740   0.846 -0.5606 -0.1462 -0.5904
  114TCq2    C7 1741   0.335   3.781   0.954  1.0755  0.1528  0.9905
  114TCq2    C8 1742   0.114   3.766   0.861  0.5416 -0.2687  0.5105
  114TCq2    O4 1743   0.033   3.760   0.767 -0.2973 -0.8201 -0.0318
  114TCq2    C9 1744   0.489   3.582   0.617 -0.1490  0.6075  0.0856
  114TCq2    O5 1745   0.609   3.548   0.631  0.2328  0.2945  0.3201
  114TCq2    O6 1746   0.412   3.557   0.518  0.1204  0.0998 -0.0197
  114TCq2    H2 1747   0.612   3.633   0.836 -0.9707 -0.1341 -0.5403
  114TCq2    H3 1748   0.238   3.666   0.639 -1.2330  2.0882 -0.2478
  114TCq2    H4 1749   0.298   3.840   1.037 -0.2960 -1.0331  1.2288
  115TMC2    C1 1750   0.850   2.289  17.363  0.4167  0.0667 -0.3523
  115TMC2    C2 1751   0.783   2.299  17.243  0.2110 -0.0677 -0.1542
  115TMC2    C3 1752   0.781   2.420  17.177 -0.6101 -0.3434 -0.0980
  115TMC2    C4 1753   0.902   2.399  17.422  0.1495 -0.2689 -0.3505
  115TMC2    C5 1754   0.907   2.513  17.349 -0.4284 -0.4883 -0.3435
  115TMC2    C6 1755   0.845   2.528  17.221 -0.2974  0.2736 -0.2832
  115TMC2     C 1756   0.824   2.166  17.438  0.1887 -0.3476 -0.1280
  115TMC2     O 1757   0.821   2.061  17.368 -0.3125 -0.1146 -0.1981
  115TMC2     H 1758   0.726   2.215  17.205 -0.3897  0.8073 -1.1712
  115TMC2    H1 1759   0.954   2.386  17.517  1.7243  0.2542 -1.1488
  115TMC2    H2 1760   0.828   2.626  17.178  0.6592  1.2859  1.6238
  115TMC2    C7 1761   0.997   2.611  17.397 -0.0344  0.4658  0.1375
  115TMC2    C8 1762   0.685   2.434  17.067 -0.6988  0.1297  0.1079
  115TMC2    O1 1763   1.005   2.636  17.517  0.4582 -0.0149 -0.5002
  115TMC2    O2 1764   0.694   2.521  16.982 -0.3033 -0.7541 -0.1954
  115TMC2    O5 1765   0.574   2.375  17.113 -0.3403  0.3199 -0.1696
  115TMC2    H5 1766   0.591   2.322  17.194  2.2243 -3.2600 -3.0440
  116MPD2     C 1767   0.661   1.864   0.103 -0.7419  0.2298  0.1850
  116MPD2    C1 1768   0.722   1.838  17.678 -0.2414 -0.0550  0.6853
  116MPD2    C2 1769   0.784   1.940  17.606  0.1570 -0.4727 -0.4277
  116MPD2    C3 1770   0.770   2.069  17.647  0.7040 -0.7390  0.3275
  116MPD2    C4 1771   0.721   2.096   0.085 -0.3067 -0.7480  0.3814
  116MPD2    C5 1772   0.657   1.995   0.154  0.9453  0.4698 -0.1138
  116MPD2     H 1773   0.845   1.910  17.522  1.5334  1.8883 -0.2729
  116MPD2    H1 1774   0.721   2.199   0.118 -3.2245  0.1439 -2.4661
  116MPD2    H2 1775   0.601   1.793   0.158  0.8133  0.8263  2.6272
  116MPD2    H3 1776   0.618   2.008   0.254 -0.6739 -1.1643 -0.5317
  116MPD2     N 1777   0.809   2.186  17.573 -0.7125  0.2831 -0.2813
  116MPD2    H5 1778   0.801   2.279  17.614 -1.6843 -0.8034  1.9907
  116MPD2    N1 1779   0.707   1.707  17.632 -0.6408 -0.5375  0.7145
  116MPD2    H7 1780   0.633   1.652  17.675 -1.5691  1.5832  1.8517
  117TMC2    C1 1781   4.334   3.435  13.684  0.1089  0.0172  0.2247
  117TMC2    C2 1782   4.431   3.344  13.720  0.1704  0.0754  0.9699
  117TMC2    C3 1783   4.561   3.369  13.695 -0.6467  0.4843  0.1808
  117TMC2    C4 1784   4.366   3.558  13.636 -1.0215 -1.1709  0.4869
  117TMC2    C5 1785   4.493   3.575  13.604 -0.3376 -0.0737 -0.5734
  117TMC2    C6 1786   4.595   3.488  13.636 -0.1703 -0.3053  0.5456
  117TMC2     C 1787   4.199   3.378  13.685 -0.0421  0.6453 -0.4071
  117TMC2     O 1788   4.178   3.265  13.722  0.4416  0.2867 -0.5250
  117TMC2     H 1789   4.394   3.249  13.757 -0.1074 -0.8336 -1.5922
  117TMC2    H1 1790   4.293   3.633  13.607  1.8552  1.9859  1.3402
  117TMC2    H2 1791   4.698   3.501  13.606  0.0743 -0.3853  1.3284
  117TMC2    C7 1792   4.527   3.712  13.584  0.5322 -0.1418  0.4610
  117TMC2    C8 1793   4.654   3.287  13.763  0.1460 -0.4954 -0.3789
  117TMC2    O1 1794   4.648   3.722  13.553  0.2398 -0.4466  0.1353
  117TMC2    O2 1795   4.625   3.170  13.787  0.5902 -0.4261  0.5510
  117TMC2    O5 1796   0.013   3.363  13.849 -0.3214 -0.1461  0.3857
  117TMC2    H5 1797   4.705   3.455  13.864 -2.0565 -0.4562 -1.3599
  118MPD2     C 1798   4.393   4.009  13.744  0.8385 -0.4887  0.3598
  118MPD2    C1 1799   4.474   3.940  13.654 -0.0493 -1.1978 -0.3763
  118MPD2    C2 1800   4.574   4.002  13.582 -0.2629 -0.3316  0.3972
  118MPD2    C3 1801   4.605   4.131  13.619  0.1876 -0.2894  0.4081
  118MPD2    C4 1802   4.529   4.196  13.711  0.8350  0.3040  0.0970
  118MPD2    C5 1803   4.418   4.141  13.768  0.0954 -0.4441  0.1332
  118MPD2     H 1804   4.618   3.953  13.496 -1.7023 -3.4631  1.4487
  118MPD2    H1 1805   4.548   4.302  13.727 -1.1207  1.1480 -3.0002
  118MPD2    H2 1806   4.301   3.970  13.784  0.4177 -0.3752 -0.4913
  118MPD2    H3 1807   4.346   4.198  13.825  0.2301  0.1351 -0.2746
  118MPD2     N 1808   4.702   4.204  13.552 -0.3603 -0.3324  0.2059
  118MPD2    H5 1809   4.719   4.294  13.596 -0.6972 -0.2114  0.0816
  118MPD2    N1 1810   4.442   3.802  13.641 -0.2242 -0.2753  0.3766
  118MPD2    H7 1811   4.361   3.770  13.694 -0.3429 -2.2973 -1.0471
  119MPD2     C 1812   3.208   0.028  13.817 -0.4327  0.8872  0.0846
  119MPD2    C1 1813   3.081   0.073  13.818 -0.0012 -0.6448 -0.0326
  119MPD2    C2 1814   3.040   0.135  13.706  0.1087  0.0962 -0.7816
  119MPD2    C3 1815   3.121   0.144  13.593  0.3029  0.1185 -0.0120
  119MPD2    C4 1816   3.247   0.096  13.597 -0.0160  0.2559 -0.0144
  119MPD2    C5 1817   3.290   0.045  13.715  0.5295  0.1492  0.1625
  119MPD2     H 1818   2.935   0.160  13.700 -0.3771 -1.6744  0.6074
  119MPD2    H1 1819   3.319   0.116  13.519 -1.8317 -3.8331 -2.7100
  119MPD2    H2 1820   3.239   4.718  13.916  0.6187 -1.5847 -1.0771
  119MPD2    H3 1821   3.395   0.022  13.728  0.4408 -0.0800  0.4664
  119MPD2     N 1822   3.086   0.187  13.462  0.2088 -0.2159  0.1116
  119MPD2    H5 1823   3.141   0.161  13.381 -1.7400 -2.1844 -0.5806
  119MPD2    N1 1824   3.010   0.055  13.940 -0.5777  0.1112 -0.4863
  119MPD2    H7 1825   3.062   0.011  14.016  0.3003 -1.5452 -2.0565
  120TCq2    C1 1826   2.965   0.245  13.440  0.1989 -0.0047 -0.6136
  120TCq2    O2 1827   2.884   0.297  13.518 -0.1530 -0.2137 -0.1534
  120TCq2    C2 1828   2.923   0.246  13.299 -0.1651  0.8684 -0.3161
  120TCq2    C3 1829   3.018   0.276  13.202 -0.3829  0.1011  0.4534
  120TCq2    C4 1830   2.976   0.266  13.072  0.3049 -0.1556 -0.5277
  120TCq2    C5 1831   2.844   0.223  13.048  0.3350 -1.4665  0.5843
  120TCq2    C6 1832   2.753   0.210  13.146 -0.0947  0.7737  0.3601
  120TCq2    C7 1833   2.795   0.216  13.269 -0.2557 -0.3430  0.0525
  120TCq2    C8 1834   2.623   0.159  13.116  0.0747 -0.3644  0.8570
  120TCq2    O4 1835   2.573   0.192  13.008 -1.0353  0.0895 -0.1668
  120TCq2    C9 1836   3.054   0.314  12.960  0.0925 -0.0667 -0.1495
  120TCq2    O5 1837   3.002   0.312  12.848 -0.0512  0.5131  0.5039
  120TCq2    O6 1838   3.168   0.356  12.986 -0.4400  0.0336  0.2421
  120TCq2    H2 1839   3.111   0.317  13.240 -0.3363  1.5282 -1.2299
  120TCq2    H3 1840   2.808   0.219  12.946 -0.7694  2.4862  0.7862
  120TCq2    H4 1841   2.737   0.200  13.360  0.7382 -1.4065  0.5064
  121TMC2    C1 1842   3.849   1.796  14.053  0.0958 -0.1464 -0.6492
  121TMC2    C2 1843   3.946   1.693  14.050  0.7163  0.6534  0.2468
  121TMC2    C3 1844   3.902   1.567  14.034  0.5854  0.5213 -0.3948
  121TMC2    C4 1845   3.718   1.773  14.041  0.1068  0.0727  0.1937
  121TMC2    C5 1846   3.686   1.644  14.021  1.1520  0.2168 -0.8495
  121TMC2    C6 1847   3.773   1.538  14.028  0.0462 -0.0837  0.1672
  121TMC2     C 1848   3.903   1.918  14.015  0.4967  0.1696 -0.2811
  121TMC2     O 1849   3.825   2.013  14.022 -0.3852  0.0875 -0.2257
  121TMC2     H 1850   4.045   1.722  14.083  0.4756 -0.1692  1.6702
  121TMC2    H1 1851   3.645   1.852  14.033 -0.6653 -0.7774 -1.0542
  121TMC2    H2 1852   3.749   1.438  13.995 -1.8169  0.9563 -1.6505
  121TMC2    C7 1853   3.546   1.596  14.035 -0.1981  0.2395 -0.1386
  121TMC2    C8 1854   3.981   1.446  14.062  0.3423  0.5142  0.6086
  121TMC2    O1 1855   3.530   1.481  14.075 -0.0376  0.7843  0.2482
  121TMC2    O2 1856   3.932   1.336  14.086 -0.2853  0.3345  0.3255
  121TMC2    O5 1857   4.101   1.460  14.011 -0.3296 -0.0531 -0.5258
  121TMC2    H5 1858   4.123   1.547  13.972 -1.7531 -0.5402 -2.4663
  122MPD2     C 1859   4.074   2.131  13.925  0.3952  0.5121  0.1446
  122MPD2    C1 1860   4.073   2.006  13.863  0.0728  0.6765 -0.2524
  122MPD2    C2 1861   4.132   1.987  13.742  0.2074  0.0138  0.2109
  122MPD2    C3 1862   4.184   2.095  13.675 -0.0684 -0.1820  0.2495
  122MPD2    C4 1863   4.207   2.212  13.741  0.2914 -0.1289 -0.3550
  122MPD2    C5 1864   4.155   2.229  13.872 -0.1861  0.1472 -0.1866
  122MPD2     H 1865   4.116   1.890  13.696  1.2609 -1.4923  2.9796
  122MPD2    H1 1866   4.251   2.299  13.693  0.5028  0.7885  1.4865
  122MPD2    H2 1867   4.022   2.158  14.017 -0.5373 -1.3232  0.1622
  122MPD2    H3 1868   4.161   2.331  13.910  3.6537 -0.6241  1.1787
  122MPD2     N 1869   4.217   2.091  13.541 -0.0668 -0.0137 -0.1331
  122MPD2    H5 1870   4.264   2.177  13.513 -1.2150  0.4237 -0.7400
  122MPD2    N1 1871   3.996   1.902  13.921  0.0409 -0.0819  0.0671
  122MPD2    H7 1872   4.019   1.810  13.886 -1.7543 -0.6984  0.5490
  123MPD2     C 1873   0.928   0.111   9.616 -0.0063 -0.2213  0.1479
  123MPD2    C1 1874   0.989   0.213   9.551 -0.0292  0.6164 -1.3070
  123MPD2    C2 1875   1.127   0.219   9.552 -0.1816 -0.8356  0.0697
  123MPD2    C3 1876   1.203   0.114   9.614  0.5165  0.5095 -0.1125
  123MPD2    C4 1877   1.138   0.023   9.691 -0.3738 -0.2819 -0.1999
  123MPD2    C5 1878   1.001   0.015   9.689 -0.2980 -0.3241 -0.0768
  123MPD2     H 1879   1.182   0.293   9.495 -0.7924  1.8046  2.8935
  123MPD2    H1 1880   1.185   4.665   9.747  0.2782 -1.0562 -1.8780
  123MPD2    H2 1881   0.820   0.104   9.607  0.0842  0.2312 -1.1419
  123MPD2    H3 1882   0.952   4.669   9.757 -0.6418  0.0776  0.0823
  123MPD2     N 1883   1.346   0.124   9.611  0.7655 -0.1220 -0.5298
  123MPD2    H5 1884   1.385   0.197   9.553  0.0584  0.6498 -0.0390
  123MPD2    N1 1885   0.901   0.327   9.508 -0.1873 -0.1047  0.0477
  123MPD2    H7 1886   0.801   0.317   9.525 -0.2200  2.1061  1.1483
  124TCq2    C1 1887   1.430   0.045   9.677  0.2110  0.0459  0.1912
  124TCq2    O2 1888   1.409   4.679   9.759  0.6724  0.5944  0.4096
  124TCq2    C2 1889   1.569   0.068   9.655 -0.1170 -0.1404 -1.0076
  124TCq2    C3 1890   1.623   0.186   9.612  0.2662 -0.9089 -0.1380
  124TCq2    C4 1891   1.750   0.194   9.557  0.0810 -0.4647  0.0175
  124TCq2    C5 1892   1.833   0.086   9.571  0.0893  0.0279 -0.7244
  124TCq2    C6 1893   1.784   4.699   9.633 -0.1731  0.0852 -0.7142
  124TCq2    C7 1894   1.646   4.685   9.660 -0.0882  0.4446  0.6141
  124TCq2    C8 1895   1.867   4.577   9.656 -0.5923  0.0438 -0.1197
  124TCq2    O4 1896   1.811   4.491   9.715 -0.8948  0.3340 -0.6107
  124TCq2    C9 1897   1.798   0.320   9.512 -0.8241 -0.1201 -0.6268
  124TCq2    O5 1898   1.910   0.321   9.463 -0.0862  0.2594  0.0716
  124TCq2    O6 1899   1.711   0.407   9.475  0.5476 -0.3540  0.2228
  124TCq2    H2 1900   1.566   0.278   9.604  1.9553  0.1303 -0.2227
  124TCq2    H3 1901   1.939   0.100   9.553 -0.2031 -0.1366 -2.5759
  124TCq2    H4 1902   1.612   4.588   9.695 -0.9953  0.8920  0.9710
  125TMC2    C1 1903   2.863   2.261   9.321 -0.4214 -0.3494  0.5632
  125TMC2    C2 1904   2.792   2.229   9.435  0.7687 -0.1554  0.2771
  125TMC2    C3 1905   2.809   2.106   9.480  0.5736  0.3073 -0.3057
  125TMC2    C4 1906   2.956   2.176   9.263  0.0427 -0.2098  0.3609
  125TMC2    C5 1907   2.976   2.057   9.323  0.0319 -0.6423 -0.4511
  125TMC2    C6 1908   2.899   2.018   9.430 -0.1149  0.3072  0.0911
  125TMC2     C 1909   2.849   2.392   9.259 -0.6568  0.1104  0.5170
  125TMC2     O 1910   2.934   2.428   9.178  0.1887 -0.1450 -0.3614
  125TMC2     H 1911   2.732   2.299   9.492 -1.3590 -0.6626 -1.3471
  125TMC2    H1 1912   3.009   2.219   9.178 -3.5307 -0.1675 -1.8350
  125TMC2    H2 1913   2.929   1.927   9.480 -2.9020 -1.7053 -1.9401
  125TMC2    C7 1914   3.082   1.965   9.287 -0.1857  0.1569  0.6949
  125TMC2    C8 1915   2.739   2.056   9.598  0.4715 -0.7297  0.1642
  125TMC2    O1 1916   3.101   1.867   9.361  0.2262  0.5927 -0.2326
  125TMC2    O2 1917   2.785   1.959   9.658 -0.3564  0.0022 -0.5685
  125TMC2    O5 1918   2.629   2.133   9.627 -0.3068 -0.3280  0.0730
  125TMC2    H5 1919   2.610   2.191   9.550 -0.6061 -1.1186 -0.4472
  126MPD1     C 1920   2.617   2.847   9.165  0.4111  0.5623  0.2235
  126MPD1    C1 1921   2.531   2.768   9.238 -0.2298 -0.3146 -0.1719
  126MPD1    C2 1922   2.584   2.646   9.287  0.5404  1.0218  0.4034
  126MPD1    C3 1923   2.700   2.590   9.247 -0.5479  0.6244  0.1386
  126MPD1    C4 1924   2.779   2.670   9.171  0.1871 -0.9420  0.2514
  126MPD1    C5 1925   2.735   2.786   9.127 -0.6759  0.0559 -0.1574
  126MPD1     H 1926   2.518   2.582   9.346  0.7525  0.3340 -0.1080
  126MPD1    H1 1927   2.875   2.636   9.133  0.7646 -0.2566  1.0990
  126MPD1    H2 1928   2.603   2.950   9.133 -0.6956 -0.6941 -3.3372
  126MPD1    H3 1929   2.803   2.838   9.061 -0.6287 -0.0789 -0.2141
  126MPD1     N 1930   2.743   2.468   9.306 -0.1687  0.3777  0.1001
  126MPD1    H5 1931   2.674   2.423   9.366 -0.1964 -1.1531 -1.0792
  126MPD1    N1 1932   2.419   2.824   9.295  0.1348 -0.2453  0.1673
  126MPD1    H6 1933   2.348   2.754   9.315 -0.9959  0.6769 -0.5600
  126MPD1    H7 1934   2.375   2.891   9.232  2.3586  0.8626 -0.1848
  127MPD2     C 1935   3.558   0.867   9.273 -0.3272 -0.8337  0.0552
  127MPD2    C1 1936   3.669   0.811   9.340 -0.2747  0.0062 -0.5669
  127MPD2    C2 1937   3.788   0.884   9.348 -0.2026  0.4761  0.0798
  127MPD2    C3 1938   3.792   1.010   9.286  0.6950 -0.5358 -0.1517
  127MPD2    C4 1939   3.678   1.063   9.232 -0.1673  0.0375 -0.0142
  127MPD2    C5 1940   3.561   0.993   9.225 -0.3048 -1.3221 -0.8760
  127MPD2     H 1941   3.878   0.836   9.384  1.2225  1.7605 -1.8072
  127MPD2    H1 1942   3.664   1.165   9.198  3.2868  0.4155 -0.3065
  127MPD2    H2 1943   3.463   0.815   9.278 -1.4077  1.1832  0.2642
  127MPD2    H3 1944   3.474   1.043   9.183 -1.2459 -2.3516 -0.1351
  127MPD2     N 1945   3.921   1.079   9.283  0.2812  0.9024 -0.1754
  127MPD2    H5 1946   3.996   1.020   9.321 -0.5108  1.5265  2.3630
  127MPD2    N1 1947   3.652   0.675   9.387  0.1123  0.2431  0.2316
  127MPD2    H7 1948   3.563   0.633   9.361 -0.8426  0.8738  2.5316
  128TCq2    C1 1949   3.739   0.610   9.466  0.2380  0.6517 -0.1810
  128TCq2    O2 1950   3.856   0.631   9.481  0.0708  0.7491 -0.2022
  128TCq2    C2 1951   3.684   0.488   9.517 -0.3396  0.1597 -0.1180
  128TCq2    C3 1952   3.769   0.397   9.559 -0.3544  0.0592 -0.0814
  128TCq2    C4 1953   3.713   0.288   9.628  0.3171 -0.5634  0.9943
  128TCq2    C5 1954   3.580   0.272   9.650  0.3901  0.1668 -0.1721
  128TCq2    C6 1955   3.497   0.369   9.604 -0.0046  0.1606 -0.2947
  128TCq2    C7 1956   3.547   0.477   9.538  0.4475 -0.2591  0.7343
  128TCq2    C8 1957   3.348   0.353   9.622  0.6431 -0.5164 -0.1053
  128TCq2    O4 1958   3.278   0.442   9.574  0.1913  0.0092  0.2876
  128TCq2    C9 1959   3.803   0.180   9.660  1.2256  0.2703  0.0711
  128TCq2    O5 1960   3.761   0.077   9.716 -0.3492 -0.2547  0.3394
  128TCq2    O6 1961   3.922   0.199   9.623  0.0682 -0.2362 -0.5946
  128TCq2    H2 1962   3.873   0.403   9.527 -0.2986  0.9856  0.2926
  128TCq2    H3 1963   3.551   0.189   9.713 -3.7271 -0.4740 -2.8901
  128TCq2    H4 1964   3.478   0.557   9.512  1.2164  0.3403  0.5238
  129MPD2     C 1965   1.996   1.874   1.333  0.9267 -0.2864 -0.4156
  129MPD2    C1 1966   2.110   1.949   1.350  0.9683 -0.0136 -0.4614
  129MPD2    C2 1967   2.147   2.032   1.246 -0.0667 -0.4209  0.3079
  129MPD2    C3 1968   2.076   2.038   1.122  0.7301 -0.7979  0.3641
  129MPD2    C4 1969   1.962   1.961   1.106  0.1953  0.3254 -0.1322
  129MPD2    C5 1970   1.926   1.879   1.212 -0.6093  0.1108 -0.5623
  129MPD2     H 1971   2.242   2.082   1.263 -0.5270  0.9772 -1.2799
  129MPD2    H1 1972   1.899   1.964   1.018 -0.4066  0.5294  0.2991
  129MPD2    H2 1973   1.951   1.813   1.410  1.9661 -2.6778 -1.6917
  129MPD2    H3 1974   1.840   1.814   1.202 -1.9327  1.7391  0.2185
  129MPD2     N 1975   2.122   2.110   1.009  0.1116 -0.0093 -0.0016
  129MPD2    H5 1976   2.058   2.106   0.931  0.1965  1.4696 -0.1524
  129MPD2    N1 1977   2.183   1.955   1.472 -0.3535 -0.7154 -0.0101
  129MPD2    H7 1978   2.260   2.021   1.479 -1.1861  0.2316  0.0903
  130TCq2    C1 1979   2.155   1.875   1.577  0.4178 -0.8397  0.3431
  130TCq2    O2 1980   2.071   1.790   1.594 -0.6212  0.0060 -0.0636
  130TCq2    C2 1981   2.255   1.890   1.681 -0.2666  0.0360  0.1329
  130TCq2    C3 1982   2.331   2.001   1.682 -0.1422 -0.3351  0.7195
  130TCq2    C4 1983   2.426   2.010   1.780  0.6356  0.1398  0.0260
  130TCq2    C5 1984   2.427   1.921   1.886  0.3681 -0.9654  0.2515
  130TCq2    C6 1985   2.335   1.813   1.886 -1.2606 -0.0878 -0.1930
  130TCq2    C7 1986   2.259   1.796   1.776 -0.7221 -0.8062 -0.0520
  130TCq2    C8 1987   2.341   1.698   1.973  0.5768 -0.2269 -0.0507
  130TCq2    O4 1988   2.237   1.635   1.990  0.6120  0.1176 -0.2349
  130TCq2    C9 1989   2.520   2.122   1.779  0.3440  0.0537  0.2532
  130TCq2    O5 1990   2.489   2.220   1.703 -0.0272  0.4823 -0.0749
  130TCq2    O6 1991   2.599   2.127   1.882 -0.1540 -0.0276 -0.1276
  130TCq2    H2 1992   2.343   2.076   1.605  1.8105 -1.3919 -0.0087
  130TCq2    H3 1993   2.505   1.928   1.961  0.9881  1.7174 -0.6205
  130TCq2    H4 1994   2.205   1.702   1.765  0.2321 -1.3097 -0.5481
  131MPD2     C 1995   0.999   1.104   8.835 -0.8212 -0.4524 -0.1916
  131MPD2    C1 1996   1.073   1.063   8.943  0.0703 -0.1049  0.5538
  131MPD2    C2 1997   1.025   0.953   9.012 -0.3392  0.0213 -0.0633
  131MPD2    C3 1998   0.912   0.884   8.974  0.4300  0.5931  0.1053
  131MPD2    C4 1999   0.845   0.925   8.866 -0.0443  0.4836  0.0323
  131MPD2    C5 2000   0.889   1.039   8.794 -0.6036 -0.7806  0.1671
  131MPD2     H 2001   1.069   0.924   9.107  0.3742 -1.6976 -0.9201
  131MPD2    H1 2002   0.739   0.904   8.855  0.0917  0.9129 -2.0605
  131MPD2    H2 2003   1.016   1.191   8.773 -1.0586  0.8423  1.5412
  131MPD2    H3 2004   0.833   1.097   8.720 -1.4436 -2.0946 -0.2342
  131MPD2     N 2005   0.869   0.777   9.060 -0.3174  0.4182  0.3392
  131MPD2    H5 2006   0.942   0.751   9.125  0.2704  1.0310 -0.0737
  131MPD2    N1 2007   1.181   1.143   8.984  0.0867 -0.0164 -0.6279
  131MPD2    H7 2008   1.188   1.228   8.929  1.2265  1.6899  2.1132
  132TCq2    C1 2009   1.455   1.540   8.950  0.6953 -0.2072  0.9462
  132TCq2    O2 2010   1.377   1.543   8.859  0.4208 -0.4932 -0.4411
  132TCq2    C2 2011   1.480   1.407   9.012 -0.8514  0.1088 -0.7340
  132TCq2    C3 2012   1.578   1.399   9.111  0.8438 -0.2400  0.0099
  132TCq2    C4 2013   1.565   1.310   9.211 -1.3187 -0.3518  0.8615
  132TCq2    C5 2014   1.462   1.216   9.205  0.7191 -0.4894 -0.6407
  132TCq2    C6 2015   1.373   1.218   9.103 -0.0179  0.7122  0.5464
  132TCq2    C7 2016   1.379   1.316   9.006  0.0814 -0.3580  0.2688
  132TCq2    C8 2017   1.265   1.119   9.094  0.5135 -1.3204 -0.4212
  132TCq2    O4 2018   1.260   1.039   9.186 -0.3369  0.0100 -0.1915
  132TCq2    C9 2019   1.654   1.321   9.330 -0.1487 -0.0681  0.2006
  132TCq2    O5 2020   1.737   1.414   9.322 -0.4600 -0.2026 -0.3193
  132TCq2    O6 2021   1.628   1.253   9.429  0.4056 -0.0211 -0.4086
  132TCq2    H2 2022   1.664   1.464   9.112  1.1790 -0.6445 -1.6449
  132TCq2    H3 2023   1.463   1.142   9.285 -0.2773  0.8707  0.6511
  132TCq2    H4 2024   1.318   1.331   8.918 -2.1005 -1.4505  1.6003
  133MPD2     C 2025   0.175   1.508   8.843  0.4404 -0.0182 -0.5642
  133MPD2    C1 2026   0.312   1.496   8.882 -0.8140 -0.3953  0.0761
  133MPD2    C2 2027   0.352   1.381   8.947  0.4213  0.8748 -0.3403
  133MPD2    C3 2028   0.265   1.278   8.985  0.0482 -0.4788  0.0148
  133MPD2    C4 2029   0.136   1.295   8.944 -0.0934 -0.2920 -0.9588
  133MPD2    C5 2030   0.086   1.407   8.877 -0.0715  0.5282 -1.0345
  133MPD2     H 2031   0.457   1.368   8.971  0.2155 -0.0344  0.1041
  133MPD2    H1 2032   0.057   1.229   8.977 -0.6852  0.0535 -1.6799
  133MPD2    H2 2033   0.137   1.601   8.805 -1.4045 -0.4067  0.3410
  133MPD2    H3 2034   4.702   1.414   8.858 -0.1604 -1.6734 -1.4191
  133MPD2     N 2035   0.297   1.158   9.046 -0.9614  0.7988  0.0805
  133MPD2    H5 2036   0.225   1.094   9.076 -0.5672 -0.1860 -1.0421
  133MPD2    N1 2037   0.399   1.608   8.865 -0.1797 -0.1488  0.0780
  133MPD2    H7 2038   0.355   1.692   8.827 -0.0573 -0.5017 -0.8620
  134TCq2    C1 2039   0.522   1.625   8.930 -0.2547 -0.7531 -0.3333
  134TCq2    O2 2040   0.578   1.549   9.004  0.5055  0.0708  0.3277
  134TCq2    C2 2041   0.579   1.755   8.899 -0.3903 -0.1524 -0.1828
  134TCq2    C3 2042   0.568   1.799   8.763 -0.2067 -0.8322 -0.3114
  134TCq2    C4 2043   0.639   1.910   8.734 -0.3430  0.0753  0.3727
  134TCq2    C5 2044   0.700   1.987   8.836 -0.0079  0.3787 -0.5685
  134TCq2    C6 2045   0.705   1.934   8.965 -0.1191  0.2635  0.9527
  134TCq2    C7 2046   0.656   1.813   8.993 -0.1410  0.4534  0.4675
  134TCq2    C8 2047   0.800   2.003   9.053 -0.5599 -0.3334  0.1848
  134TCq2    O4 2048   0.827   2.116   9.035 -0.6110  0.1664 -0.4784
  134TCq2    C9 2049   0.642   1.960   8.600 -0.3029 -0.3383 -0.1594
  134TCq2    O5 2050   0.597   1.881   8.511 -0.2743 -0.0973  0.1250
  134TCq2    O6 2051   0.649   2.084   8.581 -0.0463 -0.1353 -0.0948
  134TCq2    H2 2052   0.512   1.752   8.683 -0.1426  0.1937 -0.9649
  134TCq2    H3 2053   0.752   2.076   8.804 -2.5959  1.7817 -0.8182
  134TCq2    H4 2054   0.644   1.778   9.095 -1.2334 -4.3518 -1.2683
  135MPD2     C 2055   3.813   2.256   9.006  0.7192  0.0390  0.1998
  135MPD2    C1 2056   3.830   2.165   9.104 -0.1479  0.2862  0.3690
  135MPD2    C2 2057   3.947   2.091   9.112  0.5573 -0.5911  0.3003
  135MPD2    C3 2058   4.047   2.109   9.010  0.4666  0.4252 -0.2182
  135MPD2    C4 2059   4.034   2.205   8.921 -0.0438  0.5633  0.4215
  135MPD2    C5 2060   3.918   2.285   8.920 -0.5309 -0.2417 -0.1340
  135MPD2     H 2061   3.957   2.008   9.182 -1.3297  0.1042  1.4001
  135MPD2    H1 2062   4.113   2.225   8.849  0.0511 -0.3382  0.2762
  135MPD2    H2 2063   3.720   2.312   9.001  0.6454 -0.1886 -0.8552
  135MPD2    H3 2064   3.906   2.362   8.844  4.1524  1.6580  1.0783
  135MPD2     N 2065   4.169   2.036   9.021 -0.4666  0.3639  0.1492
  135MPD2    H5 2066   4.244   2.058   8.956 -2.5282 -1.0739 -2.6911
  135MPD2    N1 2067   3.732   2.127   9.193 -0.0181  0.3464 -0.0889
  135MPD2    H7 2068   3.750   2.054   9.261 -1.9022  0.9115  1.0271
  136TCq2    C1 2069   3.600   2.170   9.192  0.5731 -0.1877  0.0402
  136TCq2    O2 2070   3.543   2.246   9.116  0.2421  0.4092  0.0550
  136TCq2    C2 2071   3.520   2.121   9.304 -0.2974 -0.4548  0.3999
  136TCq2    C3 2072   3.551   2.000   9.355  0.6765 -0.4917  0.0510
  136TCq2    C4 2073   3.462   1.948   9.441 -0.0716 -0.3055 -0.2888
  136TCq2    C5 2074   3.352   2.018   9.492  0.0560 -0.3883 -0.2982
  136TCq2    C6 2075   3.338   2.153   9.450 -0.3073  0.3501 -0.4802
  136TCq2    C7 2076   3.420   2.200   9.348  0.1068 -0.1510  0.0429
  136TCq2    C8 2077   3.235   2.246   9.497 -0.6337 -0.3484 -0.2080
  136TCq2    O4 2078   3.226   2.343   9.419  0.8371 -0.2502  0.4670
  136TCq2    C9 2079   3.470   1.807   9.469  0.2393  0.8052 -0.0620
  136TCq2    O5 2080   3.570   1.746   9.421 -0.1128  0.0710 -0.4149
  136TCq2    O6 2081   3.397   1.759   9.552  0.2301  0.0844 -0.1978
  136TCq2    H2 2082   3.613   1.930   9.299  1.2806  1.0302 -1.1951
  136TCq2    H3 2083   3.269   1.965   9.537 -0.8785  0.4517 -1.0064
  136TCq2    H4 2084   3.404   2.298   9.304  1.1431  0.3877  0.8670
  137MPD2     C 2085   3.018   2.111   8.796  0.5758 -0.2767  0.1054
  137MPD2    C1 2086   2.915   2.125   8.883 -0.4302 -0.3509 -0.3930
  137MPD2    C2 2087   2.875   2.022   8.964 -0.0810  0.4235  0.1393
  137MPD2    C3 2088   2.940   1.905   8.959 -0.2156 -0.0096  0.4874
  137MPD2    C4 2089   3.040   1.887   8.869  0.1462 -0.4433  0.2118
  137MPD2    C5 2090   3.079   1.991   8.792  0.8946  0.2295  0.2065
  137MPD2     H 2091   2.811   2.042   9.049  1.0673  0.3190  1.0230
  137MPD2    H1 2092   3.095   1.793   8.871 -0.5439 -0.8163  1.4351
  137MPD2    H2 2093   3.065   2.191   8.740  1.6665  0.9375  2.7287
  137MPD2    H3 2094   3.161   1.976   8.723  2.4909  0.8355  1.9840
  137MPD2     N 2095   2.897   1.811   9.057  0.1816 -0.1809  0.1297
  137MPD2    H5 2096   2.813   1.838   9.105  0.6340  2.0454 -0.3480
  137MPD2    N1 2097   2.851   2.246   8.890  0.4034 -0.0515 -1.0539
  137MPD2    H7 2098   2.884   2.324   8.833  1.0837 -0.0543 -0.6553
  138TCq2    C1 2099   2.732   2.275   8.956  0.5575  0.5724  0.1273
  138TCq2    O2 2100   2.647   2.202   9.009 -0.1453 -0.0011 -0.1031
  138TCq2    C2 2101   2.692   2.410   8.928  0.6271 -0.1908  0.5417
  138TCq2    C3 2102   2.789   2.498   8.886  0.5244  0.5660  0.0584
  138TCq2    C4 2103   2.748   2.614   8.833 -0.4371 -0.1625  0.2443
  138TCq2    C5 2104   2.619   2.650   8.814  0.6080  0.0453  0.3237
  138TCq2    C6 2105   2.523   2.562   8.857 -0.4400 -0.4553  0.2241
  138TCq2    C7 2106   2.558   2.443   8.916 -1.0838  0.3470 -0.8740
  138TCq2    C8 2107   2.390   2.583   8.809 -0.2294  0.5262 -0.6203
  138TCq2    O4 2108   2.377   2.665   8.723  0.0662 -0.2817 -0.3888
  138TCq2    C9 2109   2.843   2.718   8.791 -0.1947 -0.5145  0.0640
  138TCq2    O5 2110   2.964   2.685   8.795  0.9604 -0.0299  0.6826
  138TCq2    O6 2111   2.808   2.835   8.768 -0.1167  0.3564  0.1980
  138TCq2    H2 2112   2.894   2.485   8.909  0.5252 -1.1100 -0.8855
  138TCq2    H3 2113   2.605   2.747   8.768 -1.6744 -0.0158  0.8872
  138TCq2    H4 2114   2.488   2.375   8.961 -0.8898  2.1948  2.1920
  139TMC2    C1 2115   4.112   0.172  13.730  0.9378  0.4874 -0.1862
  139TMC2    C2 2116   4.180   0.203  13.840  0.0243  0.5802 -0.4117
  139TMC2    C3 2117   4.124   0.289  13.929 -0.2281 -0.1461  0.2167
  139TMC2    C4 2118   3.986   0.224  13.708  0.2897 -0.0023 -0.0100
  139TMC2    C5 2119   3.925   0.289  13.809 -0.0775 -0.1937  0.3085
  139TMC2    C6 2120   3.991   0.315  13.924  0.0380  0.2106  0.1806
  139TMC2     C 2121   4.147   0.053  13.657  0.0407  0.7121 -0.5168
  139TMC2     O 2122   4.265   0.015  13.669 -0.1497 -0.3085  0.1125
  139TMC2     H 2123   4.284   0.174  13.852 -0.2863 -0.2387  0.2706
  139TMC2    H1 2124   3.940   0.211  13.611 -0.2656 -0.1551  0.2769
  139TMC2    H2 2125   3.949   0.380  14.000  1.7652  2.2542 -0.6535
  139TMC2    C7 2126   3.782   0.321  13.797  0.3721  0.1689  0.3183
  139TMC2    C8 2127   4.197   0.307  14.049  0.1147 -0.1444 -0.0140
  139TMC2    O1 2128   3.739   0.318  13.681  0.0995 -0.0750 -0.3125
  139TMC2    O2 2129   4.144   0.306  14.158 -0.7525 -0.4664 -0.6626
  139TMC2    O5 2130   4.306   0.382  14.010 -0.3076  0.1462 -0.5908
  139TMC2    H5 2131   4.312   0.387  13.912 -0.7450  0.6796 -0.5913
  140MPD2     C 2132   3.915   4.520  13.510 -0.2289  0.3065 -0.5718
  140MPD2    C1 2133   4.035   4.579  13.545 -0.2464 -0.2739  0.3218
  140MPD2    C2 2134   4.149   4.501  13.527  0.1481 -0.2099  0.8365
  140MPD2    C3 2135   4.137   4.377  13.467 -0.5817  1.1811 -0.2409
  140MPD2    C4 2136   4.018   4.331  13.427 -0.1193  0.1885  0.3754
  140MPD2    C5 2137   3.907   4.400  13.455  0.2389  0.5190  0.1499
  140MPD2     H 2138   4.247   4.542  13.548  0.2437 -0.4031  0.7665
  140MPD2    H1 2139   4.013   4.241  13.367 -0.5898  0.5327 -0.1143
  140MPD2    H2 2140   3.822   4.572  13.533  0.9925  3.4487 -2.6870
  140MPD2    H3 2141   3.809   4.363  13.426 -0.0247  0.9115  0.5304
  140MPD2     N 2142   4.253   4.319  13.426 -0.0344 -0.0430  0.2068
  140MPD2    H5 2143   4.338   4.367  13.450  1.6506 -2.2809 -1.2378
  140MPD2    N1 2144   4.035   4.706  13.611  0.5991 -0.4860  0.0524
  140MPD2    H7 2145   3.946   0.029  13.630 -0.1009 -1.4255 -0.9876
  141TCq2    C1 2146   3.947   1.013  14.360 -0.4106 -0.4273  0.0753
  141TCq2    O2 2147   3.950   1.070  14.254  0.3293  0.1513  0.5075
  141TCq2    C2 2148   3.866   1.078  14.471 -0.9225  0.1818  0.2323
  141TCq2    C3 2149   3.831   1.017  14.585  0.2859 -0.8905 -0.5629
  141TCq2    C4 2150   3.760   1.096  14.669  0.4691  0.4576 -0.1498
  141TCq2    C5 2151   3.717   1.223  14.638  0.2468  0.8481  0.2022
  141TCq2    C6 2152   3.757   1.277  14.523  0.4149 -0.1574 -0.8606
  141TCq2    C7 2153   3.839   1.210  14.438 -0.6216  0.2085  0.0178
  141TCq2    C8 2154   3.756   1.426  14.518  0.2030  0.2318  0.1167
  141TCq2    O4 2155   3.648   1.479  14.546 -0.4561  0.0211  0.3172
  141TCq2    C9 2156   3.728   1.039  14.793  0.2317  0.3876 -0.3617
  141TCq2    O5 2157   3.657   1.102  14.875 -0.8822  0.0179  0.8663
  141TCq2    O6 2158   3.800   0.944  14.838  0.3564  0.5565 -0.2711
  141TCq2    H2 2159   3.847   0.913  14.609  2.2196 -0.2439  0.9838
  141TCq2    H3 2160   3.647   1.278  14.700  0.0990 -0.6719  1.4019
  141TCq2    H4 2161   3.864   1.244  14.339  2.8962 -1.2152  0.4067
  142MPD2     C 2162   1.859   3.796  10.779  0.0041 -0.0545  0.0589
  142MPD2    C1 2163   1.814   3.746  10.663  0.6135  0.0533 -0.2645
  142MPD2    C2 2164   1.861   3.808  10.544 -1.1729 -0.1565  0.1514
  142MPD2    C3 2165   1.963   3.898  10.546  0.3548  0.1169 -0.3916
  142MPD2    C4 2166   2.019   3.934  10.667  0.0461 -0.0030 -0.2649
  142MPD2    C5 2167   1.960   3.891  10.786  0.1236  0.2319 -0.0416
  142MPD2     H 2168   1.838   3.756  10.452 -0.5640 -2.2774  1.1832
  142MPD2    H1 2169   2.101   4.004  10.667 -1.5758  1.9039  0.3575
  142MPD2    H2 2170   1.838   3.755  10.877  1.2535  0.0636  0.3834
  142MPD2    H3 2171   2.010   3.925  10.876  0.7044  1.1683 -0.7158
  142MPD2     N 2172   2.014   3.961  10.429  0.4580  0.6315 -0.7506
  142MPD2    H5 2173   2.090   4.026  10.445  0.7630 -0.0252  0.5305
  142MPD2    N1 2174   1.733   3.623  10.663  0.4590  0.2872 -0.0766
  142MPD2    H7 2175   1.736   3.557  10.740 -1.4493 -0.4743 -0.6457
  143TCq2    C1 2176   1.981   3.928  10.299  0.5919 -0.1030 -0.2482
  143TCq2    O2 2177   1.890   3.867  10.254  0.0601 -0.3363  0.2530
  143TCq2    C2 2178   2.071   3.992  10.201  0.1241  0.1730 -0.6008
  143TCq2    C3 2179   2.194   4.023  10.246 -0.0393  0.1761  0.1752
  143TCq2    C4 2180   2.287   4.059  10.154 -0.1062  0.4332 -0.3890
  143TCq2    C5 2181   2.254   4.082  10.023  0.3254  0.1446  0.2493
  143TCq2    C6 2182   2.119   4.072   9.989  0.0945 -0.3798 -0.8494
  143TCq2    C7 2183   2.027   4.016  10.073  0.0739  0.4123  0.3109
  143TCq2    C8 2184   2.075   4.156   9.881 -0.2766  0.3569 -0.3404
  143TCq2    O4 2185   1.956   4.196   9.882 -0.2143  0.7206  0.0830
  143TCq2    C9 2186   2.427   4.074  10.191 -0.1916  0.2865  0.6483
  143TCq2    O5 2187   2.504   4.090  10.093 -0.0375 -0.6360  0.2361
  143TCq2    O6 2188   2.459   4.058  10.315  0.1918  0.0645  0.5391
  143TCq2    H2 2189   2.240   4.014  10.344 -0.7772  1.0743  0.5977
  143TCq2    H3 2190   2.338   4.112   9.962 -1.1183 -0.2160 -1.9143
  143TCq2    H4 2191   1.925   4.005  10.039  0.2783  0.8482 -0.4484
  144MPD2     C 2192   0.487   3.419   1.052  0.6089  0.2476 -0.4965
  144MPD2    C1 2193   0.546   3.334   0.952 -0.1125 -0.1545  0.0021
  144MPD2    C2 2194   0.678   3.293   0.970 -0.4672 -1.1009 -0.7536
  144MPD2    C3 2195   0.753   3.327   1.082  0.2842 -0.1247  0.1408
  144MPD2    C4 2196   0.687   3.406   1.176  0.2245  0.5563  0.2494
  144MPD2    C5 2197   0.553   3.443   1.169  0.4002  0.7431 -0.0287
  144MPD2     H 2198   0.728   3.232   0.896  1.9898  1.3591 -1.1324
  144MPD2    H1 2199   0.741   3.436   1.265 -1.5312  1.4150  1.0200
  144MPD2    H2 2200   0.390   3.464   1.041  0.9511  0.8435 -1.0776
  144MPD2    H3 2201   0.501   3.501   1.245 -1.2862  1.8573 -2.0476
  144MPD2     N 2202   0.894   3.313   1.096 -0.4989  0.6839  0.5847
  144MPD2    H5 2203   0.941   3.360   1.174 -0.3303 -0.7365  1.3337
  144MPD2    N1 2204   0.482   3.297   0.830  0.4791 -0.0181 -0.6336
  144MPD2    H7 2205   0.534   3.271   0.747  0.3907 -1.6039 -0.1908
  145TCq2    C1 2206   0.972   3.235   1.015 -0.3818  0.6483  0.7374
  145TCq2    O2 2207   0.935   3.140   0.951 -0.5105  0.1493 -0.1710
  145TCq2    C2 2208   1.114   3.262   1.033  0.0462 -0.3941  0.1765
  145TCq2    C3 2209   1.201   3.179   0.956  0.9104  0.6370 -0.0821
  145TCq2    C4 2210   1.334   3.202   0.960  0.4673  0.2089  0.2982
  145TCq2    C5 2211   1.377   3.316   1.017 -0.1412  0.1969 -0.6344
  145TCq2    C6 2212   1.289   3.400   1.076  0.0124 -0.4068  0.0082
  145TCq2    C7 2213   1.153   3.378   1.088 -0.5367 -0.3258 -0.0591
  145TCq2    C8 2214   1.357   3.492   1.169 -0.0923 -0.7000  0.3862
  145TCq2    O4 2215   1.477   3.511   1.161  0.0371 -0.2854  0.5042
  145TCq2    C9 2216   1.429   3.112   0.902  0.3305  0.3771  0.8445
  145TCq2    O5 2217   1.389   2.997   0.866  0.4395 -0.1956 -0.0976
  145TCq2    O6 2218   1.554   3.136   0.913 -0.0665 -0.0281  0.3710
  145TCq2    H2 2219   1.159   3.094   0.905 -0.0402  0.4304  1.0314
  145TCq2    H3 2220   1.484   3.333   1.025 -0.2227  0.9619 -1.1446
  145TCq2    H4 2221   1.079   3.444   1.131 -0.1163  0.4902 -0.6069
  146TMC2    C1 2222   1.403   2.157  12.720  0.5045 -0.6243  0.4465
  146TMC2    C2 2223   1.339   2.248  12.640 -0.1539  1.0360 -0.2850
  146TMC2    C3 2224   1.306   2.215  12.509 -0.0314 -0.1119  0.3087
  146TMC2    C4 2225   1.423   2.032  12.680  0.8670  0.2847  0.3618
  146TMC2    C5 2226   1.374   1.997  12.559  0.1531 -0.2141 -0.1955
  146TMC2    C6 2227   1.305   2.085  12.475  0.2666 -0.0204  0.1002
  146TMC2     C 2228   1.460   2.202  12.844  0.1419  0.0434 -0.4420
  146TMC2     O 2229   1.488   2.320  12.847  0.3962  0.2240 -0.1193
  146TMC2     H 2230   1.310   2.346  12.678 -1.5182 -0.2114  1.8642
  146TMC2    H1 2231   1.490   1.964  12.732 -1.2904  1.0435  4.1623
  146TMC2    H2 2232   1.276   2.055  12.375 -0.4782 -1.4635  0.7471
  146TMC2    C7 2233   1.382   1.860  12.513  0.3431 -0.5606 -0.2302
  146TMC2    C8 2234   1.229   2.307  12.425 -0.1121 -0.2034 -0.0503
  146TMC2    O1 2235   1.364   1.835  12.396 -0.0786 -0.3253  0.0385
  146TMC2    O2 2236   1.136   2.270  12.348  0.3068 -0.0009 -0.2036
  146TMC2    O5 2237   1.278   2.434  12.433  0.0197 -0.0465 -0.5550
  146TMC2    H5 2238   1.368   2.435  12.472 -0.0654 -0.2658 -0.3556
  147MPD2     C 2239   1.440   1.336  12.533 -0.3685  0.1503 -1.0115
  147MPD2    C1 2240   1.413   1.393  12.651 -0.6558 -0.8748  0.7061
  147MPD2    C2 2241   1.400   1.534  12.676  0.3151 -0.6958  0.2754
  147MPD2    C3 2242   1.417   1.618  12.576  0.0160 -0.1420 -0.0754
  147MPD2    C4 2243   1.436   1.563  12.448  0.2524  0.7472  0.5530
  147MPD2    C5 2244   1.447   1.423  12.433 -0.0658 -0.5534  0.0439
  147MPD2     H 2245   1.378   1.564  12.778  1.6624  0.2215  0.3010
  147MPD2    H1 2246   1.468   1.622  12.362 -1.7958  0.3937 -0.4369
  147MPD2    H2 2247   1.460   1.231  12.519 -0.2222 -0.2463  2.3148
  147MPD2    H3 2248   1.477   1.382  12.337 -0.1836 -2.2990  0.7457
  147MPD2     N 2249   1.408   1.759  12.606 -0.4233  0.0433 -0.5036
  147MPD2    H5 2250   1.405   1.797  12.701 -0.9883 -0.4364 -0.3271
  147MPD2    N1 2251   1.422   1.305  12.756  0.2552 -0.3736 -0.7269
  147MPD2    H7 2252   1.454   1.213  12.729  2.6261  0.2519  0.0078
  148MPD2     C 2253   1.867   0.345   9.840  0.1965 -0.1500  0.0216
  148MPD2    C1 2254   1.890   0.246   9.927  0.5046 -0.4184  1.3773
  148MPD2    C2 2255   1.790   0.199  10.012  0.5123  0.5971 -0.4792
  148MPD2    C3 2256   1.674   0.278  10.020 -0.0748 -0.0301  0.4221
  148MPD2    C4 2257   1.659   0.385   9.940 -0.5420 -0.5168 -0.3180
  148MPD2    C5 2258   1.750   0.415   9.841 -0.3448  0.2881 -0.3980
  148MPD2     H 2259   1.804   0.108  10.069 -3.0056  0.7656  0.6591
  148MPD2    H1 2260   1.572   0.449   9.946 -0.8804 -0.9318 -0.8593
  148MPD2    H2 2261   1.932   0.389   9.765 -1.6115  2.6620  0.0975
  148MPD2    H3 2262   1.728   0.494   9.770 -1.1998  0.2850 -0.1342
  148MPD2     N 2263   1.570   0.246  10.110 -0.2440  0.0613 -0.2426
  148MPD2    H5 2264   1.482   0.295  10.093 -0.5512 -0.3062  0.2709
  148MPD2    N1 2265   1.996   0.164   9.906 -0.2390 -0.7317  0.5035
  148MPD2    H7 2266   1.996   0.082   9.967  2.1289 -0.6762  0.5781
  149TCq2    C1 2267   2.112   0.189   9.837  0.6966  0.5080  0.7145
  149TCq2    O2 2268   2.151   0.290   9.783 -0.1116  0.3319 -0.0776
  149TCq2    C2 2269   2.206   0.074   9.845  0.9698 -0.3618 -0.0294
  149TCq2    C3 2270   2.338   0.100   9.875 -0.7401 -0.1141  0.0498
  149TCq2    C4 2271   2.403   4.712   9.923 -0.4763 -0.1257  0.1240
  149TCq2    C5 2272   2.341   4.595   9.955  0.5569  0.3836 -0.1711
  149TCq2    C6 2273   2.208   4.580   9.929 -0.2765  0.4961 -0.3413
  149TCq2    C7 2274   2.140   4.678   9.866 -0.2204 -1.4082  0.5496
  149TCq2    C8 2275   2.128   4.492  10.012 -0.3782 -0.3767  0.4785
  149TCq2    O4 2276   2.008   4.493   9.994 -0.2400  0.2891  0.4505
  149TCq2    C9 2277   2.528   0.022   9.990 -0.3917 -0.5048 -0.0636
  149TCq2    O5 2278   2.559   4.666  10.079  0.6162 -0.3571 -0.1584
  149TCq2    O6 2279   2.596   0.125   9.969 -0.0543 -0.1339 -0.3354
  149TCq2    H2 2280   2.391   0.193   9.854  1.0020 -0.8996  0.9281
  149TCq2    H3 2281   2.403   4.520  10.004 -0.6709  1.2293  2.7125
  149TCq2    H4 2282   2.035   4.663   9.843 -0.3130 -0.3675  0.2979
  150MPD2     C 2283   3.392   4.361  12.184 -0.0459 -0.0964  0.1714
  150MPD2    C1 2284   3.332   4.485  12.182 -0.2188 -0.1688 -0.6390
  150MPD2    C2 2285   3.394   4.591  12.247  0.2091  0.4480 -0.5057
  150MPD2    C3 2286   3.512   4.567  12.323  0.5825 -0.0554  0.0927
  150MPD2    C4 2287   3.563   4.438  12.336 -0.0537 -0.1395 -0.3293
  150MPD2    C5 2288   3.504   4.335  12.266 -0.2559  0.8213 -0.5567
  150MPD2     H 2289   3.351   4.690  12.247 -0.9889 -0.0612 -1.5299
  150MPD2    H1 2290   3.640   4.419  12.410  0.9706  0.2460 -1.2917
  150MPD2    H2 2291   3.351   4.274  12.133  1.3691 -0.9555  0.4808
  150MPD2    H3 2292   3.547   4.236  12.275 -1.6708  0.1604 -1.1419
  150MPD2     N 2293   3.574   4.677  12.387  0.5804  0.0093  0.1395
  150MPD2    H5 2294   3.531   0.046  12.381 -1.1618 -0.7715  0.6366
  150MPD2    N1 2295   3.216   4.487  12.106  0.1599  0.3282  0.4062
  150MPD2    H7 2296   3.173   4.397  12.084  1.2172  0.5740 -2.6244
  151TCq2    C1 2297   3.699   4.678  12.444  0.0467  0.4235 -0.4883
  151TCq2    O2 2298   3.783   4.590  12.435  0.3497  0.4572  0.3375
  151TCq2    C2 2299   3.749   0.089  12.482 -0.0593  0.4199 -0.5419
  151TCq2    C3 2300   3.676   0.200  12.468 -0.0961 -0.7545 -0.2084
  151TCq2    C4 2301   3.745   0.315  12.485 -0.3071 -0.0754  0.4115
  151TCq2    C5 2302   3.877   0.332  12.520 -0.0913  0.1480 -0.4694
  151TCq2    C6 2303   3.952   0.215  12.525  0.0427 -0.4765  0.2314
  151TCq2    C7 2304   3.882   0.095  12.507 -0.1817  0.1997 -0.0149
  151TCq2    C8 2305   4.091   0.228  12.496 -0.1788  0.4874 -0.2908
  151TCq2    O4 2306   4.153   0.319  12.543 -0.2842  0.2946 -0.0432
  151TCq2    C9 2307   3.672   0.441  12.481 -0.2143  0.1387  0.3751
  151TCq2    O5 2308   3.548   0.434  12.447 -0.2489  0.4534 -0.1252
  151TCq2    O6 2309   3.723   0.542  12.537 -0.1147 -0.1692 -0.4719
  151TCq2    H2 2310   3.568   0.198  12.463 -0.0763 -1.3132 -0.3763
  151TCq2    H3 2311   3.912   0.432  12.545  1.8290 -0.6280 -0.0190
  151TCq2    H4 2312   3.939   0.004  12.514 -0.3558 -0.0247 -1.4337
  152MPD2     C 2313   2.968   4.099  12.834  0.1464 -0.1204  0.5473
  152MPD2    C1 2314   3.003   4.193  12.741 -0.4250 -0.0506  0.0476
  152MPD2    C2 2315   2.902   4.259  12.673  0.5907 -0.0306  0.0779
  152MPD2    C3 2316   2.766   4.230  12.694 -0.3756 -0.3749 -0.0706
  152MPD2    C4 2317   2.734   4.145  12.792  0.1037  0.4132  0.2549
  152MPD2    C5 2318   2.836   4.080  12.859  0.3612 -0.1341 -0.0763
  152MPD2     H 2319   2.921   4.342  12.606 -1.2424  0.4338  0.1207
  152MPD2    H1 2320   2.629   4.122  12.812 -0.0162 -1.0955 -2.1467
  152MPD2    H2 2321   3.039   4.044  12.895  1.6631  0.0026 -1.0941
  152MPD2    H3 2322   2.808   4.018  12.944  0.8254  0.8467  0.7970
  152MPD2     N 2323   2.673   4.305  12.616  0.6536  0.0608  0.1745
  152MPD2    H5 2324   2.708   4.384  12.562  1.3937 -0.9153 -0.7776
  152MPD2    N1 2325   3.137   4.221  12.715 -0.6724 -0.1066  0.1990
  152MPD2    H7 2326   3.207   4.161  12.757 -0.3157  0.3982  0.3273
  153TCq2    C1 2327   3.187   4.336  12.664  0.3927  1.0427 -0.5415
  153TCq2    O2 2328   3.122   4.434  12.637 -0.1142 -0.0861  0.5145
  153TCq2    C2 2329   3.330   4.336  12.640 -1.3668  0.9509  0.1003
  153TCq2    C3 2330   3.404   4.223  12.632 -0.8315 -0.1374 -1.3754
  153TCq2    C4 2331   3.544   4.237  12.624 -0.2382 -0.1953 -0.1977
  153TCq2    C5 2332   3.595   4.359  12.644  0.3375 -0.5899  0.4089
  153TCq2    C6 2333   3.517   4.463  12.680  0.7344 -0.1860  0.5417
  153TCq2    C7 2334   3.380   4.456  12.668  0.3717  0.0830 -0.0171
  153TCq2    C8 2335   3.571   4.591  12.731  0.1679 -0.5073 -0.3612
  153TCq2    O4 2336   3.486   4.683  12.740 -0.7477  0.4680 -0.4953
  153TCq2    C9 2337   3.624   4.122  12.585  0.1540 -0.5965 -0.1149
  153TCq2    O5 2338   3.751   4.123  12.606 -0.5268 -0.1106  0.0804
  153TCq2    O6 2339   3.554   4.023  12.544 -0.0619 -0.3762  0.0913
  153TCq2    H2 2340   3.363   4.123  12.632 -2.3932  0.5145 -0.4987
  153TCq2    H3 2341   3.703   4.361  12.646  0.2664  3.9199 -2.8196
  153TCq2    H4 2342   3.317   4.544  12.665 -1.5829 -1.2750  1.3035
  154MPD2     C 2343   1.193   0.149   0.632 -0.1339  0.1634  0.5962
  154MPD2    C1 2344   1.163   0.016   0.664  0.3766 -0.7495  0.1150
  154MPD2    C2 2345   1.029   4.702   0.705  0.4023  0.3911 -0.1772
  154MPD2    C3 2346   0.923   0.066   0.702  0.3237 -0.8868 -1.6756
  154MPD2    C4 2347   0.958   0.192   0.659  0.2968 -0.0500  0.8162
  154MPD2    C5 2348   1.083   0.234   0.631 -0.2268  0.6149 -0.4555
  154MPD2     H 2349   1.016   4.608   0.756  0.0381  0.2713 -0.4905
  154MPD2    H1 2350   0.886   0.273   0.654 -1.3552 -1.5587 -0.2404
  154MPD2    H2 2351   1.294   0.184   0.612  0.2112 -1.3117 -0.2522
  154MPD2    H3 2352   1.088   0.339   0.605  0.2594  0.9117  0.8209
  154MPD2     N 2353   0.792   0.031   0.746  0.0432 -0.1802  0.0433
  154MPD2    H5 2354   0.788   4.670   0.804  3.6021  0.2035  0.8174
  154MPD2    N1 2355   1.264   4.641   0.644  0.6273 -0.6055  0.6284
  154MPD2    H7 2356   1.352   4.677   0.610 -0.3579  1.2284  0.0077
  155TCq2    C1 2357   1.265   4.511   0.696  0.1710  0.0509 -0.0254
  155TCq2    O2 2358   1.204   4.462   0.794  0.8289  0.1260  0.3351
  155TCq2    C2 2359   1.398   4.459   0.678  0.0303  0.1364 -0.3931
  155TCq2    C3 2360   1.456   4.400   0.788 -0.7450 -0.9453 -0.1744
  155TCq2    C4 2361   1.572   4.327   0.764  0.8449  0.1251  0.3764
  155TCq2    C5 2362   1.613   4.298   0.631 -0.1141 -0.0402 -0.3638
  155TCq2    C6 2363   1.551   4.364   0.534  0.3173 -0.8049  0.3930
  155TCq2    C7 2364   1.437   4.447   0.553 -0.7087 -0.9306  0.0493
  155TCq2    C8 2365   1.613   4.379   0.408  0.2146 -0.2238 -0.7828
  155TCq2    O4 2366   1.722   4.329   0.392 -0.0383 -0.0832 -0.8472
  155TCq2    C9 2367   1.642   4.266   0.876 -0.2707  0.2044 -0.0651
  155TCq2    O5 2368   1.594   4.265   0.992  0.5401  0.0979  0.3535
  155TCq2    O6 2369   1.728   4.186   0.840 -0.4683 -0.2682  0.0160
  155TCq2    H2 2370   1.417   4.422   0.887 -0.2872 -0.1752 -0.1624
  155TCq2    H3 2371   1.699   4.237   0.608 -0.3627  0.2357 -2.0239
  155TCq2    H4 2372   1.387   4.509   0.479  1.8130  1.4389  0.3300
  156MPD2     C 2373   4.121   1.993  11.861 -0.2818 -0.4681  0.2871
  156MPD2    C1 2374   3.999   2.037  11.814 -0.7721  0.3952  0.3202
  156MPD2    C2 2375   3.918   2.104  11.907 -0.0734  0.0743  0.7635
  156MPD2    C3 2376   3.954   2.112  12.039 -0.2790  0.2369 -0.5265
  156MPD2    C4 2377   4.074   2.075  12.086 -0.3370 -0.3519 -0.0962
  156MPD2    C5 2378   4.154   2.014  11.998 -0.5675  0.5139  0.5939
  156MPD2     H 2379   3.829   2.157  11.877 -0.6386 -1.3960 -0.1332
  156MPD2    H1 2380   4.111   2.105  12.183 -0.1206  0.5804 -0.4602
  156MPD2    H2 2381   4.191   1.953  11.788  0.3647  0.7803  0.2245
  156MPD2    H3 2382   4.249   1.978  12.037 -0.0177  1.8467  0.4682
  156MPD2     N 2383   3.868   2.198  12.111 -0.3814  0.3872  0.0118
  156MPD2    H5 2384   3.797   2.240  12.052 -1.2527 -1.2752 -0.1282
  156MPD2    N1 2385   3.967   2.030  11.671 -0.0703  0.3408  0.4613
  156MPD2    H7 2386   4.042   1.989  11.615  1.7631 -1.3750  4.0938
  157TCq2    C1 2387   3.856   2.080  11.610 -0.1296 -0.3585 -0.1938
  157TCq2    O2 2388   3.760   2.136  11.661 -0.3028  0.0913  0.1610
  157TCq2    C2 2389   3.844   2.040  11.477 -1.1742 -0.4407  0.4371
  157TCq2    C3 2390   3.873   1.908  11.445  0.0532  0.7953  0.8598
  157TCq2    C4 2391   3.810   1.848  11.339 -0.5463 -0.5774 -0.5136
  157TCq2    C5 2392   3.715   1.908  11.259 -0.2462  0.1685  0.1912
  157TCq2    C6 2393   3.685   2.034  11.303  0.6672 -0.3232  0.2969
  157TCq2    C7 2394   3.749   2.100  11.407 -0.7181 -1.0521 -0.1123
  157TCq2    C8 2395   3.577   2.108  11.243 -0.7112 -0.3509 -0.3219
  157TCq2    O4 2396   3.585   2.229  11.243  0.1116  0.2301 -0.0912
  157TCq2    C9 2397   3.846   1.708  11.315 -0.1240  0.0319  0.1719
  157TCq2    O5 2398   3.795   1.657  11.213 -0.4453 -0.0283 -0.2312
  157TCq2    O6 2399   3.901   1.643  11.412  0.3902 -0.5595 -0.2938
  157TCq2    H2 2400   3.938   1.849  11.509  1.4208  1.1034 -0.2396
  157TCq2    H3 2401   3.660   1.852  11.184 -0.3962  0.3690  0.1540
  157TCq2    H4 2402   3.731   2.204  11.432 -1.5893 -1.2909  0.2468
  158TMC2    C1 2403   3.981   0.818  13.244 -0.0669 -0.2279 -0.1255
  158TMC2    C2 2404   4.070   0.836  13.143 -0.4538  1.0346  0.1761
  158TMC2    C3 2405   4.027   0.886  13.023 -1.0756  0.0052 -0.2490
  158TMC2    C4 2406   3.852   0.864  13.238 -0.3154 -0.2262  0.0988
  158TMC2    C5 2407   3.812   0.918  13.116 -0.1413 -0.2787 -1.0022
  158TMC2    C6 2408   3.900   0.929  13.008  0.8570  0.2149 -0.0570
  158TMC2     C 2409   4.031   0.762  13.373  0.4226  0.8787 -0.0424
  158TMC2     O 2410   4.151   0.760  13.382 -0.3700  0.2093 -0.6428
  158TMC2     H 2411   4.174   0.812  13.160 -0.2235  1.5348 -0.5190
  158TMC2    H1 2412   3.791   0.877  13.326  1.3199 -0.5916  1.2895
  158TMC2    H2 2413   3.857   0.961  12.913  1.0806  3.6719  0.9961
  158TMC2    C7 2414   3.691   0.993  13.106 -0.1644  0.1110  0.2997
  158TMC2    C8 2415   4.119   0.874  12.911 -1.0637  0.7600 -0.1610
  158TMC2    O1 2416   3.675   1.077  13.019  0.2087  0.0787 -0.2716
  158TMC2    O2 2417   4.095   0.908  12.794 -0.1685 -0.8616 -0.0645
  158TMC2    O5 2418   4.181   0.763  12.948 -0.0533 -0.3140  0.3454
  158TMC2    H5 2419   4.218   0.713  12.872  1.1965  3.4157 -1.4786
  159MPD2     C 2420   4.030   0.646  13.874  0.3190 -0.7934 -0.8824
  159MPD2    C1 2421   3.896   0.655  13.827  0.0642 -0.7610  0.5833
  159MPD2    C2 2422   3.869   0.684  13.693  0.1855  0.1502 -0.7137
  159MPD2    C3 2423   3.971   0.695  13.603 -0.0914 -0.1378 -0.2885
  159MPD2    C4 2424   4.103   0.662  13.644  0.3345 -0.2359 -0.0986
  159MPD2    C5 2425   4.129   0.643  13.779  0.0898  0.0268  0.0367
  159MPD2     H 2426   3.771   0.711  13.655  0.0570 -0.4700 -0.8290
  159MPD2    H1 2427   4.187   0.668  13.576  1.1284  1.0276  0.9910
  159MPD2    H2 2428   4.045   0.631  13.981 -2.0653 -2.5124 -0.7869
  159MPD2    H3 2429   4.231   0.624  13.810  0.1589  1.4472  0.6797
  159MPD2     N 2430   3.934   0.730  13.466  0.1411  0.4078  0.3716
  159MPD2    H5 2431   3.836   0.725  13.441  0.0275  1.9699  0.4943
  159MPD2    N1 2432   3.805   0.662  13.932 -0.4869  0.2797 -0.2460
  159MPD2    H7 2433   3.857   0.636  14.015  0.0518 -0.0512 -0.6850
  160TMC2    C1 2434   4.307   0.275   1.686 -0.1128  0.2835 -0.1225
  160TMC2    C2 2435   4.369   0.388   1.714 -0.6601 -0.9246 -0.6833
  160TMC2    C3 2436   4.413   0.468   1.615  0.4777 -0.3101 -0.3770
  160TMC2    C4 2437   4.302   0.236   1.556  0.0291  0.1060  0.4744
  160TMC2    C5 2438   4.361   0.312   1.457 -0.2328 -0.2925 -0.1831
  160TMC2    C6 2439   4.430   0.420   1.490 -0.5806 -0.0240 -0.0794
  160TMC2     C 2440   4.211   0.238   1.791 -0.2813  0.3511 -0.1183
  160TMC2     O 2441   4.228   0.258   1.910 -0.5341  0.4205 -0.4271
  160TMC2     H 2442   4.376   0.411   1.819 -1.7551  3.5784 -1.6220
  160TMC2    H1 2443   4.238   0.154   1.525  0.0098  0.1479  0.4017
  160TMC2    H2 2444   4.466   0.488   1.413 -0.8458 -0.4178 -0.5491
  160TMC2    C7 2445   4.388   0.258   1.324  0.1691 -0.7095 -0.4921
  160TMC2    C8 2446   4.514   0.559   1.655 -0.2134  0.9644 -0.4200
  160TMC2    O1 2447   4.401   0.334   1.229 -0.0446 -0.0600  0.1126
  160TMC2    O2 2448   4.608   0.579   1.577 -0.0229 -0.7657 -0.4507
  160TMC2    O5 2449   4.458   0.652   1.736 -0.0749 -0.4845  0.3302
  160TMC2    H5 2450   4.370   0.630   1.772 -0.3348  1.0787  0.6831
  161MPD2     C 2451   3.982   0.103   1.914  0.5539  0.0718  0.7322
  161MPD2    C1 2452   4.007   0.102   1.781 -0.0045  0.8257  0.3329
  161MPD2    C2 2453   3.920   0.026   1.700  0.2725 -0.5174  0.0627
  161MPD2    C3 2454   3.818   4.676   1.755 -0.0204  0.5643  0.1678
  161MPD2    C4 2455   3.789   4.692   1.889 -0.7991  0.0523  0.4660
  161MPD2    C5 2456   3.871   0.049   1.961 -0.3012  0.6307 -0.0277
  161MPD2     H 2457   3.944   0.026   1.595  1.0317 -3.0702  0.2387
  161MPD2    H1 2458   3.698   4.661   1.941 -1.2766 -1.1129 -1.0565
  161MPD2    H2 2459   4.039   0.153   1.992  0.9035 -0.1516  0.6163
  161MPD2    H3 2460   3.843   0.069   2.063  4.7316  1.2634  1.2611
  161MPD2     N 2461   3.730   4.595   1.681 -0.6543  0.2806  0.5309
  161MPD2    H5 2462   3.659   4.554   1.741 -1.9816  1.1680 -0.4342
  161MPD2    N1 2463   4.110   0.176   1.727 -0.2728 -0.7880  0.4278
  161MPD2    H7 2464   4.124   0.161   1.627  0.7853 -0.0102  0.4660
  162TMC2    C1 2465   1.426   0.935   1.400 -0.4053 -0.5352 -1.3378
  162TMC2    C2 2466   1.296   0.925   1.368  0.7337 -0.6882 -0.1603
  162TMC2    C3 2467   1.210   0.988   1.459 -0.6737  1.4459 -0.3051
  162TMC2    C4 2468   1.475   1.002   1.510 -0.0625 -0.0621 -0.6392
  162TMC2    C5 2469   1.385   1.067   1.592  1.0187 -0.6764  0.8115
  162TMC2    C6 2470   1.252   1.052   1.566  0.1632  0.3122 -0.4075
  162TMC2     C 2471   1.525   0.904   1.296 -0.0118 -0.3163  0.1001
  162TMC2     O 2472   1.487   0.899   1.181  0.1400 -0.5290 -0.3834
  162TMC2     H 2473   1.262   0.880   1.275  0.4915 -2.7901  0.9337
  162TMC2    H1 2474   1.575   1.043   1.502 -0.0970  0.4438  1.7208
  162TMC2    H2 2475   1.169   1.096   1.619 -0.1305  0.3711 -0.9245
  162TMC2    C7 2476   1.435   1.154   1.698  0.3523  0.4541 -0.1443
  162TMC2    C8 2477   1.070   0.983   1.447  0.0390  0.0348  0.4561
  162TMC2    O1 2478   1.356   1.238   1.740  0.3418 -0.5460  0.3267
  162TMC2    O2 2479   0.992   1.068   1.488  0.3003 -0.4197  0.2368
  162TMC2    O5 2480   1.038   0.856   1.420  0.3037 -0.2565  0.0844
  162TMC2    H5 2481   1.118   0.800   1.407  0.2872 -0.1258 -0.5303
  163MPD2     C 2482   1.982   0.704   1.170 -0.5597  0.1305 -0.0334
  163MPD2    C1 2483   1.873   0.736   1.090  0.5394  0.7445  0.0955
  163MPD2    C2 2484   1.756   0.778   1.142  0.1404  0.8995 -0.6233
  163MPD2    C3 2485   1.746   0.799   1.279  0.1292  0.4010  0.0365
  163MPD2    C4 2486   1.852   0.752   1.358  0.4388 -0.1892  0.0373
  163MPD2    C5 2487   1.973   0.714   1.300 -0.2737 -0.1737  0.0840
  163MPD2     H 2488   1.689   0.829   1.074 -1.1877  0.2362  0.1786
  163MPD2    H1 2489   1.845   0.760   1.466 -0.3365  0.3178 -0.0520
  163MPD2    H2 2490   2.075   0.678   1.121 -1.4775 -0.7767 -1.2990
  163MPD2    H3 2491   2.049   0.683   1.370 -0.2810  0.5343  0.4088
  163MPD2     N 2492   1.641   0.855   1.348 -0.2836  0.5851  0.5219
  163MPD2    H5 2493   1.660   0.843   1.447 -0.0445 -0.2065  0.3805
  163MPD2    N1 2494   1.901   0.732   0.954  0.5488 -0.5379 -0.5285
  163MPD2    H7 2495   1.997   0.716   0.925  0.6055 -0.3306 -0.4562
  164TCq2    C1 2496   2.175   0.271  10.914  0.7517  0.2725 -0.5327
  164TCq2    O2 2497   2.127   0.245  11.024 -0.4269  0.0930 -0.2428
  164TCq2    C2 2498   2.103   0.359  10.819  0.2065  0.4629  0.0475
  164TCq2    C3 2499   2.151   0.395  10.699 -0.4612 -0.4219  0.1315
  164TCq2    C4 2500   2.079   0.489  10.624 -0.4571 -0.1337  0.1927
  164TCq2    C5 2501   1.964   0.538  10.668 -0.3406  0.9105 -0.0456
  164TCq2    C6 2502   1.923   0.510  10.794  0.1344 -0.6967 -0.3561
  164TCq2    C7 2503   1.993   0.416  10.874 -0.8980 -0.0442 -0.2422
  164TCq2    C8 2504   1.828   0.603  10.860  0.2546 -0.1518  1.3355
  164TCq2    O4 2505   1.742   0.655  10.795  0.2090 -0.1947  0.2291
  164TCq2    C9 2506   2.139   0.517  10.493 -0.0898  0.2016  0.0621
  164TCq2    O5 2507   2.059   0.541  10.400  0.1748  0.2776 -0.1744
  164TCq2    O6 2508   2.257   0.481  10.475 -0.7367  0.0101  0.5365
  164TCq2    H2 2509   2.240   0.351  10.653  0.2432  0.1563  0.9512
  164TCq2    H3 2510   1.926   0.617  10.604  4.9854 -0.1582 -4.4371
  164TCq2    H4 2511   1.959   0.397  10.975 -0.1269 -1.5069 -0.2718
  165MPD2     C 2512   2.946   3.384   1.773  0.5586  0.2867 -0.2369
  165MPD2    C1 2513   3.000   3.344   1.652 -0.3932 -0.7627  0.4981
  165MPD2    C2 2514   3.095   3.424   1.586 -0.2759 -0.5597  0.6062
  165MPD2    C3 2515   3.129   3.548   1.646 -0.2377  0.2073 -0.8905
  165MPD2    C4 2516   3.070   3.597   1.755 -0.0047  0.0600 -0.8461
  165MPD2    C5 2517   2.976   3.510   1.821 -0.1391  0.3778 -0.1905
  165MPD2     H 2518   3.151   3.392   1.500  1.7851  0.7526  1.4651
  165MPD2    H1 2519   3.087   3.695   1.798  0.4558 -0.4703  0.1630
  165MPD2    H2 2520   2.872   3.326   1.827  0.1750  0.2644 -0.7881
  165MPD2    H3 2521   2.941   3.539   1.919  2.4085 -1.1912  1.1902
  165MPD2     N 2522   3.222   3.630   1.576  0.6350  0.1104  0.4200
  165MPD2    H5 2523   3.251   3.581   1.492 -2.2423 -2.0834  0.6997
  165MPD2    N1 2524   2.960   3.215   1.606  0.2499 -0.1303 -0.5188
  165MPD2    H7 2525   2.900   3.160   1.667  2.0186 -0.4997  0.8823
  166TCq2    C1 2526   3.299   3.732   1.624 -0.0746  0.5259  0.1282
  166TCq2    O2 2527   3.308   3.793   1.730  0.1730 -0.5280 -0.4777
  166TCq2    C2 2528   3.401   3.773   1.529 -0.8554  0.4596 -0.1451
  166TCq2    C3 2529   3.381   3.766   1.392 -0.0688  0.4054  0.4905
  166TCq2    C4 2530   3.493   3.771   1.322 -0.3721 -0.0856 -0.6413
  166TCq2    C5 2531   3.616   3.775   1.373 -0.7373  0.8915  0.4344
  166TCq2    C6 2532   3.629   3.784   1.506  0.6250  0.2388 -0.0581
  166TCq2    C7 2533   3.522   3.787   1.583 -0.5279  0.4476  0.5230
  166TCq2    C8 2534   3.767   3.788   1.567  0.1470 -0.3080  0.2396
  166TCq2    O4 2535   3.858   3.730   1.512  0.4118  0.2972  0.1701
  166TCq2    C9 2536   3.486   3.779   1.182  0.2022  0.1120 -0.2388
  166TCq2    O5 2537   3.589   3.823   1.121 -0.6785 -0.2533  0.3342
  166TCq2    O6 2538   3.389   3.728   1.129 -0.0742 -0.0747 -0.6994
  166TCq2    H2 2539   3.281   3.782   1.354 -0.5699  0.4502  1.7950
  166TCq2    H3 2540   3.706   3.769   1.313 -1.2116 -1.1048 -0.0517
  166TCq2    H4 2541   3.530   3.776   1.690  1.7514 -1.4625  0.1600
  167TMC2    C1 2542   1.109   0.900  12.670 -0.2156 -0.4002  0.1309
  167TMC2    C2 2543   1.094   0.945  12.795 -0.8535  0.0424 -0.5173
  167TMC2    C3 2544   1.018   0.880  12.885  0.0675  0.5905 -0.3604
  167TMC2    C4 2545   1.040   0.790  12.629  0.3247 -0.1384  0.0118
  167TMC2    C5 2546   0.973   0.718  12.721 -0.4303  0.2966  0.7543
  167TMC2    C6 2547   0.957   0.762  12.853 -0.3056  0.1917 -0.4495
  167TMC2     C 2548   1.192   0.982  12.585 -0.0732 -0.5342 -0.8636
  167TMC2     O 2549   1.214   1.099  12.615  0.1770 -0.0887 -0.2157
  167TMC2     H 2550   1.145   1.034  12.830  0.4572 -0.6123 -0.7424
  167TMC2    H1 2551   1.044   0.763  12.524  2.9033  1.7124 -0.3502
  167TMC2    H2 2552   0.905   0.695  12.920 -1.0227  0.6289 -0.5787
  167TMC2    C7 2553   0.926   0.582  12.701 -0.4966  0.0977 -0.3229
  167TMC2    C8 2554   1.035   0.932  13.025  0.2469  0.3786  0.2246
  167TMC2    O1 2555   0.828   0.543  12.761 -0.0211 -0.6259 -0.3859
  167TMC2    O2 2556   1.131   1.007  13.050 -0.3346  0.3716  0.8223
  167TMC2    O5 2557   0.903   0.944  13.070 -0.1448  0.3688 -0.3702
  167TMC2    H5 2558   0.840   0.883  13.025 -0.4287  0.3103  0.1126
  168MPD2     C 2559   1.261   1.117  12.336  0.3217  0.0109  0.4020
  168MPD2    C1 2560   1.269   0.985  12.359 -0.1871  0.0858  0.3747
  168MPD2    C2 2561   1.334   0.909  12.261 -0.9117  0.7487 -0.1982
  168MPD2    C3 2562   1.368   0.969  12.135 -0.1637  0.8365  0.0310
  168MPD2    C4 2563   1.335   1.100  12.109 -0.6316 -0.1664 -0.2311
  168MPD2    C5 2564   1.306   1.173  12.218  0.3479  0.3193 -0.2450
  168MPD2     H 2565   1.339   0.802  12.275 -0.8399  0.6580 -0.9067
  168MPD2    H1 2566   1.363   1.161  12.023 -0.0446 -1.0977 -0.7014
  168MPD2    H2 2567   1.228   1.191  12.408  0.1167  0.4064 -0.0916
  168MPD2    H3 2568   1.294   1.281  12.214 -1.3843  0.1145 -0.6542
  168MPD2     N 2569   1.414   0.879  12.035  0.6990 -0.5214 -0.0178
  168MPD2    H5 2570   1.446   0.790  12.073 -0.0356 -1.4194 -1.5116
  168MPD2    N1 2571   1.210   0.919  12.466  0.0474  0.4596  0.6901
  168MPD2    H7 2572   1.220   0.818  12.471  0.2615  0.4713  0.5057
  169MPD1     C 2573   0.654   4.112  10.228 -0.5117 -0.4394 -1.1096
  169MPD1    C1 2574   0.595   3.989  10.191 -0.1479  0.2275 -1.1080
  169MPD1    C2 2575   0.501   4.008  10.091 -0.5235  1.1358 -0.5497
  169MPD1    C3 2576   0.448   4.120  10.034 -0.4561  0.0806 -0.3489
  169MPD1    C4 2577   0.499   4.242  10.089 -0.3540 -0.9125 -0.3316
  169MPD1    C5 2578   0.601   4.227  10.179  0.0831  0.0222 -0.3561
  169MPD1     H 2579   0.450   3.919  10.056 -0.4489  1.2344 -0.9105
  169MPD1    H1 2580   0.459   4.341  10.070  2.0169  0.1320  0.1929
  169MPD1    H2 2581   0.741   4.112  10.292 -0.5015 -1.9754 -1.1237
  169MPD1    H3 2582   0.650   4.316  10.215 -1.2975 -0.2851  2.2977
  169MPD1     N 2583   0.327   4.114   9.959 -0.3831 -0.3100 -0.0686
  169MPD1    H5 2584   0.296   4.018   9.957 -0.2196 -0.3921  1.2972
  169MPD1    N1 2585   0.638   3.861  10.237 -0.3201 -0.4772 -0.1686
  169MPD1    H6 2586   0.553   3.804  10.234 -1.2043  0.8304 -0.0119
  169MPD1    H7 2587   0.669   3.861  10.334 -0.9014  0.5458  0.0189
  170MPD1     C 2588   3.331   3.260  13.461 -0.0691  0.6010  0.7405
  170MPD1    C1 2589   3.352   3.126  13.487  0.2187 -0.2764  0.1930
  170MPD1    C2 2590   3.239   3.045  13.450  0.2196  1.0683 -0.1769
  170MPD1    C3 2591   3.120   3.105  13.419 -0.2754  0.1059  0.5980
  170MPD1    C4 2592   3.108   3.239  13.398  0.4387 -0.9341  0.3443
  170MPD1    C5 2593   3.216   3.316  13.414 -0.1169 -0.4336  0.4888
  170MPD1     H 2594   3.254   2.938  13.457 -0.0011  1.0416 -0.1216
  170MPD1    H1 2595   3.014   3.274  13.357  1.7010 -0.1080 -1.8357
  170MPD1    H2 2596   3.417   3.327  13.467  0.3173 -0.0768  2.5770
  170MPD1    H3 2597   3.224   3.421  13.386 -0.8792 -0.2546  0.9611
  170MPD1     N 2598   3.011   3.017  13.394 -0.5484  0.3082 -0.0749
  170MPD1    H5 2599   3.025   2.917  13.407  3.2433  0.8635  0.3147
  170MPD1    N1 2600   3.478   3.079  13.520  0.1063  0.1188  0.3771
  170MPD1    H6 2601   3.483   2.982  13.552  0.2525  0.3754  1.1241
  170MPD1    H7 2602   3.513   3.132  13.599 -3.3907  0.7075  1.4991
  171MPD1     C 2603   1.085   3.593  14.891 -0.1435 -0.4283  0.7332
  171MPD1    C1 2604   1.021   3.508  14.981  0.0966 -0.1228 -0.0349
  171MPD1    C2 2605   1.092   3.453  15.089  0.4634  0.4757  0.1556
  171MPD1    C3 2606   1.212   3.517  15.124  0.0732  0.6484 -0.2207
  171MPD1    C4 2607   1.260   3.621  15.044 -0.2733  0.2506  0.1278
  171MPD1    C5 2608   1.204   3.648  14.924  0.0245  0.2611  0.1470
  171MPD1     H 2609   1.044   3.376  15.148  2.4846 -2.3460 -1.9166
  171MPD1    H1 2610   1.356   3.668  15.065 -0.7527  1.1842  0.2101
  171MPD1    H2 2611   1.049   3.601  14.789  0.5847 -0.9268  0.4293
  171MPD1    H3 2612   1.258   3.708  14.851  0.0653  0.3407  0.2426
  171MPD1     N 2613   1.295   3.479  15.233 -0.5877  0.0457 -0.0906
  171MPD1    H5 2614   1.372   3.542  15.252 -1.5223  1.2126 -0.1750
  171MPD1    N1 2615   0.905   3.445  14.933 -0.7518  0.5606  0.4755
  171MPD1    H6 2616   0.842   3.505  14.881  1.2587  0.9106 -1.5711
  171MPD1    H7 2617   0.869   3.385  15.007  1.2102 -0.4904  0.5706
  172MPD1     C 2618   0.658   2.676   0.534  0.7035 -0.4879  0.4879
  172MPD1    C1 2619   0.591   2.789   0.568 -0.1671  0.0348  0.4951
  172MPD1    C2 2620   0.653   2.904   0.592  0.6141 -0.6040  0.3450
  172MPD1    C3 2621   0.788   2.905   0.610 -0.5356  0.0789  0.4918
  172MPD1    C4 2622   0.863   2.782   0.598 -0.4949 -0.2040 -0.3600
  172MPD1    C5 2623   0.795   2.671   0.559 -0.0070  0.1190 -0.3795
  172MPD1     H 2624   0.597   2.997   0.601  2.5909  0.8680 -2.2766
  172MPD1    H1 2625   0.970   2.785   0.617 -0.7529  0.3721  1.0276
  172MPD1    H2 2626   0.605   2.584   0.510  1.1951 -1.3251  2.6786
  172MPD1    H3 2627   0.851   2.578   0.550 -0.3181 -0.0013 -1.0914
  172MPD1     N 2628   0.866   3.015   0.639  0.4717  0.3267 -0.4732
  172MPD1    H5 2629   0.964   3.000   0.663  1.5344  3.6768 -2.6122
  172MPD1    N1 2630   0.456   2.798   0.544  0.5206 -0.2739 -0.6061
  172MPD1    H6 2631   0.414   2.708   0.563 -0.1728 -0.1914 -1.7139
  172MPD1    H7 2632   0.419   2.863   0.613  0.0316 -0.3344 -0.8136
  173MPD1     C 2633   1.753   3.095  14.651  0.1968  0.4008  0.1227
  173MPD1    C1 2634   1.681   3.033  14.549  0.5955 -0.3834  0.3828
  173MPD1    C2 2635   1.578   2.941  14.580  0.0822 -0.4338  0.2359
  173MPD1    C3 2636   1.549   2.917  14.716 -0.0371 -0.3296  0.3786
  173MPD1    C4 2637   1.627   2.970  14.818  0.0995  0.3259  0.0561
  173MPD1    C5 2638   1.728   3.056  14.783 -0.4094 -0.4079 -0.3190
  173MPD1     H 2639   1.507   2.899  14.510  0.9976 -0.9300 -0.3922
  173MPD1    H1 2640   1.614   2.943  14.922  2.5109  0.0689  0.2984
  173MPD1    H2 2641   1.831   3.168  14.633 -0.5167  1.1109 -0.0917
  173MPD1    H3 2642   1.781   3.100  14.867 -0.2624  1.4742 -1.4009
  173MPD1     N 2643   1.435   2.838  14.739 -0.0582 -0.8885 -0.3052
  173MPD1    H5 2644   1.376   2.818  14.659 -1.0188  1.2482 -0.1181
  173MPD1    N1 2645   1.687   3.082  14.417  0.5521  0.1192 -0.4775
  173MPD1    H6 2646   1.646   3.021  14.345 -0.8911  1.6035 -0.9186
  173MPD1    H7 2647   1.765   3.137  14.384 -0.5328  0.4412 -2.4948
  174MPD1     C 2648   1.131   2.446  14.114  0.0581 -0.1063 -0.9531
  174MPD1    C1 2649   1.105   2.578  14.152 -0.3399 -0.4197 -0.1972
  174MPD1    C2 2650   1.102   2.612  14.281  0.2220  0.0102  0.1535
  174MPD1    C3 2651   1.129   2.513  14.378 -0.4091  0.3345  0.6150
  174MPD1    C4 2652   1.142   2.383  14.344  0.7705 -0.9052  0.5814
  174MPD1    C5 2653   1.148   2.354  14.209 -0.4304 -0.6354 -0.0248
  174MPD1     H 2654   1.081   2.717  14.299 -1.4934 -0.3918  0.5469
  174MPD1    H1 2655   1.161   2.307  14.419  0.9166 -1.6034 -0.1626
  174MPD1    H2 2656   1.134   2.419  14.009 -0.3766 -1.3758 -0.6389
  174MPD1    H3 2657   1.178   2.257  14.174 -0.1785 -1.4125  2.3285
  174MPD1     N 2658   1.143   2.551  14.512 -0.6622  0.0033 -0.0606
  174MPD1    H5 2659   1.144   2.650  14.536  0.7425  0.1248 -0.6058
  174MPD1    N1 2660   1.102   2.683  14.056 -0.3320 -0.1425  0.6273
  174MPD1    H6 2661   1.034   2.757  14.073  1.1320  1.0836  1.1791
  174MPD1    H7 2662   1.087   2.650  13.961 -0.2285  1.0930  0.1898
  175MPD1     C 2663   4.653   3.769  15.992  0.7036 -0.0890 -0.0946
  175MPD1    C1 2664   4.546   3.817  16.062  0.1290  0.3063  0.5058
  175MPD1    C2 2665   4.551   3.839  16.201 -0.1033  0.1414  0.4122
  175MPD1    C3 2666   4.656   3.796  16.277 -0.5100  0.4619 -0.3492
  175MPD1    C4 2667   0.039   3.753  16.204  0.1213 -0.3518  0.0102
  175MPD1    C5 2668   0.044   3.740  16.063 -0.2076 -0.3465 -0.1918
  175MPD1     H 2669   4.468   3.879  16.257  0.8562  0.5986  1.4942
  175MPD1    H1 2670   0.134   3.737  16.254  1.6732  2.2188 -2.1242
  175MPD1    H2 2671   4.651   3.763  15.884  1.9832  2.6325 -0.2569
  175MPD1    H3 2672   0.126   3.700  16.005 -0.2842 -1.5313  0.5131
  175MPD1     N 2673   4.674   3.807  16.416 -0.0734  0.9938  0.7879
  175MPD1    H5 2674   0.048   3.800  16.446  0.7654  0.9916 -1.9198
  175MPD1    N1 2675   4.439   3.873  15.989  0.3096 -1.0360  0.1845
  175MPD1    H6 2676   4.351   3.846  16.033  0.8721 -2.1711  0.6005
  175MPD1    H7 2677   4.451   3.828  15.898 -0.5630 -1.3640  0.2294
  176MPD1     C 2678   1.717   0.622  17.417 -0.0983  0.0113  0.8763
  176MPD1    C1 2679   1.746   0.558  17.295 -0.1609  0.0962 -0.0042
  176MPD1    C2 2680   1.735   0.635  17.181 -0.2604 -0.5905  0.4288
  176MPD1    C3 2681   1.692   0.771  17.189  0.8728 -0.0769  0.6410
  176MPD1    C4 2682   1.663   0.824  17.310 -0.3569  0.2920 -0.8499
  176MPD1    C5 2683   1.672   0.745  17.423  0.8095  0.0312 -0.4493
  176MPD1     H 2684   1.761   0.595  17.083  1.4881 -0.0040  0.6481
  176MPD1    H1 2685   1.621   0.922  17.330  2.5374  2.0904 -3.5589
  176MPD1    H2 2686   1.727   0.576  17.514 -0.5880 -0.1632  0.8424
  176MPD1    H3 2687   1.646   0.789  17.519  1.8365 -0.6312  0.1331
  176MPD1     N 2688   1.687   0.847  17.067  0.0214  0.2713  0.2946
  176MPD1    H5 2689   1.703   0.803  16.977 -1.3204  1.2715 -0.4356
  176MPD1    N1 2690   1.827   0.444  17.299  0.4881  0.6387  0.2999
  176MPD1    H6 2691   1.813   0.388  17.215  1.2769  0.9699 -0.0569
  176MPD1    H7 2692   1.812   0.390  17.383  2.5332 -0.3194  0.0570
  177MPD1     C 2693   4.542   0.820   9.800 -0.3299  0.1191  0.1918
  177MPD1    C1 2694   4.434   0.764   9.741 -0.3677 -0.3852 -0.4894
  177MPD1    C2 2695   4.388   0.829   9.629 -0.2909 -0.5885  0.2134
  177MPD1    C3 2696   4.440   0.954   9.587  0.2238 -0.2389  0.0566
  177MPD1    C4 2697   4.557   0.998   9.646 -0.3238  0.2178  0.5549
  177MPD1    C5 2698   4.599   0.928   9.752 -0.0515 -0.5613  0.4901
  177MPD1     H 2699   4.305   0.796   9.567 -1.7992  4.3716 -0.4231
  177MPD1    H1 2700   4.615   1.083   9.613 -0.3091  0.1783  0.4807
  177MPD1    H2 2701   4.589   0.767   9.882  1.0222  0.8161 -0.1237
  177MPD1    H3 2702   4.689   0.968   9.798  0.6290 -0.4288 -0.9454
  177MPD1     N 2703   4.373   1.029   9.476 -0.2610  0.7280  0.4473
  177MPD1    H5 2704   4.285   1.000   9.435  1.2443  0.2122 -2.4477
  177MPD1    N1 2705   4.378   0.636   9.758 -0.3012 -0.3381 -0.5100
  177MPD1    H6 2706   4.281   0.631   9.726  0.4328 -2.4303 -2.4111
  177MPD1    H7 2707   4.378   0.619   9.859  1.7739 -1.3837 -0.6835
  178MPD1     C 2708   2.049   1.969   0.211 -0.2974  0.4571 -0.2980
  178MPD1    C1 2709   2.007   1.855   0.148 -0.1905 -0.1824  0.7404
  178MPD1    C2 2710   2.034   1.843   0.020  0.2212 -0.0795  0.4586
  178MPD1    C3 2711   2.080   1.952  17.639 -0.5342  0.3586  0.6145
  178MPD1    C4 2712   2.116   2.067   0.006 -0.4090  0.3728  0.1282
  178MPD1    C5 2713   2.086   2.076   0.141 -0.6894 -0.0129 -0.2837
  178MPD1     H 2714   1.991   1.753  17.671  1.2830 -0.8856  1.1067
  178MPD1    H1 2715   2.156   2.144  17.633 -1.0059 -0.5854 -1.3286
  178MPD1    H2 2716   2.047   1.977   0.319  2.4135  3.2661 -0.4494
  178MPD1    H3 2717   2.115   2.167   0.191  0.6076  0.4207 -1.8250
  178MPD1     N 2718   2.092   1.944  17.497  0.2352  0.0512 -0.1142
  178MPD1    H5 2719   2.125   2.028  17.451 -2.8166  0.1507 -2.1263
  178MPD1    N1 2720   1.936   1.763   0.222  0.7535 -0.3700 -0.1331
  178MPD1    H6 2721   1.970   1.669   0.205  1.5458 -0.1671  0.3041
  178MPD1    H7 2722   1.933   1.772   0.324  0.7025 -0.0272 -0.1658
  179MPD1     C 2723   2.322   0.508  15.556  0.6901  0.4929 -0.5093
  179MPD1    C1 2724   2.366   0.492  15.680 -0.9137 -0.0249 -0.2547
  179MPD1    C2 2725   2.310   0.397  15.757  0.9069  0.8885  0.0727
  179MPD1    C3 2726   2.208   0.319  15.711 -0.1085 -1.0089 -0.1806
  179MPD1    C4 2727   2.144   0.353  15.591 -0.3159  0.2639  0.0373
  179MPD1    C5 2728   2.206   0.448  15.508 -0.2577 -0.0178 -0.3549
  179MPD1     H 2729   2.371   0.380  15.845 -0.8989 -2.0122  0.8016
  179MPD1    H1 2730   2.054   0.303  15.556 -1.1121 -0.5041  3.2056
  179MPD1    H2 2731   2.365   0.581  15.488  1.1066  0.2793 -0.4680
  179MPD1    H3 2732   2.169   0.467  15.407  0.0087 -1.3408 -0.7004
  179MPD1     N 2733   2.152   0.208  15.786 -0.1670  0.8206  0.3445
  179MPD1    H5 2734   2.084   0.151  15.736 -0.6216  0.3286  1.5310
  179MPD1    N1 2735   2.477   0.572  15.728 -0.1374  0.5641 -0.1050
  179MPD1    H6 2736   2.449   0.602  15.821 -0.7318 -2.0411  0.5418
  179MPD1    H7 2737   2.483   0.654  15.667 -0.9519  0.8969  0.2729
  180MPD1     C 2738   2.497   1.253  15.191  0.1148 -0.4537 -0.5354
  180MPD1    C1 2739   2.503   1.365  15.113 -0.2321 -0.0661  0.4615
  180MPD1    C2 2740   2.387   1.414  15.061 -0.4951 -0.6100 -0.0889
  180MPD1    C3 2741   2.268   1.360  15.099 -0.5667 -0.4159  0.1214
  180MPD1    C4 2742   2.260   1.246  15.173  0.0394 -0.1763  0.3132
  180MPD1    C5 2743   2.376   1.197  15.224 -0.4712 -0.2241 -0.2450
  180MPD1     H 2744   2.396   1.502  14.998 -0.0181 -1.3451 -1.0627
  180MPD1    H1 2745   2.167   1.197  15.200  1.0749 -1.8868  0.7616
  180MPD1    H2 2746   2.586   1.217  15.240  0.6366  0.6669 -0.6466
  180MPD1    H3 2747   2.376   1.114  15.293 -1.7232  2.0650  2.4786
  180MPD1     N 2748   2.152   1.427  15.052  0.8516 -0.1576  0.3609
  180MPD1    H5 2749   2.172   1.514  15.002  0.2476 -0.3121 -0.1432
  180MPD1    N1 2750   2.628   1.415  15.065 -0.2649 -0.0281  0.1727
  180MPD1    H6 2751   2.711   1.389  15.118 -0.7932  0.5719  1.2882
  180MPD1    H7 2752   2.629   1.516  15.055 -0.4052 -0.1561 -1.1284
  181MPD1     C 2753   3.030   2.683  10.024  0.5629  0.3549 -0.2652
  181MPD1    C1 2754   3.073   2.731  10.146 -0.4199  0.8335  0.2417
  181MPD1    C2 2755   3.178   2.821  10.165 -0.2395 -0.3655 -1.0453
  181MPD1    C3 2756   3.253   2.846  10.054 -0.2381 -0.1502 -0.1422
  181MPD1    C4 2757   3.222   2.791   9.933 -0.3823  0.2586 -0.1197
  181MPD1    C5 2758   3.113   2.706   9.920  0.0482 -0.0697  0.3096
  181MPD1     H 2759   3.179   2.869  10.263 -0.1630 -1.5749 -0.4536
  181MPD1    H1 2760   3.276   2.815   9.843  0.0225 -0.4429 -0.0662
  181MPD1    H2 2761   2.945   2.618  10.006  0.7111  0.5199 -1.5739
  181MPD1    H3 2762   3.094   2.662   9.823 -2.2246 -1.3522  1.3300
  181MPD1     N 2763   3.368   2.928  10.057  0.1874  0.1372 -0.9147
  181MPD1    H5 2764   3.406   2.947   9.965  1.9533  0.8221 -0.0468
  181MPD1    N1 2765   2.988   2.701  10.257  0.2169  0.0735  0.8210
  181MPD1    H6 2766   3.039   2.674  10.341 -0.0823  0.8464  1.2509
  181MPD1    H7 2767   2.925   2.624  10.233  0.9572 -0.3609  0.2722
  182MPD1     C 2768   1.041   2.188   1.667  0.0536 -0.0218  0.3044
  182MPD1    C1 2769   1.034   2.326   1.672  0.2829  0.3613 -0.3590
  182MPD1    C2 2770   0.929   2.392   1.612  0.0089 -0.2065 -0.1167
  182MPD1    C3 2771   0.848   2.323   1.519  0.6196  0.1465 -1.1359
  182MPD1    C4 2772   0.872   2.187   1.498  0.0060 -0.4198  0.2965
  182MPD1    C5 2773   0.975   2.129   1.568  0.2454 -0.2017 -1.3416
  182MPD1     H 2774   0.910   2.499   1.623  1.0896  0.1243 -1.4128
  182MPD1    H1 2775   0.823   2.130   1.420  1.7934 -1.1745 -0.2760
  182MPD1    H2 2776   1.110   2.130   1.726 -0.4680 -1.3969 -0.4486
  182MPD1    H3 2777   0.976   2.022   1.553 -0.2402 -0.5001  0.7928
  182MPD1     N 2778   0.740   2.385   1.450 -1.1780  0.2277  0.3107
  182MPD1    H5 2779   0.687   2.317   1.395 -0.5819  0.5733 -0.6984
  182MPD1    N1 2780   1.098   2.392   1.783 -0.0332  0.9497  0.0070
  182MPD1    H6 2781   1.190   2.352   1.803 -0.0347  0.5879 -0.7222
  182MPD1    H7 2782   1.104   2.493   1.782  1.4870  0.8542 -0.9085
  183MPD1     C 2783   0.175   3.429   8.785  0.3890  0.2398  0.1462
  183MPD1    C1 2784   0.076   3.504   8.863 -0.1376  0.0067 -0.4782
  183MPD1    C2 2785   0.029   3.455   8.984 -0.2651 -0.3249 -0.1921
  183MPD1    C3 2786   0.078   3.331   9.021  0.8069  0.6973 -0.1301
  183MPD1    C4 2787   0.168   3.257   8.944 -0.5036 -0.1637  0.4151
  183MPD1    C5 2788   0.210   3.303   8.823  0.2042  0.5469 -0.5927
  183MPD1     H 2789   4.691   3.509   9.055  1.1790  0.4097  0.4821
  183MPD1    H1 2790   0.193   3.153   8.965 -0.2628 -0.6702 -2.3563
  183MPD1    H2 2791   0.209   3.460   8.687 -0.1332 -2.2659 -0.8433
  183MPD1    H3 2792   0.283   3.254   8.760  0.7280 -0.4659  0.7965
  183MPD1     N 2793   0.016   3.276   9.134 -0.1531  0.9270 -0.5189
  183MPD1    H5 2794   4.673   3.335   9.184 -0.3277 -0.0721  0.4229
  183MPD1    N1 2795   0.044   3.637   8.822 -0.0601  0.4534  0.1991
  183MPD1    H6 2796   4.675   3.668   8.856 -0.5027  0.2568 -0.8219
  183MPD1    H7 2797   0.029   3.631   8.722  1.9218  1.1648 -0.1233
  184MPD1     C 2798   3.625   0.395   9.953 -0.3738 -0.0564  0.6313
  184MPD1    C1 2799   3.742   0.446   9.901 -0.6775 -0.4051 -0.0489
  184MPD1    C2 2800   3.735   0.569   9.851  1.1056 -0.2898  0.3085
  184MPD1    C3 2801   3.617   0.640   9.832  0.0556  0.1154  0.4264
  184MPD1    C4 2802   3.499   0.583   9.874 -0.2266 -0.0124  1.2237
  184MPD1    C5 2803   3.504   0.460   9.934  0.3141  0.2712 -0.3739
  184MPD1     H 2804   3.828   0.621   9.830  0.1170  0.6578 -1.6985
  184MPD1    H1 2805   3.403   0.634   9.878 -0.2494  0.0163  0.3610
  184MPD1    H2 2806   3.618   0.297  10.000  1.9565 -0.5091  0.0321
  184MPD1    H3 2807   3.411   0.415   9.965 -0.2675 -0.7302 -3.6661
  184MPD1     N 2808   3.607   0.773   9.787 -0.7398  0.1925 -0.0705
  184MPD1    H5 2809   3.517   0.805   9.755 -2.2931 -0.8283  3.3105
  184MPD1    N1 2810   3.867   0.388   9.928  0.0946 -0.4768 -0.4748
  184MPD1    H6 2811   3.869   0.289   9.952 -3.3132 -0.2556  0.8007
  184MPD1    H7 2812   3.934   0.408   9.854  1.8087 -0.7924  0.9814
  185MPD1     C 2813   3.125   1.277   9.081 -0.3244 -0.3090  0.8477
  185MPD1    C1 2814   3.080   1.196   9.182  0.4672 -0.1184  0.0756
  185MPD1    C2 2815   3.167   1.174   9.289 -0.9395  0.7568  0.7101
  185MPD1    C3 2816   3.297   1.227   9.285 -0.1625  0.1933 -1.0873
  185MPD1    C4 2817   3.338   1.305   9.180  0.0333 -0.0795 -0.0607
  185MPD1    C5 2818   3.248   1.327   9.079  0.3285 -0.0633 -0.1611
  185MPD1     H 2819   3.135   1.108   9.369  0.6010 -0.4211  0.3464
  185MPD1    H1 2820   3.432   1.359   9.179  0.4494 -0.8874 -4.2442
  185MPD1    H2 2821   3.063   1.289   8.993 -0.7015 -2.7933  0.7877
  185MPD1    H3 2822   3.279   1.400   9.005  0.6531 -2.3813 -2.3240
  185MPD1     N 2823   3.395   1.206   9.383  0.1292  0.3908 -0.3348
  185MPD1    H5 2824   3.476   1.263   9.361  0.8567  0.9691  3.7782
  185MPD1    N1 2825   2.958   1.123   9.174 -0.0342 -0.3803 -0.4289
  185MPD1    H6 2826   2.915   1.096   9.262  0.5752 -0.7899 -0.2581
  185MPD1    H7 2827   2.885   1.179   9.130  0.0829 -0.4470 -0.7098
  186MPD1     C 2828   2.981   4.534  15.859 -0.4280  0.0911  0.3913
  186MPD1    C1 2829   2.903   4.509  15.969  0.5909  0.2340 -0.1431
  186MPD1    C2 2830   2.812   4.603  15.994 -0.2860 -1.4539 -0.1181
  186MPD1    C3 2831   2.814   0.013  15.939 -0.6146  0.1737 -0.1399
  186MPD1    C4 2832   2.897   0.036  15.832 -0.2628 -0.0819 -0.1241
  186MPD1    C5 2833   2.980   4.657  15.787 -0.0783 -0.1907  0.8102
  186MPD1     H 2834   2.744   4.580  16.075  0.3207 -1.4264  0.3994
  186MPD1    H1 2835   2.878   0.126  15.774  1.7963  0.8684  0.6941
  186MPD1    H2 2836   3.041   4.457  15.813 -0.0143  0.2362  0.6851
  186MPD1    H3 2837   3.042   4.675  15.701  1.9777 -1.5106  2.0230
  186MPD1     N 2838   2.722   0.110  15.988 -0.1924 -0.2107  0.0074
  186MPD1    H5 2839   2.745   0.199  15.944  0.4408  1.1905  3.2250
  186MPD1    N1 2840   2.886   4.383  16.026  0.1421 -0.0015 -0.5229
  186MPD1    H6 2841   2.970   4.325  16.025  0.6916  0.7673  1.8495
  186MPD1    H7 2842   2.851   4.383  16.122  0.0081  2.5803 -0.5857
  187MPD1     C 2843   1.418   2.808   0.091 -0.8353  0.4654 -0.0864
  187MPD1    C1 2844   1.411   2.671   0.071  0.0078  0.1296 -0.0496
  187MPD1    C2 2845   1.430   2.623  17.631 -0.7508 -0.4912 -0.4121
  187MPD1    C3 2846   1.469   2.715  17.527 -0.4086  0.3290 -0.1368
  187MPD1    C4 2847   1.474   2.847  17.551 -0.1815 -0.1260  0.0949
  187MPD1    C5 2848   1.462   2.890  17.681  0.8991 -0.4450  0.3218
  187MPD1     H 2849   1.413   2.520  17.601 -0.7344 -0.7757  0.5430
  187MPD1    H1 2850   1.499   2.929  17.484  0.1124 -0.9913 -0.8629
  187MPD1    H2 2851   1.394   2.855   0.186  1.1511  4.0568 -1.3713
  187MPD1    H3 2852   1.465   2.998   0.001  0.1977 -0.3832 -0.0137
  187MPD1     N 2853   1.507   2.677  17.390 -0.2620  0.9362 -0.2230
  187MPD1    H5 2854   1.531   2.758  17.333  1.6938 -0.0025 -0.7437
  187MPD1    N1 2855   1.356   2.592   0.172 -0.0276 -0.3278  0.0061
  187MPD1    H6 2856   1.391   2.497   0.166 -2.2491 -1.1951  0.7385
  187MPD1    H7 2857   1.373   2.631   0.265 -3.1224  0.4479  0.2483
  188MPD1     C 2858   1.278   2.112  10.027 -0.0372 -0.0534 -1.2560
  188MPD1    C1 2859   1.368   2.037  10.101  0.0736 -0.4314 -0.3694
  188MPD1    C2 2860   1.405   1.910  10.066  0.0308 -0.4397 -0.5647
  188MPD1    C3 2861   1.353   1.858   9.950  0.5059  0.3355  0.0665
  188MPD1    C4 2862   1.285   1.940   9.864  0.0624  0.7006  0.5097
  188MPD1    C5 2863   1.243   2.064   9.905 -0.1705 -0.3551  0.0106
  188MPD1     H 2864   1.477   1.850  10.121 -0.9287 -1.8718 -0.8898
  188MPD1    H1 2865   1.241   1.902   9.773 -0.1929  0.3072  0.7953
  188MPD1    H2 2866   1.243   2.212  10.054 -0.8852 -0.7439  0.2277
  188MPD1    H3 2867   1.175   2.115   9.837  2.2346 -0.5357 -2.5262
  188MPD1     N 2868   1.338   1.719   9.926 -0.2340 -0.9197  0.0500
  188MPD1    H5 2869   1.297   1.692   9.837  1.3161  1.5259 -1.4198
  188MPD1    N1 2870   1.395   2.079  10.236 -0.3008 -0.0048  0.7314
  188MPD1    H6 2871   1.367   2.175  10.254 -0.3837 -0.1041  1.1283
  188MPD1    H7 2872   1.486   2.067  10.279 -0.3600 -2.5677  0.1331
  189MPD1     C 2873   2.982   2.194   0.395  0.5870  0.2545  0.5000
  189MPD1    C1 2874   2.850   2.231   0.398  0.0593  0.2117 -0.5316
  189MPD1    C2 2875   2.814   2.361   0.358  0.2929  0.4344  0.0160
  189MPD1    C3 2876   2.906   2.454   0.325 -0.4604 -0.2315 -0.0129
  189MPD1    C4 2877   3.042   2.420   0.336 -0.5761  0.3944  0.0450
  189MPD1    C5 2878   3.079   2.286   0.372 -0.1390 -0.3951 -0.8243
  189MPD1     H 2879   2.709   2.387   0.350  0.5554  1.3040 -0.5391
  189MPD1    H1 2880   3.124   2.488   0.316  0.8330 -1.3537 -0.1164
  189MPD1    H2 2881   3.009   2.096   0.432  0.1165 -1.3594 -3.3846
  189MPD1    H3 2882   3.184   2.261   0.377 -0.3982 -1.1592  0.4652
  189MPD1     N 2883   2.860   2.567   0.261 -0.1871  0.0728  0.1580
  189MPD1    H5 2884   2.764   2.569   0.228  0.0255 -1.3075 -0.5711
  189MPD1    N1 2885   2.752   2.136   0.426 -0.1448 -0.5258  0.1062
  189MPD1    H6 2886   2.666   2.170   0.469 -1.3986 -2.2159 -1.0615
  189MPD1    H7 2887   2.782   2.053   0.478  1.5891 -0.3000 -0.5679
  190MPD1     C 2888   1.971   0.617  15.794  0.3427  0.3861  0.3221
  190MPD1    C1 2889   1.953   0.688  15.676  0.0097  0.4380 -0.3096
  190MPD1    C2 2890   2.040   0.794  15.649  0.2705 -0.1202  0.0068
  190MPD1    C3 2891   2.139   0.831  15.739 -0.4460 -0.3061  0.2539
  190MPD1    C4 2892   2.148   0.757  15.851 -0.2976  0.3177  0.8992
  190MPD1    C5 2893   2.066   0.654  15.880  0.0993 -0.0318 -0.0491
  190MPD1     H 2894   2.033   0.852  15.558 -1.5508 -1.7070 -0.8684
  190MPD1    H1 2895   2.228   0.769  15.924  0.0994  0.0350  0.5094
  190MPD1    H2 2896   1.903   0.533  15.809 -0.4260  0.7636 -1.0002
  190MPD1    H3 2897   2.099   0.602  15.969 -0.6638  0.9894  0.8287
  190MPD1     N 2898   2.214   0.950  15.725  0.2538 -0.2286  0.0111
  190MPD1    H5 2899   2.197   1.004  15.641  0.0539  0.7732  0.6852
  190MPD1    N1 2900   1.870   0.643  15.568 -0.0298  0.0132 -0.5734
  190MPD1    H6 2901   1.783   0.599  15.598  0.9069 -1.0301  0.6369
  190MPD1    H7 2902   1.858   0.706  15.489  0.3387  3.7372  2.3301
  191MPD1     C 2903   1.351   3.090  13.340  0.1519  0.0307 -0.3264
  191MPD1    C1 2904   1.232   3.163  13.347 -0.1333 -0.2807 -0.1597
  191MPD1    C2 2905   1.210   3.246  13.239  0.1186  0.5267 -0.3630
  191MPD1    C3 2906   1.290   3.249  13.127  0.0305 -0.0591 -0.0917
  191MPD1    C4 2907   1.395   3.168  13.116 -0.3721 -0.0162  0.4709
  191MPD1    C5 2908   1.425   3.090  13.223 -0.9377 -0.1321 -0.1978
  191MPD1     H 2909   1.129   3.318  13.235 -0.4477 -0.1678 -1.4713
  191MPD1    H1 2910   1.454   3.145  13.028  0.2049  0.2681  0.7806
  191MPD1    H2 2911   1.383   3.024  13.420  1.7393  1.0128 -0.1430
  191MPD1    H3 2912   1.516   3.032  13.215 -0.7904  0.0745  0.0058
  191MPD1     N 2913   1.245   3.329  13.019 -0.4898 -0.0854 -0.2272
  191MPD1    H5 2914   1.156   3.378  13.021  0.1900  1.0640  2.4346
  191MPD1    N1 2915   1.150   3.172  13.466  0.5854 -0.2855  0.1362
  191MPD1    H6 2916   1.146   3.084  13.517  0.0848  0.8796  2.1083
  191MPD1    H7 2917   1.057   3.209  13.447 -0.1106 -1.9735  0.2519
  192MPD1     C 2918   0.530   3.883  12.602 -0.3581 -0.5498  0.1394
  192MPD1    C1 2919   0.567   3.845  12.728  0.3305  0.1441  0.7096
  192MPD1    C2 2920   0.692   3.779  12.738 -0.4572  0.1143  0.2230
  192MPD1    C3 2921   0.759   3.737  12.625  0.3745  0.3871 -0.2911
  192MPD1    C4 2922   0.704   3.746  12.500  0.2593 -0.0191  0.2179
  192MPD1    C5 2923   0.587   3.824  12.485  1.0670 -0.5442  0.4813
  192MPD1     H 2924   0.735   3.765  12.836 -1.4217 -0.8061  0.5241
  192MPD1    H1 2925   0.751   3.712  12.408 -0.6924  0.4967 -0.4575
  192MPD1    H2 2926   0.451   3.956  12.592  0.6351  0.3646 -1.1539
  192MPD1    H3 2927   0.564   3.840  12.380 -1.5038  1.5500  1.3750
  192MPD1     N 2928   0.889   3.675  12.618 -0.3182 -0.3159 -0.3490
  192MPD1    H5 2929   0.929   3.651  12.528  0.8107 -1.9385  0.5856
  192MPD1    N1 2930   0.515   3.905  12.842 -0.4675 -0.5519 -0.2570
  192MPD1    H6 2931   0.534   3.852  12.927 -0.6934  0.6530  0.5582
  192MPD1    H7 2932   0.416   3.929  12.845 -0.2205  0.7081 -2.1773
  193MPD1     C 2933   0.893   3.571  16.964  0.7155  0.1920  0.4196
  193MPD1    C1 2934   0.912   3.595  16.829  0.0859  0.1247  0.3553
  193MPD1    C2 2935   1.041   3.597  16.780 -0.1544  0.1181  0.3226
  193MPD1    C3 2936   1.149   3.599  16.865  0.1693  0.6548  0.4384
  193MPD1    C4 2937   1.129   3.601  17.000 -0.2421  0.2736  0.0542
  193MPD1    C5 2938   1.002   3.577  17.049  0.3894  0.0113 -0.5469
  193MPD1     H 2939   1.058   3.614  16.674 -1.6033 -0.2697  0.0284
  193MPD1    H1 2940   1.212   3.596  17.069 -0.1952 -1.3341 -0.1163
  193MPD1    H2 2941   0.797   3.569  17.015  0.2630 -2.0135 -0.5154
  193MPD1    H3 2942   0.990   3.560  17.156 -1.5050 -0.5377 -0.8417
  193MPD1     N 2943   1.283   3.600  16.818  0.0638  0.5054  0.1583
  193MPD1    H5 2944   1.352   3.632  16.885 -2.5799 -1.1767  3.7136
  193MPD1    N1 2945   0.805   3.589  16.743  0.3507 -0.1771  0.2877
  193MPD1    H6 2946   0.834   3.628  16.654  1.1597 -2.2176 -0.3326
  193MPD1    H7 2947   0.724   3.644  16.770  0.9918  1.4506 -1.1673
  194MPD1     C 2948   4.292   1.678  17.524 -0.3706  0.1618  0.0805
  194MPD1    C1 2949   4.268   1.619  17.644  0.2490  0.0352  0.1624
  194MPD1    C2 2950   4.332   1.506  17.677  0.5115 -0.1833  0.0472
  194MPD1    C3 2951   4.413   1.438  17.582  0.1425 -0.6972  0.1516
  194MPD1    C4 2952   4.425   1.490  17.453  0.3856  0.2562 -0.0135
  194MPD1    C5 2953   4.369   1.616  17.427 -0.0001 -0.0767 -0.0002
  194MPD1     H 2954   4.310   1.457   0.078  2.1710  1.4117  1.2718
  194MPD1    H1 2955   4.477   1.453  17.365  0.5604  1.0234 -0.2300
  194MPD1    H2 2956   4.248   1.775  17.507  0.8823  0.7562  0.2350
  194MPD1    H3 2957   4.389   1.661  17.331 -1.3515 -1.1810 -0.8085
  194MPD1     N 2958   4.461   1.300  17.599  0.0206 -0.3541  0.5795
  194MPD1    H5 2959   4.501   1.252  17.519 -0.4326 -2.4836  1.6285
  194MPD1    N1 2960   4.159   1.662   0.029 -0.1710 -0.4260 -0.0117
  194MPD1    H6 2961   4.146   1.763   0.036  1.7375 -0.1534 -0.3984
  194MPD1    H7 2962   4.163   1.619   0.121  2.2327  0.5860  0.3481
  195MPD1     C 2963   0.364   2.159  16.719  0.0133 -0.1563  1.1134
  195MPD1    C1 2964   0.485   2.221  16.712  0.3116  0.5642 -0.1104
  195MPD1    C2 2965   0.595   2.184  16.789 -0.0118  0.5665  0.5734
  195MPD1    C3 2966   0.571   2.068  16.871 -0.0539 -0.3384  0.0902
  195MPD1    C4 2967   0.445   2.002  16.879 -0.3361  0.1393 -0.2026
  195MPD1    C5 2968   0.339   2.052  16.802 -0.2750  0.4111  0.6508
  195MPD1     H 2969   0.691   2.230  16.773  0.2258  0.5927  2.0396
  195MPD1    H1 2970   0.419   1.917  16.940  0.3881  0.2350  0.2475
  195MPD1    H2 2971   0.278   2.203  16.670 -0.4300 -2.0464  0.1990
  195MPD1    H3 2972   0.239   2.012  16.820 -0.1227 -1.0884 -1.7890
  195MPD1     N 2973   0.679   2.013  16.952  0.9707 -0.1178  0.1448
  195MPD1    H5 2974   0.657   1.947  17.027  0.1511  0.1642  0.1478
  195MPD1    N1 2975   0.505   2.328  16.624 -0.6490  0.0925  0.4430
  195MPD1    H6 2976   0.422   2.380  16.598 -0.5226 -0.4143 -0.9501
  195MPD1    H7 2977   0.585   2.386  16.649  0.4047 -1.5008  0.7378
  196MPD1     C 2978   1.233   1.937   1.426  0.1799 -0.0434 -0.0124
  196MPD1    C1 2979   1.188   2.034   1.343 -0.7639 -0.0576 -0.2684
  196MPD1    C2 2980   1.248   2.153   1.330  0.1277 -0.0735  0.3126
  196MPD1    C3 2981   1.350   2.189   1.421 -0.4846 -0.2545  0.2015
  196MPD1    C4 2982   1.384   2.097   1.520  0.6691 -0.2738 -0.7534
  196MPD1    C5 2983   1.330   1.969   1.522  0.4545 -0.0574  0.3410
  196MPD1     H 2984   1.224   2.227   1.255  0.0214 -0.3902  0.0343
  196MPD1    H1 2985   1.457   2.127   1.595 -1.0624  1.2531  0.3209
  196MPD1    H2 2986   1.183   1.841   1.429  0.6475 -0.2834  0.1520
  196MPD1    H3 2987   1.371   1.899   1.595 -0.8557 -1.3060 -0.1123
  196MPD1     N 2988   1.425   2.309   1.421 -0.5100 -0.0625 -0.3758
  196MPD1    H5 2989   1.495   2.320   1.493 -0.6623  0.7240 -0.3500
  196MPD1    N1 2990   1.086   1.996   1.251  0.1525 -0.4375  0.3415
  196MPD1    H6 2991   1.013   1.940   1.294 -0.2662  0.1039  0.3362
  196MPD1    H7 2992   1.045   2.074   1.201  0.0059 -0.3303  0.6327
  197MPD1     C 2993   1.112   4.532   0.037 -0.7582 -0.0978  0.3912
  197MPD1    C1 2994   1.092   4.655  17.664 -0.6374 -0.2490  0.3265
  197MPD1    C2 2995   0.968   4.690  17.615  0.2390  0.3685  0.0726
  197MPD1    C3 2996   0.863   4.609  17.621  0.2791  0.3332  0.4457
  197MPD1    C4 2997   0.880   4.488   0.004  0.1237 -0.1676 -0.2043
  197MPD1    C5 2998   1.003   4.451   0.058  0.0439  0.1149  0.4224
  197MPD1     H 2999   0.966   0.055  17.552 -2.1111  0.1658 -0.1212
  197MPD1    H1 3000   0.799   4.417   0.015 -0.0467  0.3180  1.6424
  197MPD1    H2 3001   1.208   4.500   0.076 -1.9022 -2.4774  1.1922
  197MPD1    H3 3002   1.000   4.365   0.124 -0.7418 -0.6420 -0.6122
  197MPD1     N 3003   0.740   4.623  17.556  0.0002  0.3779 -0.1272
  197MPD1    H5 3004   0.678   4.542  17.562 -0.5014  0.7899  0.2099
  197MPD1    N1 3005   1.205   0.016  17.639  0.1963 -0.2084  0.0180
  197MPD1    H6 3006   1.268   0.028   0.025 -3.3741  0.0330  2.7823
  197MPD1    H7 3007   1.168   0.108  17.620  1.8384  0.9264  2.3314
  198MPD1     C 3008   2.301   2.356  15.845 -0.0848 -0.2726  0.1155
  198MPD1    C1 3009   2.412   2.382  15.761 -0.0241 -0.2395 -0.1336
  198MPD1    C2 3010   2.464   2.515  15.768  0.1312 -0.2396 -0.3507
  198MPD1    C3 3011   2.419   2.609  15.865  0.2306 -0.7046  0.2629
  198MPD1    C4 3012   2.326   2.566  15.956 -0.4219  0.5080  0.2029
  198MPD1    C5 3013   2.257   2.447  15.941 -0.3700  0.4247 -0.3371
  198MPD1     H 3014   2.540   2.543  15.695  0.3933  1.6342  0.6279
  198MPD1    H1 3015   2.297   2.636  16.034  0.6275 -0.7532  1.7482
  198MPD1    H2 3016   2.247   2.263  15.833  0.9672 -0.5117 -2.7004
  198MPD1    H3 3017   2.171   2.412  15.998  0.1916 -0.7444 -0.2155
  198MPD1     N 3018   2.472   2.742  15.858 -0.1510 -0.0056  0.8164
  198MPD1    H5 3019   2.552   2.756  15.797 -1.6857 -0.1492 -1.2248
  198MPD1    N1 3020   2.446   2.307  15.649 -0.0191 -0.4130 -0.1285
  198MPD1    H6 3021   2.542   2.314  15.615 -0.4153 -1.5529 -1.4964
  198MPD1    H7 3022   2.435   2.209  15.672  1.1871 -0.6479 -0.5589
  199MPD1     C 3023   3.281   3.109   9.751 -0.5541 -0.4350 -0.1349
  199MPD1    C1 3024   3.417   3.086   9.735  0.2031  0.5886  0.2453
  199MPD1    C2 3025   3.497   3.198   9.741  0.4375 -0.4077  0.0531
  199MPD1    C3 3026   3.439   3.332   9.744  0.0437 -0.4124  0.4783
  199MPD1    C4 3027   3.300   3.343   9.758 -0.5139  0.2256 -0.6877
  199MPD1    C5 3028   3.225   3.231   9.752  0.3363  0.1002 -0.1769
  199MPD1     H 3029   3.599   3.169   9.723  0.3266  0.9587 -2.7632
  199MPD1    H1 3030   3.246   3.436   9.772  0.3192  0.3848  1.5545
  199MPD1    H2 3031   3.209   3.029   9.745 -0.9723 -0.0449 -0.3394
  199MPD1    H3 3032   3.117   3.235   9.747  0.2256 -4.3960 -1.2204
  199MPD1     N 3033   3.517   3.445   9.726  0.2320  0.0941  0.7027
  199MPD1    H5 3034   3.467   3.533   9.732  0.7510  0.3027  1.9927
  199MPD1    N1 3035   3.469   2.958   9.755  0.2604 -0.5723  0.2427
  199MPD1    H6 3036   3.562   2.944   9.718  0.7846 -0.9443  1.6791
  199MPD1    H7 3037   3.405   2.889   9.716  0.5265 -0.0453 -1.1222
  200MPD1     C 3038   1.756   3.895  14.353 -0.2399  0.4692  0.4934
  200MPD1    C1 3039   1.760   3.764  14.309 -0.3563 -0.1899  0.1702
  200MPD1    C2 3040   1.885   3.703  14.311  0.4136 -0.2232 -0.5109
  200MPD1    C3 3041   1.988   3.762  14.375  0.4582 -0.6588 -0.3652
  200MPD1    C4 3042   1.982   3.891  14.423  0.0670 -0.1658 -0.4264
  200MPD1    C5 3043   1.866   3.957  14.412  0.6570  0.4730 -0.5575
  200MPD1     H 3044   1.893   3.603  14.270  3.2715 -0.4653  0.6608
  200MPD1    H1 3045   2.066   3.938  14.474 -1.2267  2.2280 -0.5098
  200MPD1    H2 3046   1.666   3.956  14.349 -0.3161  0.4881  2.1761
  200MPD1    H3 3047   1.859   4.063  14.432  2.2081  0.0565  2.1621
  200MPD1     N 3048   2.113   3.689  14.379 -0.7893 -0.2361  0.3238
  200MPD1    H5 3049   2.120   3.606  14.320 -1.2985  0.3541 -0.5616
  200MPD1    N1 3050   1.639   3.710  14.253  0.1852 -0.0054 -1.0084
  200MPD1    H6 3051   1.558   3.759  14.290  2.5184  3.0329  0.1242
  200MPD1    H7 3052   1.622   3.611  14.268 -1.0686  0.5030  0.8859
  201MPD1     C 3053   0.577   2.778  13.318 -0.2431 -0.1382  0.0331
  201MPD1    C1 3054   0.580   2.658  13.383 -0.0894 -0.2910  0.3353
  201MPD1    C2 3055   0.657   2.560  13.321  0.0755 -0.1055  0.6964
  201MPD1    C3 3056   0.718   2.581  13.200  0.1647  0.2796  0.6533
  201MPD1    C4 3057   0.697   2.693  13.131  0.2820 -0.1602 -0.0384
  201MPD1    C5 3058   0.631   2.794  13.188 -0.5727  0.5897 -0.5532
  201MPD1     H 3059   0.678   2.467  13.373 -1.4818 -1.5139 -1.2159
  201MPD1    H1 3060   0.738   2.718  13.034 -0.3275  0.5208 -0.1193
  201MPD1    H2 3061   0.539   2.869  13.363  0.2302 -0.0603  0.2742
  201MPD1    H3 3062   0.630   2.885  13.129  1.4400  0.4570 -0.8048
  201MPD1     N 3063   0.796   2.468  13.161 -0.1720  0.6413  0.3848
  201MPD1    H5 3064   0.797   2.390  13.225  1.5241  0.6488  0.3628
  201MPD1    N1 3065   0.526   2.644  13.510  0.2400 -0.4961 -0.0130
  201MPD1    H6 3066   0.444   2.704  13.524  0.4434 -0.8857  2.8324
  201MPD1    H7 3067   0.506   2.546  13.527  0.3213 -0.5004  0.0600
  202MPD1     C 3068   0.232   1.844   9.045 -1.1219  0.3994  0.7165
  202MPD1    C1 3069   0.303   1.960   9.009  0.0055 -1.0576 -0.4651
  202MPD1    C2 3070   0.353   2.035   9.114 -0.6933  0.6481 -0.3900
  202MPD1    C3 3071   0.381   1.977   9.239  0.2122 -0.8534 -0.8557
  202MPD1    C4 3072   0.323   1.857   9.260  0.8453  0.3407  0.5383
  202MPD1    C5 3073   0.240   1.793   9.173 -0.8664 -0.1538 -0.0043
  202MPD1     H 3074   0.408   2.124   9.084 -1.4317  1.6044  1.0414
  202MPD1    H1 3075   0.336   1.803   9.353 -3.8950 -1.0745  0.4023
  202MPD1    H2 3076   0.160   1.790   8.983  0.5020  0.7063 -1.4388
  202MPD1    H3 3077   0.197   1.699   9.202  0.1844 -0.3705  0.8342
  202MPD1     N 3078   0.464   2.027   9.342  0.3888  0.6932 -0.0653
  202MPD1    H5 3079   0.475   1.973   9.426 -0.5781 -1.9067 -1.6328
  202MPD1    N1 3080   0.246   2.031   8.901  0.4371 -0.7715 -0.2470
  202MPD1    H6 3081   0.311   2.100   8.864  1.4464 -2.0645 -0.8837
  202MPD1    H7 3082   0.222   1.971   8.822  2.0310 -2.6634  0.7052
  203MPD1     C 3083   3.732   3.638  12.503 -1.0222 -0.1649 -0.2056
  203MPD1    C1 3084   3.819   3.613  12.606  0.2579 -0.1565 -0.7387
  203MPD1    C2 3085   3.888   3.496  12.607  0.5118 -0.2752  0.4432
  203MPD1    C3 3086   3.875   3.398  12.513  0.0673  0.1427 -0.9215
  203MPD1    C4 3087   3.782   3.428  12.414  0.0725  0.3806 -0.5375
  203MPD1    C5 3088   3.720   3.543  12.402 -0.3498 -0.5892  0.3598
  203MPD1     H 3089   3.957   3.478  12.688 -0.1833 -1.4118  0.7882
  203MPD1    H1 3090   3.767   3.362  12.329  0.1031 -0.2917 -0.0208
  203MPD1    H2 3091   3.682   3.734  12.498  1.3639  1.0366 -0.9371
  203MPD1    H3 3092   3.652   3.555  12.318  0.6871  1.2766 -0.2150
  203MPD1     N 3093   3.947   3.278  12.528  0.3384 -0.1334 -0.5104
  203MPD1    H5 3094   4.013   3.275  12.605  1.3711  1.7967 -1.3493
  203MPD1    N1 3095   3.857   3.720  12.690 -0.2799  0.1008 -0.9233
  203MPD1    H6 3096   3.909   3.693  12.774 -0.9097 -1.3418 -0.9970
  203MPD1    H7 3097   3.774   3.770  12.719  0.7831  0.5435  1.3588
  204MPD1     C 3098   3.354   4.197   0.972  0.0529 -0.6924 -0.0234
  204MPD1    C1 3099   3.334   4.062   0.981  0.4975  0.0832  0.0754
  204MPD1    C2 3100   3.363   3.995   0.867 -0.1184 -0.2512 -0.7110
  204MPD1    C3 3101   3.428   4.053   0.767  0.2023 -0.2526 -0.2037
  204MPD1    C4 3102   3.458   4.182   0.764 -0.9692  0.0350 -0.3675
  204MPD1    C5 3103   3.422   4.250   0.870 -0.7274  0.6651 -0.2047
  204MPD1     H 3104   3.332   3.892   0.862  0.0230 -0.3077 -0.4715
  204MPD1    H1 3105   3.509   4.233   0.684  0.8514 -0.9475  0.1824
  204MPD1    H2 3106   3.309   4.264   1.045  0.2432 -0.0026 -0.5403
  204MPD1    H3 3107   3.438   4.357   0.871 -0.7264  0.6705 -0.5165
  204MPD1     N 3108   3.455   3.967   0.653 -0.3191  0.5884 -0.3332
  204MPD1    H5 3109   3.430   3.871   0.674  1.1642  0.4514  0.8004
  204MPD1    N1 3110   3.248   4.005   1.077  0.6810  0.2862  0.4405
  204MPD1    H6 3111   3.265   3.905   1.084  2.7914  0.7035  1.3260
  204MPD1    H7 3112   3.273   4.041   1.169 -2.2600  2.0182  0.5374
  205MPD1     C 3113   4.587   3.418   0.809 -0.3305 -0.4754  0.7165
  205MPD1    C1 3114   4.467   3.478   0.770  0.1457 -0.4651  0.2248
  205MPD1    C2 3115   4.357   3.397   0.744 -0.7585 -0.0865  0.2911
  205MPD1    C3 3116   4.366   3.259   0.750  0.0011 -0.3127 -1.6269
  205MPD1    C4 3117   4.491   3.202   0.779  0.1699  0.8847 -0.0251
  205MPD1    C5 3118   4.603   3.280   0.803 -0.6917 -0.1378  0.7552
  205MPD1     H 3119   4.261   3.435   0.710 -0.0089  2.0015  0.4736
  205MPD1    H1 3120   4.499   3.095   0.797  1.1000  0.8934 -0.3696
  205MPD1    H2 3121   4.668   3.481   0.843 -1.6956  0.5304  2.1384
  205MPD1    H3 3122   4.696   3.236   0.834 -0.2641  0.4572  0.3138
  205MPD1     N 3123   4.247   3.178   0.725  0.0869  0.0270 -0.2375
  205MPD1    H5 3124   4.161   3.231   0.715  0.4520  0.6184 -0.2588
  205MPD1    N1 3125   4.452   3.618   0.786  0.1393 -0.6079 -0.0253
  205MPD1    H6 3126   4.540   3.663   0.765  0.3165 -1.2845 -0.7056
  205MPD1    H7 3127   4.385   3.656   0.720  1.7743 -0.3430 -1.5190
  206MPD1     C 3128   3.848   0.988  16.740  0.0613  0.1263  0.3492
  206MPD1    C1 3129   3.718   0.967  16.696  0.1954  0.3422  0.1056
  206MPD1    C2 3130   3.693   0.986  16.558  0.3184 -0.1133  0.0573
  206MPD1    C3 3131   3.798   1.012  16.465 -0.3373 -0.2143 -0.5356
  206MPD1    C4 3132   3.931   1.031  16.516  0.1530 -0.5907  0.0980
  206MPD1    C5 3133   3.947   1.025  16.655 -0.2855  0.3379 -0.2661
  206MPD1     H 3134   3.591   0.983  16.523 -0.7618  0.8387  3.0853
  206MPD1    H1 3135   4.022   1.053  16.461 -0.6725 -1.3419 -1.5662
  206MPD1    H2 3136   3.871   0.972  16.845 -0.2148  1.4264  0.6096
  206MPD1    H3 3137   4.045   1.045  16.698  0.1262 -0.8415 -0.6593
  206MPD1     N 3138   3.778   1.012  16.326  0.1473 -0.0459  0.4308
  206MPD1    H5 3139   3.866   1.011  16.275 -0.5173  2.2392 -0.7703
  206MPD1    N1 3140   3.606   0.952  16.782  0.1148 -0.0928 -0.0350
  206MPD1    H6 3141   3.622   0.905  16.871  1.2209  2.5025  1.1493
  206MPD1    H7 3142   3.527   0.913  16.732  1.2265 -0.0102 -1.8519
  207MPD1     C 3143   1.052   3.154  10.058 -0.1239 -0.8397 -0.4233
  207MPD1    C1 3144   1.097   3.053  10.140  0.0960 -0.0521 -0.1257
  207MPD1    C2 3145   1.195   3.092  10.238 -0.0056 -0.2557 -0.2769
  207MPD1    C3 3146   1.249   3.219  10.243 -0.0568 -0.6428  0.2757
  207MPD1    C4 3147   1.202   3.316  10.157  0.4193 -0.5142  0.7179
  207MPD1    C5 3148   1.109   3.281  10.067 -0.7298 -0.0956 -0.2501
  207MPD1     H 3149   1.220   3.011  10.306 -0.3984 -0.0352  0.1293
  207MPD1    H1 3150   1.241   3.417  10.152 -0.7587 -0.0775  0.1574
  207MPD1    H2 3151   0.971   3.142   9.987 -3.0010 -0.4949  2.8002
  207MPD1    H3 3152   1.069   3.356  10.000 -0.8731  0.7562  0.7914
  207MPD1     N 3153   1.346   3.256  10.336 -0.0747  0.0049 -0.4595
  207MPD1    H5 3154   1.373   3.354  10.335 -1.7167  0.4716  0.3088
  207MPD1    N1 3155   1.020   2.932  10.153  0.3519 -0.7295 -0.0499
  207MPD1    H6 3156   1.076   2.849  10.171  0.9121 -0.2462  0.4359
  207MPD1    H7 3157   0.976   2.902  10.066  2.7483  0.4307 -1.6531
  208MPD1     C 3158   0.351   2.659   0.082 -0.4410  0.4256 -0.0802
  208MPD1    C1 3159   0.385   2.656   0.216 -0.0983  0.6694  0.1635
  208MPD1    C2 3160   0.301   2.584   0.306  0.0085  0.5986 -0.0590
  208MPD1    C3 3161   0.185   2.536   0.251 -0.4567 -0.1434  0.1841
  208MPD1    C4 3162   0.147   2.550   0.122  0.4714 -0.0807  0.0569
  208MPD1    C5 3163   0.239   2.600   0.037 -0.8930  0.2687 -0.6840
  208MPD1     H 3164   0.320   2.581   0.413 -0.4303 -0.0610 -0.0052
  208MPD1    H1 3165   0.067   2.495   0.073  0.9829 -0.4249 -0.3985
  208MPD1    H2 3166   0.416   2.707   0.010 -0.6203 -2.1268 -1.9325
  208MPD1    H3 3167   0.228   2.582  17.623  0.6644 -1.5002 -0.5565
  208MPD1     N 3168   0.111   2.447   0.336 -0.8414  0.2550  0.5356
  208MPD1    H5 3169   0.151   2.417   0.424 -1.3171  1.7267  1.2471
  208MPD1    N1 3170   0.514   2.690   0.259  0.5051  0.2461 -0.5389
  208MPD1    H6 3171   0.561   2.764   0.205 -0.5416 -0.4947 -2.4558
  208MPD1    H7 3172   0.513   2.729   0.353 -0.1849  2.1200 -1.3196
  209MPD1     C 3173   2.450   2.425  11.918  0.3944  0.5894 -0.2802
  209MPD1    C1 3174   2.344   2.494  11.976 -0.8343  0.1457 -0.4663
  209MPD1    C2 3175   2.278   2.582  11.891 -0.3925  0.1357  0.4275
  209MPD1    C3 3176   2.299   2.594  11.751  0.2434 -0.2923  0.3127
  209MPD1    C4 3177   2.407   2.518  11.695  0.0224  0.1333  0.1002
  209MPD1    C5 3178   2.485   2.446  11.781 -0.1544 -0.1634 -0.3422
  209MPD1     H 3179   2.198   2.641  11.934  1.4739  2.1269  1.1445
  209MPD1    H1 3180   2.429   2.525  11.589  0.5287  3.1069  0.3859
  209MPD1    H2 3181   2.515   2.357  11.970  0.5257  1.1208  0.2535
  209MPD1    H3 3182   2.565   2.387  11.738  0.0969 -0.3489  0.3704
  209MPD1     N 3183   2.217   2.678  11.670 -0.4222  0.0947 -0.6617
  209MPD1    H5 3184   2.141   2.721  11.722 -1.1672  0.1055 -1.7501
  209MPD1    N1 3185   2.299   2.468  12.107 -0.2086  0.3031 -0.4456
  209MPD1    H6 3186   2.365   2.435  12.177 -2.1564 -0.1727  1.1297
  209MPD1    H7 3187   2.249   2.545  12.151  0.6351  0.7565 -0.2630
  210MPD1     C 3188   1.514   3.287  11.909 -0.3077  0.5386  0.0403
  210MPD1    C1 3189   1.610   3.218  11.969 -0.4067 -0.0656  0.2086
  210MPD1    C2 3190   1.714   3.170  11.896  0.4174  0.4441  0.3145
  210MPD1    C3 3191   1.704   3.172  11.755  0.1187  0.6723 -0.4553
  210MPD1    C4 3192   1.600   3.243  11.700  0.5385  0.5369 -0.4052
  210MPD1    C5 3193   1.508   3.301  11.776 -0.0467 -0.3857 -0.1232
  210MPD1     H 3194   1.804   3.132  11.943 -0.0111 -0.3779  0.4688
  210MPD1    H1 3195   1.584   3.242  11.593  0.2219 -0.7525 -0.3372
  210MPD1    H2 3196   1.438   3.341  11.964 -1.2630 -0.9179  0.1541
  210MPD1    H3 3197   1.421   3.355  11.742 -0.2463 -0.0060  0.9747
  210MPD1     N 3198   1.797   3.108  11.665 -0.3190 -0.6166  0.5014
  210MPD1    H5 3199   1.770   3.113  11.567 -0.8939  0.5064  0.7126
  210MPD1    N1 3200   1.625   3.256  12.101  0.2652 -0.5757 -0.4486
  210MPD1    H6 3201   1.535   3.262  12.149  1.1445 -0.0980  1.1438
  210MPD1    H7 3202   1.698   3.211  12.156  0.8279  0.3408 -0.4625
  211MPD1     C 3203   4.627   2.527  17.113 -0.2866 -0.1541  0.2996
  211MPD1    C1 3204   4.585   2.656  17.067 -0.1636  0.5779 -0.4910
  211MPD1    C2 3205   4.476   2.671  16.980 -0.0206 -0.2796  0.1323
  211MPD1    C3 3206   4.409   2.558  16.937  0.3512  0.5227  0.6779
  211MPD1    C4 3207   4.453   2.433  16.969 -0.2409  0.3830  0.0500
  211MPD1    C5 3208   4.557   2.420  17.060  0.0502 -0.5600  0.5015
  211MPD1     H 3209   4.449   2.772  16.952 -1.1344 -0.6196  0.0187
  211MPD1    H1 3210   4.408   2.345  16.924 -2.2992  1.1534  0.5977
  211MPD1    H2 3211   4.715   2.509  17.174 -1.8805 -0.2683  2.5704
  211MPD1    H3 3212   4.588   2.321  17.091 -1.3566 -1.5188 -1.1883
  211MPD1     N 3213   4.297   2.590  16.861 -0.3166 -0.0469 -0.4805
  211MPD1    H5 3214   4.287   2.686  16.831 -1.3818  0.5972  1.9166
  211MPD1    N1 3215   4.666   2.768  17.093 -0.0118  0.1237 -0.1943
  211MPD1    H6 3216   0.003   2.759  17.174  2.8053  2.1750 -2.0334
  211MPD1    H7 3217   4.610   2.852  17.107 -0.0757  0.1381 -0.5218
  212MPD1     C 3218   3.347   1.318  16.416 -0.1357 -0.3910 -0.1684
  212MPD1    C1 3219   3.210   1.319  16.411 -0.1965  0.6346 -0.1857
  212MPD1    C2 3220   3.139   1.233  16.498  0.6464  0.2107  0.5997
  212MPD1    C3 3221   3.202   1.158  16.593 -0.1343 -0.0444  0.5485
  212MPD1    C4 3222   3.338   1.156  16.596 -0.1140 -0.5598  0.1126
  212MPD1    C5 3223   3.407   1.235  16.509 -0.5519  0.4708  0.4991
  212MPD1     H 3224   3.031   1.238  16.499  0.6827  0.7158  1.7845
  212MPD1    H1 3225   3.402   1.105  16.668 -0.5959 -1.7003 -0.2640
  212MPD1    H2 3226   3.417   1.368  16.349 -0.9327  1.2946  0.2561
  212MPD1    H3 3227   3.514   1.247  16.523 -0.8441  2.2850  1.1661
  212MPD1     N 3228   3.141   1.070  16.681 -0.7419 -0.0378  0.2002
  212MPD1    H5 3229   3.194   1.020  16.751  2.6744  1.1418 -1.5764
  212MPD1    N1 3230   3.143   1.376  16.306 -0.0273  0.3567  0.3510
  212MPD1    H6 3231   3.044   1.367  16.324 -0.6035  1.5582 -2.1859
  212MPD1    H7 3232   3.181   1.459  16.259  0.0591 -0.3455 -0.8326
  213MPD1     C 3233   1.986   2.077  15.541 -0.8717  0.6929  0.4752
  213MPD1    C1 3234   1.870   2.149  15.522 -0.0297  0.2305  0.1460
  213MPD1    C2 3235   1.773   2.082  15.449 -0.2145 -0.6245 -0.1071
  213MPD1    C3 3236   1.764   1.943  15.426 -0.1605  0.4588 -0.0504
  213MPD1    C4 3237   1.867   1.873  15.481 -0.7018  0.2241  0.0424
  213MPD1    C5 3238   1.973   1.937  15.536  0.0058 -0.1823 -0.7809
  213MPD1     H 3239   1.698   2.147  15.405  0.4399  2.1299  2.8191
  213MPD1    H1 3240   1.879   1.766  15.483  3.0034  0.6704  1.5186
  213MPD1    H2 3241   2.071   2.123  15.588  1.1334 -1.5189 -0.9694
  213MPD1    H3 3242   2.050   1.870  15.572 -1.5847 -0.4830  1.9862
  213MPD1     N 3243   1.654   1.882  15.357  0.3810  0.5433 -0.3154
  213MPD1    H5 3244   1.586   1.948  15.321  0.9703  2.5639  2.2877
  213MPD1    N1 3245   1.872   2.286  15.517 -0.0611 -0.7907 -0.7787
  213MPD1    H6 3246   1.939   2.320  15.585 -2.0582  1.2950  0.1209
  213MPD1    H7 3247   1.776   2.310  15.540 -0.3134 -3.5331  1.0354
  214MPD1     C 3248   0.957   1.114  15.018 -0.1483 -0.6191 -0.1561
  214MPD1    C1 3249   1.083   1.117  15.070 -0.1702  0.0785 -0.3219
  214MPD1    C2 3250   1.139   1.235  15.111  0.0648  0.7668  1.1344
  214MPD1    C3 3251   1.076   1.358  15.098 -0.4345  0.2273 -0.5684
  214MPD1    C4 3252   0.945   1.355  15.057 -0.2192 -0.1856  0.5243
  214MPD1    C5 3253   0.895   1.237  15.010  0.4657  1.2106  0.3716
  214MPD1     H 3254   1.239   1.225  15.153  0.9491  2.3788 -0.5888
  214MPD1    H1 3255   0.886   1.446  15.053 -0.0343 -0.1878 -2.1194
  214MPD1    H2 3256   0.909   1.024  14.982  0.3631 -0.8295 -0.3212
  214MPD1    H3 3257   0.793   1.248  14.975  1.1991 -0.3712 -2.3099
  214MPD1     N 3258   1.136   1.484  15.135 -0.0196  0.1253 -0.0866
  214MPD1    H5 3259   1.083   1.569  15.115  1.4502  0.6771 -1.6046
  214MPD1    N1 3260   1.163   1.003  15.064  0.1123  0.2971 -0.0452
  214MPD1    H6 3261   1.117   0.912  15.071  0.9916 -0.3064 -2.0322
  214MPD1    H7 3262   1.249   1.019  15.117  0.5369  0.0604 -0.6546
  215MPD1     C 3263   1.075   2.383  10.745  0.7640  0.9424  0.6172
  215MPD1    C1 3264   1.155   2.383  10.858 -0.0973 -0.2103  0.4069
  215MPD1    C2 3265   1.212   2.500  10.895 -0.0166  0.3523  0.1336
  215MPD1    C3 3266   1.182   2.625  10.839  0.1940  0.9559 -0.0136
  215MPD1    C4 3267   1.084   2.621  10.740  0.1733  0.3646 -0.7323
  215MPD1    C5 3268   1.031   2.504  10.699 -0.6627 -0.2054 -0.7577
  215MPD1     H 3269   1.292   2.492  10.968  1.3675  1.4771 -1.2534
  215MPD1    H1 3270   1.044   2.706  10.686  0.6670 -0.1008 -1.8227
  215MPD1    H2 3271   1.039   2.294  10.695 -0.4089 -0.0420  3.2437
  215MPD1    H3 3272   0.972   2.498  10.609 -0.4518 -0.3652 -0.8870
  215MPD1     N 3273   1.249   2.740  10.884  0.3419 -0.6182 -0.7773
  215MPD1    H5 3274   1.313   2.722  10.961  0.0849  0.6395 -0.2718
  215MPD1    N1 3275   1.214   2.261  10.903 -0.4894 -0.0224  0.0487
  215MPD1    H6 3276   1.161   2.176  10.888  0.8886 -1.1411  1.4984
  215MPD1    H7 3277   1.241   2.262  11.001 -0.4298 -1.6644  0.0497
  216MPD1     C 3278   4.166   1.103  17.587 -0.3333 -0.5393  0.0902
  216MPD1    C1 3279   4.124   1.008  17.679 -0.2114 -0.1631  0.7031
  216MPD1    C2 3280   4.113   0.878  17.646  0.1617  0.1801 -0.1607
  216MPD1    C3 3281   4.121   0.833  17.514 -0.0657 -0.3553  0.5957
  216MPD1    C4 3282   4.148   0.927  17.419  0.0724  0.1147 -0.4657
  216MPD1    C5 3283   4.176   1.053  17.459 -1.1749 -0.4485  0.1379
  216MPD1     H 3284   4.080   0.810   0.031 -0.0545 -1.5847 -1.7730
  216MPD1    H1 3285   4.146   0.895  17.315  2.2226 -0.3771 -0.3617
  216MPD1    H2 3286   4.186   1.208  17.609  0.2804 -0.6004 -0.1676
  216MPD1    H3 3287   4.203   1.123  17.381 -0.8127  1.3768  1.8831
  216MPD1     N 3288   4.097   0.697  17.482  0.3736  0.2995  0.4312
  216MPD1    H5 3289   4.100   0.634  17.561 -0.4189 -1.0432 -0.6072
  216MPD1    N1 3290   4.114   1.041   0.123  0.1250 -0.3437 -0.2014
  216MPD1    H6 3291   4.057   0.974   0.175  1.2692 -1.1191  0.0639
  216MPD1    H7 3292   4.093   1.140   0.134 -0.2332 -0.6711  2.1251
  217MPD1     C 3293   0.061   2.164   8.508 -0.2659  0.2014 -0.0086
  217MPD1    C1 3294   4.717   2.234   8.601 -0.4013  0.4326 -0.1132
  217MPD1    C2 3295   4.654   2.165   8.706  0.3281 -0.0650  0.4963
  217MPD1    C3 3296   4.646   2.024   8.699 -0.5033 -0.6641  0.7498
  217MPD1    C4 3297   4.692   1.956   8.590 -0.2492 -0.4564  0.0082
  217MPD1    C5 3298   0.045   2.020   8.497  0.3250 -0.1778  0.4485
  217MPD1     H 3299   4.625   2.214   8.798  1.2567 -1.2725  1.4331
  217MPD1    H1 3300   4.688   1.849   8.579 -1.7545 -0.3178 -0.7776
  217MPD1    H2 3301   0.116   2.218   8.432 -0.3862  1.5389  0.8651
  217MPD1    H3 3302   0.099   1.958   8.427  1.9641  2.3546 -0.5285
  217MPD1     N 3303   4.565   1.963   8.796  0.6109 -0.3780  0.8835
  217MPD1    H5 3304   4.497   2.021   8.844 -1.0861 -2.3269  0.8264
  217MPD1    N1 3305   0.028   2.368   8.629 -0.0052  0.6214  0.1941
  217MPD1    H6 3306   4.680   2.415   8.684 -2.0545 -0.3077 -1.6099
  217MPD1    H7 3307   0.049   2.410   8.538 -1.4881 -0.3240 -0.5942
  218MPD1     C 3308   0.791   3.115  13.494  0.1620  0.0381 -0.0636
  218MPD1    C1 3309   0.805   3.232  13.429  0.0755 -0.1861  0.4825
  218MPD1    C2 3310   0.850   3.231  13.295  0.8362 -0.5702 -0.0871
  218MPD1    C3 3311   0.875   3.107  13.237  0.2103 -0.4135 -1.1831
  218MPD1    C4 3312   0.861   2.996  13.308 -0.6143 -0.4117  1.1969
  218MPD1    C5 3313   0.824   2.998  13.434 -0.4040  0.0962  0.2378
  218MPD1     H 3314   0.879   3.318  13.239  0.3982 -0.5878 -0.3420
  218MPD1    H1 3315   0.885   2.903  13.256  0.1108 -0.0002  0.7996
  218MPD1    H2 3316   0.759   3.097  13.597 -0.3564  0.2567 -0.1871
  218MPD1    H3 3317   0.799   2.910  13.493  3.3245 -1.2527 -0.1912
  218MPD1     N 3318   0.926   3.107  13.106  0.7265 -0.3261  0.2640
  218MPD1    H5 3319   0.909   3.189  13.050  0.2268 -1.1006 -0.7008
  218MPD1    N1 3320   0.799   3.349  13.504 -0.0767  0.2658 -0.2680
  218MPD1    H6 3321   0.789   3.430  13.442 -1.1552 -0.8603 -1.5573
  218MPD1    H7 3322   0.720   3.350  13.568 -1.4105  0.6965 -1.9299
  219MPD1     C 3323   0.824   3.325  12.139 -0.0314  0.4343 -0.0850
  219MPD1    C1 3324   0.773   3.367  12.261 -0.8607 -0.2466 -0.3110
  219MPD1    C2 3325   0.836   3.327  12.372  0.0151 -1.0882  0.1959
  219MPD1    C3 3326   0.925   3.223  12.373  0.2118  0.4078  0.9164
  219MPD1    C4 3327   0.964   3.174  12.250 -0.4385 -0.1113 -0.0267
  219MPD1    C5 3328   0.918   3.225  12.131 -0.1223 -0.5512  0.3139
  219MPD1     H 3329   0.809   3.382  12.462 -0.4202  1.6480 -1.5943
  219MPD1    H1 3330   1.046   3.103  12.248 -1.0905 -0.9128  1.3606
  219MPD1    H2 3331   0.787   3.364  12.045 -0.0542  0.3408 -0.1149
  219MPD1    H3 3332   0.960   3.204  12.033  0.9967  0.1469  0.6373
  219MPD1     N 3333   0.977   3.176  12.494  1.1761 -0.0820 -0.3615
  219MPD1    H5 3334   1.045   3.100  12.499  0.9080 -0.3648 -0.9545
  219MPD1    N1 3335   0.696   3.489  12.258  0.0426 -0.4132  0.6170
  219MPD1    H6 3336   0.640   3.497  12.173  1.4114 -1.2505 -0.3661
  219MPD1    H7 3337   0.629   3.475  12.333 -0.5438  2.0226  0.5510
  220MPD1     C 3338   0.744   4.305   9.726  0.3962  0.0519  0.0952
  220MPD1    C1 3339   0.807   4.303   9.846  0.5072  0.1750 -0.5813
  220MPD1    C2 3340   0.839   4.186   9.910 -0.1476  0.0893 -0.3814
  220MPD1    C3 3341   0.796   4.067   9.858 -0.0454  0.1035 -0.2222
  220MPD1    C4 3342   0.728   4.072   9.737 -0.5729  0.4531 -0.2909
  220MPD1    C5 3343   0.705   4.191   9.670 -0.2562  0.0085 -0.0576
  220MPD1     H 3344   0.911   4.191   9.991  0.8456  0.7860 -1.2998
  220MPD1    H1 3345   0.687   3.981   9.695 -2.0904  0.3559  1.3957
  220MPD1    H2 3346   0.719   4.394   9.670 -0.9108 -2.3098 -3.0576
  220MPD1    H3 3347   0.661   4.195   9.571  0.8156  0.7882 -0.4975
  220MPD1     N 3348   0.828   3.945   9.928  0.3072 -0.4229 -0.2859
  220MPD1    H5 3349   0.887   3.946  10.011 -2.1896  0.9812  1.4722
  220MPD1    N1 3350   0.857   4.435   9.874  0.4279  0.2821  0.6391
  220MPD1    H6 3351   0.773   4.491   9.857  0.5297  0.0609 -0.5824
  220MPD1    H7 3352   0.871   4.451   9.973 -1.8275 -3.7017  1.5755
  221MPD1     C 3353   3.698   1.906  15.314 -0.5076 -0.2008 -0.5251
  221MPD1    C1 3354   3.648   2.017  15.370  0.2640 -0.0778  0.1207
  221MPD1    C2 3355   3.591   2.004  15.494  0.5408 -0.5139  0.9993
  221MPD1    C3 3356   3.578   1.886  15.557 -0.4058  0.3567  0.0140
  221MPD1    C4 3357   3.612   1.775  15.491  0.9617  0.3833  0.2712
  221MPD1    C5 3358   3.675   1.785  15.374 -0.4768 -0.0122  0.0018
  221MPD1     H 3359   3.551   2.091  15.546 -0.1696  0.1946 -0.7428
  221MPD1    H1 3360   3.593   1.683  15.545  1.2306 -0.4087 -0.9771
  221MPD1    H2 3361   3.742   1.904  15.215  2.8095 -0.0654  0.9419
  221MPD1    H3 3362   3.702   1.697  15.316  2.2547 -0.4354  1.8898
  221MPD1     N 3363   3.521   1.874  15.683  0.6640  0.1730  0.4867
  221MPD1    H5 3364   3.515   1.778  15.717  0.3179  0.5258  1.4429
  221MPD1    N1 3365   3.658   2.142  15.310 -0.4576 -0.2140 -0.1166
  221MPD1    H6 3366   3.591   2.211  15.342  1.7254  1.9956 -0.2997
  221MPD1    H7 3367   3.659   2.131  15.209 -0.5918 -1.7997  0.0559
  222MPD1     C 3368   4.111   2.167   0.109  1.0408 -0.1242  0.6165
  222MPD1    C1 3369   4.167   2.158  17.674 -0.4128  0.4360 -0.3681
  222MPD1    C2 3370   4.130   2.048  17.596 -0.5797  0.4150  0.1045
  222MPD1    C3 3371   4.016   1.974  17.623  0.1403  0.4303 -0.1479
  222MPD1    C4 3372   3.951   1.997   0.052  0.4160  0.0288  0.8177
  222MPD1    C5 3373   4.000   2.096   0.132 -0.4419  0.4582 -0.8578
  222MPD1     H 3374   4.184   2.022  17.506 -0.4608 -0.4995  0.4342
  222MPD1    H1 3375   3.869   1.933   0.081  1.5580 -2.8639 -2.3170
  222MPD1    H2 3376   4.141   2.234   0.189  1.3269  0.3627  0.1083
  222MPD1    H3 3377   3.955   2.106   0.230 -2.0161  0.7221 -1.6108
  222MPD1     N 3378   3.958   1.870  17.548  0.4206 -0.6947  0.0145
  222MPD1    H5 3379   3.876   1.834  17.596  0.1966  1.2815  1.1287
  222MPD1    N1 3380   4.288   2.229  17.649 -0.2196  0.3511  0.2919
  222MPD1    H6 3381   4.291   2.319   0.004 -3.3386 -0.3439  1.8027
  222MPD1    H7 3382   4.300   2.246  17.550 -1.7316  0.3847  0.1159
  223MPD1     C 3383   3.829   1.380  16.573 -0.2790  0.3897  0.4277
  223MPD1    C1 3384   3.732   1.470  16.603 -0.3059  0.2115 -0.3221
  223MPD1    C2 3385   3.717   1.515  16.729  0.4142 -0.2063  0.8911
  223MPD1    C3 3386   3.819   1.498  16.819 -0.3837  0.3019 -0.1335
  223MPD1    C4 3387   3.919   1.404  16.791 -0.7351 -0.3837 -0.6704
  223MPD1    C5 3388   3.918   1.349  16.667  0.5452  0.0881  0.3055
  223MPD1     H 3389   3.622   1.564  16.747  0.4064  0.0236  0.2177
  223MPD1    H1 3390   4.002   1.384  16.858  0.0791  0.9896 -1.2573
  223MPD1    H2 3391   3.843   1.337  16.475 -0.5918 -0.2695  0.6662
  223MPD1    H3 3392   4.002   1.285  16.642 -2.1609 -2.8789 -1.1132
  223MPD1     N 3393   3.806   1.561  16.949  0.1035  0.3486 -0.0965
  223MPD1    H5 3394   3.717   1.609  16.957  1.5539  3.3374 -1.8747
  223MPD1    N1 3395   3.621   1.475  16.516  0.2129 -0.1397 -0.0370
  223MPD1    H6 3396   3.571   1.563  16.527  0.9665  0.2512  0.2385
  223MPD1    H7 3397   3.652   1.487  16.419 -1.4279 -1.1782 -0.6950
  224MPD1     C 3398   4.338   3.032   8.926 -0.4454  0.0152 -0.0995
  224MPD1    C1 3399   4.450   2.960   8.943 -0.1440 -0.4103  0.6322
  224MPD1    C2 3400   4.477   2.906   9.068  0.4107  0.5835  0.5636
  224MPD1    C3 3401   4.395   2.931   9.183  0.0481  0.0262 -0.0012
  224MPD1    C4 3402   4.290   3.027   9.161 -0.1429  0.4003  0.0316
  224MPD1    C5 3403   4.263   3.072   9.036  0.1814  0.7133 -0.4475
  224MPD1     H 3404   4.571   2.854   9.080  0.1927  0.2325  0.7597
  224MPD1    H1 3405   4.225   3.055   9.243 -0.4396  1.1151 -0.4552
  224MPD1    H2 3406   4.316   3.079   8.831  2.6439 -0.8772 -1.2726
  224MPD1    H3 3407   4.187   3.149   9.028  0.7051  1.4127  1.1093
  224MPD1     N 3408   4.407   2.868   9.315 -0.7125  0.6357 -0.3474
  224MPD1    H5 3409   4.324   2.882   9.370 -0.2801  0.4059  0.3628
  224MPD1    N1 3410   4.536   2.930   8.834  0.0008  0.5184 -0.5738
  224MPD1    H6 3411   4.622   2.891   8.871 -0.5462 -0.2465 -0.1123
  224MPD1    H7 3412   4.555   3.007   8.770 -3.4887  3.0028  1.3661
  225MPD1     C 3413   0.438   3.203  13.353 -0.2113 -0.4351 -0.1587
  225MPD1    C1 3414   0.330   3.139  13.298 -0.4929 -0.6336  0.6738
  225MPD1    C2 3415   0.285   3.183  13.176  0.2870 -0.2458  0.1580
  225MPD1    C3 3416   0.351   3.285  13.111 -0.0354 -0.2046  0.0817
  225MPD1    C4 3417   0.453   3.347  13.178  0.4829  0.6351  0.2591
  225MPD1    C5 3418   0.493   3.309  13.297  0.2597  0.1998 -0.3216
  225MPD1     H 3419   0.206   3.124  13.130 -0.6288  1.8029 -0.8881
  225MPD1    H1 3420   0.496   3.437  13.134 -2.3131  1.0576 -1.6204
  225MPD1    H2 3421   0.473   3.171  13.451 -0.0358 -0.6487 -0.2926
  225MPD1    H3 3422   0.579   3.363  13.338 -0.3150  1.6083 -0.9552
  225MPD1     N 3423   0.328   3.311  12.973  0.2647  0.7652 -0.6078
  225MPD1    H5 3424   0.380   3.382  12.922  3.1301 -0.2807  0.8828
  225MPD1    N1 3425   0.252   3.050  13.367 -0.1909 -0.5234 -0.5873
  225MPD1    H6 3426   0.196   2.997  13.300 -0.5728 -0.0541 -0.6323
  225MPD1    H7 3427   0.311   2.983  13.417  1.3082  0.0655 -1.5470
  226MPD1     C 3428   2.775   3.450   9.549  0.0974  0.2380  0.3049
  226MPD1    C1 3429   2.801   3.319   9.577 -0.4575 -0.2703 -0.1780
  226MPD1    C2 3430   2.931   3.273   9.541 -0.1130  0.1760  0.0649
  226MPD1    C3 3431   3.030   3.367   9.497 -0.1179  0.3284  0.4898
  226MPD1    C4 3432   2.996   3.498   9.477 -1.1425  0.1339 -0.2314
  226MPD1    C5 3433   2.870   3.540   9.508  0.2607  0.3334 -1.4688
  226MPD1     H 3434   2.954   3.167   9.546 -2.8073 -0.3870  0.7195
  226MPD1    H1 3435   3.071   3.575   9.462  0.3393 -1.2615 -0.0335
  226MPD1    H2 3436   2.681   3.497   9.574 -1.5428 -1.9593 -1.6807
  226MPD1    H3 3437   2.841   3.644   9.509 -1.2866 -0.1204  1.3475
  226MPD1     N 3438   3.156   3.316   9.462  0.1718  0.1117 -0.3491
  226MPD1    H5 3439   3.165   3.216   9.479 -0.5630  0.0592 -0.2373
  226MPD1    N1 3440   2.697   3.232   9.611 -0.0260 -0.6506  0.0182
  226MPD1    H6 3441   2.617   3.275   9.658  0.6589  1.7029 -0.9854
  226MPD1    H7 3442   2.732   3.159   9.672 -0.8534 -3.2568 -2.5661
  227MPD1     C 3443   3.715   2.524   9.205 -0.6696 -0.2280 -0.0457
  227MPD1    C1 3444   3.815   2.617   9.180 -0.0230 -0.2485 -0.3995
  227MPD1    C2 3445   3.785   2.746   9.202  0.3326 -0.0976  0.0298
  227MPD1    C3 3446   3.658   2.788   9.263  0.9897  0.0641  0.0711
  227MPD1    C4 3447   3.572   2.692   9.300  0.2581  0.3955  0.0778
  227MPD1    C5 3448   3.598   2.560   9.266 -0.1048  0.6199 -0.3707
  227MPD1     H 3449   3.862   2.818   9.179 -1.0670  1.0379 -1.0748
  227MPD1    H1 3450   3.492   2.708   9.371  0.5295  1.2490  0.1896
  227MPD1    H2 3451   3.716   2.417   9.188 -0.5695 -0.0982 -0.8289
  227MPD1    H3 3452   3.522   2.490   9.298 -0.5222  0.6196 -1.3409
  227MPD1     N 3453   3.642   2.926   9.288  0.7771 -0.4518  0.0750
  227MPD1    H5 3454   3.725   2.984   9.289  0.1229  0.4871 -0.2064
  227MPD1    N1 3455   3.946   2.580   9.139  0.4341 -0.2981 -0.2479
  227MPD1    H6 3456   3.961   2.481   9.122 -0.6804 -0.1563 -2.0825
  227MPD1    H7 3457   4.009   2.625   9.204 -0.3201  1.0625 -0.4574
  228MPD1     C 3458   2.246   1.388  13.034  1.1130  0.3044 -0.6338
  228MPD1    C1 3459   2.158   1.464  12.966  0.7917  0.0554  0.0580
  228MPD1    C2 3460   2.023   1.423  12.949 -0.5014 -0.0718  0.8641
  228MPD1    C3 3461   1.980   1.304  13.009  0.2835  0.4671 -0.2557
  228MPD1    C4 3462   2.076   1.225  13.074  0.1613  0.3915 -0.2771
  228MPD1    C5 3463   2.206   1.269  13.088  0.0078  0.3416  0.2502
  228MPD1     H 3464   1.954   1.484  12.893  2.7446  1.0837 -1.8623
  228MPD1    H1 3465   2.047   1.129  13.116  0.0229  0.5588  0.0147
  228MPD1    H2 3466   2.353   1.406  13.029  1.0924  1.0972  1.5735
  228MPD1    H3 3467   2.283   1.218  13.146  0.9572  1.4793 -0.0025
  228MPD1     N 3468   1.847   1.271  13.011 -0.0687  0.2069 -0.4007
  228MPD1    H5 3469   1.782   1.339  12.973 -1.3094 -1.8172 -1.8753
  228MPD1    N1 3470   2.207   1.577  12.896 -0.3396 -0.0984  0.1380
  228MPD1    H6 3471   2.129   1.639  12.873 -1.5091 -0.8830  1.9770
  228MPD1    H7 3472   2.293   1.619  12.929  0.0448 -0.5483 -0.2864
  229MPD1     C 3473   1.707   4.505  15.575 -0.2220  0.8057 -0.4478
  229MPD1    C1 3474   1.800   4.466  15.670 -0.3758  0.7015 -0.8123
  229MPD1    C2 3475   1.932   4.482  15.639  0.2063  0.7493  0.4247
  229MPD1    C3 3476   1.979   4.518  15.513 -0.4151  0.6287 -0.2289
  229MPD1    C4 3477   1.878   4.553  15.421  0.4685  0.0092  0.8372
  229MPD1    C5 3478   1.749   4.531  15.452  0.0573 -0.1081 -0.3567
  229MPD1     H 3479   2.009   4.453  15.709  0.9138  1.4844 -0.0547
  229MPD1    H1 3480   1.899   4.574  15.317  0.7733  0.4526  0.9859
  229MPD1    H2 3481   1.600   4.493  15.588 -0.3585  0.0062 -2.2257
  229MPD1    H3 3482   1.680   4.544  15.370  0.0185 -0.7556 -0.4256
  229MPD1     N 3483   2.121   4.534  15.479 -0.0954 -0.0451  0.2735
  229MPD1    H5 3484   2.139   4.564  15.384  0.8531  0.1515  0.5097
  229MPD1    N1 3485   1.749   4.425  15.802 -0.5383 -0.3549  0.9253
  229MPD1    H6 3486   1.814   4.362  15.849  2.3713  2.2335  0.3925
  229MPD1    H7 3487   1.656   4.385  15.798  0.4550 -2.5182 -0.4866
  230MPD1     C 3488   3.189   4.227  15.554  0.4075  0.5807 -0.1149
  230MPD1    C1 3489   3.154   4.269  15.426  0.1979 -0.1487  0.1507
  230MPD1    C2 3490   3.031   4.331  15.402 -0.0967 -0.6521  0.2224
  230MPD1    C3 3491   2.936   4.336  15.502  0.7159 -0.0435  0.1855
  230MPD1    C4 3492   2.969   4.282  15.624  0.3833 -0.0594 -0.2594
  230MPD1    C5 3493   3.098   4.242  15.649  0.2233  0.4645 -0.1117
  230MPD1     H 3494   3.004   4.375  15.306  1.6696  0.4164  0.2093
  230MPD1    H1 3495   2.904   4.272  15.710 -0.2436 -3.5791 -1.1103
  230MPD1    H2 3496   3.285   4.179  15.574  0.5158  0.5598 -0.7106
  230MPD1    H3 3497   3.119   4.190  15.742 -1.5681 -1.3689 -0.7209
  230MPD1     N 3498   2.804   4.378  15.477 -0.5124  0.2702  0.2890
  230MPD1    H5 3499   2.790   4.413  15.383 -1.8289 -0.8274  0.0763
  230MPD1    N1 3500   3.256   4.273  15.328  0.4515  0.1437  0.0022
  230MPD1    H6 3501   3.214   4.260  15.236  0.5689  0.2402 -0.0643
  230MPD1    H7 3502   3.321   4.195  15.339  1.3163  1.3392  3.2224
  231MPD1     C 3503   4.378   1.670  15.372 -0.4431  0.5588 -0.1219
  231MPD1    C1 3504   4.392   1.746  15.262 -0.1651 -0.1261 -0.4230
  231MPD1    C2 3505   4.518   1.784  15.221 -0.4558  0.0500  0.2314
  231MPD1    C3 3506   4.633   1.765  15.298  0.2521  0.1968  0.7545
  231MPD1    C4 3507   4.617   1.697  15.418 -0.0003  0.3086 -0.5733
  231MPD1    C5 3508   4.490   1.649  15.453 -0.1139 -0.5471  0.6969
  231MPD1     H 3509   4.533   1.827  15.122 -0.9973 -0.5980 -0.1301
  231MPD1    H1 3510   4.692   1.654  15.483 -0.0627 -0.4611 -1.0114
  231MPD1    H2 3511   4.284   1.628  15.407  0.2315  0.2000  1.2906
  231MPD1    H3 3512   4.470   1.601  15.548  1.6375 -0.6522  1.0174
  231MPD1     N 3513   0.034   1.805  15.241  0.3414 -0.0659  0.2364
  231MPD1    H5 3514   0.030   1.853  15.152 -0.0973  1.2783  0.9717
  231MPD1    N1 3515   4.284   1.772  15.175 -0.9821  0.3124  0.2064
  231MPD1    H6 3516   4.292   1.864  15.132 -0.7140 -0.4216 -1.3065
  231MPD1    H7 3517   4.194   1.762  15.221 -1.9286  0.5498 -1.6022
  232MPD1     C 3518   2.957   0.909  17.320  0.6518  0.4415  0.5157
  232MPD1    C1 3519   2.950   0.952  17.453 -0.0410 -0.2041  0.2800
  232MPD1    C2 3520   2.992   0.865  17.555  0.6901 -0.4352 -0.5314
  232MPD1    C3 3521   3.050   0.750  17.524 -0.8097  0.3131 -0.2791
  232MPD1    C4 3522   3.080   0.723  17.394 -0.3490 -0.4414  0.1111
  232MPD1    C5 3523   3.035   0.799  17.293 -0.2219  0.2391 -0.0721
  232MPD1     H 3524   2.966   0.885  17.659  1.3706 -2.9404  0.1298
  232MPD1    H1 3525   3.143   0.638  17.369 -2.2489 -1.8503  0.0767
  232MPD1    H2 3526   2.912   0.961  17.236  1.9471 -0.7473 -0.9196
  232MPD1    H3 3527   3.061   0.769  17.192 -0.3533  1.5898 -0.5125
  232MPD1     N 3528   3.085   0.662  17.633 -0.0407 -0.0920  0.6466
  232MPD1    H5 3529   3.075   0.709   0.030  0.8153  2.8685 -0.7961
  232MPD1    N1 3530   2.885   1.072  17.486 -0.3200 -0.1309 -0.5662
  232MPD1    H6 3531   2.899   1.142  17.413  2.0239  0.6262  0.6004
  232MPD1    H7 3532   2.909   1.115  17.575 -0.4360 -2.3419  0.5120
  233MPD1     C 3533   4.335   3.525   2.206 -0.1569 -0.0889 -0.0352
  233MPD1    C1 3534   4.410   3.469   2.308 -0.3181  0.0405 -0.4305
  233MPD1    C2 3535   4.516   3.394   2.271  0.3848  0.1011 -0.4349
  233MPD1    C3 3536   4.552   3.384   2.138  0.2273 -0.1671  0.9220
  233MPD1    C4 3537   4.467   3.427   2.047 -0.3173 -0.1549  0.2059
  233MPD1    C5 3538   4.363   3.506   2.074 -0.2617  0.7690  0.4457
  233MPD1     H 3539   4.576   3.348   2.349 -2.8620 -1.4080  1.1724
  233MPD1    H1 3540   4.494   3.430   1.942 -1.4579  1.7359 -0.0286
  233MPD1    H2 3541   4.260   3.600   2.228 -0.4430 -0.4990  0.3852
  233MPD1    H3 3542   4.305   3.555   1.997  1.1280  2.3223  0.3798
  233MPD1     N 3543   4.674   3.324   2.101 -0.2639  0.1176 -0.0312
  233MPD1    H5 3544   4.693   3.318   2.002  1.9573  0.2448  0.3898
  233MPD1    N1 3545   4.374   3.487   2.440  0.1612  0.0306  0.1615
  233MPD1    H6 3546   4.450   3.484   2.508  0.3710 -1.2760 -0.1497
  233MPD1    H7 3547   4.310   3.564   2.460 -0.9698 -0.9337  0.2468
  234MPD1     C 3548   0.698   1.535  10.514 -0.6215 -0.2398 -0.3064
  234MPD1    C1 3549   0.746   1.654  10.480  0.2472 -0.5882  0.3761
  234MPD1    C2 3550   0.712   1.700  10.349 -0.0669 -0.2369 -0.7783
  234MPD1    C3 3551   0.629   1.626  10.262  0.3042  0.9731  0.2521
  234MPD1    C4 3552   0.571   1.511  10.316 -0.3310 -0.7183  0.5461
  234MPD1    C5 3553   0.611   1.467  10.436  0.1131  0.0834 -0.3613
  234MPD1     H 3554   0.763   1.791  10.318 -0.7119 -0.1154 -1.5078
  234MPD1    H1 3555   0.509   1.446  10.256 -0.8815  2.1595 -1.9896
  234MPD1    H2 3556   0.725   1.493  10.610 -0.3875 -1.1957 -0.7915
  234MPD1    H3 3557   0.579   1.371  10.473 -0.7506 -0.2905 -2.0761
  234MPD1     N 3558   0.598   1.674  10.130  0.0319  0.4882 -0.4414
  234MPD1    H5 3559   0.622   1.771  10.113  2.6119  0.0189  0.4541
  234MPD1    N1 3560   0.852   1.715  10.552  0.0799 -0.2027 -0.2798
  234MPD1    H6 3561   0.864   1.816  10.544 -1.4392 -0.0498 -0.5580
  234MPD1    H7 3562   0.846   1.687  10.649  1.4762  2.2888  0.5158
  235MPD1     C 3563   0.240   0.745   9.866 -0.7473 -0.6391  0.1038
  235MPD1    C1 3564   0.372   0.737   9.905 -0.2688 -0.2266  0.0438
  235MPD1    C2 3565   0.462   0.694   9.807 -0.1616 -0.0156  0.7428
  235MPD1    C3 3566   0.430   0.665   9.681  0.1097  0.0336  0.1516
  235MPD1    C4 3567   0.299   0.669   9.648  0.2008 -0.1550  0.8125
  235MPD1    C5 3568   0.203   0.704   9.741 -0.1397  0.6244 -0.3208
  235MPD1     H 3569   0.564   0.680   9.842 -0.0015 -0.4085  0.1150
  235MPD1    H1 3570   0.262   0.650   9.548  0.9611 -0.6044  0.6193
  235MPD1    H2 3571   0.168   0.781   9.938  0.0390  0.0336  0.5539
  235MPD1    H3 3572   0.104   0.719   9.701 -0.4904  0.3044  0.4433
  235MPD1     N 3573   0.528   0.633   9.581  0.0349 -0.2680  0.0539
  235MPD1    H5 3574   0.621   0.614   9.616  0.6109  0.1648 -1.2395
  235MPD1    N1 3575   0.413   0.767  10.036  0.8110  0.1178 -0.3513
  235MPD1    H6 3576   0.500   0.820  10.047 -1.4955  4.2156 -1.8179
  235MPD1    H7 3577   0.344   0.810  10.097  0.6065  1.6335 -1.6454
  236MPD1     C 3578   0.956   0.744  10.137  0.9295  0.2899  0.1080
  236MPD1    C1 3579   0.898   0.621  10.176  0.3375 -0.3195  0.5606
  236MPD1    C2 3580   0.980   0.527  10.231 -0.1405  0.6138  0.0238
  236MPD1    C3 3581   1.118   0.556  10.252  0.0335 -0.6671  1.0463
  236MPD1    C4 3582   1.181   0.677  10.217  0.3689 -0.8987  0.2889
  236MPD1    C5 3583   1.089   0.767  10.160  0.2749  0.3630 -0.0100
  236MPD1     H 3584   0.930   0.437  10.266  2.8935 -0.4445  1.6306
  236MPD1    H1 3585   1.286   0.700  10.235  0.5260  0.6828 -2.7097
  236MPD1    H2 3586   0.893   0.818  10.088  1.0012 -0.4480 -1.1114
  236MPD1    H3 3587   1.126   0.864  10.132  0.4725 -0.3135 -2.0765
  236MPD1     N 3588   1.204   0.451  10.299  0.0476  0.5121  0.3143
  236MPD1    H5 3589   1.305   0.453  10.292 -0.0637  0.7905 -1.1366
  236MPD1    N1 3590   0.759   0.598  10.145  0.1226 -0.3251 -0.1792
  236MPD1    H6 3591   0.707   0.685  10.138 -1.0980 -0.9473  1.1562
  236MPD1    H7 3592   0.709   0.527  10.198 -0.0050 -0.8302 -0.9766
  237MPD1     C 3593   1.254   4.469  15.480  0.0065 -0.0666  0.8329
  237MPD1    C1 3594   1.122   4.476  15.434  0.1236 -0.3471  0.1911
  237MPD1    C2 3595   1.066   4.355  15.382  0.0052 -0.3147  0.2843
  237MPD1    C3 3596   1.147   4.248  15.359  0.1732  0.1843  0.0065
  237MPD1    C4 3597   1.270   4.242  15.414  0.8699 -0.5294 -0.5502
  237MPD1    C5 3598   1.320   4.347  15.483 -0.1297 -0.8008  0.2051
  237MPD1     H 3599   0.964   4.361  15.348  0.0135 -0.6539  0.2055
  237MPD1    H1 3600   1.316   4.144  15.410  1.0489 -0.4013 -1.5966
  237MPD1    H2 3601   1.290   4.556  15.533  2.9166 -0.1835 -0.9359
  237MPD1    H3 3602   1.423   4.341  15.517 -0.7141 -1.2726  1.9088
  237MPD1     N 3603   1.104   4.128  15.305 -0.2053  0.0017 -0.5949
  237MPD1    H5 3604   1.170   4.051  15.309 -0.2771 -0.0782 -1.0163
  237MPD1    N1 3605   1.041   4.588  15.456 -0.8478  0.2480  0.0188
  237MPD1    H6 3606   1.090   4.674  15.431 -0.9294  1.0371  2.6046
  237MPD1    H7 3607   0.965   4.583  15.388  0.6318 -1.4399 -1.5109
  238MPD1     C 3608   3.060   1.716  14.764  0.0990 -0.6087 -0.9068
  238MPD1    C1 3609   2.963   1.631  14.804 -0.0958  0.7998 -0.3953
  238MPD1    C2 3610   2.841   1.680  14.839  0.4755 -0.3437  0.2696
  238MPD1    C3 3611   2.818   1.815  14.829 -0.2991  0.2134 -0.2870
  238MPD1    C4 3612   2.918   1.904  14.788 -0.5389 -0.7790  0.0907
  238MPD1    C5 3613   3.040   1.853  14.758  0.5199 -0.7695 -0.3086
  238MPD1     H 3614   2.757   1.612  14.853 -1.5595  1.4990 -2.9570
  238MPD1    H1 3615   2.926   2.012  14.779  0.2441 -0.8298  0.1588
  238MPD1    H2 3616   3.162   1.689  14.739 -0.0602 -1.9561 -0.1103
  238MPD1    H3 3617   3.125   1.918  14.739  1.0400 -1.3087  0.1559
  238MPD1     N 3618   2.687   1.863  14.854 -0.4582  0.2525 -0.8912
  238MPD1    H5 3619   2.660   1.954  14.816  0.7183  2.0304  2.5440
  238MPD1    N1 3620   2.984   1.492  14.806  0.0448 -0.5315 -0.3779
  238MPD1    H6 3621   3.071   1.470  14.854  0.0517  1.3319  0.4547
  238MPD1    H7 3622   2.917   1.448  14.869  0.8108 -0.2394  0.6464
  239MPD1     C 3623   1.756   2.284  13.743  0.0236 -0.1494 -1.0655
  239MPD1    C1 3624   1.798   2.325  13.863  0.5523 -0.2122  0.2778
  239MPD1    C2 3625   1.926   2.374  13.877 -0.6679 -0.0062  0.7201
  239MPD1    C3 3626   2.000   2.408  13.769 -0.6483 -0.0909  0.5804
  239MPD1    C4 3627   1.952   2.379  13.645  0.6214  0.2353  0.2883
  239MPD1    C5 3628   1.832   2.316  13.626  0.0685  0.6451 -0.1992
  239MPD1     H 3629   1.954   2.404  13.978  2.2943 -0.6642  0.1007
  239MPD1    H1 3630   2.020   2.395  13.562  1.7736  1.2994  1.4259
  239MPD1    H2 3631   1.667   2.222  13.730 -1.1813  1.2258  0.5724
  239MPD1    H3 3632   1.794   2.283  13.530 -0.4042  3.3525 -0.9324
  239MPD1     N 3633   2.130   2.466  13.773  0.0189 -0.1667  0.7899
  239MPD1    H5 3634   2.163   2.509  13.688  0.5128 -2.6633 -0.2790
  239MPD1    N1 3635   1.723   2.303  13.979 -0.5313 -0.4222 -0.2824
  239MPD1    H6 3636   1.622   2.308  13.971 -0.5938  0.6472  1.0690
  239MPD1    H7 3637   1.757   2.378  14.039 -1.7126 -0.5714  0.5746
  240MPD1     C 3638   2.030   2.933  14.007  0.0111 -0.4797  0.2658
  240MPD1    C1 3639   2.020   2.963  14.141  0.1957  1.0362  0.2765
  240MPD1    C2 3640   1.973   2.869  14.228 -0.2166  0.4681 -0.0436
  240MPD1    C3 3641   1.949   2.745  14.183  0.5684  0.1769 -0.5064
  240MPD1    C4 3642   1.970   2.708  14.051 -0.4599  0.6848 -0.3080
  240MPD1    C5 3643   1.998   2.806  13.960  0.5190 -0.3332 -0.2954
  240MPD1     H 3644   1.950   2.888  14.332  1.8689 -0.4691  0.5871
  240MPD1    H1 3645   1.972   2.602  14.027  3.4011  0.5355  0.5656
  240MPD1    H2 3646   2.063   3.003  13.931  1.3481 -1.2640  0.1130
  240MPD1    H3 3647   2.020   2.780  13.857 -4.1675 -1.0455 -1.0915
  240MPD1     N 3648   1.923   2.643  14.279  0.6715 -0.0049  0.2830
  240MPD1    H5 3649   1.930   2.660  14.379 -0.7650  0.9258  0.2258
  240MPD1    N1 3650   2.068   3.087  14.191  0.0251  0.0095  0.0742
  240MPD1    H6 3651   2.065   3.152  14.112  0.7699 -0.5958 -0.4457
  240MPD1    H7 3652   2.002   3.124  14.259  0.6968 -2.2514  1.9727
  241MPD1     C 3653   2.283   2.571  15.047 -0.2811 -0.6563 -0.2297
  241MPD1    C1 3654   2.164   2.502  15.069  0.8620  0.0273 -0.2789
  241MPD1    C2 3655   2.082   2.476  14.962  0.0108  0.4161 -0.6432
  241MPD1    C3 3656   2.134   2.482  14.832 -0.2686  0.6205 -0.4044
  241MPD1    C4 3657   2.254   2.545  14.814  0.1237  0.1897 -0.1659
  241MPD1    C5 3658   2.325   2.588  14.918  0.4126 -0.4418  0.3900
  241MPD1     H 3659   1.981   2.438  14.976 -0.9895  3.3300 -0.0812
  241MPD1    H1 3660   2.294   2.549  14.713 -0.5759  3.3955 -0.2980
  241MPD1    H2 3661   2.356   2.606  15.119 -0.3436  0.8440 -0.8886
  241MPD1    H3 3662   2.417   2.637  14.886 -0.8701  0.8419 -1.3622
  241MPD1     N 3663   2.072   2.442  14.711 -0.0046 -0.7025  0.9141
  241MPD1    H5 3664   2.121   2.462  14.625 -0.5393 -0.7470  0.6033
  241MPD1    N1 3665   2.113   2.501  15.205 -0.1932  0.5476 -0.5806
  241MPD1    H6 3666   2.048   2.423  15.205 -0.7084  0.9681 -0.4856
  241MPD1    H7 3667   2.179   2.495  15.282  0.4513  0.1126 -1.1721
  242MPD1     C 3668   1.644   0.970  15.720  0.1753 -0.2750 -0.3282
  242MPD1    C1 3669   1.740   1.054  15.674  0.1166  0.4727  0.6335
  242MPD1    C2 3670   1.792   1.032  15.550  1.0104 -0.5246  0.3707
  242MPD1    C3 3671   1.738   0.940  15.465  0.3393  0.0894  0.2349
  242MPD1    C4 3672   1.630   0.866  15.507  0.0521 -0.5129 -0.0122
  242MPD1    C5 3673   1.592   0.877  15.638  0.4074 -0.0632  0.6782
  242MPD1     H 3674   1.878   1.091  15.524  2.0360 -0.7365  3.2531
  242MPD1    H1 3675   1.584   0.792  15.443 -1.6055  1.4346 -1.0535
  242MPD1    H2 3676   1.615   0.972  15.824  0.9629 -0.0722 -0.1117
  242MPD1    H3 3677   1.512   0.820  15.683 -2.2327  2.5042 -0.7794
  242MPD1     N 3678   1.776   0.928  15.328  1.3977  0.3850 -0.3446
  242MPD1    H5 3679   1.727   0.863  15.267  1.1926 -1.0826  1.3811
  242MPD1    N1 3680   1.803   1.140  15.770 -0.1208  0.0419  0.5767
  242MPD1    H6 3681   1.855   1.218  15.730  2.2763 -1.1850  1.3585
  242MPD1    H7 3682   1.728   1.176  15.829 -0.3525 -0.0350  0.3289
  243MPD1     C 3683   3.008   3.858  17.651  0.1187  0.2335 -0.0964
  243MPD1    C1 3684   3.033   3.952  17.552 -0.1144  0.1968  0.3029
  243MPD1    C2 3685   3.151   3.948  17.481 -0.3324 -0.4301 -0.9990
  243MPD1    C3 3686   3.229   3.834  17.498  0.0023 -0.0009 -0.4602
  243MPD1    C4 3687   3.184   3.727  17.566  0.1081  0.2331  0.1342
  243MPD1    C5 3688   3.070   3.736  17.642 -0.4056  0.1871  0.3192
  243MPD1     H 3689   3.177   4.027  17.412  1.6301  0.2199  0.4647
  243MPD1    H1 3690   3.236   3.632  17.578 -0.8927 -0.2320  0.8845
  243MPD1    H2 3691   2.927   3.872   0.029  1.6496 -4.3662  2.5753
  243MPD1    H3 3692   3.042   3.664   0.025 -1.5957  0.3200  0.0133
  243MPD1     N 3693   3.347   3.828  17.410  0.1918  0.3376 -0.4243
  243MPD1    H5 3694   3.367   3.908  17.352 -0.6014 -0.7481 -2.2159
  243MPD1    N1 3695   2.961   4.067  17.554 -0.4051 -0.1829 -0.2100
  243MPD1    H6 3696   2.953   4.107  17.461  0.1216 -0.6956 -0.4714
  243MPD1    H7 3697   2.866   4.047  17.585 -0.8586  0.0681 -1.4357
  244MPD1     C 3698   4.299   3.793  17.678 -0.2896 -0.3968 -0.0498
  244MPD1    C1 3699   4.184   3.809   0.054  0.4591 -0.4400  0.1170
  244MPD1    C2 3700   4.069   3.814  17.668  0.3124  0.5784 -0.4525
  244MPD1    C3 3701   4.060   3.776  17.536 -0.2944  0.3055  0.3434
  244MPD1    C4 3702   4.182   3.748  17.473 -0.1122  0.9088  0.1268
  244MPD1    C5 3703   4.293   3.753  17.550 -0.2436 -0.6594  0.3738
  244MPD1     H 3704   3.982   3.848   0.031  0.8502 -0.2726  0.8983
  244MPD1    H1 3705   4.202   3.710  17.374  0.8861  1.6657  0.0395
  244MPD1    H2 3706   4.391   3.796   0.042 -1.6995  1.6883  2.1326
  244MPD1    H3 3707   4.388   3.722  17.506 -0.5279 -0.7553 -0.1737
  244MPD1     N 3708   3.934   3.762  17.471 -0.1072 -0.1786  0.3498
  244MPD1    H5 3709   3.855   3.779  17.532 -1.2966  3.0907 -2.1249
  244MPD1    N1 3710   4.191   3.856   0.184  0.0835  0.5767 -0.3975
  244MPD1    H6 3711   4.279   3.839   0.231  0.0776  1.4933 -0.0560
  244MPD1    H7 3712   4.117   3.819   0.244  1.5189 -1.2535  0.2499
  245MPD1     C 3713   0.858   0.201  12.995 -0.0771 -0.0459 -0.0347
  245MPD1    C1 3714   0.732   0.200  13.048 -0.0131 -0.1461 -0.3238
  245MPD1    C2 3715   0.699   0.304  13.133 -0.1032  0.6961 -0.5831
  245MPD1    C3 3716   0.795   0.400  13.172 -0.2340  0.2171 -0.0175
  245MPD1    C4 3717   0.916   0.404  13.109  0.0629  0.4234 -0.1002
  245MPD1    C5 3718   0.943   0.305  13.016 -0.2162 -0.0547 -1.2107
  245MPD1     H 3719   0.594   0.311  13.160 -0.2477  1.1528 -1.2591
  245MPD1    H1 3720   0.984   0.487  13.121  0.4602 -0.0404  0.8571
  245MPD1    H2 3721   0.890   0.140  12.911 -0.8365 -1.2155  0.5346
  245MPD1    H3 3722   1.026   0.307  12.946 -0.5367  0.6129 -1.5854
  245MPD1     N 3723   0.749   0.502  13.259  0.0939  0.2332 -0.4317
  245MPD1    H5 3724   0.663   0.486  13.311  0.9675 -1.5941  0.4402
  245MPD1    N1 3725   0.653   0.101  12.992  0.0834 -0.6695 -0.0468
  245MPD1    H6 3726   0.571   0.076  13.046  0.7000 -4.0010 -0.6469
  245MPD1    H7 3727   0.705   0.015  12.980 -0.5502 -1.2118  1.1550
  246MPD1     C 3728   0.983   2.077   9.534  0.1127  0.2528  0.0621
  246MPD1    C1 3729   0.961   1.935   9.515  0.0004  0.1107  0.3258
  246MPD1    C2 3730   0.912   1.891   9.394  0.0711 -0.0227 -0.4399
  246MPD1    C3 3731   0.876   1.984   9.295 -0.2677  0.2160 -0.5553
  246MPD1    C4 3732   0.885   2.122   9.315 -0.3624  0.4123  0.4146
  246MPD1    C5 3733   0.945   2.169   9.434  0.4774 -0.3747 -0.6763
  246MPD1     H 3734   0.915   1.783   9.392 -1.1845 -0.0666  0.2982
  246MPD1    H1 3735   0.864   2.196   9.239  3.0148  2.7531  1.8039
  246MPD1    H2 3736   1.022   2.122   9.625  1.0881 -1.3850  0.4640
  246MPD1    H3 3737   0.975   2.273   9.441  1.3462 -0.7154  0.6258
  246MPD1     N 3738   0.822   1.935   9.169 -0.4646 -0.6012 -0.2723
  246MPD1    H5 3739   0.791   1.839   9.153  0.4642 -1.1345  1.1064
  246MPD1    N1 3740   1.029   1.847   9.606  0.0276  0.5426 -0.5069
  246MPD1    H6 3741   1.008   1.895   9.694 -1.4987 -0.6634 -0.2022
  246MPD1    H7 3742   0.979   1.759   9.619 -0.9549  1.8335  4.6522
  247MPD1     C 3743   4.684   4.225  16.653  0.2275  0.3301  0.4484
  247MPD1    C1 3744   0.097   4.202  16.654  0.2873  0.3290  0.5640
  247MPD1    C2 3745   0.156   4.181  16.530  0.3727  0.3978 -0.1211
  247MPD1    C3 3746   0.088   4.210  16.416 -0.3926  0.0499  0.0725
  247MPD1    C4 3747   4.686   4.252  16.422 -0.2499  0.0818 -0.5310
  247MPD1    C5 3748   4.613   4.242  16.537 -0.3447  0.8051 -0.4127
  247MPD1     H 3749   0.261   4.157  16.530  0.6664  1.7040 -1.2530
  247MPD1    H1 3750   4.634   4.277  16.330 -0.6964  1.8907  0.2203
  247MPD1    H2 3751   4.631   4.231  16.747  0.3018 -0.6701  0.5564
  247MPD1    H3 3752   4.506   4.246  16.523  0.0724  0.5575 -3.6644
  247MPD1     N 3753   0.146   4.190  16.287  0.5528 -0.3632 -0.3129
  247MPD1    H5 3754   0.092   4.234  16.214  1.4954  0.1134 -0.7183
  247MPD1    N1 3755   0.159   4.168  16.777  0.1497  0.2001 -0.0886
  247MPD1    H6 3756   0.259   4.178  16.764  0.6638 -2.0650  2.0484
  247MPD1    H7 3757   0.124   4.225  16.854  0.2984  1.6656 -1.1136
  248MPD1     C 3758   1.609   4.426  17.590 -0.7714  0.4049 -0.4754
  248MPD1    C1 3759   1.518   4.515  17.641  0.4138  0.4285 -0.6433
  248MPD1    C2 3760   1.494   4.517   0.085 -0.6262  0.2636 -0.3109
  248MPD1    C3 3761   1.555   4.423   0.172  0.5167 -0.0086 -0.0753
  248MPD1    C4 3762   1.644   4.331   0.122  0.0151 -0.6062  0.0774
  248MPD1    C5 3763   1.666   4.339  17.681 -0.3400 -0.6673  0.2868
  248MPD1     H 3764   1.425   4.596   0.114  1.3277  1.5728  0.7431
  248MPD1    H1 3765   1.702   4.257   0.176  0.6855 -1.1013 -1.3393
  248MPD1    H2 3766   1.626   4.415  17.484 -0.0654 -1.5121 -0.1549
  248MPD1    H3 3767   1.733   4.263  17.642 -0.1874 -1.4442  2.0563
  248MPD1     N 3768   1.531   4.432   0.306  0.8941 -0.0653 -0.0593
  248MPD1    H5 3769   1.453   4.490   0.336  0.3741 -0.4160 -0.7109
  248MPD1    N1 3770   1.478   4.619  17.557  0.1702  0.4730 -0.4135
  248MPD1    H6 3771   1.384   4.654  17.575 -0.3790 -1.0808 -0.2139
  248MPD1    H7 3772   1.472   4.580  17.464 -3.1887  0.5386 -0.2323
  249MPD1     C 3773   1.025   2.540  10.275  0.7666 -0.9221 -0.1740
  249MPD1    C1 3774   1.031   2.498  10.146  0.0033 -0.2332 -0.7548
  249MPD1    C2 3775   1.134   2.550  10.069  0.8640 -0.9988  0.9694
  249MPD1    C3 3776   1.216   2.654  10.114 -0.4055 -0.3132 -0.0474
  249MPD1    C4 3777   1.215   2.681  10.251  0.1272  0.0198  0.9384
  249MPD1    C5 3778   1.114   2.630  10.325 -0.1050  0.4342  0.5304
  249MPD1     H 3779   1.144   2.511   9.969  1.6530  1.7512 -0.0320
  249MPD1    H1 3780   1.270   2.759  10.302 -1.0063  1.9971 -0.8841
  249MPD1    H2 3781   0.947   2.498  10.337 -0.5880 -0.0948 -1.3253
  249MPD1    H3 3782   1.102   2.653  10.430 -1.6729  3.0440 -0.2208
  249MPD1     N 3783   1.298   2.718  10.015 -0.7335  0.2551  0.0014
  249MPD1    H5 3784   1.277   2.699   9.918  1.2027  2.4652 -0.8532
  249MPD1    N1 3785   0.970   2.378  10.103  0.2151  0.3739  0.5174
  249MPD1    H6 3786   0.956   2.382  10.002 -1.7928 -0.7192  0.7429
  249MPD1    H7 3787   0.883   2.362  10.152  0.1511 -0.2206  0.2241
  250MPD2     C 3788   3.875   3.615  13.201  0.1272  0.0111 -0.3988
  250MPD2    C1 3789   3.753   3.639  13.136  0.5006  0.0524  0.5836
  250MPD2    C2 3790   3.663   3.530  13.128 -0.4347  0.2545  0.0374
  250MPD2    C3 3791   3.692   3.409  13.188  0.1474 -0.4680 -0.1083
  250MPD2    C4 3792   3.821   3.381  13.232 -0.7117 -0.5949 -0.0171
  250MPD2    C5 3793   3.908   3.489  13.243 -0.3992  0.7653 -0.1130
  250MPD2     H 3794   3.567   3.554  13.085  0.0719  1.6798 -0.2634
  250MPD2    H1 3795   3.849   3.284  13.272  1.5091 -0.3105 -0.8764
  250MPD2    H2 3796   3.950   3.689  13.223  1.1452 -0.7759 -1.2355
  250MPD2    H3 3797   4.011   3.482  13.277 -0.9644 -0.4972  1.3320
  250MPD2     N 3798   3.598   3.305  13.174  0.1172  0.4091  0.3061
  250MPD2    H5 3799   3.626   3.212  13.204 -0.6461  0.3892  0.9912
  250MPD2    N1 3800   3.735   3.769  13.095 -0.2087 -0.1049  0.8629
  250MPD2    H7 3801   3.810   3.835  13.114 -0.6793  0.0384  2.2285
  251TMC3    C1 3802   3.617   3.968  13.071  0.1946  0.7045  1.1171
  251TMC3    C2 3803   3.498   4.032  13.067  0.0477  0.6090  1.1499
  251TMC3    C3 3804   3.483   4.162  13.032 -0.6553 -0.2192  0.1795
  251TMC3    C4 3805   3.721   4.027  13.016 -0.1605  0.4687  0.6460
  251TMC3    C5 3806   3.703   4.156  12.974  0.0584  0.0291 -0.6267
  251TMC3    C6 3807   3.591   4.230  12.982 -0.3825 -0.1799 -0.2145
  251TMC3     C 3808   3.612   3.828  13.083 -0.0572  1.0858  0.1960
  251TMC3     O 3809   3.506   3.776  13.112 -0.1462 -0.0108 -0.2350
  251TMC3     H 3810   3.405   3.981  13.092 -0.0152 -0.0194 -0.3779
  251TMC3    H1 3811   3.819   3.980  13.017 -0.0303  0.7093 -0.8069
  251TMC3    H2 3812   3.581   4.322  12.926  0.4372 -0.4787 -0.8578
  251TMC3    C7 3813   3.826   4.233  12.965 -0.1063 -0.3283  0.1256
  251TMC3    C8 3814   3.352   4.223  13.020 -1.3519 -0.0761 -0.4382
  251TMC3    O1 3815   3.923   4.174  12.922 -0.1784 -0.2567  0.0407
  251TMC3    O2 3816   3.256   4.143  13.008  0.6108  0.3895  0.2887
  252TMC3    C1 3817   0.137   4.177   9.827 -0.5608 -0.0903  0.0890
  252TMC3    C2 3818   0.053   4.276   9.793 -0.1765 -0.8467 -0.0363
  252TMC3    C3 3819   4.658   4.236   9.731 -0.1147  0.4640  0.4329
  252TMC3    C4 3820   0.108   4.043   9.813  0.8259 -0.6315  0.0081
  252TMC3    C5 3821   4.705   4.012   9.770  0.1730 -0.2341 -0.1236
  252TMC3    C6 3822   4.621   4.110   9.722 -0.0297 -0.4168  0.3493
  252TMC3     C 3823   0.248   4.215   9.909 -0.4134 -0.1145 -0.7980
  252TMC3     O 3824   0.264   4.339   9.924  0.7293 -0.2057 -0.2578
  252TMC3     H 3825   0.077   4.381   9.803 -1.9898 -0.2724 -1.8781
  252TMC3    H1 3826   0.174   3.960   9.838 -0.3510 -0.5269  3.4323
  252TMC3    H2 3827   4.519   4.095   9.688 -0.7810  2.5049  1.2822
  252TMC3    C7 3828   4.651   3.875   9.782 -0.7876 -0.8416  0.7461
  252TMC3    C8 3829   4.562   4.335   9.685  0.6070 -0.3784  0.3574
  252TMC3    O1 3830   0.008   3.787   9.818 -0.2578  0.1315 -0.4435
  252TMC3    O2 3831   4.506   4.303   9.582 -0.0748 -0.4355  0.0886
  253MPD2     C 3832   0.204   3.333  15.561  0.4261 -0.0737  0.7162
  253MPD2    C1 3833   0.069   3.376  15.566 -0.5259 -0.5396  1.9601
  253MPD2    C2 3834   4.719   3.377  15.683  0.2216 -0.5369  0.5845
  253MPD2    C3 3835   0.056   3.338  15.799 -0.2726 -0.8793 -0.0374
  253MPD2    C4 3836   0.184   3.293  15.797 -0.1347 -0.2515  0.0455
  253MPD2    C5 3837   0.259   3.286  15.679 -0.1160  0.6312  0.2502
  253MPD2     H 3838   4.612   3.394  15.678  0.4690 -0.1200 -3.2370
  253MPD2    H1 3839   0.239   3.246  15.878  0.1958 -0.2051 -0.1533
  253MPD2    H2 3840   0.260   3.336  15.468  1.1909  1.6862  1.2316
  253MPD2    H3 3841   0.353   3.230  15.679 -0.9654 -0.8079  1.6749
  253MPD2     N 3842   4.711   3.337  15.920 -1.0944 -0.1612  0.2685
  253MPD2    H5 3843   0.032   3.290  15.999 -1.8318 -1.9277 -0.3888
  253MPD2    N1 3844   4.713   3.406  15.455  0.0031  0.3732  0.0415
  253MPD2    H7 3845   4.613   3.408  15.475  0.1269  2.0122  0.5340
  254TMC3    C1 3846   4.566   3.407  16.101 -0.3235 -0.9918  0.1703
  254TMC3    C2 3847   4.435   3.426  16.139  0.4145  0.3388 -0.0029
  254TMC3    C3 3848   4.405   3.467  16.259  0.0858  0.4398  0.1926
  254TMC3    C4 3849   4.668   3.420  16.200 -0.0957  0.1130 -0.2555
  254TMC3    C5 3850   4.630   3.451  16.328 -0.1856  0.6646  0.7766
  254TMC3    C6 3851   4.499   3.485  16.359 -0.5347 -0.0704  0.1947
  254TMC3     C 3852   4.591   3.393  15.957 -0.0611 -0.1687 -0.9252
  254TMC3     O 3853   4.510   3.454  15.891 -0.2774 -0.1173  0.5009
  254TMC3     H 3854   4.354   3.411  16.069 -0.5440 -0.9583  1.3806
  254TMC3    H1 3855   0.046   3.393  16.171  0.7014  0.4833  2.1904
  254TMC3    H2 3856   4.496   3.544  16.450  1.2286  1.1432 -0.5416
  254TMC3    C7 3857   0.002   3.455  16.439  0.0735  0.0049  0.2087
  254TMC3    C8 3858   4.271   3.519  16.281 -0.0767 -0.7671 -0.0736
  254TMC3    O1 3859   4.673   3.457  16.549 -0.3470 -0.0164 -0.2827
  254TMC3    O2 3860   4.183   3.513  16.197 -0.2252  0.1827 -0.1844
  255MPD2     C 3861   2.255   1.831   9.693  0.0500  0.1397  1.0675
  255MPD2    C1 3862   2.379   1.806   9.745 -0.5769  0.8026  0.0585
  255MPD2    C2 3863   2.482   1.733   9.686 -0.5016  0.3891  0.5223
  255MPD2    C3 3864   2.456   1.692   9.554  0.3687  0.1870 -0.7505
  255MPD2    C4 3865   2.330   1.707   9.501 -0.2617  0.2413  0.3549
  255MPD2    C5 3866   2.230   1.767   9.572 -0.1554 -0.3877  0.0753
  255MPD2     H 3867   2.575   1.709   9.736 -0.3490  0.5952  0.3373
  255MPD2    H1 3868   2.304   1.667   9.403  1.7591  2.2581 -0.9906
  255MPD2    H2 3869   2.181   1.891   9.744  0.8157  0.8328  1.3631
  255MPD2    H3 3870   2.129   1.769   9.533  0.5396 -1.3199 -1.7462
  255MPD2     N 3871   2.566   1.636   9.487  0.1518  0.2372  0.1933
  255MPD2    H5 3872   2.650   1.611   9.538 -0.0014  0.1295  0.3917
  255MPD2    N1 3873   2.402   1.865   9.875  0.1285 -0.0427 -0.1644
  255MPD2    H7 3874   2.325   1.928   9.895  0.7930  1.1191 -1.2288
  256TMC3    C1 3875   2.520   1.955  10.059  0.9668  0.0658  0.0896
  256TMC3    C2 3876   2.624   2.045  10.041  0.3506  0.5861  0.3518
  256TMC3    C3 3877   2.601   2.176  10.055  0.4563 -0.1940  0.1148
  256TMC3    C4 3878   2.399   2.003  10.086 -0.0704 -0.2465 -0.2961
  256TMC3    C5 3879   2.371   2.142  10.101  0.6388  0.2460  0.1202
  256TMC3    C6 3880   2.476   2.230  10.086 -0.3150  0.0791  0.4264
  256TMC3     C 3881   2.515   1.853   9.955 -0.7341  0.9160 -0.9888
  256TMC3     O 3882   2.606   1.771   9.958  0.2672 -0.3936 -0.0190
  256TMC3     H 3883   2.716   1.999  10.008  0.3686 -0.2288  1.5417
  256TMC3    H1 3884   2.316   1.934  10.078  0.5994 -0.8301 -2.3041
  256TMC3    H2 3885   2.448   2.334  10.084 -0.0040  0.1770  1.0364
  256TMC3    C7 3886   2.251   2.187  10.035 -1.2521 -0.2150  0.2380
  256TMC3    C8 3887   2.693   2.270   9.991 -0.1964 -0.5095 -0.2454
  256TMC3    O1 3888   2.218   2.117   9.942  0.0985  0.4238 -0.3794
  256TMC3    O2 3889   2.661   2.388  10.006  0.3840 -0.2515 -0.1983
  257MPD2     C 3890   2.106   3.045  12.956 -0.1925  0.1692  0.8574
  257MPD2    C1 3891   2.228   3.086  12.905 -0.2894  0.0945  0.2938
  257MPD2    C2 3892   2.350   3.033  12.961 -0.2436  0.6281  0.4127
  257MPD2    C3 3893   2.348   2.941  13.059  0.2072  0.0147 -0.2351
  257MPD2    C4 3894   2.225   2.895  13.099 -0.3597  0.2881 -0.4892
  257MPD2    C5 3895   2.105   2.939  13.048 -0.1430 -0.3644 -0.2286
  257MPD2     H 3896   2.441   3.078  12.923 -1.3774  2.9079  0.3669
  257MPD2    H1 3897   2.218   2.811  13.167  1.5273 -0.6914 -1.5181
  257MPD2    H2 3898   2.019   3.095  12.914  1.4482  0.1877 -2.5573
  257MPD2    H3 3899   2.008   2.905  13.082 -1.6684 -0.4132 -4.6056
  257MPD2     N 3900   2.464   2.902  13.124 -0.2729 -0.0224 -0.2354
  257MPD2    H5 3901   2.551   2.952  13.110 -0.0829 -0.2180  0.2277
  257MPD2    N1 3902   2.227   3.197  12.812 -0.3557  0.2652  0.1116
  257MPD2    H7 3903   2.137   3.240  12.792  0.9406  2.5557 -0.7320
  258TMC3    C1 3904   2.618   2.811  13.280  0.3542 -0.3366 -0.1817
  258TMC3    C2 3905   2.708   2.912  13.268  0.5493  0.8621 -0.2891
  258TMC3    C3 3906   2.808   2.914  13.351 -0.0040  0.2695  0.2982
  258TMC3    C4 3907   2.640   2.713  13.376  0.0357  0.2947  0.3948
  258TMC3    C5 3908   2.753   2.711  13.456  0.2197  0.4268 -0.5296
  258TMC3    C6 3909   2.843   2.809  13.440 -0.1286  0.4610 -0.2909
  258TMC3     C 3910   2.484   2.809  13.219  0.8452 -0.2983  0.4779
  258TMC3     O 3911   2.399   2.738  13.268  0.4538 -0.0055  0.4142
  258TMC3     H 3912   2.684   3.001  13.211  0.6574 -0.1480 -1.9213
  258TMC3    H1 3913   2.568   2.636  13.401  0.4170 -0.1976 -0.0346
  258TMC3    H2 3914   2.910   2.828  13.523  0.9518  0.2274 -1.1211
  258TMC3    C7 3915   2.751   2.622  13.573 -1.0494 -0.4328 -0.3507
  258TMC3    C8 3916   2.882   3.035  13.351  0.4421  0.0557 -0.3894
  258TMC3    O1 3917   2.648   2.564  13.605  0.4143  0.0832 -0.1711
  258TMC3    O2 3918   2.822   3.139  13.327 -0.1432 -0.3247 -0.0771
  259MPD2     C 3919   2.232   4.365   1.437 -0.0445 -0.3140 -0.0289
  259MPD2    C1 3920   2.148   4.456   1.368  0.2175 -0.4762  1.2224
  259MPD2    C2 3921   2.178   4.494   1.238 -0.8357  0.0086  0.4847
  259MPD2    C3 3922   2.265   4.428   1.153 -0.4570  0.1724  0.0354
  259MPD2    C4 3923   2.348   4.341   1.227 -0.5627 -0.0558  0.0462
  259MPD2    C5 3924   2.333   4.307   1.362 -0.5393 -0.4461  0.0059
  259MPD2     H 3925   2.111   4.569   1.198 -0.3252 -0.5892 -1.4856
  259MPD2    H1 3926   2.441   4.301   1.189 -1.1457 -1.4551  0.1020
  259MPD2    H2 3927   2.213   4.352   1.543  0.4708 -1.0099 -0.0227
  259MPD2    H3 3928   2.405   4.234   1.397  1.6881  2.5999  1.7876
  259MPD2     N 3929   2.274   4.457   1.017  0.3915 -0.2779  0.0541
  259MPD2    H5 3930   2.217   4.539   0.998 -1.0948 -0.9759  1.4879
  259MPD2    N1 3931   2.039   4.517   1.440 -0.0837  0.3888  0.7145
  259MPD2    H7 3932   2.059   4.530   1.538  1.9505  1.4549  0.1596
  260TMC3    C1 3933   2.367   4.455   0.795  0.3080  0.0207  0.0111
  260TMC3    C2 3934   2.370   4.589   0.764  0.3699  0.5517  0.1007
  260TMC3    C3 3935   2.407   4.628   0.642 -0.0253 -0.4173 -0.1834
  260TMC3    C4 3936   2.402   4.358   0.701  0.5977 -0.0105 -0.1645
  260TMC3    C5 3937   2.437   4.403   0.577 -0.7324  0.7641 -0.4945
  260TMC3    C6 3938   2.434   4.537   0.547  0.4656  0.5159  0.5501
  260TMC3     C 3939   2.356   4.399   0.923  0.9286  0.1577 -0.0037
  260TMC3     O 3940   2.415   4.298   0.952  0.7311  0.5767  0.4162
  260TMC3     H 3941   2.351   4.666   0.838 -2.0847 -0.2871  0.3404
  260TMC3    H1 3942   2.395   4.251   0.717 -4.1609  0.7808  3.0545
  260TMC3    H2 3943   2.453   4.564   0.443 -0.3429  0.6503  0.4384
  260TMC3    C7 3944   2.447   4.307   0.469  0.0471  0.0377 -0.5948
  260TMC3    C8 3945   2.394   0.047   0.600  0.7619  0.2129 -0.0397
  260TMC3    O1 3946   2.458   4.364   0.359 -0.7329 -0.2766 -0.7196
  260TMC3    O2 3947   2.310   0.117   0.660 -0.5855 -0.2871  0.4616
  261MPD2     C 3948   2.921   3.049  12.733 -0.9035 -0.7469 -0.2961
  261MPD2    C1 3949   3.019   3.143  12.753  0.5308 -0.2119 -0.2712
  261MPD2    C2 3950   3.036   3.228  12.642  0.3583 -0.0775 -0.8684
  261MPD2    C3 3951   2.968   3.218  12.526  0.1900  0.0260 -0.2339
  261MPD2    C4 3952   2.872   3.119  12.512  0.5363  0.1251  0.3089
  261MPD2    C5 3953   2.852   3.042  12.618  0.4510  0.3014  0.2492
  261MPD2     H 3954   3.118   3.299  12.651  0.8093 -0.4250 -2.0980
  261MPD2    H1 3955   2.809   3.111  12.424  2.9093 -1.6591 -1.2551
  261MPD2    H2 3956   2.899   2.971  12.805 -1.0140 -2.1141 -1.8246
  261MPD2    H3 3957   2.785   2.958  12.605 -0.8206  1.1901  1.1625
  261MPD2     N 3958   2.994   3.303  12.421 -0.2207 -0.3166  0.3791
  261MPD2    H5 3959   3.052   3.385  12.436  0.1804 -0.2194 -1.7940
  261MPD2    N1 3960   3.096   3.161  12.871  0.1120 -0.2982  0.1403
  261MPD2    H7 3961   3.185   3.207  12.858 -0.6306  0.4369 -2.1696
  262TMC3    C1 3962   3.013   3.380  12.195  0.1940 -0.4937 -0.4504
  262TMC3    C2 3963   3.014   3.511  12.216  0.5943  0.0880  0.1499
  262TMC3    C3 3964   3.054   3.594  12.118 -0.3428  0.1120  0.2431
  262TMC3    C4 3965   3.039   3.333  12.068 -0.5354  0.3178  0.2420
  262TMC3    C5 3966   3.055   3.419  11.969  0.0002  0.4305 -0.0955
  262TMC3    C6 3967   3.060   3.550  11.989 -0.0795  0.7479  0.3409
  262TMC3     C 3968   2.957   3.284  12.289  0.3249 -0.0848  0.0561
  262TMC3     O 3969   2.916   3.176  12.244 -0.3753  0.4938  0.1804
  262TMC3     H 3970   3.013   3.543  12.320 -1.3372 -0.7464  0.4007
  262TMC3    H1 3971   3.035   3.227  12.045 -0.8936  0.5796 -0.8945
  262TMC3    H2 3972   3.086   3.625  11.915  1.7831  1.1299  1.3801
  262TMC3    C7 3973   3.061   3.362  11.832 -0.3500  0.2756  0.4906
  262TMC3    C8 3974   3.008   3.730  12.120  0.1103  0.3587 -0.0938
  262TMC3    O1 3975   3.101   3.247  11.833 -0.4627  0.6664 -0.0645
  262TMC3    O2 3976   3.058   3.811  12.198  1.0522 -0.3802  0.4755
  263MPD2     C 3977   3.557   2.602  11.443  0.0864 -0.8081  0.0074
  263MPD2    C1 3978   3.687   2.593  11.398  0.2456 -0.5595 -0.0381
  263MPD2    C2 3979   3.726   2.648  11.276 -0.2057  0.3243  0.1793
  263MPD2    C3 3980   3.631   2.725  11.211 -0.2993 -0.9628  0.5816
  263MPD2    C4 3981   3.503   2.749  11.264 -0.4833  0.6872  0.0399
  263MPD2    C5 3982   3.465   2.687  11.380  0.0795 -0.5023  0.1707
  263MPD2     H 3983   3.827   2.650  11.235 -0.3154 -0.7730 -0.1238
  263MPD2    H1 3984   3.425   2.809  11.218 -1.2522 -1.5136 -1.5149
  263MPD2    H2 3985   3.523   2.542  11.527 -2.1559  1.2426  0.5749
  263MPD2    H3 3986   3.361   2.682  11.410 -0.4077  0.0850 -1.3943
  263MPD2     N 3987   3.662   2.800  11.097  0.3304  0.5706  0.0930
  263MPD2    H5 3988   3.588   2.857  11.059  0.1967 -1.0518 -2.0844
  263MPD2    N1 3989   3.769   2.520  11.484  0.1381 -0.2797 -0.7748
  263MPD2    H7 3990   3.723   2.489  11.570  0.2744  0.9850 -0.2520
  264TMC3    C1 3991   3.779   2.906  10.938 -0.3380  0.2058 -0.5538
  264TMC3    C2 3992   3.699   3.016  10.959 -0.4736  0.3025  0.6266
  264TMC3    C3 3993   3.695   3.120  10.872  0.2680  0.0945 -0.2358
  264TMC3    C4 3994   3.839   2.888  10.815 -0.2904  0.4010 -0.1265
  264TMC3    C5 3995   3.826   2.988  10.722 -0.0984  0.3082  1.0458
  264TMC3    C6 3996   3.747   3.099  10.747 -0.3318  0.2207  0.4482
  264TMC3     C 3997   3.776   2.800  11.033 -0.2153 -0.0909 -0.1863
  264TMC3     O 3998   3.861   2.714  11.027 -0.3041 -0.3808  0.6482
  264TMC3     H 3999   3.651   3.039  11.054  0.6439 -1.5681  1.6374
  264TMC3    H1 4000   3.895   2.796  10.801  0.1879  0.0661  3.9699
  264TMC3    H2 4001   3.727   3.172  10.669  0.0838  0.1782  0.3009
  264TMC3    C7 4002   3.941   3.010  10.650  0.2410  0.5361 -0.0115
  264TMC3    C8 4003   3.737   3.254  10.906 -0.1659 -0.4147  0.6048
  264TMC3    O1 4004   3.998   2.918  10.594 -0.5693  0.0080  0.3502
  264TMC3    O2 4005   3.813   3.306  10.827 -0.1256 -0.4158  0.4833
  265MPD2     C 4006   1.561   2.766  15.525 -0.6929 -0.7282 -0.0250
  265MPD2    C1 4007   1.586   2.875  15.441  0.2882 -0.0337  0.2879
  265MPD2    C2 4008   1.659   2.848  15.322 -0.8104  0.4458 -0.1618
  265MPD2    C3 4009   1.702   2.723  15.290 -0.0584  0.3049 -0.2919
  265MPD2    C4 4010   1.679   2.622  15.382 -0.4662  0.4854 -0.3568
  265MPD2    C5 4011   1.607   2.644  15.498 -0.9982  0.8008 -0.7285
  265MPD2     H 4012   1.693   2.933  15.264  1.3859  0.2447  0.8202
  265MPD2    H1 4013   1.717   2.522  15.362 -1.1285 -0.0548  1.1395
  265MPD2    H2 4014   1.508   2.784  15.618 -2.5738 -1.8568 -0.8757
  265MPD2    H3 4015   1.588   2.571  15.576  1.0670 -0.1478 -1.1213
  265MPD2     N 4016   1.766   2.686  15.175  0.2895 -0.1366  0.0214
  265MPD2    H5 4017   1.766   2.587  15.152 -0.1117 -0.1043 -0.1159
  265MPD2    N1 4018   1.551   3.006  15.471 -0.1667  0.1864 -0.0885
  265MPD2    H7 4019   1.567   3.075  15.399 -2.5721 -0.3077 -1.1311
  266TMC3    C1 4020   1.454   3.193  15.562 -0.2738 -0.2592 -0.5505
  266TMC3    C2 4021   1.457   3.284  15.662  0.6182 -0.0930 -0.0431
  266TMC3    C3 4022   1.404   3.409  15.637  0.7522 -0.0271  0.0447
  266TMC3    C4 4023   1.417   3.229  15.435 -0.5380  0.3025 -0.6916
  266TMC3    C5 4024   1.361   3.347  15.409 -0.7966 -0.8392  0.8101
  266TMC3    C6 4025   1.360   3.442  15.509  0.9333  0.1264  0.9234
  266TMC3     C 4026   1.505   3.056  15.589 -0.2546 -0.1842  0.1669
  266TMC3     O 4027   1.503   3.003  15.696  0.4322  0.1857  0.6420
  266TMC3     H 4028   1.487   3.258  15.763 -1.7323 -0.5291  0.5258
  266TMC3    H1 4029   1.397   3.152  15.360  3.3088 -1.2125 -0.1824
  266TMC3    H2 4030   1.321   3.541  15.490  0.3174  0.0029  1.5829
  266TMC3    C7 4031   1.275   3.363  15.301  0.4195  0.5927  0.6556
  266TMC3    C8 4032   1.393   3.502  15.748 -0.6201  0.6572 -0.2296
  266TMC3    O1 4033   1.211   3.260  15.265 -0.3731 -0.3762  0.0264
  266TMC3    O2 4034   1.407   3.621  15.723 -0.1105 -0.2053 -0.2010
  267MPD2     C 4035   4.417   4.479   0.028  0.0975  0.0462  0.4081
  267MPD2    C1 4036   4.468   4.610   0.033  1.2339  0.3881 -0.5352
  267MPD2    C2 4037   4.395   4.710  17.665  0.2992  0.2945 -0.1800
  267MPD2    C3 4038   4.270   4.680  17.595 -0.1326 -0.0050  0.5100
  267MPD2    C4 4039   4.227   4.552  17.588  1.0386 -0.0788 -0.3625
  267MPD2    C5 4040   4.301   4.455  17.651 -0.0025  0.1132 -0.1359
  267MPD2     H 4041   4.429   0.090  17.663  2.5592 -0.4885 -2.1205
  267MPD2    H1 4042   4.130   4.524  17.549  1.0187  0.6342 -0.8166
  267MPD2    H2 4043   4.468   4.391   0.065 -0.8787 -0.7375 -0.1197
  267MPD2    H3 4044   4.247   4.360  17.655 -2.0794  1.2842 -0.1160
  267MPD2     N 4045   4.183   0.055  17.540 -0.2765 -0.0165  0.1306
  267MPD2    H5 4046   4.090   0.025  17.513 -0.2433  0.9668 -1.0873
  267MPD2    N1 4047   4.592   4.625   0.102  0.0191 -0.1810 -0.0970
  267MPD2    H7 4048   4.616   4.555   0.172 -0.9551  0.6706  1.0892
  268TMC3    C1 4049   0.061   0.005   0.189  0.1140  0.1260  0.3008
  268TMC3    C2 4050   0.105   0.127   0.237  0.2861 -0.1356 -0.2637
  268TMC3    C3 4051   0.182   0.137   0.345 -0.5278  0.7049  0.0571
  268TMC3    C4 4052   0.110   4.617   0.241 -0.8789 -0.0183  0.1923
  268TMC3    C5 4053   0.205   4.626   0.343  0.5520 -0.1356 -0.4888
  268TMC3    C6 4054   0.235   0.026   0.404  0.7176  0.4560  0.7509
  268TMC3     C 4055   4.677   0.010   0.089 -0.4686 -0.2978 -0.3734
  268TMC3     O 4056   4.676   0.111   0.021  0.6099 -0.2949  0.6988
  268TMC3     H 4057   0.089   0.219   0.182 -1.0221  1.6906  3.1593
  268TMC3    H1 4058   0.107   4.517   0.199 -1.1786  0.6868 -1.4496
  268TMC3    H2 4059   0.304   0.035   0.487  0.6189  1.5839  0.7152
  268TMC3    C7 4060   0.212   4.506   0.425 -0.1883  0.4201  0.4168
  268TMC3    C8 4061   0.216   0.263   0.406  0.6485 -0.9749 -0.6488
  268TMC3    O1 4062   0.114   4.430   0.432 -0.8142  0.2234 -0.3232
  268TMC3    O2 4063   0.322   0.267   0.467 -0.1382 -0.5162  0.5568
  269MPD2     C 4064   4.405   3.748  15.645  0.3840 -0.0373 -0.1444
  269MPD2    C1 4065   4.274   3.708  15.673  0.1169 -0.4344 -0.3842
  269MPD2    C2 4066   4.164   3.789  15.638 -1.3771 -0.1918  0.1856
  269MPD2    C3 4067   4.183   3.905  15.563  0.4048  0.0878  0.7278
  269MPD2    C4 4068   4.314   3.955  15.538 -0.3399 -0.9246  0.4192
  269MPD2    C5 4069   4.420   3.876  15.577 -0.8602 -0.0416  1.2182
  269MPD2     H 4070   4.065   3.747  15.652 -1.0532 -0.1531  2.5559
  269MPD2    H1 4071   4.321   4.054  15.494  2.7057 -0.7643  1.2713
  269MPD2    H2 4072   4.491   3.683  15.654 -0.2080 -0.7598  0.2495
  269MPD2    H3 4073   4.521   3.913  15.563 -0.3167 -0.8396  3.0982
  269MPD2     N 4074   4.067   3.977  15.534  0.4823 -0.4846 -0.3736
  269MPD2    H5 4075   3.982   3.952  15.584  0.3184 -0.8695 -0.8421
  269MPD2    N1 4076   4.256   3.582  15.739 -0.8410  0.2448  0.1710
  269MPD2    H7 4077   4.337   3.521  15.747 -1.9590 -1.0843  1.3448
  270TMC3    C1 4078   4.131   3.385  15.745 -0.6474  0.1579 -0.1138
  270TMC3    C2 4079   4.012   3.352  15.699  0.0126  0.2526  0.5863
  270TMC3    C3 4080   4.006   3.284  15.578 -0.0644 -0.9357  0.2984
  270TMC3    C4 4081   4.251   3.320  15.704 -0.6914 -0.2380  0.1137
  270TMC3    C5 4082   4.237   3.236  15.595 -0.0935 -1.7200 -0.0552
  270TMC3    C6 4083   4.119   3.221  15.525 -0.6691  0.2913 -0.5282
  270TMC3     C 4084   4.138   3.526  15.780  0.5207  0.2223 -0.0312
  270TMC3     O 4085   4.029   3.583  15.786 -0.5618 -0.5819 -0.2735
  270TMC3     H 4086   3.920   3.399  15.731  0.0233  1.0071 -0.4996
  270TMC3    H1 4087   4.348   3.346  15.745 -0.6362  0.6789 -0.6165
  270TMC3    H2 4088   4.120   3.159  15.436  0.4552  0.7282 -0.8172
  270TMC3    C7 4089   4.365   3.188  15.543  0.0155 -0.4431 -0.3339
  270TMC3    C8 4090   3.884   3.258  15.512  0.3180  0.4076  0.1098
  270TMC3    O1 4091   4.445   3.170  15.633 -0.5898  0.6282  0.3520
  270TMC3    O2 4092   3.781   3.275  15.577  0.2420  0.0517  0.1920
  271MPD2     C 4093   2.829   3.308  13.653  0.0156 -0.6058  0.1837
  271MPD2    C1 4094   2.769   3.279  13.773  0.2801 -0.1782 -1.3825
  271MPD2    C2 4095   2.635   3.305  13.789 -0.1253  0.1496  0.0762
  271MPD2    C3 4096   2.555   3.354  13.686 -0.4076  0.2446 -0.0667
  271MPD2    C4 4097   2.620   3.379  13.567  0.5390 -0.5434 -0.2614
  271MPD2    C5 4098   2.758   3.359  13.558  0.2445 -0.4877  0.8428
  271MPD2     H 4099   2.581   3.273  13.877  0.2494  1.7425  0.8788
  271MPD2    H1 4100   2.574   3.417  13.476 -1.3596  1.9043  1.7154
  271MPD2    H2 4101   2.933   3.309  13.622 -0.0809 -0.3040 -0.1378
  271MPD2    H3 4102   2.810   3.370  13.464  1.0392  1.1605  1.4760
  271MPD2     N 4103   2.413   3.374  13.710 -0.0440  0.6803  0.2471
  271MPD2    H5 4104   2.385   3.341  13.801 -0.1418 -1.4705 -0.5693
  271MPD2    N1 4105   2.850   3.227  13.878 -0.4496  0.5898 -0.2229
  271MPD2    H7 4106   2.798   3.223  13.965  0.9475 -1.6790  0.4880
  272TMC3    C1 4107   3.047   3.171  13.990 -0.0217 -0.5260  0.1864
  272TMC3    C2 4108   3.171   3.124  13.990  0.5470 -0.3278  0.6011
  272TMC3    C3 4109   3.235   3.099  14.107  0.0399  0.2787  0.0191
  272TMC3    C4 4110   2.983   3.196  14.109  0.3408  0.4133  0.1499
  272TMC3    C5 4111   3.046   3.152  14.223  0.3627  0.4754  0.0686
  272TMC3    C6 4112   3.174   3.108  14.227 -0.8712 -0.0705 -0.0675
  272TMC3     C 4113   2.984   3.184  13.867  0.4915 -0.0139  0.2836
  272TMC3     O 4114   3.054   3.176  13.763 -0.5496  0.4006 -0.2592
  272TMC3     H 4115   3.219   3.120  13.893  0.1367  0.7052  0.3587
  272TMC3    H1 4116   2.896   3.260  14.119  0.9302  1.5984 -2.3250
  272TMC3    H2 4117   3.231   3.076  14.313  0.6908 -1.8365 -1.7832
  272TMC3    C7 4118   2.981   3.181  14.345 -0.0185  0.6652 -0.2970
  272TMC3    C8 4119   3.365   3.043  14.093  0.1109  0.1303 -0.1914
  272TMC3    O1 4120   2.860   3.193  14.360 -0.3464  0.3293  0.6199
  272TMC3    O2 4121   3.413   3.030  13.980  0.1706 -0.2759 -0.1623
  273MPD2     C 4122   4.441   1.075  11.392  0.7727 -0.1233  0.6215
  273MPD2    C1 4123   4.519   1.179  11.429  0.1844  0.2353  0.6974
  273MPD2    C2 4124   4.533   1.288  11.346 -0.0011  0.5168 -0.2359
  273MPD2    C3 4125   4.499   1.281  11.212  0.7423 -0.5098  0.2624
  273MPD2    C4 4126   4.437   1.164  11.164 -0.1319 -0.2440 -0.1946
  273MPD2    C5 4127   4.392   1.073  11.261 -0.4029 -0.0583 -0.4090
  273MPD2     H 4128   4.586   1.370  11.393  2.3729 -0.1695 -1.6792
  273MPD2    H1 4129   4.416   1.140  11.060  0.8641 -0.1297 -0.4300
  273MPD2    H2 4130   4.423   0.981  11.443  0.5725 -0.2219  0.3636
  273MPD2    H3 4131   4.328   0.990  11.233 -0.0461 -0.9014  1.2834
  273MPD2     N 4132   4.532   1.386  11.122 -0.1839  0.4453  0.0048
  273MPD2    H5 4133   4.509   1.378  11.024 -1.6660  0.1866  0.3716
  273MPD2    N1 4134   4.574   1.197  11.556 -0.1215 -0.0392 -0.6189
  273MPD2    H7 4135   4.641   1.272  11.569 -0.0706 -0.4973  1.7649
  274TMC3    C1 4136   4.574   1.618  11.059 -0.2098  0.3359  1.0318
  274TMC3    C2 4137   4.483   1.619  10.965  0.8308 -0.1392 -0.2759
  274TMC3    C3 4138   4.456   1.739  10.905 -0.1620 -0.3429 -0.0400
  274TMC3    C4 4139   4.630   1.736  11.105  0.4823  0.0370 -0.4139
  274TMC3    C5 4140   4.607   1.858  11.033 -0.3102 -0.2283 -0.1209
  274TMC3    C6 4141   4.525   1.854  10.925  0.2162 -0.0925  0.0116
  274TMC3     C 4142   4.565   1.518  11.158 -0.2291 -0.7022 -0.6281
  274TMC3     O 4143   4.565   1.571  11.267 -0.2460 -0.0115 -0.0639
  274TMC3     H 4144   4.423   1.532  10.944  0.3351  0.2530 -0.4870
  274TMC3    H1 4145   4.692   1.729  11.194 -0.9049  1.5022  0.6525
  274TMC3    H2 4146   4.484   1.946  10.885 -1.5265 -0.1634  1.6306
  274TMC3    C7 4147   4.591   1.966  11.117 -1.0505 -0.0396  0.3901
  274TMC3    C8 4148   4.357   1.741  10.795  0.4272 -0.2056 -0.6748
  274TMC3    O1 4149   4.490   2.030  11.087  0.4050  0.0396  0.0821
  274TMC3    O2 4150   4.374   1.832  10.713 -0.2303  0.0411  0.6223
  275MPD2     C 4151   4.194   4.385  13.993  0.1993  0.0477 -0.1856
  275MPD2    C1 4152   4.200   4.260  14.055  0.0751 -0.0907 -0.3120
  275MPD2    C2 4153   4.122   4.160  13.992  0.1781  0.0345  0.5752
  275MPD2    C3 4154   4.039   4.181  13.886 -0.0803 -0.5273  0.4495
  275MPD2    C4 4155   4.056   4.300  13.815 -0.5430  0.1181  0.7074
  275MPD2    C5 4156   4.137   4.398  13.874 -0.1534  0.0762 -0.0256
  275MPD2     H 4157   4.116   4.061  14.035 -1.8818  0.1812  0.6509
  275MPD2    H1 4158   3.998   4.330  13.728  0.0357 -0.5910  0.0817
  275MPD2    H2 4159   4.246   4.467  14.041 -0.6482 -0.3271  1.3727
  275MPD2    H3 4160   4.140   4.500  13.838 -0.5728 -0.1756 -0.7695
  275MPD2     N 4161   3.934   4.095  13.842  0.3729 -0.5506  0.9795
  275MPD2    H5 4162   3.874   4.130  13.768  1.8483 -0.3197 -0.1127
  275MPD2    N1 4163   4.280   4.228  14.161  0.1255  0.3436 -0.6762
  275MPD2    H7 4164   4.309   4.132  14.177 -0.2756  0.4215  0.4991
  276TMC3    C1 4165   4.423   4.261  14.334  0.4592  0.1860  0.0684
  276TMC3    C2 4166   4.514   4.162  14.298  1.0034 -0.0454 -0.5494
  276TMC3    C3 4167   4.612   4.129  14.389 -0.0557  0.3645 -0.4123
  276TMC3    C4 4168   4.438   4.333  14.458  0.2146  0.7029 -0.1057
  276TMC3    C5 4169   4.539   4.296  14.540 -0.3195  0.5666  0.3030
  276TMC3    C6 4170   4.626   4.196  14.506  0.4753 -0.0900  0.5475
  276TMC3     C 4171   4.331   4.320  14.242  0.3275  0.7913  0.0178
  276TMC3     O 4172   4.311   4.441  14.253 -0.1074  0.5602  0.2403
  276TMC3     H 4173   4.512   4.125  14.196  0.2172  0.3103 -0.6669
  276TMC3    H1 4174   4.365   4.412  14.472 -0.6569  0.0998 -1.1852
  276TMC3    H2 4175   4.703   4.172  14.579 -1.0718  0.8813  2.5099
  276TMC3    C7 4176   4.589   4.391  14.636 -0.6387  0.6532  0.5203
  276TMC3    C8 4177   4.676   4.000  14.399 -0.4604  0.4882 -0.2443
  276TMC3    O1 4178   4.694   4.367  14.698 -0.2965  0.0027 -0.0310
  276TMC3    O2 4179   4.697   3.937  14.298  0.1560  0.3116 -0.7436
  277MPD2     C 4180   1.837   3.134  13.399 -0.1534 -0.3023  0.6905
  277MPD2    C1 4181   1.738   3.174  13.478  0.2051 -0.5345 -0.5141
  277MPD2    C2 4182   1.696   3.083  13.579 -0.6547  0.3185  0.2357
  277MPD2    C3 4183   1.765   2.961  13.594 -0.4960  0.0107 -0.7076
  277MPD2    C4 4184   1.877   2.937  13.513  0.1393 -0.5202 -0.6108
  277MPD2    C5 4185   1.909   3.020  13.409  0.1001  0.3633 -0.2896
  277MPD2     H 4186   1.597   3.099  13.620 -1.0835 -0.2955 -0.5351
  277MPD2    H1 4187   1.937   2.848  13.528  0.3257 -0.4333 -0.8407
  277MPD2    H2 4188   1.868   3.191  13.312  0.4150 -0.6197  0.6903
  277MPD2    H3 4189   1.994   2.988  13.349 -2.0494 -1.6696 -2.1990
  277MPD2     N 4190   1.723   2.884  13.702 -0.5869 -0.4025  0.0540
  277MPD2    H5 4191   1.642   2.916  13.755 -0.8523 -1.8703  0.5274
  277MPD2    N1 4192   1.668   3.292  13.446 -0.1989  0.0075  0.3270
  277MPD2    H7 4193   1.697   3.342  13.363  2.6918 -0.8453  0.8176
  278TMC3    C1 4194   1.686   2.709  13.834 -0.1956 -0.1596 -0.3943
  278TMC3    C2 4195   1.606   2.605  13.797  0.5417  0.1730 -0.1712
  278TMC3    C3 4196   1.506   2.569  13.888 -0.2838 -0.1846  0.3484
  278TMC3    C4 4197   1.662   2.789  13.945  0.4565  0.2513  0.0806
  278TMC3    C5 4198   1.558   2.754  14.029  0.5862 -0.2952  0.8519
  278TMC3    C6 4199   1.484   2.640  14.008 -0.0229  0.1976  0.4477
  278TMC3     C 4200   1.762   2.753  13.724 -0.5956  0.5897  0.6186
  278TMC3     O 4201   1.812   2.675  13.647 -0.0350 -0.1079  0.0775
  278TMC3     H 4202   1.639   2.544  13.713  0.0628  0.1272 -0.3237
  278TMC3    H1 4203   1.709   2.886  13.951  2.7685 -0.7997 -0.6607
  278TMC3    H2 4204   1.413   2.607  14.083 -0.0824 -0.6894 -0.0048
  278TMC3    C7 4205   1.514   2.853  14.120  0.2707 -0.1070  0.1730
  278TMC3    C8 4206   1.446   2.442  13.863 -0.3528  0.8181 -0.1195
  278TMC3    O1 4207   1.601   2.922  14.159  0.2020 -0.2323  0.3886
  278TMC3    O2 4208   1.441   2.366  13.960  0.0224 -0.1098  0.2485
  279MPD2     C 4209   1.169   3.136   0.147 -0.5437 -0.5898  0.0000
  279MPD2    C1 4210   1.178   3.244   0.233 -0.4680  0.4968 -0.2259
  279MPD2    C2 4211   1.149   3.364   0.176 -0.2844 -0.5539  0.0288
  279MPD2    C3 4212   1.123   3.393   0.039  0.2255 -1.1807  0.6539
  279MPD2    C4 4213   1.126   3.281  17.650 -0.1710 -0.1211  0.1568
  279MPD2    C5 4214   1.147   3.156   0.014 -0.7202  0.4371 -0.1444
  279MPD2     H 4215   1.148   3.442   0.251 -0.1356  1.0001 -1.5688
  279MPD2    H1 4216   1.093   3.286  17.547 -0.6924 -2.4127  0.2222
  279MPD2    H2 4217   1.194   3.036   0.182  2.6002  0.4968  0.8711
  279MPD2    H3 4218   1.137   3.075  17.635  0.3876 -1.9421  2.3743
  279MPD2     N 4219   1.100   3.520  17.681  0.2298  0.0807 -0.5135
  279MPD2    H5 4220   1.068   3.529  17.585 -0.7651 -0.3187 -0.2242
  279MPD2    N1 4221   1.188   3.230   0.373 -0.7171 -0.4956  0.2296
  279MPD2    H7 4222   1.189   3.139   0.419  1.1736 -1.5496 -1.8740
  280TMC3    C1 4223   1.145   3.304   0.589 -1.4566  0.3425 -0.2440
  280TMC3    C2 4224   1.052   3.205   0.597 -0.2853 -0.3768  1.1382
  280TMC3    C3 4225   0.929   3.241   0.647  0.3514  0.0186  0.1473
  280TMC3    C4 4226   1.131   3.423   0.660 -0.2850 -0.1992  0.3222
  280TMC3    C5 4227   1.007   3.458   0.698 -0.3694 -0.0384  0.8468
  280TMC3    C6 4228   0.907   3.367   0.697  0.3471 -0.1991 -0.1695
  280TMC3     C 4229   1.211   3.330   0.462  0.3298 -0.0199  0.2713
  280TMC3     O 4230   1.263   3.442   0.437 -0.5476 -0.2952 -0.0059
  280TMC3     H 4231   1.069   3.108   0.551 -2.2505  0.0058 -0.3753
  280TMC3    H1 4232   1.203   3.502   0.645 -0.3261 -0.4734 -1.3016
  280TMC3    H2 4233   0.810   3.393   0.739  1.4962  0.6410  1.9578
  280TMC3    C7 4234   0.981   3.589   0.747  0.3055  0.0904  0.5340
  280TMC3    C8 4235   0.821   3.146   0.644  0.0182 -0.3038 -0.3114
  280TMC3    O1 4236   1.075   3.655   0.793  0.4261 -0.1297 -0.1018
  280TMC3    O2 4237   0.706   3.187   0.655  0.2587 -0.3079  0.0360
  281TMC3    C1 4238   4.395   4.178  13.304  0.0057  0.3436  0.0200
  281TMC3    C2 4239   4.424   4.294  13.230  0.3063  0.6096  0.3235
  281TMC3    C3 4240   4.457   4.275  13.099 -0.5886 -0.0474 -0.6914
  281TMC3    C4 4241   4.416   4.051  13.251 -0.0126  0.4674  0.3172
  281TMC3    C5 4242   4.474   4.043  13.130 -0.6246  0.3847  0.1467
  281TMC3    C6 4243   4.482   4.155  13.048 -0.2846  0.9931  0.9333
  281TMC3     C 4244   4.273   4.188  13.378  0.0734 -0.1717 -0.3967
  281TMC3     O 4245   4.200   4.095  13.361  0.1043 -0.0033  0.2694
  281TMC3     H 4246   4.411   4.392  13.274 -0.2467  0.6494  0.0811
  281TMC3    H1 4247   4.394   3.963  13.311  0.5344  0.4356  0.4759
  281TMC3    H2 4248   4.518   4.149  12.946  0.6579  1.3470  1.2378
  281TMC3    C7 4249   4.554   3.927  13.102 -0.1227  0.4661  0.8177
  281TMC3    C8 4250   4.357   4.337  13.010  0.4472  0.0360 -1.0552
  281TMC3    O1 4251   4.660   3.947  13.042  0.2120 -0.9308  0.2787
  281TMC3    O2 4252   4.295   4.262  12.938 -0.2585 -0.2677 -0.8479
  282MPD2     C 4253   1.379   0.358  15.319  0.2216  0.6362 -0.5293
  282MPD2    C1 4254   1.246   0.402  15.335 -0.2157 -0.0509  0.6407
  282MPD2    C2 4255   1.174   0.429  15.224  0.7093 -1.0899  0.2955
  282MPD2    C3 4256   1.234   0.416  15.093 -0.7261 -0.1059 -0.1593
  282MPD2    C4 4257   1.365   0.387  15.084  0.7861  0.2079  0.1266
  282MPD2    C5 4258   1.432   0.349  15.194 -0.2263 -0.5785 -0.3390
  282MPD2     H 4259   1.071   0.463  15.227  1.6169  1.7102  0.3081
  282MPD2    H1 4260   1.423   0.379  14.992 -0.2137 -2.0762 -0.3138
  282MPD2    H2 4261   1.439   0.325  15.403  0.7874  0.0923 -1.1458
  282MPD2    H3 4262   1.539   0.332  15.182  0.1058  0.3668  1.3018
  282MPD2     N 4263   1.146   0.441  14.976  0.2601  0.4109 -0.2821
  282MPD2    H5 4264   1.051   0.468  15.000  0.7439 -1.0004  3.2014
  282MPD2    N1 4265   1.194   0.422  15.468 -0.4441  0.2173  0.5885
  282MPD2    H7 4266   1.095   0.444  15.480 -0.3450  1.0666 -0.1294
  283TMC3    C1 4267   1.189   0.420  15.693  0.4599 -0.1014 -0.8730
  283TMC3    C2 4268   1.235   0.493  15.794 -0.1653  0.7467 -0.3055
  283TMC3    C3 4269   1.146   0.527  15.899 -0.0616 -0.0408 -0.6097
  283TMC3    C4 4270   1.068   0.357  15.690 -0.3614 -0.3017  0.2961
  283TMC3    C5 4271   0.995   0.367  15.809  0.2552  0.1395 -0.6992
  283TMC3    C6 4272   1.030   0.457  15.913  0.2724 -0.4296 -0.0097
  283TMC3     C 4273   1.271   0.433  15.577  0.9746  0.4204  0.0085
  283TMC3     O 4274   1.393   0.449  15.579  0.2335  0.2486 -0.3590
  283TMC3     H 4275   1.323   0.557  15.790  1.1440 -0.9916  0.7451
  283TMC3    H1 4276   1.046   0.284  15.614  1.4099  0.9247 -1.4027
  283TMC3    H2 4277   0.973   0.460  16.006 -0.6282 -0.7890 -0.5444
  283TMC3    C7 4278   0.881   0.280  15.823 -0.5968  0.0281  0.2604
  283TMC3    C8 4279   1.162   0.650  15.970 -0.7281 -0.0590  0.0467
  283TMC3    O1 4280   0.839   0.268  15.941 -0.2326  0.7864  0.5994
  283TMC3    O2 4281   1.130   0.643  16.085 -0.3309  0.0703 -0.2925
  284MPD2     C 4282   4.453   4.072  12.242 -0.0249 -0.1392 -0.1730
  284MPD2    C1 4283   4.353   4.098  12.152  0.0182 -0.3336 -0.5339
  284MPD2    C2 4284   4.241   4.018  12.151 -0.1128  0.5400  1.0527
  284MPD2    C3 4285   4.228   3.906  12.232 -0.0486  0.7318  0.1644
  284MPD2    C4 4286   4.336   3.878  12.314 -0.6368 -0.3466 -0.1876
  284MPD2    C5 4287   4.445   3.956  12.315  0.3383  0.2249  0.1446
  284MPD2     H 4288   4.165   4.037  12.077  1.5013 -1.7474 -1.1941
  284MPD2    H1 4289   4.340   3.788  12.374 -2.6992 -1.1873 -1.2966
  284MPD2    H2 4290   4.541   4.133  12.261 -0.7557  0.7794  0.3007
  284MPD2    H3 4291   4.519   3.924  12.386 -1.2576 -1.5417  1.0256
  284MPD2     N 4292   4.118   3.813  12.233 -0.1360  0.1081 -0.3209
  284MPD2    H5 4293   4.134   3.732  12.292  1.3665 -0.6133 -1.7063
  284MPD2    N1 4294   4.368   4.200  12.058  0.3624  1.3268  0.1764
  284MPD2    H7 4295   4.296   4.213  11.988  0.0824 -2.5361 -0.2263
  285TMC3    C1 4296   4.472   4.375  11.933 -0.1074 -0.3175  0.3825
  285TMC3    C2 4297   4.391   4.335  11.832 -0.0008  0.1721 -0.0864
  285TMC3    C3 4298   4.369   4.415  11.724 -0.5681 -0.2371 -0.3816
  285TMC3    C4 4299   4.534   4.501  11.929 -0.1520  0.0970 -0.6543
  285TMC3    C5 4300   4.511   4.573  11.820 -0.3064 -0.0494  0.7433
  285TMC3    C6 4301   4.420   4.540  11.723  0.3303 -0.0672 -1.1842
  285TMC3     C 4302   4.468   4.290  12.050  0.5188 -0.7364  0.9657
  285TMC3     O 4303   4.537   4.338  12.139  0.0662 -0.2997  0.0165
  285TMC3     H 4304   4.351   4.235  11.824 -0.5444  0.3643  0.2406
  285TMC3    H1 4305   4.581   4.541  12.018 -1.4095 -0.8522  0.4238
  285TMC3    H2 4306   4.392   4.612  11.648 -2.0593 -0.7418 -0.9413
  285TMC3    C7 4307   4.616   4.651  11.763  0.0267 -0.0394  0.1307
  285TMC3    C8 4308   4.372   4.339  11.599  0.0696  0.1160 -0.1782
  285TMC3    O1 4309   4.610   4.665  11.641 -0.2088  0.3786 -0.0172
  285TMC3    O2 4310   4.295   4.243  11.597  0.2036  0.4561 -0.1495
  286MPD2     C 4311   0.295   3.414   2.004  0.0994 -1.3221 -0.3137
  286MPD2    C1 4312   0.251   3.442   1.875 -0.5441  0.5482  0.3574
  286MPD2    C2 4313   0.311   3.371   1.767 -0.1698  0.0399 -0.1280
  286MPD2    C3 4314   0.405   3.268   1.794 -0.2494  0.5753  0.7668
  286MPD2    C4 4315   0.447   3.251   1.926 -0.8933  0.6775  0.8430
  286MPD2    C5 4316   0.393   3.324   2.029 -0.1756  0.1951 -0.2692
  286MPD2     H 4317   0.278   3.391   1.666  1.3219  2.7338 -0.0957
  286MPD2    H1 4318   0.527   3.183   1.950 -1.5452 -1.1809 -2.2236
  286MPD2    H2 4319   0.261   3.477   2.086 -0.8109 -0.5980 -1.2360
  286MPD2    H3 4320   0.442   3.311   2.124 -0.8605 -1.5762 -0.1512
  286MPD2     N 4321   0.468   3.194   1.693 -0.4677 -0.1112  0.8437
  286MPD2    H5 4322   0.531   3.118   1.716 -2.4879 -2.1384 -0.2352
  286MPD2    N1 4323   0.151   3.530   1.838 -0.4027 -0.4534 -0.1630
  286MPD2    H7 4324   0.136   3.533   1.737 -0.9122 -3.5668 -0.1800
  287TMC3    C1 4325   0.589   3.151   1.494 -0.2046 -0.1049  0.4036
  287TMC3    C2 4326   0.572   3.106   1.367 -0.0351  0.5130  0.2729
  287TMC3    C3 4327   0.667   3.023   1.318  0.5015  0.1961  0.5925
  287TMC3    C4 4328   0.690   3.106   1.571  0.3175 -0.4214  0.3380
  287TMC3    C5 4329   0.774   3.011   1.522  0.1878  0.0958  0.6792
  287TMC3    C6 4330   0.768   2.968   1.394  0.3002  0.5605  0.5827
  287TMC3     C 4331   0.483   3.233   1.561  0.1359  0.1287  0.3505
  287TMC3     O 4332   0.419   3.321   1.502 -0.1668 -0.0363  0.0679
  287TMC3     H 4333   0.482   3.146   1.322  0.9484  2.8544  0.4250
  287TMC3    H1 4334   0.704   3.137   1.674 -2.9347  1.9534  0.0827
  287TMC3    H2 4335   0.843   2.906   1.347  0.7049 -0.0616  2.0668
  287TMC3    C7 4336   0.888   2.981   1.606  0.2802 -0.2916 -1.0025
  287TMC3    C8 4337   0.643   2.959   1.189 -0.0951  1.6338 -0.0010
  287TMC3    O1 4338   0.912   3.055   1.705 -0.2802  0.7984 -0.1383
  287TMC3    O2 4339   0.720   2.869   1.158 -0.3342 -0.6939  0.3826
  288TMC3    C1 4340   1.161   2.534  14.742  0.0694  0.5508  0.3999
  288TMC3    C2 4341   1.082   2.503  14.855  0.3782  0.2829  0.2762
  288TMC3    C3 4342   1.098   2.593  14.961  0.7715  0.2940  0.2832
  288TMC3    C4 4343   1.261   2.631  14.736 -0.4045  0.0990 -0.2967
  288TMC3    C5 4344   1.278   2.700  14.850 -0.1257 -0.0172  0.3108
  288TMC3    C6 4345   1.191   2.692  14.954  0.0311 -0.3136 -0.0147
  288TMC3     C 4346   1.132   2.465  14.619  0.7429 -0.2550 -0.1490
  288TMC3     O 4347   1.061   2.365  14.629  0.1368  0.2985 -0.1052
  288TMC3     H 4348   1.014   2.419  14.852  0.7140  0.0571 -0.8530
  288TMC3    H1 4349   1.330   2.635  14.653  1.4100 -1.0402  1.1485
  288TMC3    H2 4350   1.210   2.752  15.042  1.4439 -0.2625 -0.3567
  288TMC3    C7 4351   1.391   2.791  14.866 -0.1952 -0.3884 -0.2546
  288TMC3    C8 4352   1.049   2.554  15.097 -0.0868  1.1199  0.2188
  288TMC3    O1 4353   1.437   2.804  14.980 -0.6739  0.5498  0.1626
  288TMC3    O2 4354   1.120   2.576  15.191 -0.2758  0.3442 -0.2924
  289MPD2     C 4355   1.574   1.843  14.628  0.1550 -0.2373 -0.4991
  289MPD2    C1 4356   1.561   1.935  14.525 -1.0214  0.0708 -1.3457
  289MPD2    C2 4357   1.440   1.938  14.458  0.0540 -0.0612  0.0759
  289MPD2    C3 4358   1.343   1.854  14.495  0.0132 -0.0699  0.3382
  289MPD2    C4 4359   1.359   1.760  14.592  0.1059 -0.1112 -0.0234
  289MPD2    C5 4360   1.473   1.755  14.664 -0.6153 -0.3408  0.3454
  289MPD2     H 4361   1.416   2.012  14.383 -0.3456  0.1375  0.3977
  289MPD2    H1 4362   1.284   1.696  14.635  0.2275  1.0033  1.8544
  289MPD2    H2 4363   1.664   1.847  14.688 -0.2702  0.5870  0.0786
  289MPD2    H3 4364   1.483   1.704  14.759 -0.8237 -0.3474  0.3644
  289MPD2     N 4365   1.210   1.855  14.444 -0.1853 -0.1335 -0.8386
  289MPD2    H5 4366   1.154   1.774  14.467  0.7120  0.3035  2.9006
  289MPD2    N1 4367   1.657   2.040  14.521  0.2237 -0.0898  0.0570
  289MPD2    H7 4368   1.732   2.051  14.587 -1.5243  0.4979  1.9544
  290TMC3    C1 4369   1.004   1.962  14.368  0.2293 -0.1091  0.6256
  290TMC3    C2 4370   0.933   2.078  14.366  0.2413  0.1125  0.1222
  290TMC3    C3 4371   0.803   2.079  14.316  0.2075 -1.0915  0.3583
  290TMC3    C4 4372   0.949   1.834  14.333  0.1292  0.1179 -0.0036
  290TMC3    C5 4373   0.808   1.838  14.307 -0.2715  0.0331 -0.5392
  290TMC3    C6 4374   0.744   1.957  14.283 -0.8969 -0.1952  0.1264
  290TMC3     C 4375   1.147   1.970  14.394 -0.1139 -0.1573 -0.2074
  290TMC3     O 4376   1.190   2.083  14.399 -0.7798  0.6553  0.7304
  290TMC3     H 4377   0.988   2.167  14.395  0.1283  0.0185  0.6206
  290TMC3    H1 4378   1.011   1.745  14.339 -0.3003  0.1000  4.0141
  290TMC3    H2 4379   0.638   1.966  14.261 -0.9683 -0.7204  0.2577
  290TMC3    C7 4380   0.725   1.749  14.379  0.3063  0.7150 -0.4223
  290TMC3    C8 4381   0.732   2.198  14.277 -0.5294  0.0891  0.7721
  290TMC3    O1 4382   0.612   1.779  14.408 -0.3189 -0.2886  0.0538
  290TMC3    O2 4383   0.617   2.193  14.225 -0.1425 -0.1315 -0.5199
  291MPD2     C 4384   1.168   2.208  17.641  0.7311 -0.0057 -0.4933
  291MPD2    C1 4385   1.137   2.073  17.609 -0.1483 -0.0963 -0.2535
  291MPD2    C2 4386   1.143   2.034  17.480 -0.0292 -0.3797  0.1330
  291MPD2    C3 4387   1.191   2.107  17.377  0.0221 -0.5737 -0.3202
  291MPD2    C4 4388   1.217   2.239  17.406  0.7809 -0.2208  1.2031
  291MPD2    C5 4389   1.210   2.283  17.538  0.3380  0.1108  1.0126
  291MPD2     H 4390   1.110   1.934  17.453 -0.3399 -0.3644  0.4461
  291MPD2    H1 4391   1.238   2.311  17.327 -0.2317 -0.8202  0.3902
  291MPD2    H2 4392   1.160   2.249   0.048 -1.1240 -0.7779 -0.3285
  291MPD2    H3 4393   1.210   2.390  17.559 -1.0829  0.1623  0.7184
  291MPD2     N 4394   1.188   2.055  17.245 -0.3208  0.3204  0.1526
  291MPD2    H5 4395   1.202   2.117  17.166  1.1401  1.8607  1.6276
  291MPD2    N1 4396   1.083   1.974   0.012 -0.6922  0.1146 -0.1474
  291MPD2    H7 4397   1.046   1.888  17.666 -1.5479  0.4756 -0.1289
  292TMC3    C1 4398   1.038   1.866   0.210  0.5711 -0.3747  0.5444
  292TMC3    C2 4399   0.974   1.884   0.332 -0.1828 -0.6907  0.7596
  292TMC3    C3 4400   0.920   1.768   0.388  0.7637 -0.2214  0.3148
  292TMC3    C4 4401   1.059   1.743   0.156 -0.2189  0.2968  0.6475
  292TMC3    C5 4402   0.995   1.632   0.211  0.6047  0.3468  0.1643
  292TMC3    C6 4403   0.929   1.643   0.335 -0.4466  0.1887 -1.1324
  292TMC3     C 4404   1.069   1.991   0.144 -0.2473 -0.6127  0.4464
  292TMC3     O 4405   1.087   2.096   0.207  0.8953 -0.4634 -0.2528
  292TMC3     H 4406   0.948   1.985   0.358 -0.0026 -1.0338  2.2876
  292TMC3    H1 4407   1.120   1.723   0.068 -1.2513 -0.7149  0.1696
  292TMC3    H2 4408   0.895   1.555   0.388 -0.3445  0.7517 -0.1404
  292TMC3    C7 4409   0.965   1.514   0.134  0.5388  0.0182 -0.1851
  292TMC3    C8 4410   0.836   1.790   0.502  0.3039 -0.0353 -0.7929
  292TMC3    O1 4411   1.049   1.488   0.046 -0.0600  0.3810  0.6336
  292TMC3    O2 4412   0.784   1.900   0.511  0.4351  0.1216  0.2283
  293MPD2     C 4413   2.641   3.620  12.303 -0.6278 -0.0232 -0.7424
  293MPD2    C1 4414   2.577   3.500  12.342  0.1083 -0.7897  0.0546
  293MPD2    C2 4415   2.608   3.440  12.465 -0.1757 -0.5123  0.5123
  293MPD2    C3 4416   2.713   3.491  12.542 -1.7872 -0.0333 -0.4355
  293MPD2    C4 4417   2.791   3.595  12.494 -0.9304  0.4060  0.6157
  293MPD2    C5 4418   2.752   3.659  12.379 -0.2763 -0.1244 -0.7977
  293MPD2     H 4419   2.560   3.347  12.493 -2.1940  0.5828  0.6333
  293MPD2    H1 4420   2.879   3.634  12.545 -0.3411 -2.0823  1.4657
  293MPD2    H2 4421   2.617   3.676  12.214 -1.2828 -0.8397 -1.0809
  293MPD2    H3 4422   2.811   3.742  12.340  0.7924 -0.7155 -0.4474
  293MPD2     N 4423   2.725   3.440  12.675  0.1426 -0.4054  0.2792
  293MPD2    H5 4424   2.656   3.371  12.703 -1.3602  1.5114  1.3558
  293MPD2    N1 4425   2.472   3.462  12.259 -0.1775 -0.7569 -0.9085
  293MPD2    H7 4426   2.439   3.528  12.190 -2.4969 -0.9580  0.0062
  294TMC3    C1 4427   2.278   3.331  12.196  0.6599 -0.3702 -0.3622
  294TMC3    C2 4428   2.170   3.279  12.258 -0.4442 -0.2273 -0.3152
  294TMC3    C3 4429   2.051   3.263  12.189 -0.1788  0.3982 -0.0483
  294TMC3    C4 4430   2.277   3.361  12.063  0.0740 -0.0642 -0.2343
  294TMC3    C5 4431   2.157   3.341  11.996  0.1579 -0.1572  0.4224
  294TMC3    C6 4432   2.050   3.282  12.054 -0.5087  0.1862 -1.0447
  294TMC3     C 4433   2.399   3.346  12.276 -0.5174 -0.5387  0.8959
  294TMC3     O 4434   2.423   3.249  12.347 -0.1843 -0.5203  0.0971
  294TMC3     H 4435   2.161   3.271  12.365 -3.4436 -1.5605 -0.6641
  294TMC3    H1 4436   2.372   3.394  12.023  0.0303 -0.2388 -0.4760
  294TMC3    H2 4437   1.954   3.275  12.004 -1.4332  1.0428  0.6034
  294TMC3    C7 4438   2.157   3.335  11.859 -0.0032 -0.3251  0.1457
  294TMC3    C8 4439   1.950   3.189  12.252 -0.2202 -0.4754 -0.3869
  294TMC3    O1 4440   2.050   3.350  11.807 -0.2257 -0.1276  0.0753
  294TMC3    O2 4441   1.925   3.209  12.368 -0.2993  0.2416  0.3939
  295MPD2     C 4442   2.412   1.769   0.235 -0.0382  0.4431  0.0764
  295MPD2    C1 4443   2.479   1.883   0.257  0.3326 -0.0404 -0.2846
  295MPD2    C2 4444   2.431   1.973   0.350  0.0909  0.4442 -0.3002
  295MPD2    C3 4445   2.313   1.945   0.417 -0.5173 -0.8491 -0.0635
  295MPD2    C4 4446   2.254   1.820   0.395  0.5711 -0.0603  0.1678
  295MPD2    C5 4447   2.304   1.731   0.306  0.1871 -0.5229  1.1472
  295MPD2     H 4448   2.490   2.063   0.367  1.5898 -0.7351  0.6800
  295MPD2    H1 4449   2.159   1.798   0.443  0.1025  0.9620 -0.2783
  295MPD2    H2 4450   2.451   1.703   0.157  0.4158  1.0950 -0.2522
  295MPD2    H3 4451   2.251   1.636   0.295  0.1445 -0.3208 -0.3630
  295MPD2     N 4452   2.258   2.031   0.516  0.3133  0.1608 -0.5802
  295MPD2    H5 4453   2.178   1.997   0.568  0.2374 -0.5771 -1.1964
  295MPD2    N1 4454   2.591   1.925   0.181 -0.2567  0.1843  0.2434
  295MPD2    H7 4455   2.637   2.010   0.211  0.9132 -0.5459  0.5254
  296TMC3    C1 4456   2.259   2.232   0.645 -0.2434  0.3699 -0.5546
  296TMC3    C2 4457   2.284   2.366   0.643  0.9220 -0.0600  0.5103
  296TMC3    C3 4458   2.315   2.430   0.759  0.0871  0.1648 -0.4383
  296TMC3    C4 4459   2.238   2.165   0.764  0.4029 -0.2093 -0.1884
  296TMC3    C5 4460   2.250   2.241   0.874  0.4151 -0.3627 -0.2485
  296TMC3    C6 4461   2.302   2.368   0.877 -0.7682 -0.3638 -0.2791
  296TMC3     C 4462   2.305   2.162   0.525 -0.0329 -0.4586  0.2695
  296TMC3     O 4463   2.395   2.221   0.468 -0.0747 -0.5168 -0.2304
  296TMC3     H 4464   2.298   2.411   0.545 -3.0533  0.1673  0.0363
  296TMC3    H1 4465   2.226   2.057   0.764 -0.4224 -0.1180 -1.3502
  296TMC3    H2 4466   2.307   2.421   0.972 -0.0111 -0.4025 -0.2957
  296TMC3    C7 4467   2.226   2.199   1.009 -0.3439 -0.0273 -0.3339
  296TMC3    C8 4468   2.360   2.561   0.754  0.2175 -0.5720 -0.2422
  296TMC3    O1 4469   2.287   2.241   1.106  0.2376 -0.1045  0.0520
  296TMC3    O2 4470   2.300   2.632   0.673  0.6447  0.3416  0.2301
  297MPD2     C 4471   0.475   3.792  16.914 -0.0415  0.3887 -0.7756
  297MPD2    C1 4472   0.420   3.838  16.798  0.3512  0.1360  0.4696
  297MPD2    C2 4473   0.493   3.895  16.704 -0.3779  0.2134 -0.7673
  297MPD2    C3 4474   0.627   3.906  16.713  0.6948 -0.4745 -0.3107
  297MPD2    C4 4475   0.685   3.867  16.830 -0.6835  0.8827 -0.4001
  297MPD2    C5 4476   0.612   3.812  16.930 -0.1974 -0.4346  0.1188
  297MPD2     H 4477   0.456   3.921  16.606 -1.3300 -1.0000 -0.7210
  297MPD2    H1 4478   0.792   3.867  16.849 -0.7737  1.5943  0.1266
  297MPD2    H2 4479   0.410   3.742  16.985  0.9585  0.3175  0.0924
  297MPD2    H3 4480   0.653   3.773  17.023  0.4324  2.6223  1.1137
  297MPD2     N 4481   0.694   3.951  16.597 -0.5675  0.4842  0.3607
  297MPD2    H5 4482   0.652   3.990  16.513  0.1540  0.7436  0.1247
  297MPD2    N1 4483   0.278   3.847  16.778 -0.2559  0.5720 -0.8617
  297MPD2    H7 4484   0.242   3.882  16.690 -0.4556 -1.0367 -1.4262
  298TMC3    C1 4485   0.045   3.825  16.816  0.0063 -0.7413 -0.7722
  298TMC3    C2 4486   0.012   3.811  16.684 -0.6038 -0.2986 -0.3164
  298TMC3    C3 4487   4.608   3.847  16.641 -0.4512  0.1013  0.2760
  298TMC3    C4 4488   4.687   3.884  16.907  0.7324  0.0881 -0.1474
  298TMC3    C5 4489   4.566   3.941  16.859 -0.2854 -0.4134 -0.1267
  298TMC3    C6 4490   4.528   3.916  16.729  0.3992 -0.5402 -0.5287
  298TMC3     C 4491   0.182   3.803  16.863  0.2353  0.1668  0.3267
  298TMC3     O 4492   0.190   3.774  16.981 -0.4794 -0.2793  0.0295
  298TMC3     H 4493   0.075   3.754  16.617 -0.3901 -0.8218  0.3323
  298TMC3    H1 4494   0.001   3.907  17.007 -0.6014  1.1724  0.0904
  298TMC3    H2 4495   4.441   3.963  16.685 -0.0599 -0.5596  0.3423
  298TMC3    C7 4496   4.516   4.060  16.924 -0.3552  0.4027 -0.4549
  298TMC3    C8 4497   4.573   3.856  16.497 -0.2488 -0.0976 -0.4002
  298TMC3    O1 4498   4.576   4.100  17.028 -0.3548 -0.4582  0.0172
  298TMC3    O2 4499   4.457   3.896  16.471 -0.1542  0.1343  0.0375
  299MPD2     C 4500   0.857   3.103  10.798 -0.2533  0.4847 -0.2705
  299MPD2    C1 4501   0.837   3.238  10.781  0.5045 -0.0335 -0.0279
  299MPD2    C2 4502   0.759   3.284  10.678 -0.5610  0.5439 -0.5707
  299MPD2    C3 4503   0.688   3.191  10.599 -0.4294 -0.8508 -0.6581
  299MPD2    C4 4504   0.719   3.061  10.607 -0.1680  0.1823 -0.6888
  299MPD2    C5 4505   0.804   3.015  10.706 -0.7615  0.4678 -0.2894
  299MPD2     H 4506   0.742   3.390  10.663  1.0364  0.8174 -0.4606
  299MPD2    H1 4507   0.676   2.986  10.542 -0.0280 -0.6573  0.1947
  299MPD2    H2 4508   0.923   3.063  10.875 -0.0895 -1.8608 -1.6233
  299MPD2    H3 4509   0.836   2.912  10.715  1.7794  1.2590 -0.2280
  299MPD2     N 4510   0.587   3.219  10.507 -0.0822  0.0192  0.3799
  299MPD2    H5 4511   0.536   3.141  10.467 -1.0550  0.9771 -0.2616
  299MPD2    N1 4512   0.900   3.321  10.870  0.0424  0.1654  0.3364
  299MPD2    H7 4513   0.946   3.278  10.950  1.0359 -0.2571 -0.4724
  300TMC3    C1 4514   0.431   3.346  10.386 -0.1305 -0.1106  0.1627
  300TMC3    C2 4515   0.409   3.462  10.322  0.0671  0.2618 -0.7204
  300TMC3    C3 4516   0.288   3.515  10.307  0.2867  0.3496  0.0578
  300TMC3    C4 4517   0.330   3.269  10.430  1.2571 -0.0229  0.3724
  300TMC3    C5 4518   0.208   3.330  10.424 -0.1631 -0.2990 -0.1870
  300TMC3    C6 4519   0.179   3.446  10.355 -0.0283 -0.2082  0.5422
  300TMC3     C 4520   0.556   3.347  10.465  0.1734 -0.6673  0.5263
  300TMC3     O 4521   0.620   3.450  10.480 -0.3353 -0.1468 -0.3714
  300TMC3     H 4522   0.497   3.521  10.298 -0.7505  2.0507  0.7419
  300TMC3    H1 4523   0.347   3.179  10.489 -0.4125  0.6811  1.9395
  300TMC3    H2 4524   0.076   3.477  10.340  0.7716  3.3041  2.2355
  300TMC3    C7 4525   0.117   3.262  10.513 -0.1241  0.4604  0.0273
  300TMC3    C8 4526   0.273   3.654  10.281 -0.4202  0.5738  0.1603
  300TMC3    O1 4527   0.138   3.143  10.528  0.4788 -0.1736  0.0289
  300TMC3    O2 4528   0.380   3.722  10.298 -0.2864  0.0094  0.8615
  301MPD2     C 4529   2.957   0.073   1.901  0.3795 -0.0602 -0.2110
  301MPD2    C1 4530   2.936   0.063   1.766  0.3001  0.5253  0.2059
  301MPD2    C2 4531   3.027   0.002   1.688 -1.3909  0.1763  0.0662
  301MPD2    C3 4532   3.137   4.666   1.740  0.9144  0.6535 -0.6590
  301MPD2    C4 4533   3.158   4.662   1.875  0.4364 -0.2333  0.4480
  301MPD2    C5 4534   3.068   0.003   1.955  0.5042 -0.6810 -0.3007
  301MPD2     H 4535   2.996   0.007   1.585  0.5436  2.4966 -0.4025
  301MPD2    H1 4536   3.244   4.617   1.923  0.2397 -1.6146 -0.5035
  301MPD2    H2 4537   2.888   0.127   1.965  2.8783  0.1320  2.2761
  301MPD2    H3 4538   3.084   4.717   2.062  1.2607  1.9700 -0.2073
  301MPD2     N 4539   3.251   4.611   1.663 -0.6880 -0.7116  0.6377
  301MPD2    H5 4540   3.331   4.589   1.722 -0.3805 -1.7826 -0.1990
  301MPD2    N1 4541   2.821   0.118   1.707  0.5281 -0.0660 -0.4672
  301MPD2    H7 4542   2.814   0.116   1.606  1.3269  0.6089 -0.5302
  302TMC3    C1 4543   3.374   4.533   1.474 -0.1828 -0.3203  0.2099
  302TMC3    C2 4544   3.492   4.544   1.539  0.5391  0.0558  0.0255
  302TMC3    C3 4545   3.608   4.514   1.488 -1.0808  0.3518  0.4954
  302TMC3    C4 4546   3.377   4.510   1.338  0.4036  0.3266  0.4178
  302TMC3    C5 4547   3.498   4.485   1.285  0.5787 -0.0832  0.1779
  302TMC3    C6 4548   3.613   4.478   1.353  0.4927 -0.0431  0.4833
  302TMC3     C 4549   3.250   4.598   1.526 -0.3401 -0.2997 -0.1779
  302TMC3     O 4550   3.161   4.610   1.444  0.8282 -0.9646  0.1942
  302TMC3     H 4551   3.498   4.613   1.622  0.5865  0.3145 -0.1941
  302TMC3    H1 4552   3.282   4.513   1.285  0.0592 -1.6946  0.8879
  302TMC3    H2 4553   3.709   4.473   1.304  0.6991  0.8217  0.7904
  302TMC3    C7 4554   3.529   4.505   1.140  0.0282 -0.3093  0.4358
  302TMC3    C8 4555   3.732   4.568   1.545 -0.7817 -0.4078  0.2377
  302TMC3    O1 4556   3.642   4.473   1.105  0.3593 -0.0963 -0.6714
  302TMC3    O2 4557   3.812   4.605   1.462 -0.2920 -0.1436 -0.3149
  303MPD2     C 4558   3.107   3.186  10.046 -0.3644 -0.6389  0.7864
  303MPD2    C1 4559   2.981   3.166   9.989  0.5800 -0.1112 -0.4964
  303MPD2    C2 4560   2.910   3.274   9.943  1.0565  0.7579 -0.2870
  303MPD2    C3 4561   2.949   3.406   9.980 -0.2469  0.4605  0.1064
  303MPD2    C4 4562   3.074   3.430  10.034 -0.3499 -0.2998 -0.6142
  303MPD2    C5 4563   3.150   3.315  10.059  0.2249 -1.4284  0.7326
  303MPD2     H 4564   2.815   3.257   9.895  1.0343  1.1628 -0.3881
  303MPD2    H1 4565   3.108   3.529  10.063 -1.9432  0.0498  0.0604
  303MPD2    H2 4566   3.165   3.096  10.066 -0.7842 -1.6282 -2.4420
  303MPD2    H3 4567   3.241   3.339  10.114  0.2057 -1.1619  0.6473
  303MPD2     N 4568   2.878   3.530   9.951  0.1818 -0.1428 -0.5747
  303MPD2    H5 4569   2.924   3.616   9.976 -1.2183  1.1137 -2.3394
  303MPD2    N1 4570   2.927   3.037   9.981  0.3770  0.5051  0.2352
  303MPD2    H7 4571   2.960   2.980  10.059  3.0846  0.0839 -1.2077
  304TMC3    C1 4572   2.786   2.867   9.923 -0.8691 -0.0229  0.3967
  304TMC3    C2 4573   2.726   2.876  10.049 -0.4182 -0.0485 -0.0933
  304TMC3    C3 4574   2.640   2.781  10.086  0.0664 -0.9404 -0.6878
  304TMC3    C4 4575   2.754   2.775   9.834  0.4276  0.7163  0.7757
  304TMC3    C5 4576   2.661   2.681   9.870 -0.2594  0.4886  0.3075
  304TMC3    C6 4577   2.609   2.683   9.996  0.0175 -0.1573  0.7164
  304TMC3     C 4578   2.854   2.984   9.878 -0.3578  0.2552 -0.0132
  304TMC3     O 4579   2.841   3.028   9.767  0.1660 -0.4148 -0.3810
  304TMC3     H 4580   2.745   2.960  10.115 -2.0950  0.3940 -0.1817
  304TMC3    H1 4581   2.788   2.790   9.732  2.5486 -2.2240  1.0396
  304TMC3    H2 4582   2.558   2.592  10.026 -0.6857 -0.1483 -0.4231
  304TMC3    C7 4583   2.564   2.659   9.764 -0.0946  0.1316  1.2240
  304TMC3    C8 4584   2.518   2.830  10.141  0.1707 -0.3051 -0.1694
  304TMC3    O1 4585   2.612   2.648   9.652  0.9655  0.2018 -0.0093
  304TMC3    O2 4586   2.419   2.765  10.103 -0.3603 -0.4176  0.1230
  305MPD2     C 4587   1.123   0.516  13.760  0.1547  0.7236 -0.0315
  305MPD2    C1 4588   1.248   0.471  13.791 -0.3329  0.7845 -0.0310
  305MPD2    C2 4589   1.304   0.377  13.697 -0.2721 -0.3700 -0.4653
  305MPD2    C3 4590   1.232   0.328  13.584 -0.4703  0.0866  0.1415
  305MPD2    C4 4591   1.107   0.378  13.560  0.2439 -0.2232 -0.3413
  305MPD2    C5 4592   1.056   0.471  13.649  0.1078 -0.2851 -0.1876
  305MPD2     H 4593   1.396   0.324  13.719  0.1799  1.3286  1.6118
  305MPD2    H1 4594   1.052   0.339  13.475  0.1405 -1.2034  0.1667
  305MPD2    H2 4595   1.081   0.597  13.819 -2.3288 -1.8544  1.7437
  305MPD2    H3 4596   0.953   0.503  13.638 -0.0019 -1.2084 -1.8167
  305MPD2     N 4597   1.277   0.227  13.499 -0.1208 -0.4657 -1.3001
  305MPD2    H5 4598   1.219   0.210  13.418 -0.5431  2.7221 -1.6588
  305MPD2    N1 4599   1.316   0.521  13.905 -0.5321  0.9596  0.8411
  305MPD2    H7 4600   1.269   0.592  13.961  1.8331  2.3001  1.1321
  306TMC3    C1 4601   1.500   0.550  14.059  0.3789 -0.0011  0.1989
  306TMC3    C2 4602   1.636   0.528  14.072  0.0384  0.5205  0.0906
  306TMC3    C3 4603   1.691   0.520  14.195 -0.2035 -0.3649 -0.1942
  306TMC3    C4 4604   1.418   0.561  14.169  0.4230 -1.2789 -0.4326
  306TMC3    C5 4605   1.477   0.541  14.286  0.5813 -0.2933  0.7020
  306TMC3    C6 4606   1.609   0.517  14.310 -0.4185 -0.2710  0.3668
  306TMC3     C 4607   1.446   0.502  13.931 -0.3294  0.1010  0.7172
  306TMC3     O 4608   1.529   0.433  13.872 -0.5055  0.0353  0.1008
  306TMC3     H 4609   1.700   0.538  13.985 -0.7750  1.5947 -0.3762
  306TMC3    H1 4610   1.310   0.558  14.176  0.5514 -1.5673  1.5123
  306TMC3    H2 4611   1.657   0.504  14.406 -3.5171  2.4859  2.2762
  306TMC3    C7 4612   1.388   0.570  14.401 -0.1813  0.0703  0.7128
  306TMC3    C8 4613   1.815   0.460  14.208 -0.2411 -0.0380  0.2020
  306TMC3    O1 4614   1.285   0.634  14.380 -0.2414 -0.6659  0.2175
  306TMC3    O2 4615   1.833   0.383  14.301 -0.2116 -0.0219 -0.4772
  307MPD2     C 4616   3.554   1.987   0.864 -0.5573 -0.5518  0.2209
  307MPD2    C1 4617   3.550   2.116   0.902 -0.1887  0.2450 -1.0735
  307MPD2    C2 4618   3.419   2.172   0.920  0.8775  0.6132  0.2803
  307MPD2    C3 4619   3.306   2.085   0.915  0.6775  0.1693 -0.0764
  307MPD2    C4 4620   3.322   1.958   0.869  0.4853 -0.1352 -0.5634
  307MPD2    C5 4621   3.444   1.913   0.839 -0.3702 -0.0842  0.4896
  307MPD2     H 4622   3.404   2.277   0.945  2.2902  0.5098  1.5930
  307MPD2    H1 4623   3.239   1.891   0.852 -1.4967  2.6972 -1.9527
  307MPD2    H2 4624   3.648   1.936   0.846 -0.2779  0.2012 -0.4305
  307MPD2    H3 4625   3.457   1.807   0.817  1.1628  0.3904 -0.9219
  307MPD2     N 4626   3.181   2.148   0.945 -1.0798 -0.0270  0.0739
  307MPD2    H5 4627   3.189   2.245   0.973 -1.6199  0.1089 -0.2366
  307MPD2    N1 4628   3.663   2.206   0.913 -0.1205  0.0647 -0.2587
  307MPD2    H7 4629   3.649   2.307   0.912 -0.8683 -0.0447 -0.9668
  308TMC3    C1 4630   2.836   2.373   0.794  0.2978  0.2094  0.0907
  308TMC3    C2 4631   2.837   2.453   0.904 -0.9097  0.1407  0.3693
  308TMC3    C3 4632   2.884   2.400   1.023  0.0457  0.0697  0.6346
  308TMC3    C4 4633   2.886   2.248   0.794 -0.1007 -0.3590 -0.4192
  308TMC3    C5 4634   2.956   2.208   0.904  0.3277 -0.9377 -1.1283
  308TMC3    C6 4635   2.948   2.280   1.021  0.0051 -0.3638  0.6978
  308TMC3     C 4636   2.740   2.407   0.696 -0.3848  0.0793  0.7388
  308TMC3     O 4637   2.658   2.319   0.665  0.1107  0.2471  0.6642
  308TMC3     H 4638   2.785   2.548   0.903 -0.4221  0.4051 -0.1037
  308TMC3    H1 4639   2.890   2.201   0.696  0.1977  0.0366 -0.5986
  308TMC3    H2 4640   2.986   2.237   1.113 -0.8307  1.1991  1.7725
  308TMC3    C7 4641   3.058   2.099   0.898 -0.4431 -0.5925  0.8217
  308TMC3    C8 4642   2.939   2.478   1.130 -0.3408 -0.3677 -0.4493
  308TMC3    O1 4643   3.043   2.016   0.812  0.6273  0.3880  0.4831
  308TMC3    O2 4644   2.914   2.429   1.243 -0.1738  0.5053 -0.4920
  309MPD2     C 4645   3.395   3.485  17.085 -0.8490 -0.1860  0.7392
  309MPD2    C1 4646   3.341   3.564  16.984  0.3107  0.1460  0.2143
  309MPD2    C2 4647   3.228   3.640  16.997 -0.1334 -0.2016 -0.2560
  309MPD2    C3 4648   3.172   3.655  17.120 -0.1361  0.3375  0.0599
  309MPD2    C4 4649   3.218   3.582  17.230 -0.9445 -0.1738  0.6919
  309MPD2    C5 4650   3.325   3.493  17.209 -0.9433 -0.0673  0.3512
  309MPD2     H 4651   3.189   3.695  16.911 -1.6471 -0.9553 -0.0468
  309MPD2    H1 4652   3.151   3.586  17.315 -2.4077 -1.9584 -0.4029
  309MPD2    H2 4653   3.486   3.427  17.077 -0.2673  0.9153 -0.6694
  309MPD2    H3 4654   3.345   3.434  17.297 -1.2512  1.5267  1.4848
  309MPD2     N 4655   3.058   3.731  17.141  0.0762  0.2344  0.1552
  309MPD2    H5 4656   3.019   3.725  17.234 -0.2329 -1.1674 -0.0644
  309MPD2    N1 4657   3.394   3.572  16.856 -0.3099  0.3165 -0.2197
  309MPD2    H7 4658   3.338   3.611  16.781 -0.3188  1.9285  0.6274
  310TMC3    C1 4659   3.541   3.526  16.670 -0.1537 -0.2603  0.3196
  310TMC3    C2 4660   3.451   3.580  16.580  0.0624  0.4432 -0.4027
  310TMC3    C3 4661   3.475   3.553  16.452 -0.0462 -0.4701 -0.5781
  310TMC3    C4 4662   3.646   3.448  16.628  0.1939  0.1584 -0.4947
  310TMC3    C5 4663   3.665   3.430  16.501  0.3649  0.6861  1.0580
  310TMC3    C6 4664   3.577   3.483  16.403 -0.1294  0.3406 -0.0228
  310TMC3     C 4665   3.512   3.516  16.817  0.1592  0.5274 -0.3045
  310TMC3     O 4666   3.595   3.464  16.887  0.8868 -0.1740  0.4616
  310TMC3     H 4667   3.368   3.643  16.608 -0.7812 -0.5757 -0.6184
  310TMC3    H1 4668   3.714   3.403  16.699  0.1823 -0.6292 -0.9874
  310TMC3    H2 4669   3.587   3.476  16.296  1.7682  0.2402  0.1659
  310TMC3    C7 4670   3.740   3.315  16.477 -0.3249 -0.7038 -0.0044
  310TMC3    C8 4671   3.376   3.590  16.351 -0.5427  0.6238  0.1133
  310TMC3    O1 4672   3.719   3.229  16.564  0.8794 -0.2696 -0.1294
  310TMC3    O2 4673   3.410   3.591  16.237 -0.3992 -0.1462  0.1195
  311MPD2     C 4674   0.399   4.585  12.445  0.0884  0.6274 -0.3611
  311MPD2    C1 4675   0.398   4.706  12.505  0.5298 -0.2173  0.2491
  311MPD2    C2 4676   0.292   0.009  12.591 -0.0069 -0.5985 -0.2901
  311MPD2    C3 4677   0.191   4.640  12.611 -0.7273 -0.4296 -0.4368
  311MPD2    C4 4678   0.198   4.510  12.552  0.6830 -0.7071  0.1000
  311MPD2    C5 4679   0.308   4.490  12.474  1.0036  0.9192  0.1382
  311MPD2     H 4680   0.279   0.109  12.630  2.5732 -0.0152 -0.8790
  311MPD2    H1 4681   0.136   4.427  12.583  0.6046 -0.3008  1.0203
  311MPD2    H2 4682   0.487   4.546  12.396 -1.7943 -2.6534 -1.1445
  311MPD2    H3 4683   0.321   4.395  12.422 -0.3754  0.9977 -0.3344
  311MPD2     N 4684   0.078   4.689  12.683  0.0351 -0.6786  0.1357
  311MPD2    H5 4685   0.079   0.063  12.716  0.1030 -0.1468 -1.4181
  311MPD2    N1 4686   0.500   0.074  12.498  1.0063 -0.1167  0.3367
  311MPD2    H7 4687   0.477   0.149  12.562  1.1781  0.7120 -0.5641
  312TMC3    C1 4688   4.597   4.695  12.793 -1.1544  0.3811 -0.0697
  312TMC3    C2 4689   4.469   4.655  12.778  0.0037  0.3325 -0.0131
  312TMC3    C3 4690   4.371   0.005  12.847  0.3276 -0.2952 -0.4150
  312TMC3    C4 4691   4.632   0.077  12.880  0.4221 -0.3018  0.3924
  312TMC3    C5 4692   4.531   0.143  12.941  0.2717  0.6238  0.3505
  312TMC3    C6 4693   4.399   0.117  12.924  1.0709 -0.0498  0.6367
  312TMC3     C 4694   4.692   4.620  12.715  0.1155  0.3417 -0.7549
  312TMC3     O 4695   4.668   4.510  12.675  0.2906  0.2335 -0.0145
  312TMC3     H 4696   4.437   4.567  12.724 -0.3685  0.7498 -0.4789
  312TMC3    H1 4697   0.012   0.086  12.912  0.1724  1.0075  0.8107
  312TMC3    H2 4698   4.323   0.156  12.991  1.9145 -0.4704  1.8412
  312TMC3    C7 4699   4.565   0.239  13.045 -0.1822  0.5698 -0.2063
  312TMC3    C8 4700   4.233   4.688  12.807  0.1924  0.5852 -0.1927
  312TMC3    O1 4701   4.491   0.329  13.069  0.1392  0.5645 -0.1329
  312TMC3    O2 4702   4.210   4.575  12.761  0.2827 -0.3075  0.0251
  313MPD2     C 4703   4.460   4.218  10.808 -0.0573  0.0863  0.2182
  313MPD2    C1 4704   4.344   4.148  10.798  0.4324 -0.4494  0.4615
  313MPD2    C2 4705   4.332   4.063  10.685  0.0257  0.7133 -0.2024
  313MPD2    C3 4706   4.440   4.025  10.612  0.2853 -0.5540 -0.9648
  313MPD2    C4 4707   4.563   4.087  10.638 -0.0964 -0.7679  0.0898
  313MPD2    C5 4708   4.572   4.174  10.743  0.5672 -0.8897 -0.1517
  313MPD2     H 4709   4.233   4.024  10.663 -0.3118 -0.2361  3.0697
  313MPD2    H1 4710   4.649   4.061  10.577 -1.4864  0.0908 -2.2282
  313MPD2    H2 4711   4.467   4.297  10.882  0.0692 -0.4018  0.7318
  313MPD2    H3 4712   4.658   4.240  10.751  0.4627 -0.8199  0.4393
  313MPD2     N 4713   4.420   3.952  10.497  0.2344 -0.5812 -0.5544
  313MPD2    H5 4714   4.325   3.928  10.471  0.0263 -0.9372  0.5179
  313MPD2    N1 4715   4.225   4.174  10.879 -0.4130  0.1187  0.2534
  313MPD2    H7 4716   4.144   4.117  10.860 -0.0225  0.0649 -1.2621
  314TMC3    C1 4717   4.085   4.249  11.050  0.8507 -0.0956  0.3961
  314TMC3    C2 4718   4.100   4.294  11.172  0.0680  0.6943  0.0718
  314TMC3    C3 4719   3.995   4.358  11.232 -0.0425  0.8816 -0.0197
  314TMC3    C4 4720   3.968   4.268  10.979 -0.2506 -0.2009 -0.3758
  314TMC3    C5 4721   3.863   4.338  11.038  0.6606 -0.4419 -0.1257
  314TMC3    C6 4722   3.881   4.389  11.166 -0.0983 -0.5890  0.4703
  314TMC3     C 4723   4.211   4.261  10.980  0.1051 -0.4752 -0.4559
  314TMC3     O 4724   4.293   4.332  11.039  0.5625  0.3355 -0.2339
  314TMC3     H 4725   4.197   4.276  11.218  0.1496 -0.0234 -0.3881
  314TMC3    H1 4726   3.969   4.243  10.873 -0.6013  0.8140 -0.6168
  314TMC3    H2 4727   3.811   4.462  11.204  1.4880  1.5222 -0.6487
  314TMC3    C7 4728   3.773   4.410  10.957 -0.4770 -0.3178 -0.5181
  314TMC3    C8 4729   4.034   4.469  11.318 -0.1920 -0.1167 -0.3295
  314TMC3    O1 4730   3.660   4.426  10.985 -0.3814 -0.8293 -0.5475
  314TMC3    O2 4731   3.949   4.515  11.394  0.2021 -0.0175 -0.2255
  315MPD2     C 4732   4.717   3.562   0.243 -0.0569  0.9033 -0.4243
  315MPD2    C1 4733   0.095   3.575   0.337  0.2370 -0.2171 -0.3824
  315MPD2    C2 4734   0.162   3.694   0.352 -0.7643  0.2201 -0.0908
  315MPD2    C3 4735   0.135   3.801   0.274 -0.1761  0.2324 -0.3202
  315MPD2    C4 4736   0.030   3.790   0.180  0.0364  0.4480 -1.0201
  315MPD2    C5 4737   4.687   3.670   0.157  0.5604 -0.4805 -0.3217
  315MPD2     H 4738   0.244   3.702   0.422 -0.1210  2.0906 -1.0664
  315MPD2    H1 4739   4.710   3.880   0.138 -0.8132  0.5134 -0.0259
  315MPD2    H2 4740   4.672   3.465   0.225  0.8378  0.6128 -1.1441
  315MPD2    H3 4741   4.618   3.666   0.074 -0.0703 -1.0718  0.2260
  315MPD2     N 4742   0.210   3.919   0.299  0.1055 -0.1398 -0.0872
  315MPD2    H5 4743   0.279   3.919   0.372  0.4872 -0.0258 -0.4469
  315MPD2    N1 4744   0.120   3.474   0.441  0.4815  0.6642  0.0668
  315MPD2    H7 4745   0.203   3.488   0.497  1.1910  0.9085 -1.0320
  316TMC3    C1 4746   0.307   4.129   0.254  0.1528  0.4844 -0.1099
  316TMC3    C2 4747   0.418   4.083   0.327 -0.3456  0.5518  0.0371
  316TMC3    C3 4748   0.542   4.140   0.314  0.1471 -0.3415  0.0089
  316TMC3    C4 4749   0.325   4.241   0.177 -0.0466 -0.3271 -0.2408
  316TMC3    C5 4750   0.446   4.305   0.170 -0.0508  0.5244  0.5230
  316TMC3    C6 4751   0.555   4.249   0.239 -0.6312 -0.5298  0.2429
  316TMC3     C 4752   0.195   4.041   0.232 -0.3469  0.4230  0.0074
  316TMC3     O 4753   0.120   4.073   0.143 -0.5385  0.1197 -0.0627
  316TMC3     H 4754   0.414   4.013   0.409  1.3561  0.8012  0.3205
  316TMC3    H1 4755   0.241   4.281   0.122  0.0768 -0.8450 -0.8101
  316TMC3    H2 4756   0.651   4.299   0.237 -1.4785  1.1621  1.6458
  316TMC3    C7 4757   0.455   4.442   0.139  0.2518 -0.0500 -0.0250
  316TMC3    C8 4758   0.636   4.130   0.426 -1.1023  0.3265  0.8104
  316TMC3    O1 4759   0.534   4.506   0.208  0.4224  0.2562  0.4608
  316TMC3    O2 4760   0.701   4.229   0.453 -0.0331  0.2553 -0.4697
  317MPD2     C 4761   1.568   2.234  13.130 -0.4601 -0.2435  0.0761
  317MPD2    C1 4762   1.528   2.117  13.077 -0.4833 -0.1917 -0.2013
  317MPD2    C2 4763   1.528   2.001  13.158 -0.2631 -0.0240 -0.5201
  317MPD2    C3 4764   1.579   2.013  13.283  0.1274 -0.1383 -0.2841
  317MPD2    C4 4765   1.645   2.133  13.323  0.1542  0.4764  0.2720
  317MPD2    C5 4766   1.639   2.246  13.247 -0.7700 -0.5039  0.2462
  317MPD2     H 4767   1.481   1.908  13.130  1.5682 -0.3301 -2.5470
  317MPD2    H1 4768   1.714   2.139  13.407  1.4065 -1.5706 -0.6149
  317MPD2    H2 4769   1.568   2.327  13.075 -0.4365 -0.3818 -0.1577
  317MPD2    H3 4770   1.709   2.327  13.261 -0.3593 -0.9087  0.4924
  317MPD2     N 4771   1.568   1.904  13.369  0.6264  0.4146 -0.1201
  317MPD2    H5 4772   1.523   1.822  13.328  0.9296 -0.2607  0.8849
  317MPD2    N1 4773   1.480   2.103  12.940  0.5437  0.0018 -0.3088
  317MPD2    H7 4774   1.449   2.009  12.920 -0.0013 -0.2159  1.5140
  318TMC3    C1 4775   1.616   1.751  13.548 -0.6486  1.0251  0.7380
  318TMC3    C2 4776   1.518   1.669  13.500  0.4164  0.1654  0.9250
  318TMC3    C3 4777   1.510   1.546  13.555 -0.2225  0.8520  0.2758
  318TMC3    C4 4778   1.707   1.707  13.639 -0.1033  0.0478  0.2169
  318TMC3    C5 4779   1.696   1.574  13.680  0.0481 -0.2187  0.0129
  318TMC3    C6 4780   1.603   1.489  13.637 -0.3581  0.2361  0.2168
  318TMC3     C 4781   1.633   1.885  13.489  0.1382 -0.1286 -0.1331
  318TMC3     O 4782   1.697   1.966  13.550 -0.9184  0.0385 -0.5649
  318TMC3     H 4783   1.429   1.711  13.456  0.4678  0.7226  1.3659
  318TMC3    H1 4784   1.787   1.775  13.666 -0.4563  0.7282 -0.4432
  318TMC3    H2 4785   1.594   1.384  13.660  1.4401 -0.3831 -1.9138
  318TMC3    C7 4786   1.814   1.504  13.736 -0.3727  0.1174 -0.1747
  318TMC3    C8 4787   1.390   1.472  13.551  0.1538  0.0156  0.3753
  318TMC3    O1 4788   1.820   1.382  13.715 -0.0236 -0.1223  0.5555
  318TMC3    O2 4789   1.365   1.407  13.651 -0.3260 -0.2365 -0.0140
  319MPD2     C 4790   2.422   3.500  16.151 -0.0588  0.1286 -0.5488
  319MPD2    C1 4791   2.339   3.403  16.199 -0.8732  0.2634  0.0274
  319MPD2    C2 4792   2.293   3.294  16.118 -0.4145  0.6462  0.6290
  319MPD2    C3 4793   2.324   3.289  15.985 -0.4697  0.2497 -0.6504
  319MPD2    C4 4794   2.409   3.388  15.937 -0.6053 -0.3313 -0.8312
  319MPD2    C5 4795   2.455   3.483  16.022  0.1842 -0.7218 -0.2976
  319MPD2     H 4796   2.224   3.227  16.168 -0.7982 -0.5013 -1.4470
  319MPD2    H1 4797   2.436   3.387  15.832 -0.2292 -3.7144 -0.6823
  319MPD2    H2 4798   2.475   3.583  16.196 -1.5675  0.2106  1.0303
  319MPD2    H3 4799   2.525   3.554  15.979 -0.5675  0.1509 -0.0681
  319MPD2     N 4800   2.268   3.194  15.899  0.3760  0.3140 -0.6035
  319MPD2    H5 4801   2.272   3.210  15.799 -1.6660 -0.9131 -0.8848
  319MPD2    N1 4802   2.308   3.403  16.341 -0.0538  0.2657  0.4363
  319MPD2    H7 4803   2.226   3.349  16.365  1.6206 -1.6575  1.8188
  320TMC3    C1 4804   2.125   3.020  15.829  0.5558 -0.0158  0.2647
  320TMC3    C2 4805   2.059   3.115  15.753 -0.0641  0.3772  0.0922
  320TMC3    C3 4806   1.968   3.064  15.665 -0.0400 -0.2324 -1.2466
  320TMC3    C4 4807   2.106   2.886  15.830  0.0206  0.1718 -0.5105
  320TMC3    C5 4808   2.003   2.848  15.747  0.4245  0.0282  0.1871
  320TMC3    C6 4809   1.931   2.932  15.661  0.0099 -0.0803 -0.1603
  320TMC3     C 4810   2.201   3.077  15.934 -0.0789  0.2614  0.4516
  320TMC3     O 4811   2.203   3.024  16.045  0.0538  0.3071 -0.2589
  320TMC3     H 4812   2.067   3.223  15.756  0.0003  0.3385  1.0523
  320TMC3    H1 4813   2.144   2.818  15.905  0.8650  0.3573 -0.7683
  320TMC3    H2 4814   1.872   2.892  15.580 -1.7401  1.9731  0.1022
  320TMC3    C7 4815   1.936   2.729  15.782 -0.4012 -0.3707  0.1661
  320TMC3    C8 4816   1.880   3.159  15.612  0.3651 -0.3713 -0.3973
  320TMC3    O1 4817   2.006   2.635  15.814  0.5462  0.3565 -0.5298
  320TMC3    O2 4818   1.830   3.229  15.695 -0.5459 -0.1956  0.8677
  321TMC3    C1 4819   2.286   3.480  16.563 -0.5448  0.2895 -0.0567
  321TMC3    C2 4820   2.214   3.366  16.588  0.3954  0.0134  0.1336
  321TMC3    C3 4821   2.127   3.357  16.691 -0.7682  0.3064  0.7412
  321TMC3    C4 4822   2.288   3.586  16.649  0.2584 -0.6502 -0.4695
  321TMC3    C5 4823   2.207   3.570  16.763 -1.0488  0.9235 -0.1326
  321TMC3    C6 4824   2.115   3.464  16.773 -0.5711  0.1801  0.0826
  321TMC3     C 4825   2.354   3.491  16.441 -0.6371  0.3449 -0.4572
  321TMC3     O 4826   2.437   3.583  16.431 -0.0346  0.0614  0.3746
  321TMC3     H 4827   2.231   3.277  16.529  2.1886  0.2560  0.2746
  321TMC3    H1 4828   2.368   3.658  16.639  1.6686 -2.4286 -1.9911
  321TMC3    H2 4829   2.038   3.472  16.849 -0.3043 -0.9535  0.4647
  321TMC3    C7 4830   2.261   3.616  16.878  0.2501  0.0516  0.2161
  321TMC3    C8 4831   2.145   3.245  16.778 -0.6294  0.5100 -0.0623
  321TMC3    O1 4832   2.328   3.719  16.876 -0.3275 -0.0110  0.5677
  321TMC3    O2 4833   2.146   3.261  16.899  0.4848  0.1990 -0.1012
  322MPD2     C 4834   1.356   0.068  13.908  0.4330 -0.0853  1.1608
  322MPD2    C1 4835   1.377   4.692  14.003  0.5133  0.1903  0.1265
  322MPD2    C2 4836   1.315   4.573  13.983  0.3291  0.1047  0.2170
  322MPD2    C3 4837   1.210   4.558  13.895 -0.4807 -0.3481 -0.3031
  322MPD2    C4 4838   1.177   4.659  13.817  0.6681  0.1001 -0.2578
  322MPD2    C5 4839   1.248   0.053  13.825 -0.3448  0.1372  0.2955
  322MPD2     H 4840   1.346   4.492  14.048 -2.5926  1.4867  3.3161
  322MPD2    H1 4841   1.103   4.655  13.737 -0.5639  1.2899  0.8208
  322MPD2    H2 4842   1.415   0.158  13.914  0.5134 -0.1434  1.2389
  322MPD2    H3 4843   1.227   0.133  13.755 -2.8506  0.1445  1.0587
  322MPD2     N 4844   1.140   4.437  13.893  0.0702 -0.3776  0.0537
  322MPD2    H5 4845   1.162   4.376  13.971  1.1921  0.7816  0.6495
  322MPD2    N1 4846   1.487   4.715  14.097  0.0065  0.9970  0.1338
  322MPD2    H7 4847   1.556   0.066  14.086  0.5566  0.1852 -1.9182
  323TMC3    C1 4848   1.623   4.656  14.283  0.2829 -0.2388 -0.6199
  323TMC3    C2 4849   1.725   0.003  14.228 -0.3187 -0.4300 -0.2479
  323TMC3    C3 4850   1.829   0.028  14.310 -0.1286  0.4234  0.2498
  323TMC3    C4 4851   1.631   4.591  14.403  0.1844 -0.3576  0.9686
  323TMC3    C5 4852   1.739   4.619  14.478  0.6736  0.4676 -0.2813
  323TMC3    C6 4853   1.841   4.702  14.434 -0.1015 -1.2575 -0.4273
  323TMC3     C 4854   1.507   4.622  14.202  0.1215 -0.2603  0.1712
  323TMC3     O 4855   1.424   4.555  14.257 -0.6967 -0.8808 -0.3570
  323TMC3     H 4856   1.728   0.038  14.125  1.6293 -2.2192 -0.8059
  323TMC3    H1 4857   1.554   4.526  14.444  1.1272 -1.3698  1.1465
  323TMC3    H2 4858   1.919   0.001  14.506  0.1174 -0.1524 -1.0043
  323TMC3    C7 4859   1.750   4.535  14.597 -0.1072  0.6090 -0.5457
  323TMC3    C8 4860   1.958   0.064  14.251  0.3756 -0.4873  0.0158
  323TMC3    O1 4861   1.652   4.469  14.636  0.7740 -0.7655  0.3136
  323TMC3    O2 4862   2.055   0.043  14.322  0.4201 -0.0450  0.0974
  324MPD2     C 4863   2.528   0.621  14.494 -0.4538 -0.6943 -0.2092
  324MPD2    C1 4864   2.550   0.757  14.475  0.0855 -0.0981 -0.2832
  324MPD2    C2 4865   2.438   0.827  14.427 -0.1507  0.2356  0.1925
  324MPD2    C3 4866   2.320   0.769  14.388 -0.0935 -0.8099  0.1880
  324MPD2    C4 4867   2.298   0.641  14.428 -0.4360  0.2072  0.1571
  324MPD2    C5 4868   2.402   0.567  14.472 -0.4329 -0.4488 -0.4562
  324MPD2     H 4869   2.453   0.932  14.405 -1.1446  0.6795  1.6593
  324MPD2    H1 4870   2.202   0.592  14.410  0.3683 -1.5505  0.6778
  324MPD2    H2 4871   2.599   0.546  14.528  0.2600  0.0636 -0.0236
  324MPD2    H3 4872   2.383   0.461  14.488 -0.2586 -0.3665  0.3303
  324MPD2     N 4873   2.215   0.838  14.318 -0.1297  0.4372  0.1028
  324MPD2    H5 4874   2.121   0.798  14.320  0.2003 -0.3375  0.2689
  324MPD2    N1 4875   2.672   0.820  14.498  0.2860  0.5150 -0.0688
  324MPD2    H7 4876   2.683   0.917  14.468  0.4162  0.7652  0.7752
  325TMC3    C1 4877   2.107   1.001  14.175  0.4930  0.0897 -0.5816
  325TMC3    C2 4878   2.003   0.911  14.158  0.4710 -0.8964 -0.0770
  325TMC3    C3 4879   1.874   0.961  14.135 -0.1591  0.2754 -0.0907
  325TMC3    C4 4880   2.087   1.137  14.167 -0.1086  0.3092  1.0506
  325TMC3    C5 4881   1.961   1.182  14.133  0.1756 -0.9059 -0.4600
  325TMC3    C6 4882   1.861   1.097  14.111  0.4137 -0.5233  0.8388
  325TMC3     C 4883   2.230   0.952  14.242  0.5302 -0.3151 -0.3054
  325TMC3     O 4884   2.327   1.025  14.227 -0.0727 -0.0333 -0.3779
  325TMC3     H 4885   2.012   0.803  14.156 -1.4734 -1.0406 -1.6164
  325TMC3    H1 4886   2.168   1.209  14.163 -1.4473  1.6994 -0.9963
  325TMC3    H2 4887   1.761   1.133  14.088  0.8222 -1.0867 -1.7983
  325TMC3    C7 4888   1.943   1.327  14.112 -0.0947  0.1822 -0.1318
  325TMC3    C8 4889   1.787   0.870  14.059  0.0055  0.2949  0.6947
  325TMC3    O1 4890   1.851   1.346  14.036  0.4287 -0.9101 -0.2007
  325TMC3    O2 4891   1.819   0.760  14.011  0.0173  0.0580  0.5445
  326MPD2     C 4892   3.919   2.335  10.278 -0.5868 -0.9506 -0.5088
  326MPD2    C1 4893   3.965   2.214  10.322 -0.2117  0.1934 -0.0696
  326MPD2    C2 4894   3.965   2.183  10.459  0.1547 -0.8046  0.5973
  326MPD2    C3 4895   3.940   2.275  10.554  0.3195 -0.6752 -0.3350
  326MPD2    C4 4896   3.906   2.395  10.513  0.5565 -0.2463  0.4570
  326MPD2    C5 4897   3.887   2.415  10.377 -0.2393 -0.1279 -0.2746
  326MPD2     H 4898   3.992   2.082  10.487 -1.3958 -1.7178 -1.2677
  326MPD2    H1 4899   3.882   2.472  10.586 -0.4251 -0.9588  0.8920
  326MPD2    H2 4900   3.912   2.355  10.172  0.5646  0.4711 -0.3217
  326MPD2    H3 4901   3.832   2.501  10.341  2.4371  2.1749  1.1597
  326MPD2     N 4902   3.973   2.254  10.692  0.0999 -1.1143 -0.2472
  326MPD2    H5 4903   3.977   2.335  10.753 -1.7599  0.0626 -1.7098
  326MPD2    N1 4904   4.001   2.107  10.245  0.0985  0.1012 -0.4297
  326MPD2    H7 4905   4.024   2.025  10.301 -1.4595  0.5420  0.8723
  327TMC3    C1 4906   3.983   1.956  10.060 -1.1367 -1.0040  0.3804
  327TMC3    C2 4907   3.872   1.941   9.988  0.3837  0.4086  0.2151
  327TMC3    C3 4908   3.792   1.827  10.010  0.1982  0.4649 -0.8667
  327TMC3    C4 4909   4.023   1.858  10.153 -0.4811  0.1127  0.1301
  327TMC3    C5 4910   3.942   1.754  10.172  0.3052 -0.1033  0.9375
  327TMC3    C6 4911   3.831   1.730  10.097  0.8712 -0.4001 -0.0686
  327TMC3     C 4912   3.988   2.092  10.104 -0.1541 -0.1072  1.4686
  327TMC3     O 4913   3.972   2.184  10.021 -0.1342 -0.0691  0.6523
  327TMC3     H 4914   3.831   2.015   9.921 -0.8986  1.7374  2.4725
  327TMC3    H1 4915   4.120   1.865  10.200 -0.5677 -2.8952  0.7788
  327TMC3    H2 4916   3.766   1.650  10.131  0.5591  0.0189  0.3196
  327TMC3    C7 4917   3.975   1.659  10.270 -0.2252 -0.0827  0.9567
  327TMC3    C8 4918   3.653   1.857  10.002 -0.1825  0.2562  0.1167
  327TMC3    O1 4919   3.906   1.558  10.257 -0.5936  0.1308  0.0177
  327TMC3    O2 4920   3.618   1.903   9.893  0.2044  0.2508 -0.0639
  328MPD2     C 4921   1.777   1.623  17.016  0.3183  0.6016  0.2539
  328MPD2    C1 4922   1.730   1.574  16.898  0.3497  0.1348  0.8609
  328MPD2    C2 4923   1.692   1.661  16.799 -0.1271  0.3974 -0.5163
  328MPD2    C3 4924   1.703   1.797  16.813  0.0339  0.0180 -0.4805
  328MPD2    C4 4925   1.752   1.846  16.936  0.4092  0.4843 -1.2181
  328MPD2    C5 4926   1.789   1.761  17.029 -0.3829  1.0373 -0.2941
  328MPD2     H 4927   1.653   1.624  16.705  1.6207  0.3048 -1.1995
  328MPD2    H1 4928   1.760   1.950  16.964  1.2301 -0.2976  1.4832
  328MPD2    H2 4929   1.805   1.557  17.098  1.2394 -1.5531 -1.7986
  328MPD2    H3 4930   1.818   1.798  17.126 -1.3802 -0.1870  0.4682
  328MPD2     N 4931   1.659   1.885  16.713 -0.0545 -0.8101  0.2403
  328MPD2    H5 4932   1.677   1.983  16.733 -0.1687 -1.1156  1.7779
  328MPD2    N1 4933   1.717   1.435  16.884 -0.4292 -0.0596  0.1348
  328MPD2    H7 4934   1.727   1.382  16.970  0.0224  0.2956  0.2944
  329TMC3    C1 4935   1.638   1.226  16.814  0.0974  0.0430  0.2690
  329TMC3    C2 4936   1.530   1.173  16.742 -0.4284  0.3210 -0.8296
  329TMC3    C3 4937   1.497   1.042  16.758  0.0176 -0.3578  0.5070
  329TMC3    C4 4938   1.686   1.162  16.925  0.0196  0.4800 -0.0918
  329TMC3    C5 4939   1.650   1.034  16.936 -0.0924 -0.2727 -0.1538
  329TMC3    C6 4940   1.563   0.971  16.853 -0.0885  0.0900 -0.0555
  329TMC3     C 4941   1.664   1.361  16.777 -0.4881  0.3636 -0.3116
  329TMC3     O 4942   1.625   1.409  16.669 -0.0682  0.3785 -0.0928
  329TMC3     H 4943   1.495   1.227  16.654  1.0127 -0.3311 -1.8026
  329TMC3    H1 4944   1.775   1.193  16.979 -0.0283  0.9228 -0.2699
  329TMC3    H2 4945   1.530   0.871  16.878  0.3025  0.6916  2.8188
  329TMC3    C7 4946   1.676   0.985  17.066 -0.3948 -1.0181 -0.0932
  329TMC3    C8 4947   1.348   1.029  16.770  0.4458 -0.9698  0.6984
  329TMC3    O1 4948   1.694   1.067  17.157  0.5719 -0.0310  0.3595
  329TMC3    O2 4949   1.286   0.932  16.723 -0.0574 -0.3022  0.5391
  330TMC3    C1 4950   4.287   1.361   9.160 -0.3168  0.3334  0.0729
  330TMC3    C2 4951   4.153   1.328   9.156  0.1655  0.3736 -0.5146
  330TMC3    C3 4952   4.105   1.224   9.231  0.5407 -0.1512 -0.3510
  330TMC3    C4 4953   4.372   1.294   9.238  0.1743 -0.2190 -0.1943
  330TMC3    C5 4954   4.316   1.201   9.326  0.4416 -0.2797 -0.5278
  330TMC3    C6 4955   4.185   1.154   9.317  0.6712 -0.3848 -0.2852
  330TMC3     C 4956   4.339   1.449   9.053 -0.7679  0.2257  0.5277
  330TMC3     O 4957   4.459   1.440   9.031  0.3396 -0.0863  0.2957
  330TMC3     H 4958   4.091   1.373   9.079 -1.3849 -0.2602  0.3639
  330TMC3    H1 4959   4.475   1.326   9.252 -0.3055  1.3315 -0.2391
  330TMC3    H2 4960   4.146   1.100   9.403 -1.8984  1.2479 -0.4063
  330TMC3    C7 4961   4.410   1.150   9.428 -0.0052 -0.6853 -0.1273
  330TMC3    C8 4962   3.961   1.199   9.224 -0.1220  0.6787 -0.0355
  330TMC3    O1 4963   4.510   1.219   9.447  0.8279 -0.1601  0.0935
  330TMC3    O2 4964   3.891   1.269   9.151  0.0360 -0.0811  0.4277
  331MPD2     C 4965   1.786   0.154  12.497 -0.9134 -0.6317  0.2906
  331MPD2    C1 4966   1.904   0.198  12.439  0.6448 -0.2212  0.4428
  331MPD2    C2 4967   2.015   0.108  12.415 -0.8262  0.0544  0.2218
  331MPD2    C3 4968   2.005   4.696  12.436  0.6186  0.3627 -0.0370
  331MPD2    C4 4969   1.886   4.653  12.484 -0.4158  0.0133 -0.2776
  331MPD2    C5 4970   1.778   0.018  12.514  0.5650 -0.0986  0.0443
  331MPD2     H 4971   2.104   0.151  12.372  0.3589 -1.4055  1.1940
  331MPD2    H1 4972   1.877   4.546  12.503  3.0209 -0.5518 -1.7936
  331MPD2    H2 4973   1.709   0.225  12.526 -2.4543 -1.9591 -0.5367
  331MPD2    H3 4974   1.694   4.692  12.562  0.1245  0.5283 -0.0824
  331MPD2     N 4975   2.119   4.615  12.398  0.1255 -0.4228 -0.5375
  331MPD2    H5 4976   2.194   4.667  12.353 -0.4687 -0.1895 -1.2690
  331MPD2    N1 4977   1.910   0.338  12.408 -0.0689 -0.1904 -0.2671
  331MPD2    H7 4978   1.828   0.392  12.432  0.3937  0.4608 -0.1607
  332TMC3    C1 4979   2.273   4.450  12.420  0.3835  0.2906 -0.4951
  332TMC3    C2 4980   2.344   4.508  12.315 -0.2318  0.3146 -0.2533
  332TMC3    C3 4981   2.478   4.498  12.318  0.6578  0.2806  0.5081
  332TMC3    C4 4982   2.338   4.379  12.519  0.4591 -0.6681  0.8185
  332TMC3    C5 4983   2.475   4.381  12.525 -0.2347 -0.9761  0.8974
  332TMC3    C6 4984   2.546   4.444  12.424  0.0294  0.0676 -0.2835
  332TMC3     C 4985   2.141   4.486  12.442 -0.2986 -0.4238  0.6359
  332TMC3     O 4986   2.077   4.427  12.526  0.5592 -0.1355  0.2080
  332TMC3     H 4987   2.291   4.551  12.231  2.2303  3.4752 -0.1799
  332TMC3    H1 4988   2.289   4.352  12.611 -0.0347 -2.5343 -0.0002
  332TMC3    H2 4989   2.654   4.441  12.431  0.2691  2.3669 -3.1119
  332TMC3    C7 4990   2.536   4.304  12.631  0.2109 -1.0313 -0.5582
  332TMC3    C8 4991   2.557   4.561  12.221 -0.3994  0.0898 -0.8304
  332TMC3    O1 4992   2.464   4.238  12.705 -0.2808  0.2696  1.0111
  332TMC3    O2 4993   2.676   4.552  12.235  0.2562  0.4649 -0.0324
  333MPD2     C 4994   2.417   0.350  11.388 -0.6363 -0.2669  0.2972
  333MPD2    C1 4995   2.542   0.320  11.424  0.2764 -0.0816  0.4100
  333MPD2    C2 4996   2.560   0.193  11.477  0.5806 -0.0099  0.4257
  333MPD2    C3 4997   2.457   0.103  11.509  0.7476  0.2396  0.0541
  333MPD2    C4 4998   2.332   0.142  11.473  0.2255  0.6006 -0.5830
  333MPD2    C5 4999   2.318   0.262  11.409 -0.1512 -0.0252  0.2155
  333MPD2     H 5000   2.658   0.154  11.506  0.4242  0.6312  1.8419
  333MPD2    H1 5001   2.248   0.077  11.497 -0.3821  2.3046  2.0188
  333MPD2    H2 5002   2.384   0.442  11.340  1.2843  1.9452  3.2142
  333MPD2    H3 5003   2.220   0.288  11.371 -0.8139 -0.2633  1.7649
  333MPD2     N 5004   2.479   4.704  11.577 -0.0254  0.4225 -0.0989
  333MPD2    H5 5005   2.576   4.677  11.585  0.0415  0.6497 -0.1642
  333MPD2    N1 5006   2.641   0.417  11.389  0.1473  0.0940  0.1005
  333MPD2    H7 5007   2.608   0.502  11.345  0.3144  0.3840  0.5468
  334TMC3    C1 5008   2.856   0.486  11.323 -0.0474 -0.2391  0.5743
  334TMC3    C2 5009   2.987   0.461  11.328  0.4985 -0.0992  0.8835
  334TMC3    C3 5010   3.068   0.526  11.233  0.1510  0.2700 -0.5167
  334TMC3    C4 5011   2.810   0.579  11.236 -0.0691  0.4406 -0.4065
  334TMC3    C5 5012   2.882   0.624  11.135  0.5588  0.4293  0.0543
  334TMC3    C6 5013   3.019   0.604  11.136 -0.1668 -0.3898  0.5516
  334TMC3     C 5014   2.769   0.402  11.408 -0.5251  0.4708 -0.2845
  334TMC3     O 5015   2.826   0.322  11.480 -0.3413 -0.3902  0.1498
  334TMC3     H 5016   3.035   0.385  11.388 -0.0176  0.2339  1.7219
  334TMC3    H1 5017   2.703   0.597  11.243 -0.1921 -0.3016 -0.3759
  334TMC3    H2 5018   3.083   0.650  11.061 -0.9543 -0.0127  0.1032
  334TMC3    C7 5019   2.835   0.727  11.050  0.3829  0.2500 -0.4057
  334TMC3    C8 5020   3.216   0.503  11.247  0.1837  0.3397 -0.0309
  334TMC3    O1 5021   2.913   0.782  10.975  0.1871 -0.6998 -0.1277
  334TMC3    O2 5022   3.245   0.454  11.354 -0.4136  0.0907 -0.2699
  335TMC3    C1 5023   2.111   1.862  17.273  0.1131 -0.2269 -0.2934
  335TMC3    C2 5024   2.072   1.767  17.180  0.5478 -0.2426 -0.1995
  335TMC3    C3 5025   2.127   1.778  17.056 -0.7471  0.7298 -0.2474
  335TMC3    C4 5026   2.204   1.961  17.253  0.1679  0.9069  0.0503
  335TMC3    C5 5027   2.260   1.955  17.126 -0.5329  0.2987  0.4199
  335TMC3    C6 5028   2.230   1.867  17.033 -0.2192 -0.0696  0.8419
  335TMC3     C 5029   2.055   1.839  17.412 -0.3777 -0.2265  0.4800
  335TMC3     O 5030   1.993   1.734  17.429  0.5218  0.1105  0.7510
  335TMC3     H 5031   1.994   1.695  17.201 -0.5034  1.2849  1.1672
  335TMC3    H1 5032   2.246   2.020  17.334 -0.7074 -0.2833  1.3727
  335TMC3    H2 5033   2.283   1.856  16.939 -0.2149 -2.9352  1.1856
  335TMC3    C7 5034   2.393   2.012  17.116  0.2341  0.4097 -0.1779
  335TMC3    C8 5035   2.103   1.677  16.956 -0.5152  0.7026  0.2004
  335TMC3    O1 5036   2.469   1.955  17.042  0.0432 -0.1092 -0.1891
  335TMC3    O2 5037   2.119   1.720  16.839 -0.1412 -0.2755 -0.3682
  336MPD2     C 5038   2.115   4.361  16.420 -0.3101 -0.2565  0.0263
  336MPD2    C1 5039   2.141   4.383  16.288 -0.4974  0.0211 -0.2724
  336MPD2    C2 5040   2.211   4.295  16.213 -0.1965 -0.3142  0.4163
  336MPD2    C3 5041   2.241   4.172  16.264 -0.7535  0.7159 -0.1319
  336MPD2    C4 5042   2.210   4.143  16.392 -0.1851 -0.3216 -0.2094
  336MPD2    C5 5043   2.148   4.235  16.472 -0.3526 -0.2365 -0.3711
  336MPD2     H 5044   2.219   4.312  16.106 -0.9030  0.1411  0.4330
  336MPD2    H1 5045   2.237   4.044  16.428  1.1890  0.5744  1.2290
  336MPD2    H2 5046   2.061   4.430  16.484 -0.2085  1.2651 -1.5343
  336MPD2    H3 5047   2.125   4.217  16.576  1.3677 -1.8563 -0.2608
  336MPD2     N 5048   2.271   4.063  16.181 -0.1611 -0.4827 -0.7799
  336MPD2    H5 5049   2.256   3.970  16.220 -0.8882  0.2951  0.8220
  336MPD2    N1 5050   2.104   4.505  16.229 -0.9800  0.0826  0.2086
  336MPD2    H7 5051   2.145   4.535  16.141 -1.6377  1.6841  0.4555
  337TMC3    C1 5052   1.988   4.710  16.180 -0.1904 -0.4066 -0.4627
  337TMC3    C2 5053   1.859   0.005  16.134 -0.9578 -0.2452 -0.1820
  337TMC3    C3 5054   1.838   0.073  16.018 -0.7758 -0.1335 -0.0906
  337TMC3    C4 5055   2.098   0.026  16.103  0.0293 -0.0419 -0.1008
  337TMC3    C5 5056   2.069   0.095  15.990  0.5278  0.1720  0.4773
  337TMC3    C6 5057   1.942   0.125  15.946 -0.0840 -0.1373 -0.0900
  337TMC3     C 5058   2.006   4.596  16.271 -0.6382  0.0598 -0.1100
  337TMC3     O 5059   1.924   4.581  16.361  0.3217  0.4121 -0.8680
  337TMC3     H 5060   1.775   4.691  16.193 -0.6683 -1.9994 -0.8562
  337TMC3    H1 5061   2.202   0.006  16.125  0.1396  0.4450 -0.1820
  337TMC3    H2 5062   1.929   0.194  15.864  0.9022 -0.8667 -0.8596
  337TMC3    C7 5063   2.180   0.175  15.921  0.0359  0.1665 -0.1924
  337TMC3    C8 5064   1.712   0.125  15.983 -0.7168 -0.1640 -0.3039
  337TMC3    O1 5065   2.280   0.207  15.983  0.0364  0.1037  0.6129
  337TMC3    O2 5066   1.628   0.138  16.068 -0.3092  0.6250  0.4391
  338MPD2     C 5067   3.046   3.485   0.829  1.0531  0.1017  1.1218
  338MPD2    C1 5068   2.982   3.556   0.731 -0.7579  0.0407 -0.2863
  338MPD2    C2 5069   2.978   3.695   0.741 -0.0466 -0.9775  0.4381
  338MPD2    C3 5070   3.041   3.768   0.849 -0.0070 -0.5481  0.0576
  338MPD2    C4 5071   3.116   3.694   0.938 -0.2975  0.1456 -0.0706
  338MPD2    C5 5072   3.117   3.553   0.927 -0.2863  0.1526 -0.0394
  338MPD2     H 5073   2.926   3.743   0.659  1.3389  0.3357  0.3501
  338MPD2    H1 5074   3.182   3.744   1.008 -1.5142  0.1966  1.0293
  338MPD2    H2 5075   3.053   3.377   0.820  0.2511  0.2497 -1.3804
  338MPD2    H3 5076   3.175   3.501   1.003 -0.3736 -1.0827 -0.8050
  338MPD2     N 5077   3.037   3.911   0.854  0.4015  0.3778  0.2703
  338MPD2    H5 5078   3.068   3.950   0.943  2.5455  1.3140 -0.9008
  338MPD2    N1 5079   2.911   3.498   0.629 -0.5495 -0.6968 -0.0465
  338MPD2    H7 5080   2.880   3.563   0.557  2.2430 -0.1087 -0.7102
  339TMC3    C1 5081   3.024   4.129   0.781 -0.3691  0.0500  0.0207
  339TMC3    C2 5082   2.993   4.164   0.909 -0.0408  0.9123 -0.3477
  339TMC3    C3 5083   3.013   4.299   0.936  0.7340 -0.0458 -0.5833
  339TMC3    C4 5084   3.079   4.209   0.686  0.7083  0.3877  0.0118
  339TMC3    C5 5085   3.092   4.340   0.719 -0.7408 -0.8254 -0.1280
  339TMC3    C6 5086   3.057   4.388   0.843 -0.0629  0.4256 -0.5316
  339TMC3     C 5087   3.017   3.987   0.744 -0.5395  0.3222  0.0825
  339TMC3     O 5088   3.017   3.956   0.625 -0.1021  0.4518 -0.8226
  339TMC3     H 5089   2.948   4.098   0.982 -0.8803  0.7904 -0.9605
  339TMC3    H1 5090   3.105   4.172   0.587  1.6294 -0.2497  0.4866
  339TMC3    H2 5091   3.080   4.491   0.872 -1.3085  0.8837 -1.1807
  339TMC3    C7 5092   3.127   4.429   0.611  0.1004 -0.3896  0.3954
  339TMC3    C8 5093   3.017   4.338   1.078 -0.2076 -0.2998 -0.4962
  339TMC3    O1 5094   3.078   4.541   0.623 -0.5508  0.1270 -0.7167
  339TMC3    O2 5095   3.096   4.424   1.114 -0.2077 -0.4397  0.8288
  340MPD2     C 5096   1.907   2.542   9.897  0.3061 -0.4521  0.5215
  340MPD2    C1 5097   1.949   2.434   9.825  0.3702 -0.0210 -0.5960
  340MPD2    C2 5098   2.050   2.353   9.876  0.4336  0.0649  0.3084
  340MPD2    C3 5099   2.101   2.381  10.002  0.2173  0.3837 -0.2057
  340MPD2    C4 5100   2.069   2.499  10.066 -0.4010 -0.9527  0.1914
  340MPD2    C5 5101   1.973   2.581  10.011 -0.0449  1.1106 -0.2656
  340MPD2     H 5102   2.095   2.274   9.817 -1.3752 -1.6640  1.2626
  340MPD2    H1 5103   2.125   2.512  10.159  0.8911 -0.8700 -0.5995
  340MPD2    H2 5104   1.815   2.594   9.870  0.0553 -1.5772 -0.8155
  340MPD2    H3 5105   1.957   2.676  10.060  0.7440  1.9002 -1.5341
  340MPD2     N 5106   2.208   2.311  10.066  0.7134 -0.2118  0.1811
  340MPD2    H5 5107   2.252   2.361  10.142 -0.9753  1.2065  0.2391
  340MPD2    N1 5108   1.875   2.404   9.706 -0.1121  0.0053  0.3045
  340MPD2    H7 5109   1.803   2.472   9.682 -0.7286 -1.5016 -2.0972
  341TMC3    C1 5110   1.806   2.309   9.509  0.7427  0.4811 -0.5164
  341TMC3    C2 5111   1.745   2.209   9.449 -0.1603  0.4216  0.1050
  341TMC3    C3 5112   1.694   2.219   9.320 -0.3842  1.1790  0.0913
  341TMC3    C4 5113   1.822   2.429   9.437  0.2697  0.2753  0.1505
  341TMC3    C5 5114   1.798   2.425   9.300 -0.3401 -0.4251 -0.0802
  341TMC3    C6 5115   1.732   2.321   9.242  0.3127 -0.4411 -0.9919
  341TMC3     C 5116   1.885   2.293   9.626  0.0721 -0.1322 -0.2762
  341TMC3     O 5117   1.948   2.189   9.640  0.6884  0.0260  0.2462
  341TMC3     H 5118   1.736   2.114   9.500 -0.8161  2.2374  3.3425
  341TMC3    H1 5119   1.880   2.508   9.483 -0.7949 -0.3479  2.5783
  341TMC3    H2 5120   1.734   2.310   9.134  0.0125  1.2913 -1.1691
  341TMC3    C7 5121   1.902   2.481   9.216 -0.3590 -0.1967  0.2709
  341TMC3    C8 5122   1.671   2.093   9.254  0.0932  0.3506 -0.5021
  341TMC3    O1 5123   2.003   2.508   9.278  0.1983 -0.3308  0.8035
  341TMC3    O2 5124   1.723   1.991   9.288 -0.4616 -0.1139  0.9943
  342MPD2     C 5125   0.798   0.159  17.122 -0.9651 -0.3816 -0.2273
  342MPD2    C1 5126   0.924   0.159  17.177 -0.7398  0.3762 -0.1881
  342MPD2    C2 5127   0.984   0.282  17.198 -0.1525 -0.2568  0.6066
  342MPD2    C3 5128   0.917   0.401  17.165 -0.0602  0.4479  0.3070
  342MPD2    C4 5129   0.792   0.391  17.108 -0.1257 -0.4788  0.0835
  342MPD2    C5 5130   0.740   0.267  17.081  0.5684  0.6952 -0.0869
  342MPD2     H 5131   1.085   0.283  17.237  0.6068  0.4433 -1.3740
  342MPD2    H1 5132   0.745   0.484  17.079 -0.1162 -0.8628 -1.1660
  342MPD2    H2 5133   0.724   0.081  17.109 -0.4822 -0.7623 -0.7178
  342MPD2    H3 5134   0.647   0.257  17.026  1.3911 -0.1652 -1.3291
  342MPD2     N 5135   0.966   0.525  17.199 -0.4442 -0.0685 -0.2374
  342MPD2    H5 5136   0.910   0.605  17.171 -1.1107  0.1920  1.8329
  342MPD2    N1 5137   0.994   0.045  17.214  0.0930  0.3786 -0.1310
  342MPD2    H7 5138   1.082   0.062  17.261 -0.4740  1.6086  0.4903
  343TMC3    C1 5139   1.030   4.532  17.257 -0.3297  0.3150 -0.1369
  343TMC3    C2 5140   1.161   4.544  17.283  0.4873 -0.4184  0.1683
  343TMC3    C3 5141   1.228   4.445  17.353  0.3301  0.0083 -0.8465
  343TMC3    C4 5142   0.958   4.427  17.308  0.0343  0.9448 -0.2600
  343TMC3    C5 5143   1.025   4.338  17.380  0.6021  0.5705 -0.0404
  343TMC3    C6 5144   1.158   4.334  17.396  0.0066  0.0145  0.2013
  343TMC3     C 5145   0.945   4.638  17.205  0.0340  0.4037  0.5203
  343TMC3     O 5146   0.834   4.609  17.172  0.0089 -0.3283 -0.0800
  343TMC3     H 5147   1.207   4.628  17.232  0.3310 -1.0911 -1.0889
  343TMC3    H1 5148   0.850   4.424  17.316 -0.0445  1.4976 -1.1966
  343TMC3    H2 5149   1.211   4.247  17.432 -3.1682 -1.8860  0.3609
  343TMC3    C7 5150   0.952   4.232  17.447 -0.4001 -0.0937  0.5575
  343TMC3    C8 5151   1.361   4.414  17.298  0.2479 -0.6502 -0.5941
  343TMC3    O1 5152   0.841   4.211  17.403 -0.0161 -0.9108 -0.0310
  343TMC3    O2 5153   1.436   4.509  17.292 -0.4968  0.1118  0.0263
  344MPD2     C 5154   1.455   3.882  11.017  0.4849  0.1951 -0.0076
  344MPD2    C1 5155   1.345   3.860  10.935 -0.2276  0.2404  0.9593
  344MPD2    C2 5156   1.344   3.923  10.809  0.4959  0.2769  0.0547
  344MPD2    C3 5157   1.461   3.993  10.765 -0.0599  0.4169 -0.4551
  344MPD2    C4 5158   1.568   4.002  10.853 -0.2143  0.2384 -0.1189
  344MPD2    C5 5159   1.564   3.949  10.978  0.6224 -0.3788  0.9137
  344MPD2     H 5160   1.257   3.917  10.746 -0.8041 -0.2493  1.8988
  344MPD2    H1 5161   1.659   4.050  10.818  0.1825  0.3771  1.0723
  344MPD2    H2 5162   1.462   3.856  11.122  1.2753 -0.8938 -0.3391
  344MPD2    H3 5163   1.653   3.955  11.040  3.3478  0.5908 -3.1141
  344MPD2     N 5164   1.465   4.065  10.642  0.1832 -0.3589 -0.2514
  344MPD2    H5 5165   1.547   4.123  10.632  0.3444 -0.3413  1.1664
  344MPD2    N1 5166   1.235   3.786  10.979  0.1185 -0.0612 -0.5772
  344MPD2    H7 5167   1.160   3.765  10.914 -0.9695 -0.4035  0.7825
  345TMC3    C1 5168   1.414   4.140  10.419  0.2301 -0.9726 -0.1894
  345TMC3    C2 5169   1.547   4.155  10.393 -0.1636  0.0706 -0.1886
  345TMC3    C3 5170   1.580   4.229  10.278  0.0074  0.0589 -0.6312
  345TMC3    C4 5171   1.318   4.197  10.334  0.3599  1.2292  0.7192
  345TMC3    C5 5172   1.357   4.258  10.221 -0.7135  0.0896 -0.1999
  345TMC3    C6 5173   1.490   4.278  10.191  0.2071  0.3593 -0.4121
  345TMC3     C 5174   1.374   4.064  10.538  0.3260 -0.4407  0.2443
  345TMC3     O 5175   1.263   4.015  10.534 -0.2519 -0.3449  0.4445
  345TMC3     H 5176   1.621   4.097  10.448 -0.9392 -0.9864 -0.2716
  345TMC3    H1 5177   1.216   4.208  10.372  1.1004  3.4473  2.0644
  345TMC3    H2 5178   1.522   4.328  10.101  2.3978 -0.4569 -0.0912
  345TMC3    C7 5179   1.274   4.360  10.160  0.1843  0.2749  0.0915
  345TMC3    C8 5180   1.717   4.264  10.249  0.3297 -0.6828  0.2135
  345TMC3    O1 5181   1.329   4.433  10.076 -0.6694  0.3995 -0.3393
  345TMC3    O2 5182   1.737   4.279  10.132 -0.5700  0.5316  0.1050
  346MPD2     C 5183   1.192   1.354  14.625 -0.1443 -0.6858  0.4479
  346MPD2    C1 5184   1.306   1.358  14.551 -0.0316  0.2603  0.2478
  346MPD2    C2 5185   1.423   1.399  14.613 -0.3277 -0.3980 -0.3951
  346MPD2    C3 5186   1.431   1.420  14.748  0.7976 -1.6462  0.1332
  346MPD2    C4 5187   1.315   1.421  14.824 -0.0176  0.0509 -0.0878
  346MPD2    C5 5188   1.195   1.387  14.762  0.2695  0.4547  0.3439
  346MPD2     H 5189   1.515   1.407  14.555  0.0060  1.3943  0.4052
  346MPD2    H1 5190   1.313   1.436  14.931  0.5872 -0.5663  0.0137
  346MPD2    H2 5191   1.096   1.324  14.584  1.2674 -2.4223 -1.5218
  346MPD2    H3 5192   1.103   1.390  14.819  0.3818 -1.4379  0.6026
  346MPD2     N 5193   1.564   1.447  14.798 -0.0579 -0.0401 -0.6139
  346MPD2    H5 5194   1.640   1.451  14.731  2.2583  3.4007  2.2328
  346MPD2    N1 5195   1.305   1.339  14.409 -0.0629  0.6559 -1.0691
  346MPD2    H7 5196   1.389   1.360  14.356  0.8913  1.5041  0.7813
  347TMC3    C1 5197   1.730   1.544  14.928 -0.0651  0.4436  0.4603
  347TMC3    C2 5198   1.777   1.601  14.817  0.1327 -0.8910 -0.5676
  347TMC3    C3 5199   1.915   1.622  14.811 -0.2457  0.0032 -0.0884
  347TMC3    C4 5200   1.810   1.508  15.033 -0.2225  0.5728 -0.0973
  347TMC3    C5 5201   1.944   1.510  15.017 -0.0438 -0.1275 -0.1391
  347TMC3    C6 5202   1.999   1.577  14.908  0.5345 -0.0980  0.8761
  347TMC3     C 5203   1.595   1.493  14.924  0.4935  0.1561 -0.1399
  347TMC3     O 5204   1.532   1.503  15.028 -0.0128  0.2963 -0.0814
  347TMC3     H 5205   1.711   1.658  14.753  0.5361 -0.4832 -0.6214
  347TMC3    H1 5206   1.765   1.456  15.116 -1.2843  0.7093 -0.5817
  347TMC3    H2 5207   2.104   1.600  14.900  0.1991  0.7418 -1.1466
  347TMC3    C7 5208   2.017   1.403  15.075 -0.5004  0.4538 -0.0395
  347TMC3    C8 5209   1.974   1.614  14.683 -0.2814 -0.2887 -0.6869
  347TMC3    O1 5210   1.945   1.317  15.125  0.1835 -0.6424  0.1268
  347TMC3    O2 5211   2.074   1.544  14.667 -0.3290 -0.3416 -0.1488
  348MPD2     C 5212   0.083   0.679  11.793 -0.1558  0.8435  0.2397
  348MPD2    C1 5213   0.198   0.752  11.761  0.5727  0.1549 -0.8582
  348MPD2    C2 5214   0.202   0.826  11.641 -0.1903 -0.7781 -0.2371
  348MPD2    C3 5215   0.093   0.823  11.554 -0.5209 -0.6446 -0.2122
  348MPD2    C4 5216   4.699   0.753  11.597  0.2777  0.6520 -0.5500
  348MPD2    C5 5217   4.707   0.670  11.706  0.0541 -0.1764 -0.3289
  348MPD2     H 5218   0.289   0.886  11.616  0.2003 -0.7419  1.2198
  348MPD2    H1 5219   4.612   0.743  11.533  0.3764  1.4556 -0.8185
  348MPD2    H2 5220   0.067   0.625  11.886  0.8069  0.2698  0.0741
  348MPD2    H3 5221   4.621   0.610  11.733 -0.3954  0.1649 -0.9915
  348MPD2     N 5222   0.093   0.897  11.432  0.1795 -0.1902  0.0854
  348MPD2    H5 5223   0.171   0.960  11.420  0.2100 -0.6461 -2.2522
  348MPD2    N1 5224   0.316   0.754  11.842 -0.6942 -0.0836 -0.3723
  348MPD2    H7 5225   0.387   0.818  11.809 -0.6735  0.2546  0.3202
  349TMC3    C1 5226   0.461   0.680  12.021 -0.1969  0.8330 -0.0115
  349TMC3    C2 5227   0.483   0.552  12.063  0.3137  0.4239 -0.2182
  349TMC3    C3 5228   0.597   0.487  12.027 -0.3445 -0.1097  0.4904
  349TMC3    C4 5229   0.553   0.744  11.940 -0.3666  0.0260  0.3066
  349TMC3    C5 5230   0.659   0.676  11.888 -0.3156 -0.3217 -0.1924
  349TMC3    C6 5231   0.680   0.548  11.932  0.3172  0.4751  0.2165
  349TMC3     C 5232   0.329   0.682  11.959  0.6675 -0.0434 -0.5714
  349TMC3     O 5233   0.250   0.606  12.005 -0.3810  0.1610  0.4264
  349TMC3     H 5234   0.411   0.490  12.116  1.3950 -0.1413  0.5735
  349TMC3    H1 5235   0.542   0.849  11.917  2.2002  0.3917  0.8197
  349TMC3    H2 5236   0.762   0.494  11.886 -0.4697 -1.4254  1.0293
  349TMC3    C7 5237   0.655   0.681  11.745  0.7265 -0.0784  0.4482
  349TMC3    C8 5238   0.599   0.339  12.036 -0.0730  0.0978 -0.2361
  349TMC3    O1 5239   0.663   0.570  11.686  0.5907 -0.6004 -0.1218
  349TMC3    O2 5240   0.550   0.292  12.138 -0.1285  0.1104  0.6578
  350MPD2     C 5241   3.714   3.670  10.004 -0.1355  0.3559  0.0136
  350MPD2    C1 5242   3.803   3.567  10.014  0.2122 -0.3717  0.2072
  350MPD2    C2 5243   3.940   3.595  10.012 -0.0004 -0.1578  0.6709
  350MPD2    C3 5244   3.986   3.720  10.024  0.2689 -1.0414 -0.5882
  350MPD2    C4 5245   3.893   3.824  10.028 -0.0892  0.2331 -0.5938
  350MPD2    C5 5246   3.761   3.796  10.009  0.5783 -0.0145  0.0541
  350MPD2     H 5247   4.015   3.516  10.015  0.2975  0.0801 -0.3851
  350MPD2    H1 5248   3.917   3.928  10.046  1.6486 -0.3487  0.4993
  350MPD2    H2 5249   3.605   3.665  10.008 -0.1829  1.0949 -0.3022
  350MPD2    H3 5250   3.692   3.879  10.021  1.3881  0.7468 -0.5852
  350MPD2     N 5251   4.125   3.732  10.048 -0.2007 -0.2574  0.5355
  350MPD2    H5 5252   4.167   3.640  10.062 -0.4522 -0.1667  1.9492
  350MPD2    N1 5253   3.763   3.438  10.021 -0.2746 -0.1078  0.1771
  350MPD2    H7 5254   3.837   3.371  10.001 -0.3538  0.1844 -1.0563
  351TMC3    C1 5255   3.629   3.251  10.055 -0.3961  0.2379 -0.3199
  351TMC3    C2 5256   3.738   3.177  10.009  0.0123 -0.0654 -0.2235
  351TMC3    C3 5257   3.751   3.045  10.042  0.1842 -0.3689 -0.5872
  351TMC3    C4 5258   3.530   3.190  10.115 -0.3418  0.1723 -0.8188
  351TMC3    C5 5259   3.543   3.055  10.133  0.8693  0.2874 -0.1675
  351TMC3    C6 5260   3.656   2.976  10.104 -0.2938  0.7180 -0.2636
  351TMC3     C 5261   3.635   3.390  10.046  0.7111 -0.6202  0.3713
  351TMC3     O 5262   3.544   3.451  10.094  0.3421  0.6317  0.4179
  351TMC3     H 5263   3.825   3.221   9.962 -1.3630  0.6319 -2.1455
  351TMC3    H1 5264   3.440   3.235  10.154  1.9940  1.5724  2.8498
  351TMC3    H2 5265   3.668   2.869  10.115 -0.1211  0.5448 -2.2198
  351TMC3    C7 5266   3.427   2.979  10.172  0.9382  0.7608  0.2085
  351TMC3    C8 5267   3.877   2.976  10.005 -0.5133  0.1933  0.4836
  351TMC3    O1 5268   3.411   2.952  10.292 -0.0574  0.0619  0.3507
  351TMC3    O2 5269   3.914   2.982   9.886 -0.1154 -0.1777  0.5629
  352MPD2     C 5270   2.471   1.040   1.652  0.4317  0.3763  0.7274
  352MPD2    C1 5271   2.409   0.951   1.570  0.4016 -0.1113  0.5203
  352MPD2    C2 5272   2.402   0.817   1.602  0.4284  0.5790 -0.0799
  352MPD2    C3 5273   2.461   0.773   1.716  0.5199 -0.0546  0.6332
  352MPD2    C4 5274   2.542   0.859   1.792 -0.2538 -0.7014 -0.0389
  352MPD2    C5 5275   2.536   0.993   1.761  0.4526 -0.2106  0.2836
  352MPD2     H 5276   2.363   0.750   1.527  0.6733  0.7035 -0.3183
  352MPD2    H1 5277   2.600   0.829   1.878  2.1814  0.7132 -1.1779
  352MPD2    H2 5278   2.477   1.147   1.635 -2.2912  0.8640  2.6816
  352MPD2    H3 5279   2.610   1.047   1.820 -0.3992  3.2471 -1.8596
  352MPD2     N 5280   2.470   0.628   1.734  0.3241  0.0950  0.6217
  352MPD2    H5 5281   2.549   0.587   1.782  1.8184  1.3590 -0.7565
  352MPD2    N1 5282   2.352   0.998   1.445  0.2915 -0.1194  0.5655
  352MPD2    H7 5283   2.316   0.929   1.381 -0.3246 -1.0058  1.8714
  353TMC3    C1 5284   2.469   0.410   1.644  0.5194  0.2178 -0.4046
  353TMC3    C2 5285   2.569   0.373   1.724  0.4715  0.2300 -0.5826
  353TMC3    C3 5286   2.618   0.252   1.692  0.4360  0.1184  0.4569
  353TMC3    C4 5287   2.435   0.345   1.524 -0.8896  0.1946  0.4882
  353TMC3    C5 5288   2.489   0.224   1.495 -0.5242  1.2576 -0.1218
  353TMC3    C6 5289   2.577   0.173   1.584  0.1463  0.2831 -0.2037
  353TMC3     C 5290   2.402   0.536   1.663 -0.1609  0.3293 -0.0772
  353TMC3     O 5291   2.288   0.544   1.611 -0.2460  0.1500  0.1174
  353TMC3     H 5292   2.605   0.419   1.816 -0.1574  3.4240 -1.9295
  353TMC3    H1 5293   2.364   0.391   1.456  2.0131 -0.0635 -2.6773
  353TMC3    H2 5294   2.636   0.085   1.563 -1.5892 -0.7715 -0.6010
  353TMC3    C7 5295   2.486   0.180   1.360  0.1259  0.4164 -0.5709
  353TMC3    C8 5296   2.724   0.198   1.774  0.5949  0.1603  0.8589
  353TMC3    O1 5297   2.447   0.263   1.282  0.4205 -0.6737  0.7427
  353TMC3    O2 5298   2.729   0.220   1.895 -0.6168 -1.1772  0.3094
  354TMC3    C1 5299   4.202   2.024  13.316 -0.5112 -0.1170 -0.2489
  354TMC3    C2 5300   4.197   2.157  13.270  0.6689  1.1373 -0.3841
  354TMC3    C3 5301   4.220   2.179  13.136  0.1759  0.4859 -1.4679
  354TMC3    C4 5302   4.227   1.926  13.222 -0.3858 -0.1667 -0.1637
  354TMC3    C5 5303   4.267   1.952  13.089 -0.0527 -0.0459  0.8285
  354TMC3    C6 5304   4.251   2.076  13.044 -0.1518  0.4880  0.0481
  354TMC3     C 5305   4.203   1.984  13.456  1.5211  0.4670 -0.6559
  354TMC3     O 5306   4.158   1.872  13.482 -0.4332  0.2718 -1.1855
  354TMC3     H 5307   4.163   2.237  13.334 -0.1726  0.8630 -0.4887
  354TMC3    H1 5308   4.244   1.828  13.264  1.4332  0.7489  1.2016
  354TMC3    H2 5309   4.267   2.100  12.939 -2.2337 -1.3292 -0.6792
  354TMC3    C7 5310   4.364   1.868  13.018 -0.5612  0.0499 -0.2405
  354TMC3    C8 5311   4.228   2.310  13.083  0.1217  0.6156  0.2008
  354TMC3    O1 5312   4.353   1.752  13.041 -0.5088 -0.2362 -0.8652
  354TMC3    O2 5313   4.218   2.317  12.965  0.0649  0.1313  0.0069
  355MPD2     C 5314   3.690   2.859  11.677 -0.0510  0.0753 -1.0273
  355MPD2    C1 5315   3.755   2.933  11.583  0.4581 -0.8552  0.5467
  355MPD2    C2 5316   3.894   2.914  11.567  0.0856  0.5941  1.1369
  355MPD2    C3 5317   3.967   2.846  11.661  0.1485  0.5781 -0.1156
  355MPD2    C4 5318   3.894   2.775  11.751 -0.2283 -0.0084  0.0804
  355MPD2    C5 5319   3.760   2.778  11.760  0.5741  0.0511 -0.1135
  355MPD2     H 5320   3.949   2.966  11.489  1.8065  0.3775  2.1971
  355MPD2    H1 5321   3.949   2.717  11.824  0.7096 -1.8800 -2.0948
  355MPD2    H2 5322   3.581   2.857  11.683 -0.0106 -0.4252 -0.4913
  355MPD2    H3 5323   3.718   2.716  11.839 -0.0578  0.4893 -0.1044
  355MPD2     N 5324   4.108   2.853  11.687 -0.4957  0.0438 -0.0079
  355MPD2    H5 5325   4.137   2.805  11.771  2.1848  1.3308 -0.2032
  355MPD2    N1 5326   3.664   3.002  11.498 -0.5645  0.1272  0.3909
  355MPD2    H7 5327   3.567   2.974  11.514 -1.2105  2.3026  0.3111
  356TMC3    C1 5328   4.322   2.959  11.660 -0.0821 -0.4843 -0.3828
  356TMC3    C2 5329   4.390   3.059  11.605 -0.9970  0.0883 -0.4806
  356TMC3    C3 5330   4.508   3.102  11.653 -0.5139 -0.1095 -0.5357
  356TMC3    C4 5331   4.371   2.890  11.775 -0.0192  0.0779 -0.2075
  356TMC3    C5 5332   4.491   2.941  11.825  1.3815  0.2110 -0.5896
  356TMC3    C6 5333   4.558   3.046  11.767 -0.1111 -0.3561 -0.1162
  356TMC3     C 5334   4.193   2.926  11.607 -0.0324  0.1760 -0.0869
  356TMC3     O 5335   4.175   2.972  11.496 -0.2888  0.1596  0.2996
  356TMC3     H 5336   4.360   3.110  11.514 -1.1862  0.3739 -0.2590
  356TMC3    H1 5337   4.314   2.812  11.824 -0.2675  0.1088 -0.4450
  356TMC3    H2 5338   4.662   3.068  11.790 -0.0456 -2.7175  1.7941
  356TMC3    C7 5339   4.540   2.871  11.939 -0.4132  0.2379 -0.2328
  356TMC3    C8 5340   4.593   3.169  11.563  0.1376 -0.2225 -0.1642
  356TMC3    O1 5341   4.490   2.763  11.969  0.0106 -0.3114 -0.4671
  356TMC3    O2 5342   4.571   3.155  11.446 -0.0381 -0.5595  0.0659
  357MPD2     C 5343   0.052   2.990   1.287  0.3125  0.1986 -0.4868
  357MPD2    C1 5344   0.161   2.942   1.361 -0.5401 -0.4270 -0.1771
  357MPD2    C2 5345   0.171   2.983   1.498  0.6740  0.4247 -0.7812
  357MPD2    C3 5346   0.065   3.060   1.552 -0.6377 -0.2552  0.3712
  357MPD2    C4 5347   4.693   3.119   1.470  0.2374  0.1363  0.2722
  357MPD2    C5 5348   4.693   3.085   1.337 -0.6846 -0.3644 -0.1947
  357MPD2     H 5349   0.257   2.949   1.554 -0.5262 -1.1428  0.0782
  357MPD2    H1 5350   4.608   3.182   1.495  2.6382  3.4960 -0.0088
  357MPD2    H2 5351   0.032   2.956   1.187 -2.7091 -1.0882  0.5543
  357MPD2    H3 5352   4.627   3.134   1.266 -0.0182 -0.4064 -0.8422
  357MPD2     N 5353   0.064   3.074   1.689 -0.3312  0.6317  0.2505
  357MPD2    H5 5354   0.014   3.150   1.735 -0.7897  0.9301 -0.7268
  357MPD2    N1 5355   0.247   2.846   1.302  0.3725 -0.3805 -0.9608
  357MPD2    H7 5356   0.228   2.809   1.209  2.5270 -0.9824 -1.1658
  358TMC3    C1 5357   0.431   2.700   1.295  0.1231 -0.0039  0.7098
  358TMC3    C2 5358   0.355   2.611   1.232  0.5918 -0.3867 -0.1870
  358TMC3    C3 5359   0.401   2.483   1.232 -0.4293 -0.0809  0.0664
  358TMC3    C4 5360   0.552   2.671   1.355 -0.8681  0.2369  0.5411
  358TMC3    C5 5361   0.591   2.544   1.353 -0.0416 -0.8507 -0.3432
  358TMC3    C6 5362   0.518   2.444   1.294 -1.0125 -0.6142  0.6075
  358TMC3     C 5363   0.355   2.802   1.367 -0.4343  0.0709 -0.0552
  358TMC3     O 5364   0.426   2.845   1.459  0.2491  0.2753  0.3789
  358TMC3     H 5365   0.256   2.632   1.195  1.0670 -0.3697 -1.4435
  358TMC3    H1 5366   0.616   2.752   1.389 -1.8125  0.2599  2.2498
  358TMC3    H2 5367   0.566   2.351   1.266  0.8250  0.1343  1.3052
  358TMC3    C7 5368   0.698   2.516   1.452 -0.1050  0.8545  0.0393
  358TMC3    C8 5369   0.328   2.385   1.147 -0.2313 -0.2631 -0.0688
  358TMC3    O1 5370   0.750   2.613   1.510  0.5710 -0.1690 -0.1444
  358TMC3    O2 5371   0.259   2.436   1.062  0.0286  0.4590 -0.0081
  359MPD2     C 5372   4.415   1.337  12.343 -0.5503  0.4698 -0.6845
  359MPD2    C1 5373   4.393   1.338  12.206  0.0241  1.0273 -0.3079
  359MPD2    C2 5374   4.282   1.401  12.162  0.4666  0.1017  0.4244
  359MPD2    C3 5375   4.184   1.463  12.242  0.2403 -0.1649 -0.0913
  359MPD2    C4 5376   4.205   1.453  12.377  0.5182  0.2962 -0.1342
  359MPD2    C5 5377   4.320   1.401  12.428 -0.0796  0.1391 -0.4157
  359MPD2     H 5378   4.266   1.414  12.056 -0.1688 -0.8783  0.3969
  359MPD2    H1 5379   4.124   1.483  12.443  0.7002  1.1390 -0.2989
  359MPD2    H2 5380   4.500   1.283  12.383 -0.8931 -0.2672 -0.9515
  359MPD2    H3 5381   4.324   1.395  12.536  0.9796  1.5867 -0.3733
  359MPD2     N 5382   4.061   1.518  12.193  0.5691  0.4090  0.7257
  359MPD2    H5 5383   4.000   1.565  12.259  0.5284  2.3572 -0.7053
  359MPD2    N1 5384   4.470   1.274  12.112  0.4989  0.1146  0.2935
  359MPD2    H7 5385   4.439   1.292  12.017  0.4941  1.5314  0.5658
  360TMC3    C1 5386   4.647   1.152  12.010 -0.4771 -0.3439  0.2345
  360TMC3    C2 5387   0.061   1.173  12.004  0.2971  0.4412  0.6935
  360TMC3    C3 5388   0.117   1.153  11.876 -0.2874 -0.4633 -0.0255
  360TMC3    C4 5389   4.565   1.147  11.902 -1.0625  0.6852  0.2264
  360TMC3    C5 5390   4.624   1.147  11.782 -0.2409  0.7178 -0.1191
  360TMC3    C6 5391   0.033   1.147  11.766  0.0165 -0.2229  0.6590
  360TMC3     C 5392   4.590   1.205  12.137 -0.1280 -0.2732 -0.4543
  360TMC3     O 5393   4.649   1.181  12.239 -0.9048  0.1378  0.2633
  360TMC3     H 5394   0.117   1.166  12.096  0.1443 -0.4708  0.7217
  360TMC3    H1 5395   4.456   1.143  11.906 -0.8879 -3.9033 -0.1662
  360TMC3    H2 5396   0.070   1.148  11.664 -2.2742 -1.1229 -0.1720
  360TMC3    C7 5397   4.546   1.118  11.663  0.1364  0.5606  0.3651
  360TMC3    C8 5398   0.255   1.189  11.851 -0.1308  0.1487 -0.3456
  360TMC3    O1 5399   4.463   1.029  11.677  0.7306 -0.3684 -0.3262
  360TMC3    O2 5400   0.303   1.133  11.751 -0.0966  0.3685 -0.4989
  361MPD2     C 5401   1.433   0.145  16.722 -0.1242 -0.2493  0.4644
  361MPD2    C1 5402   1.458   0.234  16.833 -0.0818  0.1636  0.4517
  361MPD2    C2 5403   1.582   0.238  16.883  0.1817  0.1285 -0.5237
  361MPD2    C3 5404   1.685   0.158  16.834  0.0836  0.6599 -0.6697
  361MPD2    C4 5405   1.657   0.069  16.729  0.8038 -0.0842 -0.7649
  361MPD2    C5 5406   1.533   0.062  16.677 -0.6833 -0.3632 -0.3372
  361MPD2     H 5407   1.605   0.314  16.957  1.5296 -1.2457  0.4596
  361MPD2    H1 5408   1.736   4.721  16.706  0.9820  0.7596 -2.7399
  361MPD2    H2 5409   1.334   0.148  16.677  1.7320  0.9308 -3.4223
  361MPD2    H3 5410   1.517   4.723  16.590  0.6236  1.3714 -1.8086
  361MPD2     N 5411   1.817   0.152  16.881  0.0167 -0.0378  0.0263
  361MPD2    H5 5412   1.882   0.083  16.843  1.0851  1.4021 -0.7350
  361MPD2    N1 5413   1.364   0.330  16.873  0.0203  0.5628  0.5103
  361MPD2    H7 5414   1.388   0.395  16.947  2.7706  0.5749 -0.3928
  362TMC3    C1 5415   1.153   0.459  16.884  1.1016 -0.1311 -0.0044
  362TMC3    C2 5416   1.231   0.564  16.928  0.6961 -0.3931  0.0274
  362TMC3    C3 5417   1.179   0.691  16.931 -0.1180  0.5797  0.2633
  362TMC3    C4 5418   1.032   0.485  16.817  0.3243  0.1941  0.1522
  362TMC3    C5 5419   1.002   0.618  16.806  0.1642 -0.2528 -0.8391
  362TMC3    C6 5420   1.061   0.724  16.868 -0.1521 -0.0265  0.2826
  362TMC3     C 5421   1.230   0.343  16.829  0.0994  0.6007  0.0943
  362TMC3     O 5422   1.166   0.276  16.751 -0.9927 -0.3905 -0.1372
  362TMC3     H 5423   1.321   0.546  16.985  0.6392  1.0509  0.5755
  362TMC3    H1 5424   0.985   0.399  16.772  2.3428 -0.3575 -0.9084
  362TMC3    H2 5425   1.038   0.823  16.830 -0.3421 -0.1809 -0.0049
  362TMC3    C7 5426   0.926   0.658  16.685 -0.2889 -0.5729 -0.2194
  362TMC3    C8 5427   1.241   0.782  17.018 -0.4728 -0.0205 -0.2397
  362TMC3    O1 5428   0.884   0.775  16.683  0.3708 -0.1153 -0.1042
  362TMC3    O2 5429   1.352   0.766  17.066 -0.2083 -0.0934  0.0980
  363TMC3    C1 5430   4.692   3.141   9.307 -0.0999  0.0035 -0.0649
  363TMC3    C2 5431   0.030   3.064   9.404  0.3135  0.6399 -0.1620
  363TMC3    C3 5432   4.684   3.036   9.513 -0.4786 -0.6675  0.0962
  363TMC3    C4 5433   4.583   3.215   9.336  0.7468  0.2943  1.0902
  363TMC3    C5 5434   4.510   3.172   9.448 -0.6846  0.0654  0.4412
  363TMC3    C6 5435   4.560   3.081   9.537 -0.1668 -0.4066 -0.0940
  363TMC3     C 5436   0.043   3.148   9.187 -1.3536  0.0892 -0.2580
  363TMC3     O 5437   0.134   3.068   9.166 -0.0334 -0.2791  0.3113
  363TMC3     H 5438   0.120   3.008   9.382  0.1422 -0.1353  1.1617
  363TMC3    H1 5439   4.533   3.263   9.253  0.2433 -2.8842 -0.4313
  363TMC3    H2 5440   4.511   3.065   9.633  0.5960 -0.8723  0.2128
  363TMC3    C7 5441   4.379   3.227   9.472  0.4164 -0.3436 -0.7513
  363TMC3    C8 5442   0.039   2.999   9.621  0.4140  0.6690  0.1172
  363TMC3    O1 5443   4.299   3.141   9.504  0.0959  0.5845  0.3432
  363TMC3    O2 5444   0.023   3.063   9.727  0.1946  0.0472 -0.2425
  364MPD2     C 5445   3.245   2.051  10.243 -0.0377  0.9161 -0.0438
  364MPD2    C1 5446   3.306   2.083  10.123 -0.6503 -0.5367 -0.3155
  364MPD2    C2 5447   3.417   2.013  10.077 -0.2133 -0.3659  0.2566
  364MPD2    C3 5448   3.456   1.901  10.146 -0.1865  0.4065 -0.2400
  364MPD2    C4 5449   3.388   1.863  10.258  0.2068 -0.4795  0.1609
  364MPD2    C5 5450   3.282   1.934  10.303 -0.8147 -0.4783  0.2607
  364MPD2     H 5451   3.475   2.051   9.994  4.6485 -2.6131  2.5973
  364MPD2    H1 5452   3.416   1.767  10.300  0.7125  0.4591  1.9544
  364MPD2    H2 5453   3.168   2.113  10.289 -0.7501  1.1634 -1.5405
  364MPD2    H3 5454   3.223   1.884  10.379 -1.3277 -1.6039 -0.8673
  364MPD2     N 5455   3.572   1.836  10.114 -0.5961 -0.3664  0.5971
  364MPD2    H5 5456   3.606   1.776  10.189  0.8926 -0.1677  0.0805
  364MPD2    N1 5457   3.263   2.203  10.065 -0.3114  0.0316 -0.1112
  364MPD2    H7 5458   3.203   2.262  10.122  1.8272  2.5670 -0.4846
  365TMC3    C1 5459   3.292   2.397   9.934  0.3708 -0.2509  0.1185
  365TMC3    C2 5460   3.316   2.444   9.806  0.6794 -0.1903  0.0399
  365TMC3    C3 5461   3.415   2.534   9.788 -0.2500 -0.1889 -0.3443
  365TMC3    C4 5462   3.344   2.455  10.040  0.3869 -0.3678 -0.0434
  365TMC3    C5 5463   3.441   2.557  10.018  0.0006 -0.1863  0.0846
  365TMC3    C6 5464   3.480   2.596   9.894 -0.5166 -0.1913  0.2231
  365TMC3     C 5465   3.309   2.255   9.948  0.2757 -0.4413 -0.7441
  365TMC3     O 5466   3.367   2.202   9.854  0.0601 -0.1333 -0.0050
  365TMC3     H 5467   3.273   2.396   9.719 -2.8833  1.1030  1.0833
  365TMC3    H1 5468   3.318   2.419  10.139 -0.0788  0.3692  0.0975
  365TMC3    H2 5469   3.548   2.679   9.878 -0.0983 -0.2956  1.5151
  365TMC3    C7 5470   3.516   2.606  10.136 -0.7131 -0.5861 -0.2103
  365TMC3    C8 5471   3.517   2.494   9.697  0.4770  0.4689  0.3077
  365TMC3    O1 5472   3.637   2.626  10.120 -0.3990  0.2317  0.8280
  365TMC3    O2 5473   3.595   2.584   9.665  0.4702  0.1522  0.7800
  366MPD2     C 5474   1.998   3.272  14.963 -0.4017 -0.5000  0.5439
  366MPD2    C1 5475   2.064   3.308  15.078  0.4132  0.2055 -0.0783
  366MPD2    C2 5476   2.164   3.228  15.129 -0.2464 -0.2067 -0.0067
  366MPD2    C3 5477   2.209   3.118  15.057  0.1675 -0.6850 -0.0324
  366MPD2    C4 5478   2.140   3.077  14.950 -0.6937  0.4783  0.4589
  366MPD2    C5 5479   2.038   3.148  14.902 -0.8455 -0.3030 -0.6517
  366MPD2     H 5480   2.213   3.261  15.220 -0.0238  1.2301 -0.6434
  366MPD2    H1 5481   2.185   3.003  14.885 -0.6313  0.5590  0.4105
  366MPD2    H2 5482   1.920   3.329  14.913  0.2026  0.6282  0.8996
  366MPD2    H3 5483   2.001   3.122  14.803 -3.1367  2.4438 -0.5392
  366MPD2     N 5484   2.331   3.070  15.112  0.2065  0.0367  0.4820
  366MPD2    H5 5485   2.351   3.110  15.204 -1.1228  0.7320  0.4664
  366MPD2    N1 5486   2.036   3.426  15.148  0.6343  0.8456 -0.1260
  366MPD2    H7 5487   2.091   3.448  15.231 -2.1869  0.3372  1.8956
  367TMC3    C1 5488   1.983   3.644  15.182  0.0258 -0.8244  0.4488
  367TMC3    C2 5489   2.109   3.683  15.194 -0.4941  0.5511 -0.0774
  367TMC3    C3 5490   2.126   3.818  15.226 -0.8390 -0.2471 -0.2654
  367TMC3    C4 5491   1.879   3.730  15.183  0.4094  0.4504  0.1763
  367TMC3    C5 5492   1.899   3.863  15.210 -0.1722 -0.2294  0.0447
  367TMC3    C6 5493   2.026   3.905  15.240 -0.2666  0.1409  0.8289
  367TMC3     C 5494   1.956   3.524  15.107  0.5293 -0.2072  0.3034
  367TMC3     O 5495   1.906   3.534  14.995 -0.1860  0.3313  0.4632
  367TMC3     H 5496   2.192   3.613  15.191  0.7836  2.0665 -0.1560
  367TMC3    H1 5497   1.777   3.691  15.181  0.3771  0.6361 -2.3445
  367TMC3    H2 5498   2.031   4.014  15.240 -1.5712  0.1886  3.4082
  367TMC3    C7 5499   1.802   3.964  15.190 -0.0620 -0.2809  0.0222
  367TMC3    C8 5500   2.251   3.848  15.297 -0.6062  0.7345  0.1622
  367TMC3    O1 5501   1.816   4.075  15.244 -0.2731  0.4043 -0.3467
  367TMC3    O2 5502   2.344   3.771  15.301  0.8200  0.0088 -0.5848
  368MPD2     C 5503   2.603   0.872  12.978  0.0116  0.1853  0.2173
  368MPD2    C1 5504   2.591   0.983  12.892  0.3453 -0.0068 -0.1155
  368MPD2    C2 5505   2.708   1.041  12.848  0.5766 -0.3939 -0.9917
  368MPD2    C3 5506   2.835   1.001  12.894 -0.8103  0.4647  0.1664
  368MPD2    C4 5507   2.842   0.889  12.977  0.2801  0.1344 -0.4158
  368MPD2    C5 5508   2.728   0.826  13.020 -0.5455  0.1827  0.9385
  368MPD2     H 5509   2.706   1.121  12.775 -0.7126  0.4704 -0.0093
  368MPD2    H1 5510   2.937   0.849  13.011 -0.4414  1.3107  2.9204
  368MPD2    H2 5511   2.514   0.823  13.017 -0.8247  1.0013 -0.6527
  368MPD2    H3 5512   2.721   0.736  13.079  1.6684 -0.8226 -0.3340
  368MPD2     N 5513   2.949   1.067  12.843  0.2117 -0.3268 -0.2055
  368MPD2    H5 5514   3.039   1.023  12.859 -0.0963 -0.9622 -0.2393
  368MPD2    N1 5515   2.458   1.028  12.851 -0.5870  0.3970  0.3312
  368MPD2    H7 5516   2.384   0.961  12.865 -0.6477  0.5882  0.9409
  369TMC3    C1 5517   2.292   1.187  12.759 -0.1779  0.7158  0.0282
  369TMC3    C2 5518   2.262   1.283  12.669 -0.1736 -0.1229 -0.5883
  369TMC3    C3 5519   2.135   1.288  12.615 -0.2328  0.6559  0.0771
  369TMC3    C4 5520   2.198   1.100  12.800  0.6851 -0.1388  0.6033
  369TMC3    C5 5521   2.074   1.099  12.737  1.0123 -0.5800 -0.2245
  369TMC3    C6 5522   2.036   1.191  12.640 -0.0469 -0.6843  0.1031
  369TMC3     C 5523   2.428   1.154  12.797  0.2026  0.2169 -0.2743
  369TMC3     O 5524   2.508   1.243  12.779 -0.4509  0.0232 -0.2753
  369TMC3     H 5525   2.339   1.357  12.653 -1.3310  1.0654 -0.6366
  369TMC3    H1 5526   2.210   1.043  12.891  2.1799 -2.0744 -0.7948
  369TMC3    H2 5527   1.954   1.184  12.569  0.7678 -2.0391 -0.7088
  369TMC3    C7 5528   1.977   0.999  12.787  0.0929 -0.0652  0.1146
  369TMC3    C8 5529   2.101   1.390  12.520 -0.3990 -0.3267  0.3189
  369TMC3    O1 5530   2.014   0.921  12.872 -0.2186  0.0505 -0.3384
  369TMC3    O2 5531   2.018   1.358  12.438  0.0340  0.1547  0.3054
  370TMC3    C1 5532   2.652   1.243  16.183  0.2252 -0.0011  0.2026
  370TMC3    C2 5533   2.583   1.179  16.280  0.0006  0.3906 -0.3443
  370TMC3    C3 5534   2.527   1.060  16.254  0.6478 -0.7277 -0.1392
  370TMC3    C4 5535   2.678   1.178  16.068 -0.3863 -0.2387 -0.0084
  370TMC3    C5 5536   2.623   1.054  16.047  0.2469  0.0639 -0.2456
  370TMC3    C6 5537   2.535   0.999  16.138  0.4170 -0.1577 -0.5525
  370TMC3     C 5538   2.757   1.336  16.224  0.1214  0.5355 -1.0462
  370TMC3     O 5539   2.797   1.318  16.337  0.0218  0.5502 -0.3353
  370TMC3     H 5540   2.575   1.231  16.375  0.6479  1.6827 -0.9884
  370TMC3    H1 5541   2.729   1.227  15.985 -1.2650  1.5648  0.5153
  370TMC3    H2 5542   2.498   0.900  16.117  0.4047  0.0454 -1.4727
  370TMC3    C7 5543   2.667   0.986  15.921 -0.0450 -0.6409  0.1829
  370TMC3    C8 5544   2.486   0.969  16.364  0.5604  0.3187 -0.3503
  370TMC3    O1 5545   2.708   1.054  15.830  0.4665  0.2787  0.4880
  370TMC3    O2 5546   2.473   0.850  16.340 -0.2609  0.1993 -0.2997
  371TMC3    C1 5547   3.917   4.135  15.427 -0.5633  0.6163 -0.0979
  371TMC3    C2 5548   3.833   4.133  15.534 -1.3278 -0.1773  0.0530
  371TMC3    C3 5549   3.724   4.208  15.526  0.1364  0.3281  0.7581
  371TMC3    C4 5550   3.885   4.205  15.311  0.1987  0.2980 -0.0306
  371TMC3    C5 5551   3.767   4.269  15.308  0.2316 -0.8978  0.2175
  371TMC3    C6 5552   3.683   4.270  15.412 -0.3208  0.0111  0.0904
  371TMC3     C 5553   4.053   4.082  15.443 -0.1680 -0.1223  0.4506
  371TMC3     O 5554   4.139   4.103  15.360  0.0935  0.5970 -0.3187
  371TMC3     H 5555   3.870   4.095  15.629  3.4891  2.4580 -0.7340
  371TMC3    H1 5556   3.967   4.214  15.241 -1.6512 -1.4281 -2.4242
  371TMC3    H2 5557   3.586   4.318  15.401 -0.7379 -0.1512  3.2242
  371TMC3    C7 5558   3.732   4.338  15.189 -0.2105 -0.3188 -0.2354
  371TMC3    C8 5559   3.625   4.201  15.628  0.1580 -0.3523 -0.2233
  371TMC3    O1 5560   3.670   4.440  15.208  0.1923  0.0673 -0.2191
  371TMC3    O2 5561   3.619   4.094  15.694  0.0799 -0.6414  0.5428
  372MPD2     C 5562   3.383   1.057  13.116  0.1376  0.3653  0.0676
  372MPD2    C1 5563   3.458   0.976  13.198  0.1807 -0.1220 -0.0849
  372MPD2    C2 5564   3.393   0.911  13.299  0.3767 -0.5439  0.4182
  372MPD2    C3 5565   3.262   0.938  13.326  0.1113  0.1762  0.0308
  372MPD2    C4 5566   3.186   1.019  13.245  0.1529 -0.0547 -0.5613
  372MPD2    C5 5567   3.252   1.077  13.137  0.3107 -0.9148  0.3123
  372MPD2     H 5568   3.448   0.847  13.367  0.1199 -2.5936 -1.3004
  372MPD2    H1 5569   3.082   1.039  13.267 -0.0224  0.1238 -1.5553
  372MPD2    H2 5570   3.417   1.099  13.022 -0.0209  0.0536 -0.1267
  372MPD2    H3 5571   3.200   1.144  13.069  1.3516 -1.9600 -1.5073
  372MPD2     N 5572   3.211   0.876  13.440  0.7224  0.1121 -0.8324
  372MPD2    H5 5573   3.277   0.842  13.509  1.9185  0.9376 -1.5730
  372MPD2    N1 5574   3.592   0.930  13.180 -0.5637  0.4228 -0.3664
  372MPD2    H7 5575   3.620   0.846  13.230 -0.2657 -0.0118 -1.2497
  373TMC3    C1 5576   3.074   0.746  13.564 -0.2757  0.0647 -0.6468
  373TMC3    C2 5577   2.952   0.725  13.617  0.6816  1.0430  0.0579
  373TMC3    C3 5578   2.928   0.618  13.693  0.3411  0.2845  0.9437
  373TMC3    C4 5579   3.176   0.650  13.568 -0.3127  0.1888 -0.2954
  373TMC3    C5 5580   3.146   0.543  13.651  0.1475  0.1585  0.5934
  373TMC3    C6 5581   3.022   0.521  13.705 -0.2109 -0.4892  0.4082
  373TMC3     C 5582   3.075   0.849  13.461 -0.0730 -0.1051 -0.0625
  373TMC3     O 5583   2.977   0.867  13.393  0.2685 -0.2096 -0.2495
  373TMC3     H 5584   2.877   0.802  13.607  0.2714  0.6882  0.3709
  373TMC3    H1 5585   3.275   0.652  13.524  1.0165 -2.4948  2.5780
  373TMC3    H2 5586   2.998   0.428  13.755 -1.1310 -0.8770 -0.7656
  373TMC3    C7 5587   3.256   0.462  13.691 -0.1161 -0.2770  0.3432
  373TMC3    C8 5588   2.792   0.585  13.732 -0.0213 -0.5227 -1.0245
  373TMC3    O1 5589   3.346   0.455  13.606  0.4927 -0.2828  0.3630
  373TMC3    O2 5590   2.711   0.634  13.659 -0.2063 -0.2054  0.0811
  374TMC3    C1 5591   3.675   0.977   9.677 -0.3147  0.3008  0.2941
  374TMC3    C2 5592   3.776   1.062   9.637  0.6988  0.4529  0.7300
  374TMC3    C3 5593   3.743   1.184   9.573 -0.3444  0.1290 -0.0908
  374TMC3    C4 5594   3.549   0.990   9.619 -0.7716 -0.3041  0.1027
  374TMC3    C5 5595   3.530   1.108   9.552 -0.5030  0.1180  0.4459
  374TMC3    C6 5596   3.618   1.205   9.526  0.0460  0.0944  0.4756
  374TMC3     C 5597   3.713   0.856   9.755 -0.0876 -0.0568  0.0790
  374TMC3     O 5598   3.832   0.843   9.790 -0.5865 -0.6870 -0.1040
  374TMC3     H 5599   3.873   1.050   9.684  0.8296  0.4359  0.4537
  374TMC3    H1 5600   3.466   0.925   9.645  0.6648 -1.6071  1.4085
  374TMC3    H2 5601   3.584   1.303   9.497  0.1743  0.2765  0.9482
  374TMC3    C7 5602   3.399   1.114   9.489 -0.2849  0.4508  0.1224
  374TMC3    C8 5603   3.840   1.287   9.526 -0.3509 -0.3499 -0.1418
  374TMC3    O1 5604   3.312   1.035   9.514  0.5429  0.2423  0.1056
  374TMC3    O2 5605   3.795   1.378   9.459  0.2199 -0.1681 -0.3337
  375MPD2     C 5606   3.776   2.060  17.174 -0.4222 -0.0529  0.0674
  375MPD2    C1 5607   3.699   1.987  17.089  0.4833  0.0835  0.3015
  375MPD2    C2 5608   3.748   1.929  16.980  0.1351  0.3279 -0.3269
  375MPD2    C3 5609   3.882   1.937  16.949  0.4966  0.1171  0.2143
  375MPD2    C4 5610   3.963   2.010  17.036 -0.1564  1.1383  0.3409
  375MPD2    C5 5611   3.906   2.078  17.144  0.3822  0.1461  0.2352
  375MPD2     H 5612   3.681   1.871  16.917  0.4437 -1.2215  0.7786
  375MPD2    H1 5613   4.069   2.006  17.013 -0.6329  2.5040 -2.0891
  375MPD2    H2 5614   3.717   2.113  17.248 -2.8854 -0.7119 -1.4534
  375MPD2    H3 5615   3.970   2.120  17.221  0.5449 -0.9106  0.6682
  375MPD2     N 5616   3.934   1.865  16.840 -0.3339  0.5241  0.6046
  375MPD2    H5 5617   4.035   1.856  16.835 -0.3587 -0.6495  2.2950
  375MPD2    N1 5618   3.556   1.975  17.112  0.0018 -0.2328 -0.2252
  375MPD2    H7 5619   3.508   1.933  17.033 -0.6752 -0.6039  0.3899
  376TMC3    C1 5620   3.937   1.748  16.633 -0.7282 -0.7679 -0.1462
  376TMC3    C2 5621   4.067   1.701  16.649 -0.6448  0.4859  0.3369
  376TMC3    C3 5622   4.122   1.646  16.540  0.7567 -0.0721 -0.3813
  376TMC3    C4 5623   3.879   1.761  16.511 -1.1721  0.2661  0.0383
  376TMC3    C5 5624   3.937   1.713  16.399  0.3914 -0.6505 -0.3494
  376TMC3    C6 5625   4.060   1.657  16.416  0.8133  0.1536  0.4255
  376TMC3     C 5626   3.854   1.809  16.739  0.2468  0.2663 -0.0198
  376TMC3     O 5627   3.735   1.827  16.716 -0.5281 -0.4153  0.4879
  376TMC3     H 5628   4.102   1.687  16.750  3.8634  2.3415 -0.9578
  376TMC3    H1 5629   3.785   1.813  16.494  0.2025  2.2368 -1.4530
  376TMC3    H2 5630   4.101   1.622  16.322 -1.8740  0.4728 -0.8735
  376TMC3    C7 5631   3.935   1.804  16.290 -0.3606 -0.1555 -0.5817
  376TMC3    C8 5632   4.271   1.637  16.540 -0.1787 -0.4906 -0.0784
  376TMC3    O1 5633   4.032   1.882  16.286  0.1142  0.1423 -0.2251
  376TMC3    O2 5634   4.325   1.671  16.436 -0.5788 -0.0741 -0.5641
  377MPD2     C 5635   1.960   1.084  12.118  0.9800  0.0327  1.0230
  377MPD2    C1 5636   2.020   1.056  12.238 -0.4894 -0.8783  0.3980
  377MPD2    C2 5637   1.954   0.972  12.329 -0.3253  0.3067  0.2042
  377MPD2    C3 5638   1.827   0.922  12.298 -0.3501 -1.0560 -0.1695
  377MPD2    C4 5639   1.753   0.978  12.188  0.3002 -0.4100 -0.6173
  377MPD2    C5 5640   1.827   1.051  12.093 -0.7948 -0.3778 -0.4860
  377MPD2     H 5641   2.012   0.949  12.417 -1.8370 -2.3109  0.5245
  377MPD2    H1 5642   1.647   0.968  12.171  0.3442 -0.4525 -0.8654
  377MPD2    H2 5643   2.008   1.152  12.048 -1.9681 -0.2755 -1.3008
  377MPD2    H3 5644   1.781   1.087  12.002  0.4212  0.3770 -0.8095
  377MPD2     N 5645   1.755   0.830  12.377  0.5494 -0.3378  0.1749
  377MPD2    H5 5646   1.668   0.796  12.338  0.2905  1.4963 -0.8784
  377MPD2    N1 5647   2.148   1.118  12.257  0.1987 -0.1572  0.0049
  377MPD2    H7 5648   2.169   1.188  12.186  1.2514  0.8111  1.2642
  378TMC3    C1 5649   2.498   1.242  12.164 -0.7623  0.3754 -0.1881
  378TMC3    C2 5650   2.374   1.252  12.214 -0.3612  0.0820 -0.2629
  378TMC3    C3 5651   2.358   1.180  12.332 -0.3291 -0.3382  0.5238
  378TMC3    C4 5652   2.606   1.187  12.228  0.2560  0.0928  0.3491
  378TMC3    C5 5653   2.586   1.144  12.356  0.3992 -0.0006  0.6488
  378TMC3    C6 5654   2.459   1.131  12.403 -0.8377 -0.4672 -0.6649
  378TMC3     C 5655   2.512   1.255  12.017  0.4565  0.7323  0.3287
  378TMC3     O 5656   2.417   1.299  11.957  0.1150  0.3752 -0.1069
  378TMC3     H 5657   2.288   1.289  12.161  1.5132  2.5118 -1.5975
  378TMC3    H1 5658   2.707   1.197  12.188  0.0784  2.1535  0.3843
  378TMC3    H2 5659   2.445   1.097  12.505  1.4750  0.8879  0.1082
  378TMC3    C7 5660   2.697   1.065  12.401  0.0701  0.3979 -0.2754
  378TMC3    C8 5661   2.239   1.092  12.353  0.1298 -0.2190  0.8071
  378TMC3    O1 5662   2.732   1.075  12.520  0.4003  0.0770  0.3606
  378TMC3    O2 5663   2.229   1.009  12.446 -0.6170 -0.7342  0.1034
  379MPD2     C 5664   2.906   3.720  16.194  0.4857  0.3071 -0.0896
  379MPD2    C1 5665   3.020   3.727  16.130  0.1656 -0.1376  0.2966
  379MPD2    C2 5666   3.133   3.676  16.192 -0.1753 -0.1181  0.7229
  379MPD2    C3 5667   3.135   3.628  16.326 -0.1565  0.3415 -0.2265
  379MPD2    C4 5668   3.018   3.639  16.393 -0.1804 -0.5860  0.3449
  379MPD2    C5 5669   2.910   3.686  16.327 -0.3677  0.2018 -0.1837
  379MPD2     H 5670   3.230   3.672  16.142  0.3731 -1.5961  1.8777
  379MPD2    H1 5671   3.014   3.611  16.498  1.8412 -0.8391  0.3592
  379MPD2    H2 5672   2.818   3.748  16.138  0.2178  2.6705  1.4636
  379MPD2    H3 5673   2.813   3.680  16.374  0.5340  2.2872  1.9163
  379MPD2     N 5674   3.245   3.595  16.405 -0.4820 -0.6776  0.3280
  379MPD2    H5 5675   3.225   3.559  16.498  1.4265 -0.6836  0.7362
  379MPD2    N1 5676   3.021   3.768  15.993  0.0641 -0.0257 -0.3397
  379MPD2    H7 5677   2.929   3.768  15.951  0.7925 -4.3974 -1.9509
  380TMC3    C1 5678   3.072   3.848  15.780  0.4010  0.0856 -0.2262
  380TMC3    C2 5679   3.149   3.848  15.665  0.0727 -0.3004  0.1326
  380TMC3    C3 5680   3.081   3.891  15.554  0.1768  0.1535 -0.2825
  380TMC3    C4 5681   2.946   3.912  15.786  0.3868 -0.8618  0.5158
  380TMC3    C5 5682   2.901   3.974  15.676  0.0583 -0.0500  0.6811
  380TMC3    C6 5683   2.961   3.950  15.557 -0.8526  0.0223 -0.4608
  380TMC3     C 5684   3.129   3.804  15.908 -1.0071 -0.4545 -0.6844
  380TMC3     O 5685   3.251   3.794  15.930 -0.3505  0.4650  0.4394
  380TMC3     H 5686   3.234   3.781  15.664  1.5250  1.5195  0.9074
  380TMC3    H1 5687   2.893   3.949  15.872  3.4704  1.2924  1.5018
  380TMC3    H2 5688   2.935   4.010  15.470 -0.3265  0.7216 -0.1380
  380TMC3    C7 5689   2.768   4.027  15.688  0.6318  0.2120 -0.1978
  380TMC3    C8 5690   3.146   3.886  15.427 -0.4172 -0.0000  0.5798
  380TMC3    O1 5691   2.756   4.101  15.784  0.3780 -0.1290 -0.5506
  380TMC3    O2 5692   3.081   3.917  15.333 -0.2486  0.3789  0.0184
  381TMC3    C1 5693   2.577   0.224  16.129  0.4954 -0.5527  0.0473
  381TMC3    C2 5694   2.648   0.342  16.118 -0.3062  0.6317 -0.2102
  381TMC3    C3 5695   2.643   0.432  16.220  0.3529  0.4737 -0.3026
  381TMC3    C4 5696   2.494   0.218  16.245 -0.4379 -0.1543  0.1394
  381TMC3    C5 5697   2.490   0.310  16.343  0.2496 -0.9682 -0.2121
  381TMC3    C6 5698   2.569   0.423  16.333 -0.3996 -0.5008 -0.2816
  381TMC3     C 5699   2.630   0.098  16.082 -0.3380  0.4432  0.7915
  381TMC3     O 5700   2.586   4.718  16.130  0.5004  0.3799  0.0081
  381TMC3     H 5701   2.705   0.358  16.027  0.0890 -3.8756 -0.7609
  381TMC3    H1 5702   2.446   0.126  16.276 -2.0442  0.9680  0.9633
  381TMC3    H2 5703   2.580   0.491  16.416  0.1252  0.5592 -1.2175
  381TMC3    C7 5704   2.485   0.255  16.475  0.1889 -0.0905  0.3679
  381TMC3    C8 5705   2.766   0.516  16.214  0.2132  0.1858 -0.0905
  381TMC3    O1 5706   2.527   0.143  16.499  0.5600  0.5680 -0.6763
  381TMC3    O2 5707   2.861   0.474  16.152 -0.1944  0.4871 -0.1509
  382MPD2     C 5708   1.813   3.065  16.525  1.2352  0.0293  0.5285
  382MPD2    C1 5709   1.769   3.094  16.654  0.2070  0.4613  0.5625
  382MPD2    C2 5710   1.743   2.995  16.745 -0.6649 -0.1289 -0.1172
  382MPD2    C3 5711   1.755   2.864  16.711 -0.0486  0.3552  0.3416
  382MPD2    C4 5712   1.792   2.833  16.586 -0.3164  0.2824  0.4543
  382MPD2    C5 5713   1.822   2.927  16.490 -0.2918  0.0389 -0.4797
  382MPD2     H 5714   1.704   3.024  16.842 -1.1199 -2.4649  0.4053
  382MPD2    H1 5715   1.795   2.733  16.545  1.0443  0.1851  0.7761
  382MPD2    H2 5716   1.832   3.139  16.448 -1.4912  0.8683  0.6721
  382MPD2    H3 5717   1.838   2.904  16.386  2.7879  0.3514 -0.0642
  382MPD2     N 5718   1.729   2.757  16.803  0.1907 -0.5820 -0.0852
  382MPD2    H5 5719   1.728   2.666  16.759 -0.7021  0.0853 -1.4514
  382MPD2    N1 5720   1.762   3.224  16.707  0.5201 -0.1425 -0.0095
  382MPD2    H7 5721   1.714   3.227  16.797  0.0601 -2.2573 -0.1653
  383TMC3    C1 5722   1.636   2.657  16.999 -0.1725 -0.3261  0.7486
  383TMC3    C2 5723   1.566   2.569  16.916  0.0559 -0.0702 -0.0103
  383TMC3    C3 5724   1.504   2.465  16.986 -0.0228  0.5427 -0.4816
  383TMC3    C4 5725   1.617   2.651  17.134 -0.2592  0.5327  0.3834
  383TMC3    C5 5726   1.549   2.549  17.196  0.3506 -0.1702  0.7357
  383TMC3    C6 5727   1.499   2.446  17.117  0.2072  0.5550  0.8354
  383TMC3     C 5728   1.690   2.776  16.936  0.0345 -0.0886  0.1556
  383TMC3     O 5729   1.700   2.873  17.010  0.6977  0.1273  0.2799
  383TMC3     H 5730   1.554   2.582  16.809  1.6872 -1.4616 -0.3589
  383TMC3    H1 5731   1.679   2.713  17.199  2.1151 -2.4753  0.9992
  383TMC3    H2 5732   1.420   2.389  17.165  0.3147 -1.5600 -1.5116
  383TMC3    C7 5733   1.512   2.554  17.337  0.7198 -0.8792  0.3210
  383TMC3    C8 5734   1.440   2.361  16.907 -0.1356  0.1325 -0.0390
  383TMC3    O1 5735   1.457   2.456  17.378  0.6681  0.1272  0.4731
  383TMC3    O2 5736   1.391   2.393  16.796  0.1401 -0.1998 -0.0761
  384MPD2     C 5737   3.153   4.014  11.882  0.1537  0.2619  0.3378
  384MPD2    C1 5738   3.233   3.963  11.981 -0.2738  0.2993 -0.5260
  384MPD2    C2 5739   3.302   3.846  11.956  1.2201  0.6862  0.1385
  384MPD2    C3 5740   3.303   3.786  11.829 -1.1676 -0.0897  0.5541
  384MPD2    C4 5741   3.221   3.843  11.730  0.1271 -0.0674  0.0136
  384MPD2    C5 5742   3.143   3.950  11.759 -0.2597 -0.2139  0.1159
  384MPD2     H 5743   3.365   3.807  12.035  2.8467  1.1794 -0.8912
  384MPD2    H1 5744   3.218   3.804  11.628  2.1847 -0.4328  0.0913
  384MPD2    H2 5745   3.098   4.107  11.893  0.3858  0.5992 -1.3681
  384MPD2    H3 5746   3.088   4.001  11.681 -1.5742 -0.3655  0.9410
  384MPD2     N 5747   3.385   3.671  11.801  0.1869 -0.3443  0.4731
  384MPD2    H5 5748   3.438   3.654  11.885 -1.0511  1.4869  1.6245
  384MPD2    N1 5749   3.241   4.012  12.110 -0.1100 -0.3850  0.3497
  384MPD2    H7 5750   3.288   3.948  12.174 -1.1648 -0.3113  1.2075
  385TMC3    C1 5751   3.468   3.462  11.718 -0.2763 -0.6509 -0.5601
  385TMC3    C2 5752   3.407   3.340  11.686  0.3599 -0.1788  0.7483
  385TMC3    C3 5753   3.429   3.229  11.766  0.1881  0.9879  0.8450
  385TMC3    C4 5754   3.546   3.469  11.828 -0.6963  0.7092 -1.0767
  385TMC3    C5 5755   3.530   3.370  11.922 -0.4053 -0.2391  0.3629
  385TMC3    C6 5756   3.478   3.248  11.895 -0.0447  0.4604 -0.2081
  385TMC3     C 5757   3.383   3.580  11.698  0.0431 -0.0346 -0.1057
  385TMC3     O 5758   3.319   3.594  11.597 -0.0493 -0.5840 -0.7146
  385TMC3     H 5759   3.346   3.340  11.597  1.4040  0.0380  0.0356
  385TMC3    H1 5760   3.603   3.560  11.849 -0.6369  0.2379  0.8351
  385TMC3    H2 5761   3.483   3.165  11.965  0.6869 -0.1266 -0.9464
  385TMC3    C7 5762   3.509   3.438  12.048 -0.7289 -0.4887  0.2851
  385TMC3    C8 5763   3.370   3.104  11.734  0.0075  0.1014 -0.6098
  385TMC3    O1 5764   3.505   3.559  12.046  0.3105  0.5751  0.6551
  385TMC3    O2 5765   3.365   3.020  11.825  0.8169  0.2255 -0.4997
  386TMC3    C1 5766   3.020   1.461  11.654 -0.3958 -0.0333  1.1480
  386TMC3    C2 5767   3.099   1.456  11.546 -0.0094 -0.2841  0.4214
  386TMC3    C3 5768   3.078   1.551  11.451  0.8574  0.6959 -0.2158
  386TMC3    C4 5769   2.920   1.558  11.677 -0.3444  0.3213 -0.3022
  386TMC3    C5 5770   2.898   1.641  11.578  0.0614 -0.0463 -0.3169
  386TMC3    C6 5771   2.985   1.650  11.465 -0.6796  0.2403  0.1001
  386TMC3     C 5772   3.055   1.385  11.776 -0.6527 -0.4393 -1.2397
  386TMC3     O 5773   3.001   1.429  11.882 -0.3865  0.3322  0.3059
  386TMC3     H 5774   3.185   1.391  11.528 -1.2442 -2.1509  1.2841
  386TMC3    H1 5775   2.844   1.541  11.753 -1.6252  0.2549 -1.6098
  386TMC3    H2 5776   2.965   1.717  11.382  0.1206  1.9653  1.3012
  386TMC3    C7 5777   2.767   1.711  11.579  0.3557 -0.3170 -0.4008
  386TMC3    C8 5778   3.128   1.525  11.319  0.2656  0.4462  0.5107
  386TMC3    O1 5779   2.702   1.685  11.682  0.0962  0.1371  0.2933
  386TMC3    O2 5780   3.127   1.619  11.242  0.3846 -0.5957  0.3467
  387MPD2     C 5781   0.871   1.124   9.739 -0.1176 -0.1827 -0.5365
  387MPD2    C1 5782   0.985   1.080   9.800  0.0621 -0.7597 -0.0361
  387MPD2    C2 5783   0.999   0.944   9.831 -1.1333 -0.2536 -0.1443
  387MPD2    C3 5784   0.903   0.850   9.802 -0.2176  0.0590  0.6708
  387MPD2    C4 5785   0.786   0.901   9.752  0.1050  0.5081 -0.0330
  387MPD2    C5 5786   0.770   1.035   9.723  0.0131  0.0087  0.4817
  387MPD2     H 5787   1.097   0.920   9.870 -0.2905  1.3565 -1.2675
  387MPD2    H1 5788   0.708   0.830   9.728  0.5433  0.3177 -0.8783
  387MPD2    H2 5789   0.847   1.227   9.712 -0.2497 -0.1925 -0.4595
  387MPD2    H3 5790   0.672   1.066   9.689  0.8031  1.7633 -0.2255
  387MPD2     N 5791   0.936   0.717   9.831  0.1444 -0.4489  0.7210
  387MPD2    H5 5792   1.017   0.701   9.888  0.8971 -1.4911 -0.6323
  387MPD2    N1 5793   1.094   1.171   9.820  0.9030  0.6947 -0.2693
  387MPD2    H7 5794   1.173   1.123   9.860 -0.0471 -0.2071  0.5229
  388TMC3    C1 5795   1.244   1.343   9.812 -0.4689  0.4919  0.5180
  388TMC3    C2 5796   1.239   1.465   9.870  0.9939 -0.3006 -0.5041
  388TMC3    C3 5797   1.335   1.488   9.968 -0.2580 -0.3848  0.8077
  388TMC3    C4 5798   1.331   1.243   9.849  0.6087 -0.5194  0.5900
  388TMC3    C5 5799   1.423   1.274   9.947 -0.4386  0.0117  0.0763
  388TMC3    C6 5800   1.425   1.397  10.001 -0.3554 -0.1461 -0.1509
  388TMC3     C 5801   1.109   1.296   9.765  0.3698  0.6748 -0.0969
  388TMC3     O 5802   1.033   1.379   9.715  0.4332  0.4477 -0.3478
  388TMC3     H 5803   1.164   1.539   9.845  0.1541 -0.5176  1.3617
  388TMC3    H1 5804   1.346   1.155   9.787  2.1321  0.2575 -0.1531
  388TMC3    H2 5805   1.505   1.413  10.073  0.5280  1.1373 -1.4243
  388TMC3    C7 5806   1.492   1.164  10.014  0.6877 -0.2352 -0.2230
  388TMC3    C8 5807   1.372   1.619  10.015  0.3900  0.1740 -0.3609
  388TMC3    O1 5808   1.570   1.179  10.109  0.6106 -0.2839 -0.1996
  388TMC3    O2 5809   1.434   1.621  10.122  0.1601  0.9370  0.1364
  389MPD2     C 5810   0.332   4.469  11.161 -0.6290 -0.4706  0.3462
  389MPD2    C1 5811   0.297   4.356  11.092  0.0273 -0.9107  0.4143
  389MPD2    C2 5812   0.245   4.248  11.165 -0.7093  0.1069  0.0083
  389MPD2    C3 5813   0.217   4.260  11.303 -0.8418 -0.0044 -0.2940
  389MPD2    C4 5814   0.239   4.387  11.366 -0.0655 -0.5606  0.3710
  389MPD2    C5 5815   0.302   4.483  11.290 -0.1503 -0.1545  0.0506
  389MPD2     H 5816   0.213   4.156  11.118 -2.1887 -0.9984  3.1418
  389MPD2    H1 5817   0.212   4.401  11.470 -0.2660 -0.0574  0.2535
  389MPD2    H2 5818   0.369   4.557  11.110 -1.3229 -0.7879 -0.7053
  389MPD2    H3 5819   0.328   4.573  11.345 -1.5889 -1.4299  2.7814
  389MPD2     N 5820   0.173   4.153  11.382  0.3783  0.3096 -0.2288
  389MPD2    H5 5821   0.155   4.183  11.477 -0.0229 -0.4209 -0.0679
  389MPD2    N1 5822   0.319   4.358  10.954 -0.2885  0.0250 -0.0662
  389MPD2    H7 5823   0.365   4.439  10.912 -3.5880  0.2542 -3.3042
  390TMC3    C1 5824   0.047   3.969  11.443  0.1119 -0.1099  0.1414
  390TMC3    C2 5825   0.035   3.836  11.442  0.4311 -0.1242 -0.2063
  390TMC3    C3 5826   4.718   3.778  11.567 -0.1726 -0.9866 -0.3433
  390TMC3    C4 5827   0.011   4.058  11.545  0.1046 -0.6861  0.2171
  390TMC3    C5 5828   4.699   3.997  11.658  0.3907 -0.6312  0.2093
  390TMC3    C6 5829   4.710   3.858  11.681  0.1845 -0.2444 -0.4037
  390TMC3     C 5830   0.122   4.033  11.335  0.8441  0.6969 -0.2608
  390TMC3     O 5831   0.152   3.970  11.231 -0.8513 -0.1705 -0.0957
  390TMC3     H 5832   0.071   3.776  11.359 -0.4578  1.1695 -1.5154
  390TMC3    H1 5833   4.716   4.164  11.541 -2.1185 -1.0813 -0.2070
  390TMC3    H2 5834   4.668   3.819  11.773 -0.5577  0.0325 -0.6330
  390TMC3    C7 5835   4.613   4.072  11.748 -0.0078  0.9562  0.3897
  390TMC3    C8 5836   4.627   3.670  11.560  0.0473  0.9754 -0.5561
  390TMC3    O1 5837   4.643   4.190  11.767 -0.3640 -0.6805 -0.2106
  390TMC3    O2 5838   4.577   3.647  11.455 -0.6048 -0.2396  0.0932
  391MPD2     C 5839   4.499   0.763  10.693  0.6456 -0.3376 -0.0461
  391MPD2    C1 5840   4.587   0.869  10.701 -1.1852  0.4138 -0.1074
  391MPD2    C2 5841   4.619   0.935  10.579 -0.2832 -0.1840 -0.1008
  391MPD2    C3 5842   4.557   0.911  10.462  0.8418  1.2817  0.1452
  391MPD2    C4 5843   4.455   0.817  10.463 -0.1299 -0.3306 -0.0553
  391MPD2    C5 5844   4.422   0.746  10.580  0.0302 -0.6014  0.1565
  391MPD2     H 5845   4.704   1.002  10.572  0.1480 -0.7641 -0.4635
  391MPD2    H1 5846   4.391   0.794  10.378 -1.3858 -1.1352  1.1065
  391MPD2    H2 5847   4.460   0.710  10.779  1.6011  0.1911  0.7210
  391MPD2    H3 5848   4.342   0.673  10.580 -1.6106  1.2021 -1.4019
  391MPD2     N 5849   4.600   0.996  10.355 -0.0066 -0.3094  0.3425
  391MPD2    H5 5850   4.680   1.055  10.374 -0.9320  1.3362 -0.9335
  391MPD2    N1 5851   4.651   0.882  10.830  0.5328 -0.2503 -0.3802
  391MPD2    H7 5852   4.625   0.816  10.903  0.2813  1.1299  0.7724
  392TMC3    C1 5853   4.568   1.110  10.141 -0.1657 -0.0057 -0.3073
  392TMC3    C2 5854   4.494   1.120  10.024  0.1299 -0.4255 -0.1614
  392TMC3    C3 5855   4.487   1.228   9.947 -0.2286 -0.6018  0.2874
  392TMC3    C4 5856   4.640   1.219  10.184 -0.0774 -0.1615  0.2479
  392TMC3    C5 5857   4.625   1.335  10.102 -0.1121  0.0047 -0.1683
  392TMC3    C6 5858   4.550   1.344   9.987 -0.1108  0.0028 -0.0893
  392TMC3     C 5859   4.537   1.004  10.236  0.6643 -0.5071  0.2010
  392TMC3     O 5860   4.454   0.923  10.201  0.3236 -0.3781 -0.3343
  392TMC3     H 5861   4.433   1.035   9.998  0.3860 -0.6131 -0.1466
  392TMC3    H1 5862   4.685   1.225  10.282  2.1942  4.8800 -1.1116
  392TMC3    H2 5863   4.523   1.444   9.956  0.6237  0.2670  0.1125
  392TMC3    C7 5864   4.711   1.450  10.142  0.4454 -0.7561 -0.1893
  392TMC3    C8 5865   4.378   1.237   9.855  0.1159  0.6438  0.3482
  392TMC3    O1 5866   0.068   1.424  10.230 -0.0444 -0.2619 -0.3239
  392TMC3    O2 5867   4.286   1.153   9.863 -0.0696 -0.5241 -0.2876
  393TMC3    C1 5868   3.763   3.625  10.406  0.3309  0.5974  0.4069
  393TMC3    C2 5869   3.640   3.585  10.449  0.2646 -0.0548  0.0138
  393TMC3    C3 5870   3.614   3.450  10.448 -0.0657 -0.0875  0.0156
  393TMC3    C4 5871   3.863   3.543  10.371 -0.1772  0.7614 -0.4977
  393TMC3    C5 5872   3.834   3.415  10.380 -0.3510  0.3986 -0.1309
  393TMC3    C6 5873   3.712   3.359  10.412  0.4907  0.3272 -0.2224
  393TMC3     C 5874   3.788   3.765  10.382  0.1166 -0.2932 -0.7851
  393TMC3     O 5875   3.901   3.815  10.395 -0.0922  0.5345  0.3217
  393TMC3     H 5876   3.564   3.657  10.477  0.9106  0.5680  0.1612
  393TMC3    H1 5877   3.932   3.593  10.304  1.0496  1.9351  1.6457
  393TMC3    H2 5878   3.695   3.253  10.400 -2.1170  0.5494  1.4898
  393TMC3    C7 5879   3.925   3.328  10.312 -0.7697 -0.4737 -0.1616
  393TMC3    C8 5880   3.480   3.415  10.423  1.2334 -0.2041  0.1323
  393TMC3    O1 5881   3.890   3.218  10.280 -0.1687  0.0791 -0.0399
  393TMC3    O2 5882   3.401   3.505  10.389  0.1466 -0.3701  0.2414
  394TMC3    C1 5883   0.326   4.284  10.734  0.2793  0.1177  0.3988
  394TMC3    C2 5884   0.244   4.261  10.635  1.1422 -0.7525  0.1973
  394TMC3    C3 5885   0.261   4.334  10.520 -0.7503 -0.9295 -0.7123
  394TMC3    C4 5886   0.454   4.340  10.724 -0.2620  0.0719  0.5770
  394TMC3    C5 5887   0.481   4.398  10.598  0.9455 -0.0321 -0.0698
  394TMC3    C6 5888   0.381   4.392  10.496  0.0355  0.3998 -0.2766
  394TMC3     C 5889   0.280   4.258  10.868 -0.0114 -0.3962 -0.4149
  394TMC3     O 5890   0.221   4.151  10.891  0.0008  0.3106  0.3235
  394TMC3     H 5891   0.151   4.208  10.652  0.1503  0.7088 -0.5835
  394TMC3    H1 5892   0.524   4.339  10.806 -2.4953  0.2615  2.4574
  394TMC3    H2 5893   0.408   4.426  10.397 -0.4903  2.0516  0.1507
  394TMC3    C7 5894   0.615   4.448  10.557  0.2400  0.6210  0.0647
  394TMC3    C8 5895   0.183   4.293  10.407 -0.1860 -0.3867  0.7521
  394TMC3    O1 5896   0.636   4.540  10.477  0.2378 -0.1961 -0.0885
  394TMC3    O2 5897   0.125   4.380  10.346  0.5873 -1.1875 -0.5544
  395TMC3    C1 5898   4.489   1.725  14.103  0.1873  0.5473 -0.6458
  395TMC3    C2 5899   4.374   1.793  14.134 -0.4034 -0.5843  0.3396
  395TMC3    C3 5900   4.369   1.881  14.236  0.3840 -0.1300  0.5712
  395TMC3    C4 5901   4.597   1.742  14.191  0.0700  0.1657  0.4266
  395TMC3    C5 5902   4.589   1.835  14.295  0.3977 -0.1346 -0.5451
  395TMC3    C6 5903   4.469   1.901  14.321 -0.1994 -0.6141  0.7483
  395TMC3     C 5904   4.476   1.595  14.039  0.1915  0.7864  0.0715
  395TMC3     O 5905   4.368   1.546  14.032  0.6690  0.2219 -0.4283
  395TMC3     H 5906   4.293   1.783  14.063 -0.5092 -2.3544  0.7162
  395TMC3    H1 5907   4.689   1.685  14.174 -0.7634 -1.5975  1.8123
  395TMC3    H2 5908   4.456   1.963  14.409 -2.0091 -0.8816  0.6824
  395TMC3    C7 5909   4.685   1.847  14.401 -0.2216  0.3835  0.2512
  395TMC3    C8 5910   4.238   1.902  14.289  0.3502  1.0300 -0.0589
  395TMC3    O1 5911   4.685   1.958  14.455 -0.8054  0.5735  0.1979
  395TMC3    O2 5912   4.187   2.013  14.270  0.2369 -0.0989 -0.2912
  396MPD2     C 5913   4.678   2.704  17.512  0.4231  0.8276 -0.0744
  396MPD2    C1 5914   0.072   2.705  17.432  0.0882  0.3601 -0.1792
  396MPD2    C2 5915   0.128   2.821  17.386 -0.0460  0.3448 -0.8288
  396MPD2    C3 5916   0.056   2.938  17.404  0.7911  0.7632 -0.2144
  396MPD2    C4 5917   4.667   2.938  17.483 -0.0260  0.3839  0.9376
  396MPD2    C5 5918   4.614   2.823  17.539 -0.0435  0.4551  0.0736
  396MPD2     H 5919   0.225   2.820  17.336  0.2973  0.4920 -0.1556
  396MPD2    H1 5920   4.618   3.031  17.509 -1.7428 -0.6861  1.5454
  396MPD2    H2 5921   4.631   2.611  17.542  0.7990  0.1455 -1.5526
  396MPD2    H3 5922   4.534   2.822  17.611  1.9696  1.5682  2.3123
  396MPD2     N 5923   0.113   3.053  17.342  0.0031  0.7441  0.4019
  396MPD2    H5 5924   0.177   3.029  17.267  0.6715  2.3429  0.4631
  396MPD2    N1 5925   0.126   2.580  17.401 -0.2487  0.2062 -0.3187
  396MPD2    H7 5926   0.073   2.505  17.444 -0.5062  1.2683  1.2119
  397TMC3    C1 5927   0.237   2.401  17.312 -0.1009  0.3741 -0.5314
  397TMC3    C2 5928   0.225   2.342  17.188 -0.0804 -0.0835 -0.1937
  397TMC3    C3 5929   0.179   2.211  17.177 -0.2239  0.6324  0.3050
  397TMC3    C4 5930   0.195   2.330  17.422 -0.0446 -0.1108 -0.8562
  397TMC3    C5 5931   0.171   2.193  17.408 -0.2750 -0.0957  0.9814
  397TMC3    C6 5932   0.149   2.131  17.286 -0.2502  0.4911 -0.0588
  397TMC3     C 5933   0.221   2.544  17.308  0.0098  0.1947 -0.3495
  397TMC3     O 5934   0.300   2.604  17.239 -0.1146  0.1461 -0.4982
  397TMC3     H 5935   0.226   2.403  17.099 -3.2077  1.0462  0.5541
  397TMC3    H1 5936   0.215   2.376  17.518 -0.0558  0.7294 -1.2607
  397TMC3    H2 5937   0.113   2.029  17.280 -0.8890  0.6555  0.9749
  397TMC3    C7 5938   0.132   2.117  17.521 -0.7705 -0.1875 -0.3909
  397TMC3    C8 5939   0.113   2.171  17.052 -0.0238  0.1460  0.4228
  397TMC3    O1 5940   0.065   2.019  17.494 -0.0511  0.8838 -0.0834
  397TMC3    O2 5941   0.133   2.241  16.956  0.2830 -0.5951 -0.6430
  398MPD2     C 5942   3.065   3.398   0.244 -0.0657 -0.0111 -0.4450
  398MPD2    C1 5943   3.082   3.273   0.287  0.0522  0.3584 -0.0621
  398MPD2    C2 5944   3.174   3.247   0.387 -0.5461  0.2872 -0.8487
  398MPD2    C3 5945   3.233   3.344   0.461  0.2975 -0.2937  0.1300
  398MPD2    C4 5946   3.211   3.473   0.419 -0.5037  0.5922  0.6671
  398MPD2    C5 5947   3.134   3.493   0.313  0.5928  0.4968  0.5263
  398MPD2     H 5948   3.196   3.142   0.403 -2.1690  0.1707  0.5140
  398MPD2    H1 5949   3.259   3.556   0.470  2.0912 -1.8439  2.2164
  398MPD2    H2 5950   2.987   3.428   0.175 -0.0107 -1.3732 -1.1030
  398MPD2    H3 5951   3.110   3.596   0.289  2.6076  0.1660 -2.9221
  398MPD2     N 5952   3.307   3.305   0.573 -0.1291  0.2832  0.0680
  398MPD2    H5 5953   3.325   3.206   0.592 -0.6263  0.2394  0.2996
  398MPD2    N1 5954   3.010   3.157   0.240  0.0388  0.1288 -0.3469
  398MPD2    H7 5955   3.008   3.074   0.300 -2.1159 -0.0002 -0.6008
  399TMC3    C1 5956   2.883   3.016   0.108 -0.0510 -0.9253 -0.1343
  399TMC3    C2 5957   2.941   2.908   0.169  0.3983  0.0851  0.0472
  399TMC3    C3 5958   2.871   2.792   0.179  0.5386  0.2086 -0.8177
  399TMC3    C4 5959   2.757   3.013   0.054  0.1456 -0.5953  0.0958
  399TMC3    C5 5960   2.689   2.897   0.077  0.3361 -0.8964 -0.8104
  399TMC3    C6 5961   2.742   2.788   0.136 -0.8655  0.5778  0.4752
  399TMC3     C 5962   2.929   3.149   0.128  0.2294  0.3236  0.2009
  399TMC3     O 5963   2.893   3.239   0.052 -0.1138 -0.6137  0.0089
  399TMC3     H 5964   3.039   2.919   0.215 -0.1102 -0.3107  1.2394
  399TMC3    H1 5965   2.716   3.098   0.001  2.9306  0.1235 -0.9127
  399TMC3    H2 5966   2.683   2.698   0.143 -2.9293  1.8214 -1.1268
  399TMC3    C7 5967   2.559   2.879   0.012 -0.6924 -0.1670  0.3835
  399TMC3    C8 5968   2.935   2.679   0.251 -0.0153  0.3676 -0.4342
  399TMC3    O1 5969   2.514   2.767  17.688 -0.0824  0.0417  0.4794
  399TMC3    O2 5970   3.046   2.714   0.299  0.2047 -0.2699  0.0797
  400TMC3    C1 5971   1.506   1.955  16.541 -0.0351  0.2927  0.3871
  400TMC3    C2 5972   1.388   1.925  16.479  0.6629  0.1263  0.2380
  400TMC3    C3 5973   1.311   2.030  16.428 -0.2664  0.3824  0.0638
  400TMC3    C4 5974   1.556   2.082  16.536 -0.0246 -0.8322 -0.1809
  400TMC3    C5 5975   1.486   2.181  16.488 -0.2890 -0.7344  0.0217
  400TMC3    C6 5976   1.363   2.160  16.422 -1.1059 -0.2874  0.3546
  400TMC3     C 5977   1.575   1.846  16.607 -0.7046 -0.3685 -0.5460
  400TMC3     O 5978   1.526   1.739  16.580  0.1647 -0.5277 -0.2691
  400TMC3     H 5979   1.353   1.823  16.484  1.5725 -0.1934  0.0780
  400TMC3    H1 5980   1.659   2.096  16.564 -0.5037  1.3452  0.4817
  400TMC3    H2 5981   1.298   2.237  16.383 -0.7910  0.3918  1.1650
  400TMC3    C7 5982   1.549   2.303  16.453  0.5673  0.7841 -0.6905
  400TMC3    C8 5983   1.186   2.008  16.357  0.1506  0.0039  0.2124
  400TMC3    O1 5984   1.665   2.297  16.421  0.0654 -0.0381  0.4490
  400TMC3    O2 5985   1.109   2.099  16.336 -0.0979 -0.0096 -0.6274
  401MPD2     C 5986   0.200   0.776   0.924  0.9728 -0.0491  0.4897
  401MPD2    C1 5987   0.329   0.737   0.938 -0.4532 -0.1946 -0.0763
  401MPD2    C2 5988   0.361   0.611   0.913  0.8942 -0.0520 -0.0874
  401MPD2    C3 5989   0.271   0.516   0.871 -0.1940 -0.0898  0.2801
  401MPD2    C4 5990   0.141   0.553   0.863 -0.3292  0.7495 -0.0464
  401MPD2    C5 5991   0.106   0.683   0.890 -0.7725 -0.3318  0.5004
  401MPD2     H 5992   0.464   0.576   0.917 -0.0545 -2.3272  3.9009
  401MPD2    H1 5993   0.057   0.489   0.842  0.3850  0.2891 -1.4639
  401MPD2    H2 5994   0.168   0.880   0.920 -0.5371 -0.4739  1.3178
  401MPD2    H3 5995   0.001   0.709   0.889 -0.6535  0.0969 -0.7810
  401MPD2     N 5996   0.329   0.386   0.840 -0.3893 -0.0273  0.7693
  401MPD2    H5 5997   0.430   0.372   0.840 -0.3894 -0.0233 -4.0046
  401MPD2    N1 5998   0.435   0.826   0.960  0.1076 -0.0760  0.3514
  401MPD2    H7 5999   0.531   0.805   0.936 -0.1703  0.4922 -1.2226
  402TMC3    C1 6000   0.349   0.155   0.837 -0.0421  0.0413 -0.1785
  402TMC3    C2 6001   0.314   0.043   0.904  0.2570  0.7967 -0.0630
  402TMC3    C3 6002   0.414   4.666   0.918 -0.3587  0.4798 -0.4166
  402TMC3    C4 6003   0.473   0.179   0.793  0.3637 -0.0016  0.1844
  402TMC3    C5 6004   0.565   0.083   0.799 -0.7721 -0.5312 -0.4194
  402TMC3    C6 6005   0.536   4.686   0.859  0.4618  0.2725  0.1209
  402TMC3     C 6006   0.258   0.274   0.839 -0.3522  0.7282 -0.3876
  402TMC3     O 6007   0.141   0.251   0.862  0.2980  0.4768 -0.2928
  402TMC3     H 6008   0.217   0.038   0.952 -0.5310  0.3427 -1.6928
  402TMC3    H1 6009   0.478   0.247   0.709 -3.5830  0.4237  0.2497
  402TMC3    H2 6010   0.609   4.607   0.853  1.6356  1.4332 -0.6925
  402TMC3    C7 6011   0.681   0.109   0.720 -0.3472 -0.3934  0.2344
  402TMC3    C8 6012   0.408   4.576   1.032 -0.5493 -0.4565 -0.2802
  402TMC3    O1 6013   0.677   0.197   0.634  0.0800  0.0931 -0.3865
  402TMC3    O2 6014   0.519   4.557   1.072  0.2720  0.9863  0.4006
  403MPD2     C 6015   2.869   3.694  13.468 -0.6110  0.3490 -0.5842
  403MPD2    C1 6016   2.958   3.647  13.384 -0.5750  0.2981  0.5235
  403MPD2    C2 6017   3.092   3.690  13.399 -0.4601 -0.2420 -0.2353
  403MPD2    C3 6018   3.125   3.788  13.490  0.4985 -1.0077  0.0787
  403MPD2    C4 6019   3.030   3.834  13.575  0.9167 -0.7659 -0.6748
  403MPD2    C5 6020   2.902   3.791  13.555 -0.1246  0.7877 -0.9047
  403MPD2     H 6021   3.168   3.647  13.334 -1.2254  1.2960 -2.1668
  403MPD2    H1 6022   3.048   3.903  13.657 -3.7031 -0.7736  0.3651
  403MPD2    H2 6023   2.762   3.680  13.458 -0.2934 -1.5560 -1.4798
  403MPD2    H3 6024   2.824   3.828  13.621 -0.6900 -0.5765 -0.8165
  403MPD2     N 6025   3.263   3.834  13.484  0.3002 -0.8063  0.8754
  403MPD2    H5 6026   3.314   3.783  13.413 -0.5248  1.3258 -1.2388
  403MPD2    N1 6027   2.907   3.571  13.280  0.2338  0.8512 -0.3973
  403MPD2    H7 6028   2.808   3.558  13.294  0.6755 -2.0947  0.0438
  404TMC3    C1 6029   2.895   3.421  13.109 -0.2185  0.6539 -0.2977
  404TMC3    C2 6030   2.779   3.376  13.160 -0.1359 -0.5615 -0.3012
  404TMC3    C3 6031   2.677   3.363  13.073 -0.7070 -0.3670 -0.3827
  404TMC3    C4 6032   2.918   3.421  12.979  0.1242 -0.0383 -0.2258
  404TMC3    C5 6033   2.810   3.417  12.899  0.3766 -0.6789 -0.1178
  404TMC3    C6 6034   2.680   3.391  12.941 -0.0389 -0.0621  0.5315
  404TMC3     C 6035   2.976   3.513  13.180 -0.5034 -0.2861  0.2920
  404TMC3     O 6036   3.088   3.546  13.142 -0.3105 -0.0041  0.6981
  404TMC3     H 6037   2.766   3.361  13.266 -0.7656 -1.6687 -0.5316
  404TMC3    H1 6038   3.016   3.446  12.939 -0.3408  1.0698 -0.6667
  404TMC3    H2 6039   2.587   3.388  12.886  0.7040 -0.0126 -0.7331
  404TMC3    C7 6040   2.828   3.464  12.757  0.2231  0.3225  0.5349
  404TMC3    C8 6041   2.549   3.320  13.125 -0.8529 -0.3841  0.2774
  404TMC3    O1 6042   2.930   3.527  12.728  0.1898 -0.0743 -0.4095
  404TMC3    O2 6043   2.448   3.349  13.065 -0.3383  0.1465 -0.3702
  405MPD2     C 6044   2.793   3.736  14.839 -0.7582 -1.5158  0.1289
  405MPD2    C1 6045   2.777   3.696  14.711  0.1925 -0.6397  0.1990
  405MPD2    C2 6046   2.873   3.731  14.619  0.2207 -0.4814  0.2872
  405MPD2    C3 6047   2.991   3.800  14.660  0.1058 -0.4638 -0.0278
  405MPD2    C4 6048   3.005   3.821  14.798  0.3823 -0.8044 -0.4906
  405MPD2    C5 6049   2.905   3.793  14.884  0.4406 -0.2694 -0.2445
  405MPD2     H 6050   2.859   3.717  14.513  2.3730  0.6660 -0.1557
  405MPD2    H1 6051   3.090   3.869  14.845  0.7875 -2.4415  0.4600
  405MPD2    H2 6052   2.717   3.711  14.913 -0.5624 -3.0480 -0.1870
  405MPD2    H3 6053   2.921   3.815  14.989 -0.6926 -1.1987  0.1246
  405MPD2     N 6054   3.081   3.843  14.560 -0.0373 -0.2234 -0.0612
  405MPD2    H5 6055   3.044   3.826  14.467  1.0627  1.8559 -0.8823
  405MPD2    N1 6056   2.666   3.618  14.669  0.2475 -0.0148 -0.0873
  405MPD2    H7 6057   2.588   3.614  14.735  0.9647  1.5580  0.8472
  406TMC3    C1 6058   3.237   4.122  14.311 -0.7853 -0.2117 -0.1310
  406TMC3    C2 6059   3.219   4.042  14.205 -0.5182 -0.7379  0.6570
  406TMC3    C3 6060   3.226   3.911  14.221  0.0529  0.0355  1.0019
  406TMC3    C4 6061   3.252   4.072  14.436 -0.4402  0.2380 -0.5307
  406TMC3    C5 6062   3.257   3.935  14.449  0.5355 -0.4087 -0.1324
  406TMC3    C6 6063   3.247   3.850  14.340 -0.9883  0.4751  0.1125
  406TMC3     C 6064   3.212   4.260  14.294  0.0539 -0.2029  0.3788
  406TMC3     O 6065   3.281   4.321  14.211  0.3958 -0.1813  0.0446
  406TMC3     H 6066   3.186   4.083  14.110  2.4018 -0.8599 -0.3993
  406TMC3    H1 6067   3.259   4.144  14.516  2.4110 -0.3021 -0.2917
  406TMC3    H2 6068   3.263   3.743  14.347  0.4240  0.6058 -0.9561
  406TMC3    C7 6069   3.208   3.896  14.578 -0.5407 -0.0917 -0.4906
  406TMC3    C8 6070   3.175   3.843  14.106 -0.4039 -0.5248 -0.2817
  406TMC3    O1 6071   3.247   3.955  14.676  0.2921 -0.0484  0.5906
  406TMC3    O2 6072   3.188   3.898  13.994  0.0507  0.1933 -0.1717
  407MPD2     C 6073   0.191   1.158   9.725 -0.2171  1.0867 -0.7321
  407MPD2    C1 6074   0.311   1.089   9.725  0.3376  0.3615 -0.3093
  407MPD2    C2 6075   0.399   1.092   9.834  0.1106 -0.5750  0.4771
  407MPD2    C3 6076   0.376   1.183   9.938 -1.0694 -0.4240  0.2723
  407MPD2    C4 6077   0.270   1.268   9.933  0.5426  0.3785  0.2890
  407MPD2    C5 6078   0.171   1.249   9.831 -0.3908  0.5913  0.7746
  407MPD2     H 6079   0.497   1.047   9.839 -0.4626 -1.8761 -0.0755
  407MPD2    H1 6080   0.258   1.350  10.003 -0.8745 -0.4978  1.0712
  407MPD2    H2 6081   0.116   1.147   9.648 -0.9244 -1.2194  0.2826
  407MPD2    H3 6082   0.080   1.307   9.822  1.1847  2.4352 -2.9969
  407MPD2     N 6083   0.484   1.226  10.014 -0.7082  0.2282  0.2076
  407MPD2    H5 6084   0.497   1.326  10.026  0.5809  0.4624 -2.9738
  407MPD2    N1 6085   0.359   1.011   9.615 -0.0510  0.0415  0.1425
  407MPD2    H7 6086   0.451   0.969   9.620 -0.0021  0.2669  0.9732
  408TMC3    C1 6087   0.399   0.974   9.388 -0.1227 -0.2554 -0.5785
  408TMC3    C2 6088   0.530   0.970   9.416 -0.4211  0.5943 -0.3279
  408TMC3    C3 6089   0.622   0.971   9.315 -0.6886 -0.2047  0.0989
  408TMC3    C4 6090   0.355   1.000   9.260 -0.4159 -0.2721 -0.1631
  408TMC3    C5 6091   0.450   1.009   9.164  0.2036 -0.3295  0.5699
  408TMC3    C6 6092   0.585   0.990   9.184  0.6480  0.2015 -0.1231
  408TMC3     C 6093   0.304   1.002   9.496 -0.1741 -0.8823  0.2985
  408TMC3     O 6094   0.194   1.049   9.458  0.0916  0.4825  0.6496
  408TMC3     H 6095   0.575   0.951   9.513 -1.3646  0.0711  0.0153
  408TMC3    H1 6096   0.250   0.992   9.234 -0.3240  1.0242 -0.9270
  408TMC3    H2 6097   0.653   0.993   9.099 -1.1339 -0.9855 -1.5892
  408TMC3    C7 6098   0.426   1.110   9.058 -0.3079  0.8451  0.5341
  408TMC3    C8 6099   0.766   0.975   9.349 -0.2253 -0.3945  0.4108
  408TMC3    O1 6100   0.527   1.150   8.999 -0.1947  0.5663 -0.1740
  408TMC3    O2 6101   0.812   0.891   9.427  0.4096 -0.2412 -0.5570
  409MPD2     C 6102   0.320   1.624  16.964  0.6788  0.1977 -0.4227
  409MPD2    C1 6103   0.456   1.604  16.963 -0.1880  0.4841 -0.9703
  409MPD2    C2 6104   0.532   1.630  16.851  0.2982  0.0347 -0.2414
  409MPD2    C3 6105   0.475   1.692  16.744 -0.2147  0.1821  0.4149
  409MPD2    C4 6106   0.338   1.720  16.741 -0.0390  0.4908 -0.0383
  409MPD2    C5 6107   0.267   1.678  16.854  0.1411  0.1187 -0.3971
  409MPD2     H 6108   0.639   1.614  16.859 -0.1643 -3.0823 -0.1674
  409MPD2    H1 6109   0.294   1.771  16.656  2.8573  1.3630 -1.0214
  409MPD2    H2 6110   0.259   1.622  17.054  1.9002 -0.8486  0.3933
  409MPD2    H3 6111   0.163   1.707  16.848  0.4128  1.7363  2.6946
  409MPD2     N 6112   0.551   1.770  16.651  0.1194 -0.5468  0.4140
  409MPD2    H5 6113   0.508   1.851  16.607 -0.7355 -1.0539  0.3200
  409MPD2    N1 6114   0.527   1.564  17.077 -0.3077  0.0309 -0.1684
  409MPD2    H7 6115   0.627   1.550  17.067 -0.4299 -1.3731  0.5382
  410TMC3    C1 6116   0.752   1.888  16.592 -0.7934  0.6352 -0.4856
  410TMC3    C2 6117   0.879   1.916  16.632  0.4302  0.2277 -0.1409
  410TMC3    C3 6118   0.922   2.044  16.605 -0.0312  0.2304 -0.1934
  410TMC3    C4 6119   0.679   1.969  16.512  0.1293 -0.1400  0.1054
  410TMC3    C5 6120   0.730   2.090  16.484 -0.1819 -0.2198  1.0207
  410TMC3    C6 6121   0.853   2.129  16.522 -0.1827 -0.2814 -0.2048
  410TMC3     C 6122   0.692   1.765  16.644 -0.0334 -0.5363 -0.3115
  410TMC3     O 6123   0.768   1.695  16.707  0.2003  0.2187  0.5138
  410TMC3     H 6124   0.916   1.862  16.719 -2.5164  1.4358  1.8755
  410TMC3    H1 6125   0.584   1.945  16.466  0.3333  0.4055 -0.5947
  410TMC3    H2 6126   0.899   2.217  16.480  1.2140  0.0559  2.0078
  410TMC3    C7 6127   0.691   2.148  16.355 -0.2356  0.3220 -0.1514
  410TMC3    C8 6128   1.054   2.080  16.647  0.9572 -0.6252 -0.1874
  410TMC3    O1 6129   0.656   2.062  16.278  0.4410  0.2899  0.2758
  410TMC3    O2 6130   1.080   2.195  16.641  0.3561 -0.2440 -0.3995
  411MPD2     C 6131   0.727   2.255  14.693 -0.0996 -0.0254  0.2928
  411MPD2    C1 6132   0.613   2.324  14.660  0.7329 -0.6708  0.0123
  411MPD2    C2 6133   0.523   2.252  14.580 -0.5046  0.2649  0.3247
  411MPD2    C3 6134   0.532   2.117  14.557  0.9311 -0.0925  0.3193
  411MPD2    C4 6135   0.639   2.051  14.606  1.1549  0.3817  1.1267
  411MPD2    C5 6136   0.745   2.122  14.652  0.4182  0.2419 -0.4187
  411MPD2     H 6137   0.441   2.301  14.528  0.6447  1.2089 -0.6078
  411MPD2    H1 6138   0.662   1.946  14.590 -0.3351  0.2717 -0.3184
  411MPD2    H2 6139   0.811   2.296  14.748  0.8820  1.0060 -1.9542
  411MPD2    H3 6140   0.834   2.070  14.686 -1.2163 -2.5591 -0.4925
  411MPD2     N 6141   0.438   2.045  14.484 -0.7143 -0.2486  0.1177
  411MPD2    H5 6142   0.463   1.948  14.468  0.0644 -0.0840  0.3363
  411MPD2    N1 6143   0.591   2.459  14.698 -0.4547  0.0412 -0.5006
  411MPD2    H7 6144   0.508   2.502  14.658  0.2754  0.0667 -2.0064
  412TMC3    C1 6145   0.266   1.996  14.331 -1.0106  0.7436 -0.5543
  412TMC3    C2 6146   0.194   2.080  14.238 -0.6636 -0.6686  0.0208
  412TMC3    C3 6147   0.201   2.062  14.104 -0.4345  0.0738 -0.7055
  412TMC3    C4 6148   0.324   1.881  14.287 -0.1520  0.0144  0.2994
  412TMC3    C5 6149   0.307   1.856  14.153 -0.8567 -0.5273 -0.1063
  412TMC3    C6 6150   0.251   1.941  14.063  0.4685 -0.2289 -0.6419
  412TMC3     C 6151   0.309   2.081  14.445  0.3815 -0.5397  0.5020
  412TMC3     O 6152   0.246   2.182  14.473  0.5984  0.2558  0.0015
  412TMC3     H 6153   0.156   2.178  14.265  0.4289 -0.3425  0.3751
  412TMC3    H1 6154   0.396   1.823  14.344  0.0907 -1.1496 -1.2074
  412TMC3    H2 6155   0.268   1.924  13.957 -2.2793 -0.6831 -1.0018
  412TMC3    C7 6156   0.431   1.803  14.095 -0.0109  0.2847  0.0041
  412TMC3    C8 6157   0.244   2.173  14.030 -0.1732 -0.3794 -0.5258
  412TMC3    O1 6158   0.486   1.889  14.030 -0.4419  0.1006  0.4086
  412TMC3    O2 6159   0.176   2.274  14.031  0.2044  0.0926  0.3633
  413MPD2     C 6160   2.509   0.839  15.203  0.0736 -0.0431  0.0675
  413MPD2    C1 6161   2.407   0.745  15.191  0.4430  0.7630 -0.2160
  413MPD2    C2 6162   2.429   0.624  15.236 -0.6589  0.3199 -0.1448
  413MPD2    C3 6163   2.551   0.588  15.293  0.3506 -0.0019  0.2103
  413MPD2    C4 6164   2.649   0.678  15.311  0.4884  0.1583 -0.4962
  413MPD2    C5 6165   2.632   0.809  15.265 -0.7803  0.4311 -0.1364
  413MPD2     H 6166   2.347   0.553  15.228 -2.2901  2.3147 -1.0031
  413MPD2    H1 6167   2.742   0.655  15.361 -0.3080 -1.2964  0.3053
  413MPD2    H2 6168   2.491   0.935  15.155 -0.4339  0.4734  1.2830
  413MPD2    H3 6169   2.703   0.890  15.280 -0.7066  0.4392 -0.5231
  413MPD2     N 6170   2.563   0.447  15.312 -0.0662 -0.9758  0.6980
  413MPD2    H5 6171   2.485   0.393  15.277 -0.5638 -0.0356  0.3620
  413MPD2    N1 6172   2.283   0.778  15.130  0.4116 -0.6350  0.3728
  413MPD2    H7 6173   2.278   0.870  15.088 -0.7266 -0.9838 -0.2524
  414TMC3    C1 6174   2.627   0.235  15.383 -0.5358 -0.1554  0.1392
  414TMC3    C2 6175   2.729   0.144  15.373 -0.4015 -0.1698 -0.6534
  414TMC3    C3 6176   2.697   0.017  15.325 -0.6653 -0.6742  0.1027
  414TMC3    C4 6177   2.495   0.191  15.362  0.6403 -0.1431  0.0085
  414TMC3    C5 6178   2.477   0.068  15.314 -0.1349 -0.4513 -0.0789
  414TMC3    C6 6179   2.566   4.695  15.300  0.0624 -0.4437  0.1500
  414TMC3     C 6180   2.661   0.373  15.373 -0.3344  0.0014 -0.1266
  414TMC3     O 6181   2.755   0.415  15.432  0.2207  0.4973 -0.6403
  414TMC3     H 6182   2.826   0.193  15.369 -0.3766  0.0367  2.5083
  414TMC3    H1 6183   2.410   0.257  15.374  0.8444  0.1353 -0.0571
  414TMC3    H2 6184   2.541   4.595  15.265 -0.3048 -0.2209 -0.2221
  414TMC3    C7 6185   2.339   0.042  15.276  0.0307 -0.3991 -0.3546
  414TMC3    C8 6186   2.802   4.645  15.298 -0.9346 -0.1706 -0.4124
  414TMC3    O1 6187   2.259   0.052  15.369  0.3742 -0.7062  0.1913
  414TMC3    O2 6188   2.769   4.538  15.247 -0.1462 -0.0234 -0.4569
  415TMC3    C1 6189   2.705   3.665   9.864 -0.1828 -0.3444  0.4871
  415TMC3    C2 6190   2.798   3.751   9.818  0.3608  0.1118  1.0585
  415TMC3    C3 6191   2.757   3.883   9.793  0.0640  0.6241  0.3658
  415TMC3    C4 6192   2.573   3.699   9.869  0.4580 -0.0389  0.0412
  415TMC3    C5 6193   2.534   3.828   9.840 -0.0237  0.6711 -0.2391
  415TMC3    C6 6194   2.627   3.922   9.800  0.3065  0.0057  0.1639
  415TMC3     C 6195   2.750   3.534   9.904 -0.7556 -0.4712  0.8426
  415TMC3     O 6196   2.663   3.449   9.916 -0.2622 -0.6394  0.2605
  415TMC3     H 6197   2.890   3.704   9.784 -0.8170 -2.3255  1.2742
  415TMC3    H1 6198   2.497   3.622   9.881 -0.5190  0.8421 -0.5140
  415TMC3    H2 6199   2.594   4.024   9.784 -0.1712 -0.4201 -1.5881
  415TMC3    C7 6200   2.398   3.868   9.824 -0.3760 -0.2769  0.0581
  415TMC3    C8 6201   2.853   3.976   9.731 -0.2613 -0.1955  0.2117
  415TMC3    O1 6202   2.370   3.964   9.753 -0.0143 -0.4898 -0.7259
  415TMC3    O2 6203   2.797   4.072   9.682 -0.5748 -0.2119 -0.5825
  416MPD2     C 6204   4.613   2.124  11.604  0.2574  0.1182 -0.1330
  416MPD2    C1 6205   4.522   2.149  11.501  0.1296  0.8295 -0.3470
  416MPD2    C2 6206   4.554   2.118  11.374  0.4879  0.9813 -0.3350
  416MPD2    C3 6207   4.654   2.024  11.354 -0.4741  0.0203 -0.8933
  416MPD2    C4 6208   0.022   1.995  11.458  0.1274 -0.2355  0.4458
  416MPD2    C5 6209   4.719   2.041  11.580 -0.7634 -0.0579 -0.2170
  416MPD2     H 6210   4.490   2.135  11.288  0.4324 -0.1044 -0.5121
  416MPD2    H1 6211   0.101   1.921  11.454  1.0498  0.8737 -1.9640
  416MPD2    H2 6212   4.609   2.167  11.703 -2.3394 -1.9374  0.6344
  416MPD2    H3 6213   0.064   2.014  11.661  1.1994  5.3654  0.0111
  416MPD2     N 6214   4.669   1.954  11.230  0.9750  0.7473  0.2412
  416MPD2    H5 6215   0.025   1.890  11.220  1.7154  1.4813  1.2903
  416MPD2    N1 6216   4.412   2.231  11.536 -0.6021  0.4796  0.2525
  416MPD2    H7 6217   4.406   2.262  11.633 -0.0892  0.0087  0.4355
  417TMC3    C1 6218   4.191   2.304  11.547  0.6590  0.4128 -0.1530
  417TMC3    C2 6219   4.207   2.319  11.683 -0.6183 -0.3304  0.0635
  417TMC3    C3 6220   4.105   2.381  11.749 -0.0680 -0.2425 -0.7024
  417TMC3    C4 6221   4.078   2.343  11.473  0.0995  0.1745 -0.0664
  417TMC3    C5 6222   3.973   2.402  11.543  1.0309  1.1696  0.4681
  417TMC3    C6 6223   3.990   2.422  11.679 -0.6025 -0.7807 -0.1014
  417TMC3     C 6224   4.303   2.249  11.462 -0.4337  0.1029 -0.1242
  417TMC3     O 6225   4.293   2.236  11.340  0.1585 -0.1279 -0.0648
  417TMC3     H 6226   4.293   2.286  11.739 -1.5120  1.6739  2.6396
  417TMC3    H1 6227   4.079   2.322  11.367  0.3847 -0.9026  0.1470
  417TMC3    H2 6228   3.921   2.482  11.738  0.3104  1.0532 -0.8968
  417TMC3    C7 6229   3.906   2.501  11.463 -0.5787  0.3115  0.6088
  417TMC3    C8 6230   4.110   2.432  11.888 -0.2746 -0.3013 -0.0073
  417TMC3    O1 6231   3.977   2.536  11.371  0.2144 -0.6401 -0.6982
  417TMC3    O2 6232   4.029   2.521  11.911  0.2233 -0.2545 -0.4482
  418TMC3    C1 6233   3.548   3.243   0.936 -0.6711 -0.7847  0.1679
  418TMC3    C2 6234   3.516   3.324   0.832 -0.4981 -0.5363  0.2226
  418TMC3    C3 6235   3.389   3.310   0.788 -0.2006  0.5091 -0.0627
  418TMC3    C4 6236   3.463   3.154   0.994 -0.5865 -0.1931 -0.5368
  418TMC3    C5 6237   3.334   3.148   0.943 -0.3647  0.0359  0.2609
  418TMC3    C6 6238   3.294   3.224   0.836 -0.9291  0.3127  0.4201
  418TMC3     C 6239   3.685   3.226   0.969  0.1031  0.0836  0.3487
  418TMC3     O 6240   3.757   3.329   0.964  0.0324 -0.1917  0.5911
  418TMC3     H 6241   3.595   3.386   0.791  0.3737 -1.2955  0.7204
  418TMC3    H1 6242   3.494   3.096   1.080 -0.0758  0.8658 -0.0054
  418TMC3    H2 6243   3.199   3.212   0.785  0.1585 -2.0333 -1.0835
  418TMC3    C7 6244   3.269   3.017   0.964 -0.5859 -0.0570  0.8719
  418TMC3    C8 6245   3.357   3.386   0.666 -0.1672 -0.0305 -0.7047
  418TMC3    O1 6246   3.218   2.967   0.862  0.0064  0.5192  0.1372
  418TMC3    O2 6247   3.383   3.507   0.667 -0.3087  0.0008 -0.3544
  419MPD2     C 6248   1.800   1.947  12.311 -0.0352  0.1181 -0.3675
  419MPD2    C1 6249   1.829   2.081  12.318  0.0938  0.0850  0.1968
  419MPD2    C2 6250   1.827   2.136  12.445 -0.1675  0.3007  0.1611
  419MPD2    C3 6251   1.800   2.063  12.561 -0.7690 -0.3042  0.0408
  419MPD2    C4 6252   1.757   1.927  12.549 -0.5861 -0.7915 -0.6223
  419MPD2    C5 6253   1.759   1.879  12.422  0.1872  0.0145 -0.1713
  419MPD2     H 6254   1.846   2.243  12.452  0.6638  0.2525 -1.4005
  419MPD2    H1 6255   1.731   1.854  12.625  0.0603 -0.9268 -0.5288
  419MPD2    H2 6256   1.787   1.897  12.216 -3.1624 -0.6032  0.4336
  419MPD2    H3 6257   1.713   1.782  12.410  1.6922 -0.9712  1.9754
  419MPD2     N 6258   1.809   2.135  12.681 -0.2152 -0.7941  0.4176
  419MPD2    H5 6259   1.844   2.230  12.677  0.4437 -1.1375 -2.1561
  419MPD2    N1 6260   1.853   2.163  12.207  0.4818 -0.6256 -0.0024
  419MPD2    H7 6261   1.874   2.258  12.233 -1.2678 -0.2836  0.1676
  420TMC3    C1 6262   1.834   2.172  12.901 -0.5246  0.3199  0.0809
  420TMC3    C2 6263   1.827   2.307  12.876  0.5845 -0.6863 -0.0985
  420TMC3    C3 6264   1.893   2.395  12.960  0.4389 -0.1534  0.7263
  420TMC3    C4 6265   1.908   2.122  13.004  0.0071 -0.2703 -0.9134
  420TMC3    C5 6266   1.973   2.214  13.080 -0.5531  0.0538 -0.3241
  420TMC3    C6 6267   1.971   2.347  13.056 -0.0778  0.1571  0.4475
  420TMC3     C 6268   1.803   2.081  12.802  0.1154 -0.3179 -0.4026
  420TMC3     O 6269   1.798   1.962  12.835  0.3457  0.2806  0.5994
  420TMC3     H 6270   1.774   2.354  12.795  1.4886  0.7940  0.1731
  420TMC3    H1 6271   1.914   2.020  13.040 -3.2402 -0.2949 -0.4243
  420TMC3    H2 6272   2.014   2.423  13.120  2.1113 -1.9403  1.4866
  420TMC3    C7 6273   2.053   2.165  13.192 -0.0737  0.0847 -0.1526
  420TMC3    C8 6274   1.877   2.538  12.943  0.0174  0.0018 -0.4192
  420TMC3    O1 6275   2.051   2.045  13.223 -0.2231 -0.6551  0.5601
  420TMC3    O2 6276   1.974   2.607  12.966 -0.0059 -0.1583 -0.2999
  421TMC3    C1 6277   3.436   3.991  13.469  0.4306 -0.4318  0.0041
  421TMC3    C2 6278   3.485   4.117  13.478 -0.5709 -0.2419 -0.3176
  421TMC3    C3 6279   3.617   4.132  13.486  0.4120  1.3102 -0.1661
  421TMC3    C4 6280   3.519   3.881  13.456 -0.2056  0.0233 -0.0492
  421TMC3    C5 6281   3.652   3.910  13.452  0.4149  0.4366 -0.0230
  421TMC3    C6 6282   3.704   4.038  13.445  0.0534  0.0030  0.1395
  421TMC3     C 6283   3.303   3.964  13.519  0.0184 -0.5070  0.4314
  421TMC3     O 6284   3.243   4.052  13.577  0.0370 -0.0689  0.7975
  421TMC3     H 6285   3.421   4.204  13.496  0.5721 -0.1062  3.0198
  421TMC3    H1 6286   3.484   3.782  13.485  1.3335 -0.3533  0.5399
  421TMC3    H2 6287   3.809   4.058  13.460  0.5386 -1.2525 -1.6861
  421TMC3    C7 6288   3.751   3.803  13.463 -0.4446 -0.6528  0.3390
  421TMC3    C8 6289   3.673   4.221  13.591  0.0266 -0.2943  0.4183
  421TMC3    O1 6290   3.870   3.831  13.461 -0.3362 -0.0265  0.4087
  421TMC3    O2 6291   3.779   4.180  13.638  0.5770 -0.2584 -0.0861
  422TMC3    C1 6292   0.856   0.277  12.272 -0.6929  0.6522 -0.2008
  422TMC3    C2 6293   0.809   0.398  12.312  0.2758 -0.0011  0.3869
  422TMC3    C3 6294   0.694   0.413  12.394  0.5755 -0.6209  0.1230
  422TMC3    C4 6295   0.802   0.163  12.328 -0.5340 -0.6166  1.0690
  422TMC3    C5 6296   0.691   0.182  12.410  0.5103 -0.3944  0.8822
  422TMC3    C6 6297   0.631   0.302  12.439  0.5469  0.0267  0.0508
  422TMC3     C 6298   0.950   0.279  12.166 -0.1598 -0.2844  0.0959
  422TMC3     O 6299   0.984   0.390  12.126  0.3705 -0.0933 -0.3278
  422TMC3     H 6300   0.857   0.489  12.280 -0.2333 -0.3745 -1.4173
  422TMC3    H1 6301   0.847   0.067  12.307 -2.3488 -1.0692 -0.7858
  422TMC3    H2 6302   0.550   0.319  12.509 -0.9364  0.1597 -1.6952
  422TMC3    C7 6303   0.605   0.070  12.407  0.4858 -0.1467  0.1461
  422TMC3    C8 6304   0.675   0.545  12.451  0.6116  0.3084  0.6742
  422TMC3    O1 6305   0.634   4.708  12.320 -0.1256  0.1224  0.1376
  422TMC3    O2 6306   0.754   0.630  12.422  0.5195  0.2926 -0.1472
  423MPD2     C 6307   2.330   1.447   0.696 -0.4911  0.0096  0.3123
  423MPD2    C1 6308   2.287   1.314   0.711  0.5891 -0.2067  0.7981
  423MPD2    C2 6309   2.288   1.229   0.604  0.1755 -0.5453 -0.0768
  423MPD2    C3 6310   2.331   1.274   0.477  0.0423 -0.3221  0.3113
  423MPD2    C4 6311   2.370   1.406   0.460 -0.2079  0.5987  0.7466
  423MPD2    C5 6312   2.368   1.490   0.571 -0.0437  0.4370  0.8172
  423MPD2     H 6313   2.255   1.126   0.618  2.4660 -1.0642  1.4664
  423MPD2    H1 6314   2.398   1.439   0.361  0.7632 -0.5180  0.6486
  423MPD2    H2 6315   2.328   1.525   0.771  0.6071 -1.5992  2.0065
  423MPD2    H3 6316   2.385   1.597   0.561  0.0407  0.2989 -0.4764
  423MPD2     N 6317   2.324   1.195   0.359 -0.0345 -0.3049 -0.5502
  423MPD2    H5 6318   2.385   1.227   0.285  0.0970  0.5796 -0.0576
  423MPD2    N1 6319   2.257   1.260   0.841  0.2555 -0.0167 -0.1923
  423MPD2    H7 6320   2.203   1.173   0.839  0.2571  0.0232 -1.8131
  424TMC3    C1 6321   2.245   1.223   1.070  0.1486 -0.4205  0.2849
  424TMC3    C2 6322   2.320   1.221   1.187 -0.6978 -0.1312 -0.5108
  424TMC3    C3 6323   2.264   1.143   1.288  0.8688  0.0660 -0.8216
  424TMC3    C4 6324   2.120   1.167   1.060 -0.2502  0.4238 -0.1130
  424TMC3    C5 6325   2.068   1.094   1.163  0.1130 -0.9651  0.4419
  424TMC3    C6 6326   2.138   1.089   1.281  0.1065  0.1965  0.6643
  424TMC3     C 6327   2.288   1.313   0.964  0.0863 -0.6537 -0.2408
  424TMC3     O 6328   2.378   1.397   0.985 -0.0818 -0.2006  0.3900
  424TMC3     H 6329   2.421   1.260   1.189  0.7211 -3.8375  0.7987
  424TMC3    H1 6330   2.059   1.191   0.974  0.8150  3.0551 -0.1302
  424TMC3    H2 6331   2.101   1.038   1.369 -0.4391  2.1707  1.5672
  424TMC3    C7 6332   1.922   1.102   1.184 -0.0711  0.1650 -0.2194
  424TMC3    C8 6333   2.338   1.128   1.410 -0.2448 -0.5382  0.3997
  424TMC3    O1 6334   1.887   1.123   1.302  0.4069 -0.0332  0.1105
  424TMC3    O2 6335   2.378   1.232   1.455  0.1673 -0.0341  0.7219
  425MPD2     C 6336   1.625   0.385   0.028  0.1933  0.1299  0.2328
  425MPD2    C1 6337   1.571   0.355  17.600  0.2977 -0.2694  0.2335
  425MPD2    C2 6338   1.465   0.430  17.554 -0.5532 -0.1233  0.6482
  425MPD2    C3 6339   1.429   0.544  17.621 -0.0490  0.0438 -0.1391
  425MPD2    C4 6340   1.488   0.572   0.048 -0.6863 -0.0972  0.4300
  425MPD2    C5 6341   1.588   0.495   0.099 -0.6804  0.2595 -0.5132
  425MPD2     H 6342   1.415   0.414  17.459  1.8149  0.4225 -0.6970
  425MPD2    H1 6343   1.465   0.665   0.098  1.0023  0.4618  0.1666
  425MPD2    H2 6344   1.713   0.328   0.058 -1.6677 -2.6239  0.4688
  425MPD2    H3 6345   1.646   0.522   0.187 -2.2911  2.1936 -0.0476
  425MPD2     N 6346   1.340   0.632  17.553 -0.6323  0.6288  0.7185
  425MPD2    H5 6347   1.296   0.593  17.470  1.8275  1.4271 -0.9357
  425MPD2    N1 6348   1.622   0.250  17.521  0.6180  0.0214 -0.8574
  425MPD2    H7 6349   1.699   0.194  17.557 -0.3753 -0.8809 -0.1281
  426TMC3    C1 6350   1.676   0.105  17.342 -0.6497  0.8549 -0.2973
  426TMC3    C2 6351   1.651   0.061  17.221 -0.3622 -0.3996 -0.1183
  426TMC3    C3 6352   1.714   4.675  17.170  0.2482  0.2827  0.2946
  426TMC3    C4 6353   1.769   0.045  17.423 -0.1442 -0.2737 -0.0449
  426TMC3    C5 6354   1.832   4.657  17.369 -1.0016  0.3574 -0.2790
  426TMC3    C6 6355   1.805   4.609  17.244  0.3252 -0.1480  0.5073
  426TMC3     C 6356   1.588   0.205  17.394  0.4876  0.4016 -0.5867
  426TMC3     O 6357   1.494   0.249  17.325  0.5267  0.4078  0.0945
  426TMC3     H 6358   1.578   0.114  17.161 -0.2544  1.1456  1.1209
  426TMC3    H1 6359   1.793   0.090  17.519  0.9837 -2.4261  0.6892
  426TMC3    H2 6360   1.854   4.519  17.209  1.4524  0.5718  0.2358
  426TMC3    C7 6361   1.933   4.590  17.449 -0.7465 -0.1342 -0.1190
  426TMC3    C8 6362   1.655   4.601  17.056  0.1028  0.2186 -0.3508
  426TMC3    O1 6363   2.007   4.510  17.390 -0.0665  0.2729 -0.0300
  426TMC3    O2 6364   1.736   4.531  16.994  0.4191  0.2348  0.0491
  427MPD2     C 6365   4.464   2.441  14.455  0.3990 -0.3044  0.2050
  427MPD2    C1 6366   4.374   2.361  14.514 -0.3238 -0.8812 -0.5480
  427MPD2    C2 6367   4.248   2.403  14.553  0.4078  0.1353 -0.6520
  427MPD2    C3 6368   4.208   2.531  14.521 -0.0110  0.1060 -0.4446
  427MPD2    C4 6369   4.296   2.610  14.454 -0.0473 -0.1734 -0.5751
  427MPD2    C5 6370   4.424   2.567  14.420 -0.2628 -0.3650  0.2389
  427MPD2     H 6371   4.191   2.335  14.615  1.1963 -0.3056 -0.4223
  427MPD2    H1 6372   4.268   2.712  14.429  0.1490 -0.0979 -0.4904
  427MPD2    H2 6373   4.557   2.392  14.428 -0.0450 -0.3225 -1.2423
  427MPD2    H3 6374   4.488   2.623  14.353 -0.7770 -0.4715 -0.3522
  427MPD2     N 6375   4.096   2.588  14.580 -0.5927 -0.4568 -0.4274
  427MPD2    H5 6376   4.092   2.689  14.571  0.1270 -0.5509 -1.7746
  427MPD2    N1 6377   4.427   2.245  14.567  0.6577 -0.2997  0.7624
  427MPD2    H7 6378   4.528   2.236  14.574  0.9092  1.4988 -0.4097
  428TMC3    C1 6379   4.425   2.036  14.661  0.7605  0.0055 -0.1468
  428TMC3    C2 6380   4.361   1.912  14.666  0.9597  0.2729  0.1919
  428TMC3    C3 6381   4.425   1.816  14.746 -0.8861 -0.3198 -0.1785
  428TMC3    C4 6382   4.540   2.056  14.727 -0.6769 -0.5921  0.4335
  428TMC3    C5 6383   4.593   1.955  14.799 -0.5929 -0.0198  0.8254
  428TMC3    C6 6384   4.545   1.832  14.819 -0.0184  0.5281  0.0115
  428TMC3     C 6385   4.350   2.139  14.594 -0.7579 -0.2846 -1.1198
  428TMC3     O 6386   4.235   2.114  14.565  0.0259  0.2381 -0.3078
  428TMC3     H 6387   4.267   1.892  14.615  0.2971  1.0900  1.0980
  428TMC3    H1 6388   4.574   2.159  14.738 -3.2363  0.1606  1.1356
  428TMC3    H2 6389   4.587   1.747  14.872 -0.6227  1.0136  1.2611
  428TMC3    C7 6390   4.697   1.995  14.894  0.4587  0.7933  1.2086
  428TMC3    C8 6391   4.369   1.683  14.753  0.1751  0.2872  0.1413
  428TMC3    O1 6392   4.719   1.931  14.998  0.0213 -0.4562  0.0730
  428TMC3    O2 6393   4.438   1.582  14.760 -0.2074 -0.1271  0.6464
  429MPD2     C 6394   1.167   2.862  17.388 -0.1994 -0.4787  0.5335
  429MPD2    C1 6395   1.127   2.794  17.276 -0.2411 -0.0093 -1.6152
  429MPD2    C2 6396   1.156   2.852  17.153 -1.1142  0.8002 -0.2109
  429MPD2    C3 6397   1.219   2.977  17.145  0.5794 -0.0311  0.5050
  429MPD2    C4 6398   1.261   3.044  17.257  0.7355  0.1213  0.3289
  429MPD2    C5 6399   1.239   2.981  17.381 -0.0202 -0.0681  0.0478
  429MPD2     H 6400   1.127   2.802  17.061 -0.4537 -0.2574  0.1519
  429MPD2    H1 6401   1.306   3.142  17.265 -1.6353  1.3950 -1.9716
  429MPD2    H2 6402   1.151   2.822  17.487 -1.0910  1.1289  1.0403
  429MPD2    H3 6403   1.270   3.022  17.476  2.9425 -1.0528 -0.4692
  429MPD2     N 6404   1.243   3.028  17.016  0.1691  0.2133  0.4593
  429MPD2    H5 6405   1.228   2.961  16.941  0.2546 -0.7507  1.2995
  429MPD2    N1 6406   1.053   2.677  17.286  0.0258  0.5184 -0.1157
  429MPD2    H7 6407   1.023   2.647  17.194  0.2992 -0.0974 -0.0095
  430TMC3    C1 6408   1.310   3.172  16.855 -1.0752  0.6381 -0.2056
  430TMC3    C2 6409   1.232   3.249  16.777 -0.5607  0.3491  0.7215
  430TMC3    C3 6410   1.226   3.217  16.644  0.0620  0.1375  0.2096
  430TMC3    C4 6411   1.369   3.061  16.807  0.0432 -0.5530 -0.4188
  430TMC3    C5 6412   1.370   3.041  16.670 -0.5397 -0.4119 -0.6488
  430TMC3    C6 6413   1.295   3.120  16.583 -0.0063  0.1352 -0.9333
  430TMC3     C 6414   1.273   3.154  16.989  0.1287  0.5036  0.1515
  430TMC3     O 6415   1.267   3.260  17.054 -0.3050  0.3652  0.2189
  430TMC3     H 6416   1.177   3.330  16.822 -1.2000  1.4542 -2.0612
  430TMC3    H1 6417   1.446   3.007  16.861  1.9873  1.1197 -1.5067
  430TMC3    H2 6418   1.286   3.100  16.477 -0.5648  0.1873 -0.8945
  430TMC3    C7 6419   1.379   2.907  16.624 -0.1421  0.6677  0.5362
  430TMC3    C8 6420   1.102   3.227  16.586  0.4779  0.0179 -0.5261
  430TMC3    O1 6421   1.355   2.823  16.708 -0.4624  0.8999  0.3713
  430TMC3    O2 6422   1.057   3.114  16.563 -0.7179  0.6732  0.0277
  431MPD2     C 6423   1.782   2.959  12.325  0.5993 -0.1288  0.5851
  431MPD2    C1 6424   1.837   2.972  12.203  0.0781  0.4226 -0.5135
  431MPD2    C2 6425   1.837   2.860  12.119  1.1765  0.5505  0.8167
  431MPD2    C3 6426   1.796   2.740  12.162  0.2647  0.6649 -0.0116
  431MPD2    C4 6427   1.735   2.728  12.292  0.4793 -0.3778  0.0091
  431MPD2    C5 6428   1.733   2.834  12.370 -0.3043 -0.2829 -0.6862
  431MPD2     H 6429   1.900   2.872  12.032 -0.4875  0.0988 -0.4673
  431MPD2    H1 6430   1.694   2.635  12.330  0.6484 -0.6120 -0.3840
  431MPD2    H2 6431   1.781   3.033  12.404 -0.5076  2.3853 -1.7899
  431MPD2    H3 6432   1.664   2.829  12.454  0.5254  2.8667  0.1777
  431MPD2     N 6433   1.821   2.624  12.087  0.1307 -0.9816 -0.6437
  431MPD2    H5 6434   1.773   2.543  12.123 -0.6716 -0.1266  0.2030
  431MPD2    N1 6435   1.915   3.087  12.170  0.0649  0.2633 -0.2645
  431MPD2    H7 6436   1.970   3.090  12.085  0.2736 -0.2451 -0.1423
  432TMC3    C1 6437   1.901   2.459  11.930  0.3578 -0.4268  0.2466
  432TMC3    C2 6438   1.954   2.439  11.811  0.3306 -0.2085 -0.0466
  432TMC3    C3 6439   1.950   2.311  11.769 -0.0902  0.5616 -0.1542
  432TMC3    C4 6440   1.846   2.362  12.013 -0.2301  0.3843 -0.4001
  432TMC3    C5 6441   1.857   2.232  11.971 -0.0604 -0.1898 -0.0337
  432TMC3    C6 6442   1.913   2.206  11.851  0.0670  0.6500  0.1292
  432TMC3     C 6443   1.907   2.600  11.979  0.4365  0.1105  0.0304
  432TMC3     O 6444   1.958   2.681  11.901 -0.0926 -0.7089 -0.2852
  432TMC3     H 6445   2.000   2.516  11.749 -1.0094  1.9862  1.6633
  432TMC3    H1 6446   1.806   2.384  12.112 -0.0166 -2.9535  0.4303
  432TMC3    H2 6447   1.922   2.107  11.808  2.4477  1.2216 -0.7174
  432TMC3    C7 6448   1.863   2.121  12.078 -0.5852  0.1223  0.0982
  432TMC3    C8 6449   2.021   2.283  11.650 -0.1280 -0.7077 -0.5715
  432TMC3    O1 6450   1.874   2.005  12.039 -0.2871 -0.1199 -0.5443
  432TMC3    O2 6451   1.972   2.298  11.541 -0.0207 -0.2648  1.3044
  433MPD2     C 6452   0.559   1.148  10.937 -0.0851  0.2031 -0.2751
  433MPD2    C1 6453   0.611   1.020  10.968  0.1811  0.4995 -1.0045
  433MPD2    C2 6454   0.707   1.014  11.071 -0.0733  0.5148 -0.1710
  433MPD2    C3 6455   0.746   1.128  11.144  0.5576  0.2464 -0.1497
  433MPD2    C4 6456   0.693   1.253  11.109  0.3670 -0.1183  0.0915
  433MPD2    C5 6457   0.603   1.261  11.002  0.4601  0.0795 -0.1860
  433MPD2     H 6458   0.751   0.922  11.106 -0.1570 -0.0657 -1.6068
  433MPD2    H1 6459   0.731   1.341  11.161  1.1351 -1.0662  1.1324
  433MPD2    H2 6460   0.496   1.160  10.850 -0.6536  1.8779  0.3587
  433MPD2    H3 6461   0.565   1.356  10.964 -0.5259 -0.9772 -1.8061
  433MPD2     N 6462   0.831   1.104  11.256 -0.3350 -0.0586  0.3136
  433MPD2    H5 6463   0.857   1.006  11.258  0.0615  0.0234 -0.5582
  433MPD2    N1 6464   0.588   0.919  10.876  0.4814  0.0074  0.3366
  433MPD2    H7 6465   0.509   0.937  10.815 -0.0451 -2.2130  0.3415
  434TMC3    C1 6466   0.639   0.716  10.756  0.6697  0.0869  0.2508
  434TMC3    C2 6467   0.709   0.600  10.757  0.1487 -0.4644  0.7924
  434TMC3    C3 6468   0.807   0.585  10.663  0.5527  0.1444  0.0326
  434TMC3    C4 6469   0.653   0.798  10.647  0.0155 -0.6845  0.9268
  434TMC3    C5 6470   0.725   0.763  10.535  0.1904 -0.1013 -1.2405
  434TMC3    C6 6471   0.817   0.662  10.552 -0.0787 -0.1222  0.2129
  434TMC3     C 6472   0.635   0.790  10.883 -0.6517 -0.8736 -0.4560
  434TMC3     O 6473   0.681   0.730  10.982  0.6653 -0.0262 -0.5717
  434TMC3     H 6474   0.705   0.532  10.842 -1.3373  1.9134  2.6190
  434TMC3    H1 6475   0.612   0.898  10.639  1.3670 -0.1627  0.6424
  434TMC3    H2 6476   0.882   0.626  10.473  0.5215 -1.0721  1.1477
  434TMC3    C7 6477   0.700   0.829  10.405  0.1918 -0.3106 -0.5348
  434TMC3    C8 6478   0.924   0.509  10.705 -0.1996 -0.3370  0.1823
  434TMC3    O1 6479   0.785   0.910  10.373  0.2466 -0.0994 -0.3272
  434TMC3    O2 6480   0.903   0.419  10.785 -0.9570  0.5792 -0.2887
  435MPD2     C 6481   2.821   1.169  15.385 -0.0941  0.0488  0.1174
  435MPD2    C1 6482   2.799   1.114  15.512  0.4841 -0.3318 -0.3418
  435MPD2    C2 6483   2.898   1.043  15.573  0.5763 -0.0630  0.3034
  435MPD2    C3 6484   3.025   1.040  15.523 -0.2503  0.1255 -0.0730
  435MPD2    C4 6485   3.044   1.085  15.397 -0.0181 -0.2448  0.0036
  435MPD2    C5 6486   2.947   1.149  15.327 -0.7004  0.1738  0.7379
  435MPD2     H 6487   2.882   1.014  15.676 -0.6895  0.2004  0.1807
  435MPD2    H1 6488   3.142   1.068  15.355  0.4329 -1.6826  1.6430
  435MPD2    H2 6489   2.750   1.234  15.336  1.4248  0.1834 -1.9067
  435MPD2    H3 6490   2.967   1.199  15.233 -0.2273 -1.3620  0.0153
  435MPD2     N 6491   3.120   0.979  15.613 -0.0156  0.3230  0.4457
  435MPD2    H5 6492   3.076   0.945  15.697 -0.4823 -0.0293  0.0566
  435MPD2    N1 6493   2.683   1.135  15.576  0.0879 -0.3244  0.1473
  435MPD2    H7 6494   2.665   1.089  15.664 -0.7644 -1.1977 -0.4737
  436TMC3    C1 6495   2.411   1.347  15.845  0.1117 -0.0955  0.2632
  436TMC3    C2 6496   2.490   1.359  15.731 -0.3518  0.1837 -0.9364
  436TMC3    C3 6497   2.485   1.255  15.640 -0.0266  0.2773  0.0168
  436TMC3    C4 6498   2.349   1.233  15.882  0.4030 -0.8075 -0.0461
  436TMC3    C5 6499   2.353   1.130  15.789  0.3307  0.7148 -0.2703
  436TMC3    C6 6500   2.414   1.142  15.663  0.0087 -0.0661  0.0121
  436TMC3     C 6501   2.434   1.443  15.945 -0.5363 -0.2992  0.2721
  436TMC3     O 6502   2.548   1.478  15.970  0.1851 -0.6349 -0.1125
  436TMC3     H 6503   2.546   1.447  15.702  1.1714  0.2374  2.1886
  436TMC3    H1 6504   2.314   1.214  15.983  2.4524 -1.0683  0.6044
  436TMC3    H2 6505   2.400   1.069  15.584  3.1202  0.2287 -0.8366
  436TMC3    C7 6506   2.285   1.010  15.828  0.3662 -0.2179 -0.7206
  436TMC3    C8 6507   2.599   1.242  15.550 -0.6274  0.2690 -0.1021
  436TMC3    O1 6508   2.300   0.980  15.946 -0.2552 -0.3798 -0.1295
  436TMC3    O2 6509   2.624   1.345  15.488  0.1746  0.5811 -0.4851
  437TMC3    C1 6510   1.253   3.425  12.801  0.4913  0.9531  0.0415
  437TMC3    C2 6511   1.138   3.501  12.821 -0.9196 -0.7270 -0.3051
  437TMC3    C3 6512   1.085   3.559  12.711  0.2152  0.5130 -0.2627
  437TMC3    C4 6513   1.320   3.413  12.682 -0.1298  0.3807  0.0332
  437TMC3    C5 6514   1.260   3.486  12.580 -0.6090  0.2709 -0.0010
  437TMC3    C6 6515   1.148   3.559  12.593 -0.1290  0.2553  0.1555
  437TMC3     C 6516   1.326   3.362  12.912  0.1777  0.8134  0.0382
  437TMC3     O 6517   1.444   3.334  12.896  0.5800  0.5366  0.0616
  437TMC3     H 6518   1.103   3.515  12.923 -1.7363  3.1225 -1.1506
  437TMC3    H1 6519   1.417   3.366  12.673 -0.2311 -0.5638  3.8752
  437TMC3    H2 6520   1.117   3.630  12.516  0.7555 -1.5228 -1.8441
  437TMC3    C7 6521   1.345   3.529  12.473  0.4699 -0.0704  0.3403
  437TMC3    C8 6522   0.961   3.635  12.735  0.3080  0.0326  0.0429
  437TMC3    O1 6523   1.288   3.588  12.382 -0.0555  0.0347 -0.1307
  437TMC3    O2 6524   0.936   3.657  12.852  0.0010 -0.0558  0.2402
  438MPD2     C 6525   3.617   4.152  17.323 -0.0266 -0.1406  0.6156
  438MPD2    C1 6526   3.721   4.079  17.382 -0.3990 -0.5091 -0.5258
  438MPD2    C2 6527   3.695   4.046  17.519  0.1078 -0.2270  0.3768
  438MPD2    C3 6528   3.572   4.071  17.586 -0.3225 -0.4193  0.7815
  438MPD2    C4 6529   3.472   4.134  17.520  0.2405  0.4847 -0.3027
  438MPD2    C5 6530   3.501   4.174  17.387  0.0474 -0.8803 -0.0492
  438MPD2     H 6531   3.780   4.003  17.571 -0.9399  0.0523  2.3134
  438MPD2    H1 6532   3.374   4.165  17.555 -0.1853  1.3177 -2.1942
  438MPD2    H2 6533   3.619   4.196  17.224 -3.4099  1.8291  1.4173
  438MPD2    H3 6534   3.429   4.236  17.335  0.0913 -0.1315  0.7868
  438MPD2     N 6535   3.543   4.002   0.010 -0.5618  0.8368  0.5083
  438MPD2    H5 6536   3.451   4.017   0.051 -1.2721  0.9806 -1.1588
  438MPD2    N1 6537   3.843   4.058  17.317  0.2060  0.5178  0.0008
  438MPD2    H7 6538   3.914   4.024  17.380 -4.5974 -2.1910  3.8995
  439TMC3    C1 6539   3.997   4.015  17.143  0.7276 -0.1381  0.0189
  439TMC3    C2 6540   4.011   3.949  17.024 -0.0423 -0.1123  0.2178
  439TMC3    C3 6541   4.127   3.886  16.994  0.6540  0.4747 -0.2233
  439TMC3    C4 6542   4.110   4.014  17.231 -0.4845 -0.5579  0.2414
  439TMC3    C5 6543   4.228   3.942  17.197  0.1238  0.1289 -0.3005
  439TMC3    C6 6544   4.239   3.877  17.077 -0.2948 -0.9621  0.2793
  439TMC3     C 6545   3.868   4.062  17.178 -0.4882  0.2644 -0.1833
  439TMC3     O 6546   3.794   4.087  17.087  0.3579  0.0559  0.5441
  439TMC3     H 6547   3.925   3.947  16.958 -0.4727  2.0783  0.6998
  439TMC3    H1 6548   4.094   4.051  17.332  0.5721  2.3765 -0.6820
  439TMC3    H2 6549   4.326   3.824  17.040 -0.2069 -0.4692 -0.2140
  439TMC3    C7 6550   4.345   3.952  17.278 -0.0954  0.1828 -0.4361
  439TMC3    C8 6551   4.152   3.820  16.858 -0.6682  1.2251  0.9547
  439TMC3    O1 6552   4.431   3.868  17.262 -0.4546  0.1687 -0.9794
  439TMC3    O2 6553   4.269   3.801  16.825  0.8222 -0.0962 -0.3157
  440MPD2     C 6554   2.482   4.221  14.883  0.3397  0.6752 -0.1657
  440MPD2    C1 6555   2.578   4.282  14.961  0.3533  0.0647 -0.1918
  440MPD2    C2 6556   2.705   4.310  14.905 -0.0536  0.1394  0.2220
  440MPD2    C3 6557   2.729   4.267  14.776 -0.5505 -0.0458 -0.4936
  440MPD2    C4 6558   2.633   4.197  14.699 -0.5810 -0.1208 -0.8870
  440MPD2    C5 6559   2.503   4.194  14.754  0.7334  0.0691 -0.5335
  440MPD2     H 6560   2.781   4.352  14.969 -1.5612 -0.0724  2.1368
  440MPD2    H1 6561   2.643   4.171  14.594 -3.6158 -0.8537 -1.0139
  440MPD2    H2 6562   2.378   4.211  14.912 -0.1195  0.7155 -1.8200
  440MPD2    H3 6563   2.425   4.148  14.696  1.8463 -0.9221 -1.2526
  440MPD2     N 6564   2.854   4.287  14.711 -0.0375 -0.4384 -0.8334
  440MPD2    H5 6565   2.879   4.233  14.628 -0.5763 -0.1480 -1.1866
  440MPD2    N1 6566   2.558   4.320  15.096  0.0038 -0.2990  0.1560
  440MPD2    H7 6567   2.636   4.342  15.157 -0.5384  0.0246  0.7318
  441TMC3    C1 6568   3.086   4.324  14.723  0.2733  0.7520 -0.2055
  441TMC3    C2 6569   3.166   4.434  14.744 -0.3825 -0.4213  0.0419
  441TMC3    C3 6570   3.293   4.417  14.794 -0.2183  0.1917  0.6206
  441TMC3    C4 6571   3.123   4.202  14.771  0.1002  0.4579  0.2947
  441TMC3    C5 6572   3.243   4.191  14.836  0.8301 -1.1432  1.0394
  441TMC3    C6 6573   3.333   4.296  14.836  0.5601  0.3733  0.0575
  441TMC3     C 6574   2.958   4.358  14.770  0.2833 -0.7355 -0.4963
  441TMC3     O 6575   2.955   4.454  14.850 -0.4433 -0.1268 -0.0613
  441TMC3     H 6576   3.130   4.530  14.710  0.1722 -0.2431 -0.0528
  441TMC3    H1 6577   3.044   4.128  14.778 -1.7160  2.5545  2.1815
  441TMC3    H2 6578   3.428   4.292  14.888  0.8749 -1.4580 -0.6714
  441TMC3    C7 6579   3.249   4.101  14.956  0.0557  0.3952  0.7290
  441TMC3    C8 6580   3.314   4.503  14.912 -0.2475 -0.3929  0.0185
  441TMC3    O1 6581   3.141   4.054  14.989  0.5697  0.0712  0.3683
  441TMC3    O2 6582   3.420   4.572  14.917 -0.3660 -0.0347 -0.4782
  442MPD2     C 6583   0.769   0.053  16.775  0.5353  0.4272  0.5433
  442MPD2    C1 6584   0.756   0.051  16.642 -0.4631  0.3562  0.4404
  442MPD2    C2 6585   0.768   4.654  16.571  0.5618 -0.3383  0.6293
  442MPD2    C3 6586   0.816   4.544  16.638  0.0975  0.7458  0.2892
  442MPD2    C4 6587   0.855   4.553  16.764 -0.0159 -0.5896 -0.0352
  442MPD2    C5 6588   0.824   4.668  16.830 -0.1262  0.2213  0.3834
  442MPD2     H 6589   0.759   4.657  16.463  1.3399  0.9811  0.5995
  442MPD2    H1 6590   0.922   4.484  16.814  0.5668 -1.2365 -1.7169
  442MPD2    H2 6591   0.752   0.140  16.836 -1.5758  0.5293 -0.2252
  442MPD2    H3 6592   0.850   4.664  16.935  2.2225 -0.5821 -0.2115
  442MPD2     N 6593   0.838   4.423  16.571  0.8843  0.7331  0.2636
  442MPD2    H5 6594   0.886   4.350  16.623  1.6896  1.1366  0.0898
  442MPD2    N1 6595   0.715   0.168  16.572 -0.1625  0.1119 -0.1050
  442MPD2    H7 6596   0.699   0.156  16.472 -2.5127  3.3054 -0.1190
  443TMC3    C1 6597   0.625   0.375  16.547  0.5645 -0.4030 -0.4484
  443TMC3    C2 6598   0.547   0.325  16.445  0.4053  0.2985 -0.4970
  443TMC3    C3 6599   0.418   0.361  16.434  0.1926  1.0880 -0.0888
  443TMC3    C4 6600   0.582   0.481  16.619 -0.7566 -0.3185 -0.1391
  443TMC3    C5 6601   0.448   0.512  16.614  0.1613 -0.0871 -0.9608
  443TMC3    C6 6602   0.360   0.445  16.524 -0.2867 -0.4817  0.0701
  443TMC3     C 6603   0.701   0.286  16.629  0.2283 -0.9948 -0.2062
  443TMC3     O 6604   0.730   0.325  16.743 -0.2226 -0.2037  0.1824
  443TMC3     H 6605   0.583   0.247  16.379  0.0000 -0.0417 -0.3190
  443TMC3    H1 6606   0.646   0.534  16.689 -0.1977 -2.0556  0.6723
  443TMC3    H2 6607   0.254   0.459  16.540 -0.5265  0.3540 -2.3031
  443TMC3    C7 6608   0.392   0.508  16.745  0.0375 -1.0019 -0.6036
  443TMC3    C8 6609   0.329   0.278  16.361  0.0882 -0.1025  0.2341
  443TMC3    O1 6610   0.298   0.427  16.765  0.7221  0.1992  0.0218
  443TMC3    O2 6611   0.369   0.166  16.329  0.4060  0.3303  0.3274
  444MPD2     C 6612   1.599   4.293  17.192  0.1027  0.5717 -0.4556
  444MPD2    C1 6613   1.471   4.252  17.167  0.4800 -0.1081 -0.0639
  444MPD2    C2 6614   1.440   4.164  17.062 -0.1568 -0.4735 -0.2353
  444MPD2    C3 6615   1.546   4.116  16.981  0.9612  0.1596  0.7666
  444MPD2    C4 6616   1.671   4.162  17.009 -0.0105 -0.2461 -0.3624
  444MPD2    C5 6617   1.705   4.251  17.114 -0.2354 -0.0851  0.1892
  444MPD2     H 6618   1.337   4.131  17.063 -0.1597 -0.4874 -0.8921
  444MPD2    H1 6619   1.759   4.122  16.960 -0.3827 -0.9922 -0.4237
  444MPD2    H2 6620   1.635   4.367  17.263 -0.4473  3.0995 -2.8263
  444MPD2    H3 6621   1.807   4.286  17.122 -0.2069  0.0192 -0.6186
  444MPD2     N 6622   1.516   4.018  16.883  0.2429  0.1108  0.0795
  444MPD2    H5 6623   1.423   3.979  16.885 -0.2576  1.3622  1.4771
  444MPD2    N1 6624   1.365   4.294  17.243  0.2278 -0.3964 -0.0299
  444MPD2    H7 6625   1.279   4.240  17.235  1.0128 -1.8429  1.4198
  445TMC3    C1 6626   1.541   3.883  16.692 -0.5875 -0.4151 -0.5117
  445TMC3    C2 6627   1.466   3.784  16.748 -0.2965 -0.3705  0.1036
  445TMC3    C3 6628   1.441   3.674  16.669 -0.0118 -0.3743  0.0408
  445TMC3    C4 6629   1.597   3.864  16.566  0.1629 -0.1815  0.1833
  445TMC3    C5 6630   1.573   3.753  16.493  0.2637 -0.2499 -0.0202
  445TMC3    C6 6631   1.492   3.656  16.540  0.4909 -0.2284  0.4791
  445TMC3     C 6632   1.605   3.980  16.782  0.1468  0.3239 -0.4501
  445TMC3     O 6633   1.694   4.045  16.731 -0.6021  0.3591 -0.7983
  445TMC3     H 6634   1.440   3.795  16.853 -2.9142  0.3588 -0.6070
  445TMC3    H1 6635   1.667   3.944  16.541 -0.4592  0.6155  0.9792
  445TMC3    H2 6636   1.467   3.565  16.487  0.8070 -0.9816  1.5950
  445TMC3    C7 6637   1.648   3.741  16.369 -0.3870 -0.3908 -0.0592
  445TMC3    C8 6638   1.319   3.600  16.689  0.0400  0.6767 -0.6845
  445TMC3    O1 6639   1.723   3.832  16.348 -0.3536  0.0529  0.4588
  445TMC3    O2 6640   1.262   3.538  16.600  0.3306 -0.3894 -0.6622
  446MPD2     C 6641   0.608   0.190  11.191  0.3484 -0.3544  0.0128
  446MPD2    C1 6642   0.549   0.302  11.136 -0.3347 -0.1886  0.1309
  446MPD2    C2 6643   0.631   0.411  11.106  0.0972  0.2300 -0.0152
  446MPD2    C3 6644   0.765   0.410  11.121 -0.0886 -0.4561  0.2925
  446MPD2    C4 6645   0.821   0.299  11.183 -0.3194 -0.5407 -0.3826
  446MPD2    C5 6646   0.745   0.192  11.221  0.5026  0.4826  0.3845
  446MPD2     H 6647   0.581   0.495  11.059  2.3257  1.9517  0.7219
  446MPD2    H1 6648   0.928   0.280  11.193 -1.0140 -2.4239  3.2521
  446MPD2    H2 6649   0.552   0.102  11.220 -0.0367  0.2883  1.2420
  446MPD2    H3 6650   0.792   0.106  11.268 -0.9185 -0.6497 -0.2741
  446MPD2     N 6651   0.840   0.527  11.096 -0.3393 -0.0224 -0.2899
  446MPD2    H5 6652   0.790   0.605  11.055 -0.3329 -0.1263 -0.4941
  446MPD2    N1 6653   0.409   0.315  11.112 -0.0129  0.2427  0.1149
  446MPD2    H7 6654   0.378   0.387  11.047  0.8148  0.5704  0.0893
  447TMC3    C1 6655   1.033   0.665  11.083 -0.1086 -0.4086 -0.1633
  447TMC3    C2 6656   0.984   0.740  10.976  0.2307 -0.1823 -0.1184
  447TMC3    C3 6657   1.058   0.843  10.928 -0.2761 -0.0582 -0.1819
  447TMC3    C4 6658   1.160   0.701  11.136 -0.4497 -0.3222 -0.2393
  447TMC3    C5 6659   1.220   0.817  11.098  0.0915 -0.1207 -0.2168
  447TMC3    C6 6660   1.174   0.886  10.995 -0.1789 -0.3364 -0.1861
  447TMC3     C 6661   0.977   0.537  11.119 -0.3210 -0.2033  0.3621
  447TMC3     O 6662   1.055   0.452  11.169  0.3067 -1.0107  0.0794
  447TMC3     H 6663   0.906   0.691  10.918  1.1096 -1.4269 -0.2448
  447TMC3    H1 6664   1.210   0.629  11.199 -1.1202 -0.5804  0.0010
  447TMC3    H2 6665   1.225   0.976  10.959 -1.8143  1.2213  1.3894
  447TMC3    C7 6666   1.356   0.790  11.070  0.2288  0.4849 -0.1411
  447TMC3    C8 6667   1.049   0.882  10.788 -0.4768 -0.0643  0.0704
  447TMC3    O1 6668   1.399   0.813  10.958 -0.4103  0.4360  0.0949
  447TMC3    O2 6669   0.934   0.893  10.750  0.0855  0.2289 -0.3051
  448TMC3    C1 6670   4.528   1.118   0.047 -0.2901 -0.4159 -0.3211
  448TMC3    C2 6671   4.526   1.039  17.623 -0.6073  0.3050  0.0430
  448TMC3    C3 6672   4.622   0.940  17.604  0.1339 -0.3060 -0.2183
  448TMC3    C4 6673   4.625   1.111   0.139  0.0246 -0.0750 -0.0027
  448TMC3    C5 6674   4.710   0.999   0.125  0.0003 -0.4127 -0.1313
  448TMC3    C6 6675   4.715   0.922   0.013  0.4317  0.2787  0.1558
  448TMC3     C 6676   4.473   1.252   0.035  0.2395  0.1842  0.4394
  448TMC3     O 6677   4.475   1.309   0.142  0.1423  0.0288  0.1789
  448TMC3     H 6678   4.442   1.066  17.560 -0.5767  1.1269  0.3444
  448TMC3    H1 6679   4.634   1.166   0.232 -1.8238 -0.4862  0.4247
  448TMC3    H2 6680   0.049   0.829   0.007 -0.4887 -0.2086 -0.9290
  448TMC3    C7 6681   0.045   0.951   0.252  1.2401  0.1859 -0.2277
  448TMC3    C8 6682   4.587   0.832  17.521  0.2561 -0.3037  0.3443
  448TMC3    O1 6683   0.090   1.033   0.330 -0.3763  0.0057  0.0705
  448TMC3    O2 6684   4.641   0.728  17.549  0.1697  0.0477  0.2381
  449MPD2     C 6685   0.355   3.635  14.045  0.1954 -0.0102  0.3489
  449MPD2    C1 6686   0.353   3.766  13.996 -0.4054 -1.1802  0.4387
  449MPD2    C2 6687   0.318   3.776  13.865  0.4956 -0.6786 -0.3311
  449MPD2    C3 6688   0.275   3.670  13.790  0.6876 -0.4303 -0.4328
  449MPD2    C4 6689   0.275   3.540  13.837  0.1226  0.4797 -0.0250
  449MPD2    C5 6690   0.315   3.529  13.966 -0.0455 -0.2398  0.2057
  449MPD2     H 6691   0.321   3.870  13.812 -0.9495 -0.5518 -0.1848
  449MPD2    H1 6692   0.249   3.457  13.773 -0.5231  0.2486  0.5339
  449MPD2    H2 6693   0.377   3.618  14.150  2.0683 -2.9783 -0.5330
  449MPD2    H3 6694   0.313   3.430  14.008 -0.2958 -0.3378 -0.0325
  449MPD2     N 6695   0.253   3.697  13.653  0.8860 -0.0501 -0.8302
  449MPD2    H5 6696   0.250   3.798  13.645  0.2568 -0.0005  0.0849
  449MPD2    N1 6697   0.413   3.875  14.061  0.4420  0.2070 -0.1954
  449MPD2    H7 6698   0.397   3.962  14.011 -0.1834 -0.7056 -1.5645
  450TMC3    C1 6699   0.567   3.987  14.191  0.0567  0.5292  0.2943
  450TMC3    C2 6700   0.695   3.944  14.215  0.0639  0.5974 -0.0161
  450TMC3    C3 6701   0.787   3.982  14.128  0.3054  0.0471  0.3038
  450TMC3    C4 6702   0.535   4.086  14.114 -0.5496  0.1277 -0.2901
  450TMC3    C5 6703   0.633   4.133  14.031  0.1870  0.1830  0.0891
  450TMC3    C6 6704   0.758   4.076  14.028  0.2336 -0.6551  0.0092
  450TMC3     C 6705   0.484   3.877  14.178  0.3195  0.7922  0.1897
  450TMC3     O 6706   0.503   3.784  14.252 -0.2635 -0.6122 -0.1497
  450TMC3     H 6707   0.721   3.866  14.286 -1.2631  0.7400  0.6230
  450TMC3    H1 6708   0.436   4.131  14.113  0.0195  1.3709 -0.3150
  450TMC3    H2 6709   0.823   4.096  13.944  2.0735 -0.0041  1.5740
  450TMC3    C7 6710   0.586   4.154  13.894  0.3498  0.0046  0.2952
  450TMC3    C8 6711   0.912   3.917  14.140  0.0327  0.3994 -0.0574
  450TMC3    O1 6712   0.483   4.094  13.874 -0.5385  0.8886  0.3601
  450TMC3    O2 6713   0.946   3.897  14.253 -0.0345 -0.3470  0.0195
  451MPD2     C 6714   2.412   3.152   1.367 -0.2082 -0.5969 -0.9076
  451MPD2    C1 6715   2.325   3.165   1.262  0.0379  0.7679 -0.0934
  451MPD2    C2 6716   2.275   3.060   1.193 -0.1020  1.1626 -0.0488
  451MPD2    C3 6717   2.325   2.932   1.227 -0.5613 -0.9424  0.1030
  451MPD2    C4 6718   2.429   2.916   1.320  0.2207 -0.0761  0.0018
  451MPD2    C5 6719   2.475   3.029   1.383 -1.0419  0.4164 -0.3807
  451MPD2     H 6720   2.184   3.067   1.134 -0.0485 -0.1507 -0.3066
  451MPD2    H1 6721   2.464   2.818   1.349  0.7381  0.1088 -0.0051
  451MPD2    H2 6722   2.451   3.241   1.415 -0.7956 -1.6248  1.4637
  451MPD2    H3 6723   2.557   3.016   1.452 -0.2354 -0.4608 -1.5236
  451MPD2     N 6724   2.281   2.808   1.174  0.0962  0.0304 -0.7758
  451MPD2    H5 6725   2.305   2.720   1.218 -2.6387 -0.0860  0.4856
  451MPD2    N1 6726   2.302   3.299   1.222 -0.5559  0.4541 -0.2764
  451MPD2    H7 6727   2.340   3.376   1.276  0.6780  0.6215 -1.3799
  452TMC3    C1 6728   2.144   2.679   1.038  0.3740 -0.1128 -0.4310
  452TMC3    C2 6729   2.143   2.577   1.129  0.2475 -0.0247  0.4981
  452TMC3    C3 6730   2.060   2.471   1.118  0.5220  0.0295 -0.0074
  452TMC3    C4 6731   2.069   2.673   0.925 -0.3752  0.1874  0.5818
  452TMC3    C5 6732   1.990   2.565   0.915  0.3031  0.5619  0.3636
  452TMC3    C6 6733   1.980   2.465   1.006 -0.0141 -0.7072  0.7848
  452TMC3     C 6734   2.191   2.807   1.073  0.0506 -0.4574 -0.2307
  452TMC3     O 6735   2.181   2.896   0.989  0.0847 -0.7878 -0.3025
  452TMC3     H 6736   2.193   2.581   1.225 -2.2509  0.5589  1.7801
  452TMC3    H1 6737   2.055   2.751   0.851 -0.6249 -0.6595 -0.2596
  452TMC3    H2 6738   1.912   2.382   0.990  0.9822 -1.6161  1.2241
  452TMC3    C7 6739   1.936   2.541   0.781 -0.1545  0.9206 -0.0174
  452TMC3    C8 6740   2.034   2.404   1.244  0.0907 -0.5508  0.0356
  452TMC3    O1 6741   1.965   2.615   0.687 -0.0146  0.8877  0.2117
  452TMC3    O2 6742   2.116   2.403   1.335 -0.7652  0.2101  0.0250
  453TMC3    C1 6743   3.043   4.573  11.978 -0.0284  0.5362 -0.8997
  453TMC3    C2 6744   2.962   4.466  12.013  0.0247  0.7547  0.5350
  453TMC3    C3 6745   2.852   4.445  11.936  0.7499  0.5405  0.1295
  453TMC3    C4 6746   3.013   4.651  11.869  0.9339 -0.2064  0.8675
  453TMC3    C5 6747   2.894   4.628  11.802 -0.6898 -0.0983  0.0218
  453TMC3    C6 6748   2.822   4.522  11.830  0.4216 -0.2637  0.1031
  453TMC3     C 6749   3.156   4.601  12.062 -0.0900  0.1119 -0.8234
  453TMC3     O 6750   3.184   4.722  12.075 -0.4862 -0.1803 -1.0669
  453TMC3     H 6751   2.981   4.406  12.101  2.2047 -1.5070 -1.4906
  453TMC3    H1 6752   3.080   0.012  11.852  0.7609 -0.4228 -0.9475
  453TMC3    H2 6753   2.730   4.499  11.778  1.3790 -0.9471 -1.3106
  453TMC3    C7 6754   2.881   4.675  11.662 -0.2664  0.9012  0.0953
  453TMC3    C8 6755   2.755   4.342  11.966  0.3394 -0.8228 -0.1045
  453TMC3    O1 6756   2.768   4.675  11.616  0.1088  0.5002  0.3412
  453TMC3    O2 6757   2.640   4.371  11.951  0.2642  0.1680 -0.9938
  454MPD2     C 6758   1.990   4.191  15.844 -0.3488 -0.3296 -0.8754
  454MPD2    C1 6759   1.900   4.088  15.841  0.5709 -0.1021 -0.1229
  454MPD2    C2 6760   1.826   4.058  15.962 -0.9360  0.5899  0.1156
  454MPD2    C3 6761   1.821   4.146  16.066 -0.0061  0.1068 -0.4007
  454MPD2    C4 6762   1.914   4.248  16.067  0.4003  0.3437  0.0761
  454MPD2    C5 6763   1.997   4.276  15.956  0.0655 -0.0378  0.8515
  454MPD2     H 6764   1.742   3.990  15.961 -0.0347 -0.4922 -1.8794
  454MPD2    H1 6765   1.929   4.316  16.150 -1.0260  2.5445 -1.4775
  454MPD2    H2 6766   2.047   4.218  15.756 -0.5601 -2.4645 -1.6617
  454MPD2    H3 6767   2.058   4.365  15.950  0.1245 -0.1151  0.2473
  454MPD2     N 6768   1.720   4.117  16.163  0.9105  0.5493  0.3077
  454MPD2    H5 6769   1.651   4.046  16.140 -1.8289  2.6593  1.8565
  454MPD2    N1 6770   1.875   4.015  15.720 -0.4013  0.8482  0.2718
  454MPD2    H7 6771   1.913   4.052  15.634  2.4770 -1.7793  0.4019
  455TMC3    C1 6772   1.570   4.157  16.327 -0.0025  0.7795 -0.5177
  455TMC3    C2 6773   1.520   4.236  16.426 -0.0955  0.4324 -0.1860
  455TMC3    C3 6774   1.403   4.198  16.479 -0.3409  0.3038 -0.3002
  455TMC3    C4 6775   1.503   4.047  16.287  0.7065  0.6827  0.2708
  455TMC3    C5 6776   1.372   4.024  16.330  0.2947  0.3264 -0.1685
  455TMC3    C6 6777   1.326   4.100  16.429 -0.1192 -1.0364 -0.2645
  455TMC3     C 6778   1.689   4.202  16.259  1.0256  1.0402  0.0782
  455TMC3     O 6779   1.747   4.303  16.298 -0.0822 -0.1242 -0.2506
  455TMC3     H 6780   1.573   4.323  16.462  2.2852 -1.0712 -0.1025
  455TMC3    H1 6781   1.548   3.977  16.217  0.2950  0.2638  0.4285
  455TMC3    H2 6782   1.227   4.068  16.458  0.9543 -3.6238  0.5481
  455TMC3    C7 6783   1.316   3.894  16.315  0.4379 -0.5202 -0.5577
  455TMC3    C8 6784   1.337   4.285  16.569 -0.5712  0.5072  1.1964
  455TMC3    O1 6785   1.245   3.848  16.408 -0.3404  0.1783  0.0132
  455TMC3    O2 6786   1.215   4.277  16.579  0.1210  0.8398  0.6250
  456MPD2     C 6787   4.192   4.221  16.877  0.2506 -0.0084 -0.1907
  456MPD2    C1 6788   4.320   4.207  16.918  0.2880  0.3323  0.6681
  456MPD2    C2 6789   4.379   4.315  16.974 -0.0375 -0.0155 -0.4224
  456MPD2    C3 6790   4.314   4.418  17.029 -0.1322  0.1793  0.6582
  456MPD2    C4 6791   4.178   4.420  17.022 -0.4176  0.9035  0.5622
  456MPD2    C5 6792   4.123   4.320  16.940 -0.0183  0.3679 -0.4052
  456MPD2     H 6793   4.487   4.322  16.982  0.0146 -0.7071 -0.4936
  456MPD2    H1 6794   4.108   4.486  17.072 -2.1094 -2.1697  2.2467
  456MPD2    H2 6795   4.148   4.140  16.821 -1.9710 -1.3749  3.5315
  456MPD2    H3 6796   4.015   4.322  16.925 -0.0229  1.1289 -0.3001
  456MPD2     N 6797   4.389   4.522  17.099  0.1254 -0.0889 -0.0185
  456MPD2    H5 6798   4.489   4.510  17.109  0.2226  0.8651  0.1459
  456MPD2    N1 6799   4.388   4.093  16.881  1.3001 -0.0327 -0.1481
  456MPD2    H7 6800   4.347   4.030  16.813 -0.1790  0.5120  0.2394
  457TMC3    C1 6801   4.438   4.712  17.221 -0.2510  0.3510  0.6174
  457TMC3    C2 6802   4.410   0.120  17.251 -0.0065  0.1904 -1.1312
  457TMC3    C3 6803   4.498   0.185  17.333 -1.2498  0.9407 -0.2864
  457TMC3    C4 6804   4.555   4.650  17.259  0.2908  0.6623  0.6527
  457TMC3    C5 6805   4.638   0.004  17.339 -0.0374 -0.1652  0.6297
  457TMC3    C6 6806   4.608   0.128  17.387 -0.0603 -0.5885 -0.2212
  457TMC3     C 6807   4.333   4.629  17.167  0.2277  0.2388  0.1385
  457TMC3     O 6808   4.220   4.674  17.148 -0.5580  0.4382  0.0472
  457TMC3     H 6809   4.322   0.177  17.223 -0.2280  1.7651  2.7172
  457TMC3    H1 6810   4.587   4.549  17.238  0.6814  0.6210  1.4462
  457TMC3    H2 6811   4.676   0.184  17.449 -1.5572  0.3585  0.5697
  457TMC3    C7 6812   0.037   4.665  17.383  0.3561  0.0028  0.0972
  457TMC3    C8 6813   4.498   0.329  17.341  0.4627 -0.0804 -0.0496
  457TMC3    O1 6814   0.044   4.544  17.385 -0.3043  0.4172  0.3066
  457TMC3    O2 6815   4.571   0.379  17.425 -0.2926 -0.2206  0.3769
  458MPD2     C 6816   1.803   3.614  12.216  0.6710 -0.0581  1.0617
  458MPD2    C1 6817   1.823   3.574  12.349  0.3105 -0.4323 -0.1173
  458MPD2    C2 6818   1.712   3.552  12.434  0.4993  0.7329  0.0713
  458MPD2    C3 6819   1.583   3.549  12.392  0.1032 -0.0470 -0.1860
  458MPD2    C4 6820   1.552   3.587  12.261 -0.3494 -0.6241 -0.4894
  458MPD2    C5 6821   1.660   3.624  12.180  0.3942  0.2123  0.3619
  458MPD2     H 6822   1.726   3.529  12.538 -1.7268  0.9283  0.4161
  458MPD2    H1 6823   1.454   3.574  12.217 -0.1755 -1.1555 -0.7269
  458MPD2    H2 6824   1.881   3.614  12.141 -0.0762  0.0751  0.2800
  458MPD2    H3 6825   1.641   3.643  12.075  2.3933 -0.9370 -0.2138
  458MPD2     N 6826   1.484   3.519  12.492 -0.0512  0.0145  0.5285
  458MPD2    H5 6827   1.522   3.492  12.583  3.3245  0.9245 -0.6146
  458MPD2    N1 6828   1.953   3.552  12.394  0.2084  0.4426 -0.2277
  458MPD2    H7 6829   2.027   3.575  12.329  1.7607 -1.8856  0.7194
  459TMC3    C1 6830   2.127   3.487  12.543 -0.1841  0.8164 -0.2899
  459TMC3    C2 6831   2.209   3.596  12.513 -0.2360  0.1750  0.2582
  459TMC3    C3 6832   2.323   3.598  12.586  0.0459  0.3044  0.1221
  459TMC3    C4 6833   2.159   3.388  12.631 -0.3642  0.0269  0.8439
  459TMC3    C5 6834   2.285   3.380  12.678  0.7097  0.4669  0.7036
  459TMC3    C6 6835   2.372   3.486  12.653 -0.3290  0.2499 -0.1159
  459TMC3     C 6836   1.983   3.496  12.516  0.2363  0.2558 -0.5932
  459TMC3     O 6837   1.908   3.433  12.593 -0.1144 -0.0345  0.5488
  459TMC3     H 6838   2.179   3.676  12.446 -3.5518  1.2050  2.9899
  459TMC3    H1 6839   2.089   3.305  12.629  1.9410 -1.9120  0.0863
  459TMC3    H2 6840   2.466   3.471  12.705 -0.6619 -3.0542 -0.4767
  459TMC3    C7 6841   2.329   3.259  12.753  0.3750 -0.1398  0.6125
  459TMC3    C8 6842   2.416   3.704  12.571  0.4398 -0.2595 -0.0518
  459TMC3    O1 6843   2.449   3.230  12.736  0.1218 -0.0080  0.1099
  459TMC3    O2 6844   2.508   3.696  12.652 -0.8228 -0.4492 -0.1649
  460MPD2     C 6845   1.329   0.908  10.553  0.6125  0.5569  0.0835
  460MPD2    C1 6846   1.191   0.907  10.588  0.2823 -0.4117  0.1460
  460MPD2    C2 6847   1.099   0.965  10.508 -0.0116 -0.1341 -0.1085
  460MPD2    C3 6848   1.132   1.007  10.380 -0.5108  0.5252 -0.0985
  460MPD2    C4 6849   1.261   0.989  10.340  0.4050 -0.1689  0.3805
  460MPD2    C5 6850   1.360   0.948  10.426  0.0085 -0.1189 -0.4829
  460MPD2     H 6851   0.995   0.977  10.537 -0.1057  1.2527 -1.0398
  460MPD2    H1 6852   1.296   1.021  10.242  0.2892  0.9821  0.7182
  460MPD2    H2 6853   1.412   0.869  10.611 -1.2028 -0.6349  1.8703
  460MPD2    H3 6854   1.467   0.947  10.410  0.3171 -1.4812  1.7117
  460MPD2     N 6855   1.035   1.076  10.300  0.3084  0.2310 -1.1912
  460MPD2    H5 6856   0.938   1.061  10.326  0.5427  2.1444  0.7904
  460MPD2    N1 6857   1.167   0.873  10.721  0.8823  0.1560  0.3672
  460MPD2    H7 6858   1.250   0.849  10.774  1.5860  0.0964 -0.7449
  461TMC3    C1 6859   0.934   1.212  10.131  0.7785 -1.0250  0.5805
  461TMC3    C2 6860   0.812   1.147  10.141  0.2384  0.6254  0.3531
  461TMC3    C3 6861   0.712   1.205  10.056 -0.4543  0.3906 -0.1748
  461TMC3    C4 6862   0.949   1.335  10.069 -0.0156  0.2738  0.0116
  461TMC3    C5 6863   0.849   1.388   9.994  0.0122  0.1942  0.9459
  461TMC3    C6 6864   0.736   1.319   9.976 -0.1645 -0.7188  0.0173
  461TMC3     C 6865   1.058   1.151  10.186 -0.3998  0.1327  0.3985
  461TMC3     O 6866   1.159   1.200  10.148 -0.7764  0.3371  0.2831
  461TMC3     H 6867   0.788   1.058  10.197  0.9740  1.2541  1.6812
  461TMC3    H1 6868   1.037   1.393  10.094 -0.5585  0.4952  1.3905
  461TMC3    H2 6869   0.659   1.346   9.904 -0.9258 -2.1698  0.3094
  461TMC3    C7 6870   0.846   1.532   9.955 -0.3273 -1.0335 -1.1513
  461TMC3    C8 6871   0.588   1.139  10.051  0.4559  0.3720 -0.1045
  461TMC3    O1 6872   0.777   1.561   9.857 -0.0180  0.3030 -0.1209
  461TMC3    O2 6873   0.578   1.020  10.076 -0.1617 -0.1614 -0.1032
  462TMC3    C1 6874   0.898   1.946  17.022 -0.1132 -0.7102  0.3041
  462TMC3    C2 6875   0.857   1.813  17.025 -1.0065  0.1930  0.1121
  462TMC3    C3 6876   0.958   1.728  17.043 -0.1528  0.1243  0.0184
  462TMC3    C4 6877   1.027   1.985  17.038  0.2653  0.0205 -0.5490
  462TMC3    C5 6878   1.120   1.888  17.085  0.4467  0.9663 -0.0939
  462TMC3    C6 6879   1.084   1.757  17.080  0.7353 -0.9003 -0.2875
  462TMC3     C 6880   0.814   2.044  16.951 -0.5373  0.2036 -0.2063
  462TMC3     O 6881   0.876   2.132  16.892  0.6489  0.4726 -0.2253
  462TMC3     H 6882   0.759   1.781  16.992 -0.2745 -2.2514  0.3159
  462TMC3    H1 6883   1.049   2.090  17.024  1.2446 -0.4857 -2.6838
  462TMC3    H2 6884   1.153   1.681  17.115  1.8350  1.4794  2.7519
  462TMC3    C7 6885   1.181   1.919  17.216 -0.2477 -0.0432 -0.6050
  462TMC3    C8 6886   0.916   1.589  17.026 -0.0508  0.3832  0.0577
  462TMC3    O1 6887   1.199   1.825  17.291  0.1854  0.4311 -0.0359
  462TMC3    O2 6888   0.796   1.557  17.024 -0.0574 -0.1294  0.2397
  463MPD2     C 6889   2.621   1.291   2.156 -0.3633 -0.7557  0.2441
  463MPD2    C1 6890   2.498   1.299   2.098  0.1060  0.6681 -0.3278
  463MPD2    C2 6891   2.446   1.426   2.059 -0.9440  0.2399 -0.2344
  463MPD2    C3 6892   2.507   1.554   2.089  0.1999  0.1304 -0.0809
  463MPD2    C4 6893   2.636   1.538   2.147  0.3669  0.2215  0.2146
  463MPD2    C5 6894   2.689   1.412   2.183  0.4039  0.4856  0.5418
  463MPD2     H 6895   2.359   1.418   1.995 -0.9198  0.4272 -0.2907
  463MPD2    H1 6896   2.695   1.625   2.173 -0.3171  0.2927  1.5671
  463MPD2    H2 6897   2.673   1.198   2.174  2.2105  0.1011 -2.7020
  463MPD2    H3 6898   2.788   1.398   2.223  0.5130 -0.1415  0.0621
  463MPD2     N 6899   2.462   1.686   2.045  0.3935 -0.7297 -0.4894
  463MPD2    H5 6900   2.528   1.763   2.052 -0.2898 -0.3946  2.1089
  463MPD2    N1 6901   2.419   1.188   2.070 -0.9968 -0.1958  0.5356
  463MPD2    H7 6902   2.328   1.201   2.027  0.3171 -1.2515 -2.5952
  464TMC3    C1 6903   2.340   0.965   2.096 -0.1102 -0.1495 -0.4744
  464TMC3    C2 6904   2.210   1.006   2.065  0.2818 -0.0301 -0.7637
  464TMC3    C3 6905   2.116   0.911   2.031  0.2555  0.4584 -0.5672
  464TMC3    C4 6906   2.367   0.840   2.102 -0.1755 -0.4333 -0.0014
  464TMC3    C5 6907   2.275   0.742   2.066  0.3810  0.3874  0.5728
  464TMC3    C6 6908   2.145   0.780   2.030  0.8502 -1.1782  0.0124
  464TMC3     C 6909   2.447   1.056   2.111 -0.0259 -0.2526  0.0902
  464TMC3     O 6910   2.549   1.021   2.170  0.2738  0.2506 -0.3734
  464TMC3     H 6911   2.189   1.112   2.075 -4.3290 -0.6239 -4.0569
  464TMC3    H1 6912   2.462   0.805   2.142  0.3255 -0.5694 -1.2761
  464TMC3    H2 6913   2.073   0.704   2.002 -1.1250 -0.4450  3.0983
  464TMC3    C7 6914   2.331   0.609   2.045 -0.4649 -0.1859 -0.5930
  464TMC3    C8 6915   1.978   0.947   1.993 -0.2677  0.3998 -0.0313
  464TMC3    O1 6916   2.441   0.584   2.088  0.1414  0.2126  0.0259
  464TMC3    O2 6917   1.920   0.867   1.925 -0.0160  0.3089  0.4587
  465MPD2     C 6918   3.547   3.881  16.701 -0.2770  0.1383 -0.9118
  465MPD2    C1 6919   3.464   3.890  16.813  0.3329 -0.5645  0.2546
  465MPD2    C2 6920   3.331   3.924  16.798 -0.6549 -0.8660 -0.4687
  465MPD2    C3 6921   3.280   3.960  16.674 -0.6793 -0.5983  0.3737
  465MPD2    C4 6922   3.361   3.954  16.561 -0.3923  0.3117 -0.7380
  465MPD2    C5 6923   3.492   3.915  16.581 -0.1164 -0.3869  0.1777
  465MPD2     H 6924   3.277   3.922  16.892 -0.7632 -0.3368 -0.5190
  465MPD2    H1 6925   3.331   3.963  16.458 -0.1783 -3.3156 -1.1309
  465MPD2    H2 6926   3.651   3.849  16.708 -0.1325  1.0895  1.3245
  465MPD2    H3 6927   3.554   3.912  16.492 -0.0987 -0.9860  0.2107
  465MPD2     N 6928   3.138   3.996  16.668  1.4785 -0.2597  0.2810
  465MPD2    H5 6929   3.088   4.009  16.755 -2.0310 -0.3749 -1.7063
  465MPD2    N1 6930   3.508   3.866  16.950 -0.0434 -0.0440 -0.0211
  465MPD2    H7 6931   3.443   3.885  17.026  0.4045  1.1668  0.0554
  466TMC3    C1 6932   2.815   4.226  16.737 -0.7506 -0.2105 -0.5233
  466TMC3    C2 6933   2.756   4.295  16.632 -0.7360 -0.2981  0.0554
  466TMC3    C3 6934   2.808   4.277  16.502 -0.4742  0.2170  0.3193
  466TMC3    C4 6935   2.904   4.123  16.708  0.1541 -0.2161 -0.4246
  466TMC3    C5 6936   2.952   4.109  16.584  0.1430  0.1219 -0.2572
  466TMC3    C6 6937   2.908   4.185  16.483 -0.2358  0.7887 -0.9122
  466TMC3     C 6938   2.815   4.275  16.874 -0.4429  0.4781 -0.2840
  466TMC3     O 6939   2.902   4.219  16.943 -0.2176 -0.0953 -0.5406
  466TMC3     H 6940   2.682   4.372  16.653 -0.8703 -0.8128  1.4744
  466TMC3    H1 6941   2.930   4.049  16.783 -1.9187  1.4444  1.9723
  466TMC3    H2 6942   2.937   4.156  16.382  2.3556 -0.1080  0.0924
  466TMC3    C7 6943   3.074   4.032  16.553  0.4271 -0.1751 -0.1885
  466TMC3    C8 6944   2.808   4.395  16.415  0.2428 -0.5413  0.5100
  466TMC3    O1 6945   3.114   4.026  16.436 -0.6994  0.0192  0.2504
  466TMC3    O2 6946   2.840   4.377  16.299  0.1743 -0.4075 -0.1998
  467TMC3    C1 6947   4.442   2.993  13.520 -0.3943  0.1347 -0.0761
  467TMC3    C2 6948   4.477   3.109  13.459 -0.2241 -0.2274 -1.0406
  467TMC3    C3 6949   4.380   3.186  13.388  0.2384  0.4923  0.4037
  467TMC3    C4 6950   4.312   2.954  13.522  0.5191 -0.3286 -0.3863
  467TMC3    C5 6951   4.221   3.039  13.463 -0.7035 -0.8223  0.3589
  467TMC3    C6 6952   4.248   3.152  13.400  0.7328  0.1726  0.0503
  467TMC3     C 6953   4.546   2.892  13.528  1.4880  0.0540 -0.3846
  467TMC3     O 6954   4.508   2.780  13.500  0.3956  0.3612  0.5321
  467TMC3     H 6955   4.578   3.148  13.453 -0.1690 -0.4863 -1.7928
  467TMC3    H1 6956   4.291   2.862  13.574 -0.8018 -0.1541 -0.5943
  467TMC3    H2 6957   4.173   3.223  13.367  1.0159  0.6714  0.4866
  467TMC3    C7 6958   4.074   3.003  13.453 -0.2200 -0.3275 -0.2533
  467TMC3    C8 6959   4.400   3.324  13.336  0.4670 -0.3895  0.8841
  467TMC3    O1 6960   4.004   3.073  13.381  0.5125 -0.4243  0.3315
  467TMC3    O2 6961   4.304   3.395  13.306 -0.3393  0.6529 -0.5049
  468MPD2     C 6962   2.450   1.031  10.876 -0.2851  1.2370  0.4242
  468MPD2    C1 6963   2.585   1.033  10.847  0.4106 -0.2551 -0.5799
  468MPD2    C2 6964   2.663   0.933  10.901 -0.4622  0.2496 -0.7736
  468MPD2    C3 6965   2.613   0.841  10.988  1.1752 -0.3073 -0.5072
  468MPD2    C4 6966   2.483   0.851  11.021  0.4366 -0.0044 -0.2934
  468MPD2    C5 6967   2.404   0.942  10.968 -0.0239  0.2444 -0.2645
  468MPD2     H 6968   2.769   0.942  10.882 -0.4725 -2.7897 -2.3068
  468MPD2    H1 6969   2.447   0.795  11.107  0.6185  0.1058 -0.1443
  468MPD2    H2 6970   2.376   1.102  10.840 -1.5091 -0.3848 -0.2653
  468MPD2    H3 6971   2.299   0.949  10.994 -0.2458  0.3093 -1.1696
  468MPD2     N 6972   2.697   0.749  11.064 -0.0416 -0.1199  0.2868
  468MPD2    H5 6973   2.647   0.696  11.135 -0.7393 -0.0752 -0.1843
  468MPD2    N1 6974   2.648   1.135  10.776 -0.9076 -0.3136 -0.2585
  468MPD2    H7 6975   2.746   1.118  10.758 -1.2332 -2.1654 -0.2852
  469TMC3    C1 6976   2.694   1.336  10.671 -0.3545 -0.3663 -0.3913
  469TMC3    C2 6977   2.827   1.325  10.704 -0.1368 -0.1071  0.1448
  469TMC3    C3 6978   2.910   1.431  10.685 -0.4731 -0.6831 -0.7026
  469TMC3    C4 6979   2.645   1.461  10.641  0.3250  0.4866  0.3038
  469TMC3    C5 6980   2.731   1.565  10.624 -0.2265 -0.2478  0.1866
  469TMC3    C6 6981   2.865   1.551  10.642 -0.2426  0.2462 -0.0821
  469TMC3     C 6982   2.595   1.239  10.710  0.4340 -0.3550 -0.0539
  469TMC3     O 6983   2.479   1.271  10.692 -0.0089  0.0452 -0.2078
  469TMC3     H 6984   2.873   1.236  10.745 -1.3723 -0.2371  1.2472
  469TMC3    H1 6985   2.542   1.472  10.610  0.2155  0.6378  0.7190
  469TMC3    H2 6986   2.936   1.629  10.616 -0.2270  0.8767  1.8350
  469TMC3    C7 6987   2.680   1.690  10.662 -0.2748 -0.5456  0.0401
  469TMC3    C8 6988   3.003   1.447  10.789 -0.7425  0.3173 -0.3062
  469TMC3    O1 6989   2.568   1.720  10.628  0.2440  0.2338 -0.0339
  469TMC3    O2 6990   2.983   1.548  10.851 -0.0738  0.5224  0.1657
  470TMC3    C1 6991   1.516   2.508   1.350 -0.1770  0.9596 -0.2204
  470TMC3    C2 6992   1.497   2.633   1.310  0.7216  0.2830 -0.3064
  470TMC3    C3 6993   1.581   2.742   1.340 -0.4737  0.1484 -0.0524
  470TMC3    C4 6994   1.624   2.480   1.431 -0.1301 -0.2208 -0.2770
  470TMC3    C5 6995   1.706   2.584   1.465  0.4540 -0.1892 -0.7751
  470TMC3    C6 6996   1.692   2.713   1.418 -0.4107 -0.0961 -0.0715
  470TMC3     C 6997   1.406   2.415   1.330  1.1336 -0.4125 -0.7217
  470TMC3     O 6998   1.321   2.436   1.244  0.3108 -0.2587  0.3009
  470TMC3     H 6999   1.402   2.655   1.263  0.1339 -0.4613  0.5260
  470TMC3    H1 7000   1.661   2.381   1.454  0.0241 -0.3743 -1.1792
  470TMC3    H2 7001   1.761   2.793   1.443 -0.2819 -0.6980  1.5084
  470TMC3    C7 7002   1.794   2.580   1.582  0.7222 -0.7248 -0.5888
  470TMC3    C8 7003   1.524   2.871   1.375 -0.5245 -0.1346 -0.3876
  470TMC3    O1 7004   1.886   2.663   1.584  0.0030 -0.7041  0.2431
  470TMC3    O2 7005   1.584   2.940   1.455 -0.1919  0.3056  0.1451
  471MPD2     C 7006   0.729   3.480  16.324  0.5374  0.3684 -0.2869
  471MPD2    C1 7007   0.736   3.354  16.375 -1.0135  0.2619  0.3899
  471MPD2    C2 7008   0.841   3.314  16.451  0.0474 -0.2221 -0.4471
  471MPD2    C3 7009   0.947   3.394  16.477 -0.2527  0.2607  0.0840
  471MPD2    C4 7010   0.937   3.523  16.426  0.5584  0.3253  0.0182
  471MPD2    C5 7011   0.837   3.560  16.352  0.8996  0.6612 -0.0497
  471MPD2     H 7012   0.845   3.208  16.475  0.3572 -0.2090 -0.4383
  471MPD2    H1 7013   1.020   3.589  16.446 -0.4400  1.5941 -0.0058
  471MPD2    H2 7014   0.646   3.522  16.270  1.0644  2.3153  0.4341
  471MPD2    H3 7015   0.837   3.665  16.325 -0.2207  0.6450 -0.1286
  471MPD2     N 7016   1.062   3.357  16.552 -0.1182 -0.3436  0.4715
  471MPD2    H5 7017   1.135   3.424  16.575 -0.1733 -0.9979  2.5566
  471MPD2    N1 7018   0.631   3.256  16.355 -1.0764  0.3002  0.1065
  471MPD2    H7 7019   0.632   3.163  16.394  3.6054  0.2487 -0.1162
  472TMC3    C1 7020   0.461   3.146  16.242 -0.1944 -0.0409 -0.0969
  472TMC3    C2 7021   0.335   3.148  16.186 -0.0608 -0.2183 -0.1928
  472TMC3    C3 7022   0.263   3.034  16.164  0.4233  0.0672  0.4718
  472TMC3    C4 7023   0.522   3.023  16.265 -0.1307 -0.1394 -0.0781
  472TMC3    C5 7024   0.444   2.914  16.242 -0.5224  0.3208 -0.4737
  472TMC3    C6 7025   0.317   2.914  16.181  0.5676  0.6821 -0.5919
  472TMC3     C 7026   0.530   3.268  16.267 -0.1556  0.5013 -0.6149
  472TMC3     O 7027   0.493   3.370  16.212  0.1140 -0.4073  0.4744
  472TMC3     H 7028   0.285   3.244  16.183 -0.7606 -0.5924 -0.5067
  472TMC3    H1 7029   0.619   2.998  16.307  0.7454  3.0699 -0.1735
  472TMC3    H2 7030   0.266   2.820  16.163  0.3558  0.2906  2.0615
  472TMC3    C7 7031   0.504   2.783  16.272  0.5457 -0.0004  0.5042
  472TMC3    C8 7032   0.124   3.045  16.139  0.1650 -0.1393  0.6502
  472TMC3    O1 7033   0.581   2.773  16.364  0.6888  0.2028 -0.4036
  472TMC3    O2 7034   0.083   3.160  16.120 -0.0559 -0.1952  0.0927
  473MPD2     C 7035   0.658   0.585  14.029 -0.2477 -0.3914  0.3194
  473MPD2    C1 7036   0.737   0.688  13.988 -0.5062  0.4731 -0.0776
  473MPD2    C2 7037   0.807   0.762  14.085 -0.2248  0.5610 -0.4970
  473MPD2    C3 7038   0.807   0.724  14.214 -0.4508  0.6621  0.3434
  473MPD2    C4 7039   0.727   0.615  14.249  0.7218 -0.6151  0.1262
  473MPD2    C5 7040   0.655   0.546  14.160  0.0376  0.2735  0.9737
  473MPD2     H 7041   0.867   0.850  14.061 -1.3724  1.8227  1.2194
  473MPD2    H1 7042   0.720   0.585  14.353  1.3084 -1.5234 -0.1001
  473MPD2    H2 7043   0.578   0.537  13.975  2.1307 -1.8981 -1.8331
  473MPD2    H3 7044   0.586   0.466  14.184  0.6101 -0.2141  1.0279
  473MPD2     N 7045   0.889   0.774  14.319  0.5795 -0.0603 -0.5181
  473MPD2    H5 7046   0.864   0.740  14.411  1.9734 -2.8107 -1.1672
  473MPD2    N1 7047   0.746   0.713  13.846 -0.0713  0.3892  0.5594
  473MPD2    H7 7048   0.780   0.806  13.826  0.1526 -0.3409 -2.4798
  474TMC3    C1 7049   1.045   0.916  14.430 -0.6313 -0.1231  0.6118
  474TMC3    C2 7050   0.947   0.965  14.511 -0.3546  0.1914 -0.2391
  474TMC3    C3 7051   0.977   1.007  14.633 -0.1099  0.1890 -0.4443
  474TMC3    C4 7052   1.183   0.927  14.470 -0.4428  0.9348  0.0319
  474TMC3    C5 7053   1.207   0.983  14.593 -0.0084  1.2229 -0.3560
  474TMC3    C6 7054   1.105   1.030  14.672  1.1224 -0.0248 -0.3750
  474TMC3     C 7055   0.996   0.865  14.303  0.6401  0.4223  0.5087
  474TMC3     O 7056   1.073   0.880  14.210  0.5475 -0.4076 -0.7151
  474TMC3     H 7057   0.843   0.944  14.490 -1.0562  1.4894  1.9560
  474TMC3    H1 7058   1.267   0.883  14.417 -1.1242  0.9896 -1.1009
  474TMC3    H2 7059   1.103   1.082  14.767  0.8036  0.0235 -0.4073
  474TMC3    C7 7060   1.344   1.032  14.630 -0.4591 -0.1286  0.0126
  474TMC3    C8 7061   0.872   1.102  14.674  0.8802  0.2645  0.1029
  474TMC3    O1 7062   1.412   1.022  14.528  0.2367  0.0547 -0.3931
  474TMC3    O2 7063   0.795   1.059  14.756 -0.0488  0.2106  0.5832
  475MPD2     C 7064   4.345   3.242  10.013  0.0037  0.2760  0.5126
  475MPD2    C1 7065   4.357   3.361  10.078  1.0528 -0.3591 -0.3588
  475MPD2    C2 7066   4.270   3.397  10.178 -0.4655 -0.3633  0.0451
  475MPD2    C3 7067   4.150   3.322  10.202  0.5217 -0.2005  0.9128
  475MPD2    C4 7068   4.126   3.221  10.119  0.0292  0.2689  0.0026
  475MPD2    C5 7069   4.224   3.176  10.033 -0.4940 -0.0756  0.8081
  475MPD2     H 7070   4.288   3.486  10.237  0.1295  0.9083 -2.0164
  475MPD2    H1 7071   4.035   3.163  10.113 -0.7040  1.6188 -2.1733
  475MPD2    H2 7072   4.410   3.202   9.936  2.3544  1.9234  1.6532
  475MPD2    H3 7073   4.211   3.088   9.970  1.8138  1.3623 -1.6932
  475MPD2     N 7074   4.049   3.384  10.283  0.6536 -0.2118  0.1629
  475MPD2    H5 7075   4.080   3.474  10.319 -1.8653  0.0449  1.7457
  475MPD2    N1 7076   4.488   3.420  10.048  0.0752 -0.8742 -0.0739
  475MPD2    H7 7077   4.545   3.361   9.988  1.6704  1.2935 -0.6757
  476TMC3    C1 7078   4.467   3.632  10.172  0.5542  0.2887 -0.2301
  476TMC3    C2 7079   4.370   3.688  10.094 -0.5467  0.0442  0.0945
  476TMC3    C3 7080   4.324   3.811  10.130 -1.2851  0.3585  0.6561
  476TMC3    C4 7081   4.522   3.689  10.285 -0.5675  0.0655 -0.0140
  476TMC3    C5 7082   4.467   3.806  10.319  0.3528  0.3131 -0.5826
  476TMC3    C6 7083   4.366   3.866  10.248  0.0497  0.3032 -0.0121
  476TMC3     C 7084   4.546   3.527  10.111 -0.1845 -0.2102  0.2385
  476TMC3     O 7085   4.665   3.553  10.093  0.1717  0.0481 -0.4151
  476TMC3     H 7086   4.336   3.638  10.004  2.5372  0.8488 -1.4789
  476TMC3    H1 7087   4.604   3.641  10.338 -0.1732 -0.4481 -1.0970
  476TMC3    H2 7088   4.322   3.961  10.276  1.1758  1.1949 -1.3047
  476TMC3    C7 7089   4.520   3.881  10.435  0.0254 -0.5057 -0.5353
  476TMC3    C8 7090   4.197   3.849  10.085 -0.1205  0.0728 -0.0522
  476TMC3    O1 7091   4.630   3.857  10.474 -0.6892 -0.0692  0.4538
  476TMC3    O2 7092   4.144   3.955  10.104  0.5632 -0.3600 -0.1364
  477MPD2     C 7093   1.673   0.382  11.624 -0.2817 -0.1631  0.2839
  477MPD2    C1 7094   1.628   0.253  11.625  0.2292 -0.1635 -0.5614
  477MPD2    C2 7095   1.627   0.188  11.748  0.3003 -0.8005  0.5801
  477MPD2    C3 7096   1.655   0.251  11.864  0.2559 -0.8627  0.7405
  477MPD2    C4 7097   1.713   0.375  11.862 -0.0051  0.9503 -0.6581
  477MPD2    C5 7098   1.733   0.434  11.738 -0.3452 -0.8261 -0.4790
  477MPD2     H 7099   1.585   0.088  11.751 -1.2219 -0.1884 -0.3693
  477MPD2    H1 7100   1.753   0.423  11.951 -0.2265  1.7315 -0.9745
  477MPD2    H2 7101   1.688   0.434  11.530 -1.4527 -0.2120  0.0700
  477MPD2    H3 7102   1.776   0.533  11.734  2.1412 -1.7944  2.0875
  477MPD2     N 7103   1.636   0.172  11.985 -0.0665 -0.1962  0.4702
  477MPD2    H5 7104   1.607   0.074  11.982 -0.2422 -0.1661  1.0140
  477MPD2    N1 7105   1.575   0.197  11.505  0.3359  0.5499 -0.6707
  477MPD2    H7 7106   1.579   0.272  11.437 -1.3320  1.6326  0.4257
  478TMC3    C1 7107   1.453   0.068  11.349 -0.0472 -0.2486 -0.5578
  478TMC3    C2 7108   1.325   0.045  11.382 -0.3799 -0.4748  0.2916
  478TMC3    C3 7109   1.223   0.114  11.316 -0.0947 -0.3328  0.1613
  478TMC3    C4 7110   1.484   0.166  11.263 -0.1722 -0.2532 -0.2919
  478TMC3    C5 7111   1.383   0.230  11.190 -0.0926 -0.1626  0.4713
  478TMC3    C6 7112   1.253   0.199  11.214 -0.3448 -0.2717 -0.2930
  478TMC3     C 7113   1.529   0.068  11.480  0.2657 -0.6910 -0.1692
  478TMC3     O 7114   1.511   4.700  11.565 -0.1127  0.5179 -0.1624
  478TMC3     H 7115   1.306   4.703  11.467 -0.1898 -2.1671 -0.9748
  478TMC3    H1 7116   1.586   0.185  11.232  0.3762 -0.5043  1.3840
  478TMC3    H2 7117   1.164   0.242  11.170  0.1091  1.6202  0.6442
  478TMC3    C7 7118   1.425   0.334  11.091 -0.0012  0.6367 -0.6210
  478TMC3    C8 7119   1.106   0.139  11.398 -0.2163  0.1414  0.0037
  478TMC3    O1 7120   1.544   0.350  11.066 -0.0466  0.4802 -0.0800
  478TMC3    O2 7121   1.069   0.054  11.483  0.4508  0.2209  0.1071
  479MPD2     C 7122   0.232   2.240  14.830 -0.2085  0.7772 -0.2150
  479MPD2    C1 7123   0.141   2.175  14.911 -0.1216  0.4734 -0.6999
  479MPD2    C2 7124   0.149   2.193  15.050 -0.6702  0.5139  0.4878
  479MPD2    C3 7125   0.241   2.277  15.107  0.1264 -0.1815  0.3288
  479MPD2    C4 7126   0.325   2.347  15.029  0.5399  0.8684  0.1964
  479MPD2    C5 7127   0.325   2.328  14.894 -0.0544 -0.0712 -0.5807
  479MPD2     H 7128   0.071   2.162  15.118 -0.6710 -1.8763 -0.5892
  479MPD2    H1 7129   0.390   2.417  15.081  0.3376  0.1630  1.4080
  479MPD2    H2 7130   0.234   2.230  14.722  2.5544  0.2260 -0.1117
  479MPD2    H3 7131   0.397   2.389  14.841  1.1796  0.5451  1.8024
  479MPD2     N 7132   0.245   2.300  15.243 -0.2799  0.1478 -0.4307
  479MPD2    H5 7133   0.311   2.375  15.263 -1.1505  0.0602  2.6588
  479MPD2    N1 7134   0.048   2.094  14.848  0.2757  0.2013 -0.6150
  479MPD2    H7 7135   0.046   2.116  14.749 -2.4472  2.9179  0.0462
  480TMC3    C1 7136   0.186   2.316  15.707 -0.0290 -0.3397 -0.0268
  480TMC3    C2 7137   0.295   2.403  15.714  0.0700 -0.1850 -0.0779
  480TMC3    C3 7138   0.357   2.436  15.598 -0.4605 -0.0885  0.3324
  480TMC3    C4 7139   0.148   2.275  15.580 -0.0355 -0.2452  0.5709
  480TMC3    C5 7140   0.200   2.326  15.465  0.1238  0.0886 -0.0287
  480TMC3    C6 7141   0.320   2.393  15.472  0.2323  0.3620  0.1568
  480TMC3     C 7142   0.156   2.239  15.830 -0.0342  0.2931  0.1738
  480TMC3     O 7143   0.073   2.148  15.826 -0.4162 -0.5021  0.7325
  480TMC3     H 7144   0.333   2.454  15.802 -0.3815  1.0692 -0.6058
  480TMC3    H1 7145   0.070   2.200  15.566  0.7779 -0.9231 -0.2962
  480TMC3    H2 7146   0.387   2.405  15.388 -0.4997  1.6199 -0.2495
  480TMC3    C7 7147   0.161   2.258  15.343  0.8237  0.2263 -0.2011
  480TMC3    C8 7148   0.472   2.530  15.621  0.4854  0.1797  0.2306
  480TMC3    O1 7149   0.075   2.168  15.346  0.3113  0.4106 -0.0241
  480TMC3    O2 7150   0.530   2.526  15.725  0.6015 -0.2264  0.1994
  481MPD2     C 7151   2.334   2.429  14.354 -0.4066  0.3911 -0.5764
  481MPD2    C1 7152   2.243   2.320  14.367  0.5337  0.3461 -0.7835
  481MPD2    C2 7153   2.246   2.247  14.480 -0.4756 -0.0138  0.4003
  481MPD2    C3 7154   2.346   2.260  14.573 -0.6167 -0.5623  0.3528
  481MPD2    C4 7155   2.430   2.363  14.557  0.0292  0.5226 -0.5467
  481MPD2    C5 7156   2.416   2.458  14.456 -0.4436 -0.2179 -0.0912
  481MPD2     H 7157   2.178   2.164  14.492 -0.3145 -0.2278 -0.2040
  481MPD2    H1 7158   2.509   2.391  14.625 -1.8091  1.2611  1.2825
  481MPD2    H2 7159   2.331   2.495  14.268  2.6816 -0.2010 -1.1264
  481MPD2    H3 7160   2.472   2.549  14.441 -0.3807 -0.6408 -2.4102
  481MPD2     N 7161   2.365   2.170  14.681 -0.2800  0.0905  0.3632
  481MPD2    H5 7162   2.454   2.184  14.727  0.8581  0.0962 -1.8459
  481MPD2    N1 7163   2.159   2.294  14.257  0.1463 -0.1972 -1.2677
  481MPD2    H7 7164   2.173   2.353  14.176  1.3180  0.8708 -0.2724
  482TMC3    C1 7165   2.055   2.158  14.113 -0.1388  0.0915 -0.7225
  482TMC3    C2 7166   1.936   2.092  14.082 -0.6163 -0.8206  0.0673
  482TMC3    C3 7167   1.927   2.047  13.954  0.0170  0.2710  0.4520
  482TMC3    C4 7168   2.159   2.158  14.024 -0.1993 -0.1360 -0.1700
  482TMC3    C5 7169   2.140   2.106  13.899 -0.6853 -0.3643  0.1315
  482TMC3    C6 7170   2.020   2.050  13.859  0.3351 -0.4106 -0.2855
  482TMC3     C 7171   2.075   2.188  14.248  0.3453 -0.9511  0.2616
  482TMC3     O 7172   2.026   2.115  14.332  0.6273  0.2146 -0.1977
  482TMC3     H 7173   1.871   2.059  14.162 -1.7417  3.3651  0.8675
  482TMC3    H1 7174   2.256   2.194  14.059  0.1712 -0.2141 -1.1221
  482TMC3    H2 7175   2.003   1.998  13.765 -0.6468  1.7032 -1.2780
  482TMC3    C7 7176   2.241   2.138  13.803  0.0542  0.4279 -0.4625
  482TMC3    C8 7177   1.814   1.967  13.928 -0.1289  0.0660 -0.0829
  482TMC3    O1 7178   2.343   2.181  13.853  0.2293  0.2429  0.0127
  482TMC3    O2 7179   1.829   1.863  13.870  0.1076  0.1646  0.4916
  483TMC3    C1 7180   0.548   1.012   1.009 -0.0793  0.7263 -0.2568
  483TMC3    C2 7181   0.567   1.149   0.998 -0.2390 -0.3185  0.5833
  483TMC3    C3 7182   0.694   1.195   1.019  1.1706  0.6086 -0.2327
  483TMC3    C4 7183   0.646   0.931   1.052  0.6114 -0.3227  0.1812
  483TMC3    C5 7184   0.774   0.977   1.068 -0.2030 -0.0424 -0.1385
  483TMC3    C6 7185   0.800   1.113   1.050  0.2371 -0.1297 -0.6087
  483TMC3     C 7186   0.421   0.962   0.983  0.1079 -0.4457  0.2693
  483TMC3     O 7187   0.325   1.028   1.015 -0.2333 -0.6226  0.1624
  483TMC3     H 7188   0.486   1.210   0.959  0.6296  0.1893 -0.3988
  483TMC3    H1 7189   0.627   0.834   1.097  0.0201  0.0084  0.6443
  483TMC3    H2 7190   0.891   1.161   1.084 -0.1229 -0.2276  0.4830
  483TMC3    C7 7191   0.884   0.886   1.074 -0.0903 -0.0961  0.5127
  483TMC3    C8 7192   0.717   1.327   0.966 -0.0747  0.5275 -0.3464
  483TMC3    O1 7193   0.988   0.936   1.124 -0.0458  0.3005 -0.6460
  483TMC3    O2 7194   0.835   1.371   0.967 -0.2140  0.0276 -0.0803
  484MPD2     C 7195   2.391   4.006  12.355 -0.5597 -0.1873  0.4895
  484MPD2    C1 7196   2.455   3.913  12.438  0.2012  0.1643 -0.0369
  484MPD2    C2 7197   2.595   3.920  12.463  0.2328  0.0333  0.0163
  484MPD2    C3 7198   2.667   4.023  12.407 -0.3121  0.4884 -0.3106
  484MPD2    C4 7199   2.602   4.127  12.337  0.1392 -0.1308  0.5323
  484MPD2    C5 7200   2.469   4.109  12.300 -0.3037  1.2736 -0.1394
  484MPD2     H 7201   2.640   3.834  12.510  1.9615  0.0066 -1.7173
  484MPD2    H1 7202   2.656   4.203  12.282  1.9928 -0.5172  1.8354
  484MPD2    H2 7203   2.286   4.001  12.332 -0.3317 -0.2685 -0.5721
  484MPD2    H3 7204   2.429   4.176  12.225 -0.9364  1.4716  0.3710
  484MPD2     N 7205   2.808   4.028  12.413 -0.4079 -0.0987 -0.3123
  484MPD2    H5 7206   2.849   4.102  12.358  0.7905  0.8882  1.9187
  484MPD2    N1 7207   2.378   3.804  12.486  0.2316 -0.3556  0.0382
  484MPD2    H7 7208   2.280   3.800  12.461  0.5170 -0.3009 -1.0920
  485TMC3    C1 7209   3.030   3.994  12.461 -0.1193 -1.0601 -0.0532
  485TMC3    C2 7210   3.123   3.900  12.487 -0.1023  0.7450 -0.5300
  485TMC3    C3 7211   3.247   3.915  12.438 -0.3000 -0.0642  0.5963
  485TMC3    C4 7212   3.054   4.106  12.379 -0.9821 -0.4053 -0.1840
  485TMC3    C5 7213   3.181   4.105  12.319  0.0402 -0.1969  0.6993
  485TMC3    C6 7214   3.276   4.013  12.348  0.3620  0.0389 -0.4944
  485TMC3     C 7215   2.892   3.956  12.488 -1.1670  0.6641  0.2555
  485TMC3     O 7216   2.882   3.867  12.570 -0.2836 -0.1717  0.3491
  485TMC3     H 7217   3.106   3.812  12.548  0.1191  0.3555 -1.0306
  485TMC3    H1 7218   2.976   4.173  12.342 -0.9785 -0.9800 -1.2200
  485TMC3    H2 7219   3.382   4.024  12.327 -0.0548  1.8129 -1.6328
  485TMC3    C7 7220   3.164   4.112  12.165 -0.2789  0.0665 -1.0784
  485TMC3    C8 7221   3.311   3.796  12.390 -0.7165 -0.5705  0.0545
  485TMC3    O1 7222   3.096   4.199  12.110 -0.2231  0.6193  0.0371
  485TMC3    O2 7223   3.383   3.817  12.289  0.2469 -0.6399 -0.0363
  486MPD2     C 7224   0.284   2.628  13.192 -0.0630 -0.1173 -0.6021
  486MPD2    C1 7225   0.258   2.621  13.057 -0.3961  0.1135 -0.5163
  486MPD2    C2 7226   0.166   2.709  13.003 -0.4234  0.2173  1.0067
  486MPD2    C3 7227   0.102   2.801  13.082  0.1882  1.1990 -0.1326
  486MPD2    C4 7228   0.122   2.800  13.221 -0.4586  0.0130  0.5062
  486MPD2    C5 7229   0.219   2.715  13.276 -0.1945  0.2422 -0.5132
  486MPD2     H 7230   0.149   2.716  12.896  1.7479 -0.1415  0.6365
  486MPD2    H1 7231   0.059   2.858  13.287  0.4946  2.0324 -0.3268
  486MPD2    H2 7232   0.355   2.569  13.249 -2.6826 -1.6415  1.0848
  486MPD2    H3 7233   0.235   2.707  13.383  1.4429  0.3069 -0.7524
  486MPD2     N 7234   0.020   2.893  13.016  0.0383 -0.4217  0.2498
  486MPD2    H5 7235   0.025   2.892  12.914  1.6945  0.1327  0.3276
  486MPD2    N1 7236   0.322   2.522  12.982 -0.0422  0.5767 -0.1905
  486MPD2    H7 7237   0.382   2.468  13.045 -0.2698 -0.3903 -0.8007
  487TMC3    C1 7238   0.352   2.358  12.822 -0.2449 -0.3773 -0.1643
  487TMC3    C2 7239   0.286   2.271  12.737  0.2353 -0.4517 -0.4279
  487TMC3    C3 7240   0.351   2.153  12.692 -0.1167 -0.7434 -0.1147
  487TMC3    C4 7241   0.469   2.329  12.870 -0.0236  0.7139 -0.3675
  487TMC3    C5 7242   0.522   2.203  12.844 -0.5670  0.2397  0.5217
  487TMC3    C6 7243   0.469   2.120  12.749  0.5967  0.0875 -0.0361
  487TMC3     C 7244   0.278   2.479  12.866  0.5212 -0.0846 -0.8030
  487TMC3     O 7245   0.173   2.512  12.806  0.0153 -0.0731 -0.1658
  487TMC3     H 7246   0.187   2.301  12.705  1.4016  0.5715 -3.0468
  487TMC3    H1 7247   0.514   2.393  12.945  2.6115 -1.5049 -0.0626
  487TMC3    H2 7248   0.505   2.019  12.730 -1.1727 -0.6685  0.6105
  487TMC3    C7 7249   0.620   2.154  12.935  0.2602 -0.1040 -0.2582
  487TMC3    C8 7250   0.260   2.045  12.661  0.5796 -0.4703 -0.3152
  487TMC3    O1 7251   0.621   2.214  13.042 -0.1702 -0.2541 -0.1071
  487TMC3    O2 7252   0.282   1.967  12.566  0.5737 -0.0693  0.5621
  488MPD2     C 7253   0.498   4.267  16.693  0.0173  0.1166 -0.6488
  488MPD2    C1 7254   0.451   4.397  16.675 -0.0842  0.2247  0.4574
  488MPD2    C2 7255   0.445   4.474  16.788  0.2964  0.0073 -0.0965
  488MPD2    C3 7256   0.476   4.428  16.915  0.5441 -1.2102  0.4502
  488MPD2    C4 7257   0.522   4.302  16.931 -1.0308 -0.1403  0.3214
  488MPD2    C5 7258   0.535   4.218  16.822  0.3303  0.4137  0.0599
  488MPD2     H 7259   0.423   4.578  16.768 -2.2242 -0.9198 -2.0477
  488MPD2    H1 7260   0.546   4.249  17.022 -0.4979  1.8082  1.3105
  488MPD2    H2 7261   0.517   4.202  16.609 -0.8993  0.1442 -0.8706
  488MPD2    H3 7262   0.570   4.117  16.841 -1.4798  0.0209  1.3271
  488MPD2     N 7263   0.471   4.520  17.019  0.2759  0.3857 -0.0133
  488MPD2    H5 7264   0.432   4.612  17.003 -1.3544 -0.2051  0.5584
  488MPD2    N1 7265   0.423   4.459  16.557  0.7487 -0.2555 -0.1334
  488MPD2    H7 7266   0.390   4.555  16.565 -0.6357 -0.7560  0.1200
  489TMC3    C1 7267   0.488   4.599  17.240  0.0834  0.0456 -0.2131
  489TMC3    C2 7268   0.416   4.707  17.199 -0.2224 -0.8254  0.1133
  489TMC3    C3 7269   0.441   0.101  17.263 -0.5788 -0.6418  0.0450
  489TMC3    C4 7270   0.565   4.595  17.351 -0.0377  0.7180  0.0722
  489TMC3    C5 7271   0.583   4.715  17.419  0.3584  0.5208 -0.2548
  489TMC3    C6 7272   0.525   0.108  17.372 -0.0605  0.1264  0.1842
  489TMC3     C 7273   0.505   4.491  17.147 -0.1374 -0.3283  0.0913
  489TMC3     O 7274   0.553   4.389  17.197 -0.2001 -0.4746 -0.4213
  489TMC3     H 7275   0.344   4.697  17.118  0.6117 -2.1624 -0.4659
  489TMC3    H1 7276   0.633   4.513  17.368  1.4343  2.2744  1.7165
  489TMC3    H2 7277   0.553   0.201  17.420 -1.5034 -0.1048  1.4791
  489TMC3    C7 7278   0.697   0.017  17.510  0.1997 -0.2180  0.1366
  489TMC3    C8 7279   0.392   0.225  17.196 -0.0992 -0.3192  0.3078
  489TMC3    O1 7280   0.738   0.130  17.531 -0.4015 -0.5153 -0.3740
  489TMC3    O2 7281   0.313   0.209  17.104  0.1670 -0.0819  0.6946
  490MPD2     C 7282   1.472   3.845  17.222 -0.5425 -0.1504  0.7490
  490MPD2    C1 7283   1.464   3.913  17.342 -1.1407  0.0574 -0.5853
  490MPD2    C2 7284   1.585   3.954  17.402 -0.2306 -0.0566  0.3010
  490MPD2    C3 7285   1.708   3.950  17.336  0.1515 -0.0364 -0.4227
  490MPD2    C4 7286   1.709   3.905  17.209  0.3435 -0.5412  0.2813
  490MPD2    C5 7287   1.590   3.859  17.153 -0.0759  0.4319  0.5459
  490MPD2     H 7288   1.569   4.001  17.498 -1.0008  0.9995 -0.3431
  490MPD2    H1 7289   1.795   3.911  17.144  1.7474  1.7432  2.3219
  490MPD2    H2 7290   1.387   3.806  17.167 -3.0067 -1.2503  5.3472
  490MPD2    H3 7291   1.600   3.829  17.049 -1.1576  1.7622  0.0550
  490MPD2     N 7292   1.826   3.998  17.389  0.7951 -0.4698  0.2860
  490MPD2    H5 7293   1.904   4.000  17.324 -1.1406 -0.2872 -2.0191
  490MPD2    N1 7294   1.346   3.908  17.424  0.2281  0.3093  0.3531
  490MPD2    H7 7295   1.362   3.947  17.516  1.8914  0.5825 -0.0471
  491TMC3    C1 7296   1.122   3.876  17.476  0.2530 -0.3668  0.1505
  491TMC3    C2 7297   1.156   3.822  17.596 -0.5856 -0.1463  0.0041
  491TMC3    C3 7298   1.069   3.751  17.668  0.1317  0.1149 -0.4905
  491TMC3    C4 7299   0.991   3.873  17.434  0.4006  0.5556 -0.3377
  491TMC3    C5 7300   0.910   3.794  17.501  0.2122  0.2854 -0.6771
  491TMC3    C6 7301   0.941   3.730  17.618  0.0242 -0.3192  0.6012
  491TMC3     C 7302   1.219   3.875  17.374 -0.3825 -0.2430 -0.0273
  491TMC3     O 7303   1.180   3.842  17.264  0.0168 -0.7658 -0.3745
  491TMC3     H 7304   1.261   3.813  17.623 -0.5279  0.1965 -0.0991
  491TMC3    H1 7305   0.968   3.915  17.337 -2.3831 -0.2245 -0.0166
  491TMC3    H2 7306   0.876   3.662  17.672 -2.1656  1.8754  0.6902
  491TMC3    C7 7307   0.769   3.781  17.470 -0.0362  0.2185 -0.3247
  491TMC3    C8 7308   1.123   3.639   0.050 -0.1809  0.0068  0.2298
  491TMC3    O1 7309   0.704   3.683  17.498 -0.7090  0.1025 -0.6525
  491TMC3    O2 7310   1.193   3.669   0.149 -0.5250 -0.5422 -0.2856
  492MPD2     C 7311   0.987   3.590  11.696  0.0316  0.4377  0.2137
  492MPD2    C1 7312   0.905   3.534  11.600 -0.3488 -0.1593  0.9416
  492MPD2    C2 7313   0.781   3.487  11.643  0.1587 -0.2996 -0.6244
  492MPD2    C3 7314   0.748   3.502  11.778  0.5403  0.2376  0.4014
  492MPD2    C4 7315   0.835   3.569  11.864 -0.7474 -0.1089 -0.5359
  492MPD2    C5 7316   0.952   3.610  11.824 -0.3226 -0.0165 -0.5440
  492MPD2     H 7317   0.708   3.441  11.577 -0.8064 -1.8697  1.5715
  492MPD2    H1 7318   0.815   3.575  11.970  0.9551  1.3530 -0.2856
  492MPD2    H2 7319   1.090   3.607  11.667 -0.2453 -0.4452 -1.3232
  492MPD2    H3 7320   1.035   3.645  11.884 -1.1067 -1.2324  1.2559
  492MPD2     N 7321   0.624   3.458  11.835  0.2083 -0.3184  0.1093
  492MPD2    H5 7322   0.613   3.476  11.934  0.6707  0.8652 -0.0556
  492MPD2    N1 7323   0.957   3.539  11.465 -0.1096  0.1903 -0.8373
  492MPD2    H7 7324   1.051   3.575  11.453 -0.3942  0.3487 -2.5364
  493TMC3    C1 7325   0.957   3.531  11.228  0.0074  0.3012 -0.2037
  493TMC3    C2 7326   1.068   3.616  11.223 -0.4743  0.6518  0.1731
  493TMC3    C3 7327   1.123   3.622  11.101 -0.2422 -0.6664 -0.4071
  493TMC3    C4 7328   0.900   3.468  11.113 -0.0966 -0.4275 -0.2224
  493TMC3    C5 7329   0.953   3.509  10.995  0.1778  0.7060  0.4155
  493TMC3    C6 7330   1.064   3.585  10.983  0.0677  0.2060 -0.6103
  493TMC3     C 7331   0.885   3.502  11.353  0.0777 -0.4433 -0.3098
  493TMC3     O 7332   0.769   3.464  11.347  0.5012  0.4252 -0.3342
  493TMC3     H 7333   1.112   3.668  11.307  1.6749  0.3846 -0.7749
  493TMC3    H1 7334   0.804   3.419  11.127  0.1286 -0.7956  0.0418
  493TMC3    H2 7335   1.114   3.607  10.889 -3.1834  0.6875 -2.2265
  493TMC3    C7 7336   0.896   3.458  10.869 -0.6066  0.3416 -0.6233
  493TMC3    C8 7337   1.230   3.714  11.096  0.5010 -0.2317  0.1739
  493TMC3    O1 7338   0.874   3.537  10.782  0.4592  0.4289  0.7165
  493TMC3    O2 7339   1.311   3.712  11.187 -0.0471  0.0087  0.1641
  494TMC3    C1 7340   1.886   0.758   0.726  0.0804 -0.1119  0.2453
  494TMC3    C2 7341   1.984   0.663   0.708 -0.1271 -0.7832  0.1202
  494TMC3    C3 7342   2.063   0.678   0.597  0.3413 -0.1732  1.1139
  494TMC3    C4 7343   1.841   0.836   0.625 -0.1761 -0.1967 -0.1954
  494TMC3    C5 7344   1.905   0.830   0.504  0.2721  0.2120  0.1814
  494TMC3    C6 7345   2.025   0.756   0.491  1.0509 -0.2587 -0.2883
  494TMC3     C 7346   1.816   0.768   0.852  0.0903  0.8339  0.6615
  494TMC3     O 7347   1.692   0.770   0.849  0.0053 -0.6787 -0.4645
  494TMC3     H 7348   2.012   0.591   0.784  1.7061 -0.2747 -0.0836
  494TMC3    H1 7349   1.764   0.911   0.643  1.1503  0.5822  2.2930
  494TMC3    H2 7350   2.072   0.762   0.394  1.0991  1.0164 -0.1841
  494TMC3    C7 7351   1.872   0.918   0.396 -0.5009 -0.5290 -0.5587
  494TMC3    C8 7352   2.204   0.634   0.603  0.1137  0.3988 -1.3206
  494TMC3    O1 7353   1.809   1.018   0.429  0.1371  0.4399  0.2993
  494TMC3    O2 7354   2.225   0.544   0.683 -0.2195  0.1009 -0.1241
  495TMC3    C1 7355   0.609   2.669  14.820 -0.3121  0.2072  0.0767
  495TMC3    C2 7356   0.552   2.750  14.725 -0.9312 -0.3021 -0.0473
  495TMC3    C3 7357   0.550   2.888  14.751 -0.3694 -0.1721  0.8938
  495TMC3    C4 7358   0.675   2.723  14.928 -0.0480 -0.4284  0.0387
  495TMC3    C5 7359   0.674   2.855  14.950 -0.0150 -0.3062  0.1348
  495TMC3    C6 7360   0.615   2.935  14.864 -0.0728 -0.5176 -0.0413
  495TMC3     C 7361   0.660   2.532  14.790 -0.6166 -0.5534 -0.1289
  495TMC3     O 7362   0.744   2.487  14.870  0.3867 -0.2184  0.1270
  495TMC3     H 7363   0.517   2.710  14.630 -0.0838  0.9884 -0.9014
  495TMC3    H1 7364   0.705   2.655  15.008 -1.2286 -0.1634  0.6950
  495TMC3    H2 7365   0.619   3.042  14.884  0.2396 -0.5031 -0.1811
  495TMC3    C7 7366   0.639   2.870  15.088 -0.4766 -0.8618 -0.1049
  495TMC3    C8 7367   0.572   2.975  14.641  0.6957 -0.2396 -0.7233
  495TMC3    O1 7368   0.520   2.870  15.097 -0.1801 -0.7657  0.1479
  495TMC3    O2 7369   0.663   3.055  14.654  0.4456 -0.3936 -0.5743
  496MPD2     C 7370   3.151   3.151  15.404  1.0652  0.6421 -0.0079
  496MPD2    C1 7371   3.052   3.058  15.394 -0.0274 -0.3029  0.7305
  496MPD2    C2 7372   2.933   3.079  15.464 -0.3298 -0.2100 -0.4212
  496MPD2    C3 7373   2.927   3.178  15.565 -0.8884  0.1088 -0.9171
  496MPD2    C4 7374   3.037   3.253  15.595 -0.0349  0.2437  0.0855
  496MPD2    C5 7375   3.151   3.243  15.508 -0.6912 -0.2033 -0.1430
  496MPD2     H 7376   2.848   3.018  15.436 -0.4829  0.5810 -1.6650
  496MPD2    H1 7377   3.041   3.326  15.675  0.7578  1.1522 -0.7857
  496MPD2    H2 7378   3.237   3.150  15.338  1.8194  0.0959  0.9801
  496MPD2    H3 7379   3.239   3.305  15.521  0.2152 -1.8871  1.8864
  496MPD2     N 7380   2.824   3.178  15.661 -0.0074  0.1454 -0.0521
  496MPD2    H5 7381   2.854   3.219  15.749  0.4467  0.9443 -0.5749
  496MPD2    N1 7382   3.070   2.953  15.302 -0.1936 -0.1602 -0.4717
  496MPD2    H7 7383   3.165   2.942  15.268 -0.1851  0.5982 -0.6868
  497TMC3    C1 7384   2.640   3.101  15.779 -0.3711  0.0329 -0.3117
  497TMC3    C2 7385   2.582   2.983  15.798  0.3641 -0.5070 -0.3631
  497TMC3    C3 7386   2.554   2.949  15.928  0.6761 -0.9423 -0.3670
  497TMC3    C4 7387   2.668   3.189  15.875  0.1051  0.0427  0.5625
  497TMC3    C5 7388   2.632   3.154  16.002 -0.3992 -0.1822  0.7107
  497TMC3    C6 7389   2.567   3.037  16.032 -0.3958 -0.0565 -1.0922
  497TMC3     C 7390   2.711   3.099  15.653 -0.0345  0.4804  0.0507
  497TMC3     O 7391   2.652   3.046  15.561  0.0747  0.5204  0.5383
  497TMC3     H 7392   2.565   2.918  15.713  1.1982 -3.1745  1.4923
  497TMC3    H1 7393   2.711   3.286  15.853  0.9396 -0.2865  0.7376
  497TMC3    H2 7394   2.531   3.015  16.132  1.1138  0.7198 -0.3697
  497TMC3    C7 7395   2.689   3.237  16.112 -0.2559  0.4765 -0.6608
  497TMC3    C8 7396   2.458   2.835  15.954  0.0650 -0.2338 -0.5651
  497TMC3    O1 7397   2.737   3.345  16.084  0.3414 -0.3787  0.1143
  497TMC3    O2 7398   2.415   2.831  16.067  0.7020 -0.0968  0.6757
  498MPD2     C 7399   3.313   4.082   9.566 -0.0445  0.2921  0.4464
  498MPD2    C1 7400   3.311   3.973   9.647  0.2376 -0.3552 -0.1022
  498MPD2    C2 7401   3.202   3.939   9.718 -0.4477  0.5430  0.0555
  498MPD2    C3 7402   3.089   4.012   9.697 -0.5158  0.3414 -0.2472
  498MPD2    C4 7403   3.083   4.115   9.612 -0.0584  0.6000 -0.8546
  498MPD2    C5 7404   3.199   4.164   9.556  0.0105  0.0074  0.5193
  498MPD2     H 7405   3.203   3.849   9.778  0.4293 -0.8844 -2.1140
  498MPD2    H1 7406   2.989   4.164   9.589 -0.0439 -0.4266 -3.0697
  498MPD2    H2 7407   3.400   4.118   9.511 -1.1539  1.4830 -0.5539
  498MPD2    H3 7408   3.194   4.243   9.482  1.7200 -1.3801 -1.0838
  498MPD2     N 7409   2.986   3.951   9.761 -0.0968  0.4401  0.1755
  498MPD2    H5 7410   2.998   3.883   9.835  0.1584  0.8429  0.5036
  498MPD2    N1 7411   3.432   3.898   9.676 -0.3319  0.1154  0.3269
  498MPD2    H7 7412   3.428   3.821   9.742  2.4833 -1.4106 -1.2725
  499TMC3    C1 7413   3.651   3.813   9.671 -0.3035  0.1150  0.0250
  499TMC3    C2 7414   3.605   3.684   9.669 -0.0957  0.1403  0.3141
  499TMC3    C3 7415   3.698   3.586   9.675 -0.2866  0.1155 -0.4082
  499TMC3    C4 7416   3.788   3.839   9.662 -0.1061  0.5864  0.0995
  499TMC3    C5 7417   3.878   3.735   9.650 -0.3689  0.1844  0.7533
  499TMC3    C6 7418   3.837   3.603   9.657  0.0770 -0.0287  0.3381
  499TMC3     C 7419   3.560   3.928   9.635  1.1265  0.3853 -0.2410
  499TMC3     O 7420   3.604   4.017   9.563  0.3819 -0.1076 -0.2209
  499TMC3     H 7421   3.499   3.671   9.648  0.2799  0.1848 -1.6300
  499TMC3    H1 7422   3.824   3.940   9.655  1.1756  0.1096 -0.1478
  499TMC3    H2 7423   3.886   3.508   9.642  0.6957  0.1119  1.4306
  499TMC3    C7 7424   4.021   3.761   9.660 -0.0214 -0.2707  0.2065
  499TMC3    C8 7425   3.653   3.451   9.703 -0.5444  0.1650  0.7147
  499TMC3    O1 7426   4.055   3.878   9.641 -0.2594  0.5059  0.0874
  499TMC3    O2 7427   3.726   3.353   9.706 -0.7232  0.0686  0.0218
  500MPD2     C 7428   0.035   4.573  10.758 -0.9160  0.3311 -0.5773
  500MPD2    C1 7429   0.076   4.653  10.650 -0.5633 -0.2894  0.2432
  500MPD2    C2 7430   4.708   4.696  10.559 -0.1493 -0.0329 -0.4997
  500MPD2    C3 7431   4.572   4.673  10.576  0.4596  0.2239 -1.2774
  500MPD2    C4 7432   4.538   4.581  10.671 -0.3312 -0.4318 -0.0534
  500MPD2    C5 7433   4.627   4.537  10.762 -0.5004 -0.2853  0.0229
  500MPD2     H 7434   0.016   0.037  10.477 -1.1436 -0.3643 -1.1288
  500MPD2    H1 7435   4.433   4.555  10.671 -0.5171  0.2863  0.6468
  500MPD2    H2 7436   0.103   4.531  10.831  0.3193 -0.4930 -2.1867
  500MPD2    H3 7437   4.593   4.475  10.844  2.0833  0.5980  1.7402
  500MPD2     N 7438   4.469   0.004  10.501 -0.5667  0.3699  0.0418
  500MPD2    H5 7439   4.376   4.720  10.542 -0.7127  0.4494 -0.2726
  500MPD2    N1 7440   0.208   4.699  10.633  0.2564 -0.8158 -0.5460
  500MPD2    H7 7441   0.218   0.040  10.554  1.2085  1.2297  1.2456
  501TMC3    C1 7442   0.425   0.036  10.700 -0.1292  0.3750  0.1803
  501TMC3    C2 7443   0.411   0.151  10.631  0.2596  0.8354  0.0351
  501TMC3    C3 7444   0.507   0.239  10.652  0.2009 -0.9851 -0.0609
  501TMC3    C4 7445   0.533   0.004  10.777  0.0164  0.0951  0.1835
  501TMC3    C5 7446   0.641   0.086  10.779  0.4995  0.4406  1.2905
  501TMC3    C6 7447   0.633   0.208  10.710  0.0237 -0.2694  0.2911
  501TMC3     C 7448   0.308   4.680  10.733  0.0393  0.6703  0.3818
  501TMC3     O 7449   0.308   4.613  10.836 -0.3976  0.7296  0.0785
  501TMC3     H 7450   0.323   0.172  10.572 -0.3551 -2.9124 -0.4048
  501TMC3    H1 7451   0.535   4.629  10.824  2.8132 -0.3860 -0.9299
  501TMC3    H2 7452   0.713   0.280  10.707  0.1679 -0.3364  2.2220
  501TMC3    C7 7453   0.765   0.040  10.849  0.0325 -0.0984  0.9430
  501TMC3    C8 7454   0.507   0.360  10.569  0.0849 -0.5028 -0.5315
  501TMC3    O1 7455   0.754   4.672  10.927  0.3418 -0.1242 -0.0272
  501TMC3    O2 7456   0.614   0.394  10.527  0.0483 -0.4401 -0.0664
  502TMC3    C1 7457   4.632   3.508  15.267  0.7065  0.4991  0.1192
  502TMC3    C2 7458   4.652   3.542  15.135 -0.3747 -0.4840 -0.9099
  502TMC3    C3 7459   4.543   3.590  15.074 -0.5695 -0.5824  0.4531
  502TMC3    C4 7460   4.517   3.530  15.338  0.0641 -0.1171 -0.3009
  502TMC3    C5 7461   4.411   3.588  15.270  0.2424 -1.1750  0.5490
  502TMC3    C6 7462   4.422   3.603  15.133  0.0855  0.1398  0.2077
  502TMC3     C 7463   0.026   3.450  15.333 -0.4641  0.0709  0.3707
  502TMC3     O 7464   0.141   3.467  15.290  0.2900  0.2473  0.0364
  502TMC3     H 7465   0.026   3.519  15.091 -0.7445  0.9642 -2.4370
  502TMC3    H1 7466   4.495   3.505  15.442  0.7009  0.2106 -0.0862
  502TMC3    H2 7467   4.344   3.638  15.067 -1.1900 -2.4042  0.3842
  502TMC3    C7 7468   4.284   3.591  15.335 -0.5583 -0.0907  0.8626
  502TMC3    C8 7469   4.557   3.656  14.946 -0.5152  0.1719 -0.8389
  502TMC3    O1 7470   4.258   3.502  15.419 -0.4350  0.2663 -0.2449
  502TMC3    O2 7471   4.471   3.736  14.917 -0.1452  0.2756  0.6399
  503MPD2     C 7472   2.322   4.406  16.741  0.1115 -0.0104 -0.5098
  503MPD2    C1 7473   2.321   4.419  16.873  0.6733 -0.0649 -0.3831
  503MPD2    C2 7474   2.367   4.314  16.950  0.3292  0.4553 -0.0521
  503MPD2    C3 7475   2.431   4.202  16.893 -0.1386  0.0335 -1.1280
  503MPD2    C4 7476   2.432   4.199  16.755  0.0362 -0.4493 -0.2329
  503MPD2    C5 7477   2.377   4.296  16.681  0.4228  0.3359 -0.3484
  503MPD2     H 7478   2.345   4.310  17.056 -0.8233 -0.6783 -0.3328
  503MPD2    H1 7479   2.478   4.121  16.695 -0.8492  0.2404 -1.8094
  503MPD2    H2 7480   2.273   4.479  16.678  2.3153  0.6839 -1.4177
  503MPD2    H3 7481   2.382   4.286  16.573 -0.7992  2.1455 -0.5687
  503MPD2     N 7482   2.498   4.105  16.975 -0.1454 -0.1969 -0.3018
  503MPD2    H5 7483   2.513   4.127  17.074 -1.1041 -2.6330  0.3722
  503MPD2    N1 7484   2.275   4.531  16.936 -0.7801  0.4482 -0.3651
  503MPD2    H7 7485   2.250   4.519  17.034 -1.6371  2.6603 -0.2986
  504TMC3    C1 7486   2.661   3.937  17.026  0.7322 -0.1445  0.9618
  504TMC3    C2 7487   2.608   3.939  17.153 -0.4123  0.3352 -0.1767
  504TMC3    C3 7488   2.693   3.906  17.255  0.3933  0.5025  0.2161
  504TMC3    C4 7489   2.784   3.890  16.994  0.4491 -0.3400  0.0497
  504TMC3    C5 7490   2.864   3.861  17.103 -0.1434 -0.2693  0.2526
  504TMC3    C6 7491   2.823   3.863  17.234 -0.1810  0.0316  0.6607
  504TMC3     C 7492   2.591   4.014  16.924  0.1239  0.0694  0.0313
  504TMC3     O 7493   2.607   3.983  16.808 -0.0787 -0.4915 -0.2489
  504TMC3     H 7494   2.504   3.966  17.170  0.5027  2.5469  1.9421
  504TMC3    H1 7495   2.811   3.862  16.893 -3.7294  0.3087 -1.2361
  504TMC3    H2 7496   2.895   3.842  17.312  1.0311  1.8280  0.0258
  504TMC3    C7 7497   2.994   3.812  17.047 -0.2326 -0.2050  0.2899
  504TMC3    C8 7498   2.646   3.935  17.391 -0.4250 -0.6467 -0.0543
  504TMC3    O1 7499   3.019   3.832  16.928 -0.0170 -0.6847 -0.4970
  504TMC3    O2 7500   2.590   4.044  17.408  0.3469 -0.3462 -1.0256
  505MPD2     C 7501   2.226   3.189  10.353 -0.1460  0.4398 -0.6399
  505MPD2    C1 7502   2.188   3.108  10.251 -0.3482 -0.8162  0.7130
  505MPD2    C2 7503   2.284   3.013  10.210 -0.0271  0.0393 -0.4252
  505MPD2    C3 7504   2.415   3.025  10.264  0.4934 -0.0064 -0.5059
  505MPD2    C4 7505   2.447   3.108  10.369 -0.6939 -0.0351  0.4980
  505MPD2    C5 7506   2.346   3.190  10.409  0.0737 -0.2457 -0.2025
  505MPD2     H 7507   2.270   2.947  10.126 -1.7406 -0.1058 -0.0208
  505MPD2    H1 7508   2.548   3.105  10.408  0.2558 -1.3066 -2.0485
  505MPD2    H2 7509   2.151   3.260  10.386 -1.5843 -2.2118  1.7843
  505MPD2    H3 7510   2.366   3.255  10.493 -0.4524  1.1312 -1.1426
  505MPD2     N 7511   2.522   2.941  10.223  0.1736  0.5715  0.2303
  505MPD2    H5 7512   2.616   2.970  10.251  0.1921  0.2388  0.5231
  505MPD2    N1 7513   2.060   3.116  10.189  0.4929 -0.2579 -0.6919
  505MPD2    H7 7514   1.993   3.187  10.216  4.2216  2.4521  1.5110
  506TMC3    C1 7515   1.911   3.084  10.017  0.7597  0.2988 -0.5105
  506TMC3    C2 7516   1.931   3.214   9.970 -0.6355  0.1121  0.2496
  506TMC3    C3 7517   1.877   3.236   9.853  0.3119 -0.5199  0.0887
  506TMC3    C4 7518   1.854   2.990   9.944 -0.0261  0.4910  0.6952
  506TMC3    C5 7519   1.818   3.015   9.813 -0.0153  0.2101  0.4777
  506TMC3    C6 7520   1.824   3.139   9.766  1.0954 -0.1094 -0.1491
  506TMC3     C 7521   2.010   3.027  10.099 -0.1928  0.0695  0.3433
  506TMC3     O 7522   2.045   2.918  10.060  0.3187  0.3854  0.1586
  506TMC3     H 7523   1.969   3.293  10.033 -0.4705 -0.5392  0.9762
  506TMC3    H1 7524   1.831   2.891   9.980  0.0290  0.3169  0.2485
  506TMC3    H2 7525   1.827   3.151   9.659 -0.8298  0.0403 -0.1801
  506TMC3    C7 7526   1.889   2.924   9.725  0.7718  0.1847 -0.5457
  506TMC3    C8 7527   1.885   3.374   9.800  0.2127  1.2613 -0.6465
  506TMC3    O1 7528   1.852   2.892   9.614 -0.2103  0.1335 -0.3293
  506TMC3    O2 7529   1.813   3.391   9.704  0.0305  0.5335  0.3945
  507TMC3    C1 7530   2.337   3.634  14.437 -0.4472 -0.3055  0.4989
  507TMC3    C2 7531   2.346   3.582  14.309 -0.0883  0.2936  0.0167
  507TMC3    C3 7532   2.454   3.504  14.282 -0.1519  0.8423 -0.7932
  507TMC3    C4 7533   2.431   3.618  14.534  0.3728  0.5584  0.1557
  507TMC3    C5 7534   2.523   3.523  14.514  0.4657  0.1285 -0.0191
  507TMC3    C6 7535   2.525   3.462  14.395 -0.3967  0.6665  0.3011
  507TMC3     C 7536   2.225   3.725  14.460  0.5674  0.1887 -0.1705
  507TMC3     O 7537   2.229   3.796  14.557  0.3283 -0.4723  0.4639
  507TMC3     H 7538   2.286   3.624  14.228  1.9934 -1.6529 -2.5589
  507TMC3    H1 7539   2.423   3.681  14.622  2.3665 -0.2878  0.9306
  507TMC3    H2 7540   2.604   3.388  14.385 -0.9685  0.0816  0.1349
  507TMC3    C7 7541   2.656   3.554  14.548 -0.4272 -0.2393 -0.5449
  507TMC3    C8 7542   2.518   3.526  14.154  0.0546  0.3285  0.8896
  507TMC3    O1 7543   2.740   3.535  14.460  0.1716  0.6265 -0.2088
  507TMC3    O2 7544   2.450   3.542  14.050 -0.0799 -0.1732  0.1016
  508MPD2     C 7545   3.799   1.745  15.952 -0.1223 -0.4209  0.7277
  508MPD2    C1 7546   3.866   1.814  16.052 -0.0253  0.0636 -0.4742
  508MPD2    C2 7547   3.921   1.938  16.030 -0.6753  0.1289  0.8011
  508MPD2    C3 7548   3.913   1.993  15.909  0.3785 -0.4701  0.1796
  508MPD2    C4 7549   3.860   1.920  15.809 -0.2053 -0.1157  1.1483
  508MPD2    C5 7550   3.809   1.790  15.820  0.6055  0.4559 -0.1855
  508MPD2     H 7551   3.962   1.998  16.110  0.9112  1.1835 -0.8050
  508MPD2    H1 7552   3.847   1.965  15.711 -0.6586 -0.0507  1.2394
  508MPD2    H2 7553   3.741   1.654  15.967  0.0276 -0.9486 -1.9230
  508MPD2    H3 7554   3.767   1.745  15.731 -1.1887  1.1404  0.3109
  508MPD2     N 7555   3.966   2.127  15.897  0.1243 -0.7797 -0.1973
  508MPD2    H5 7556   4.009   2.164  15.981 -0.8846  1.1601 -0.5347
  508MPD2    N1 7557   3.846   1.768  16.188  0.1411  0.5741  0.4094
  508MPD2    H7 7558   3.781   1.694  16.212  2.2319 -1.0351  1.0939
  509TMC3    C1 7559   4.050   2.560  15.730 -0.6930  0.3742 -0.1653
  509TMC3    C2 7560   4.158   2.580  15.811 -0.1145  0.1546  0.5135
  509TMC3    C3 7561   4.205   2.468  15.884 -0.3325 -0.2276  0.9501
  509TMC3    C4 7562   3.974   2.445  15.734  0.2049  0.4023  0.0396
  509TMC3    C5 7563   4.020   2.347  15.817 -0.3051 -0.6685 -0.5396
  509TMC3    C6 7564   4.134   2.355  15.888  0.0948  0.3769  0.0907
  509TMC3     C 7565   3.999   2.677  15.675 -0.4724  0.2522  0.5660
  509TMC3     O 7566   4.019   2.789  15.724 -0.2910  0.4328 -0.1668
  509TMC3     H 7567   4.224   2.665  15.800 -3.2419  2.5485  0.2675
  509TMC3    H1 7568   3.890   2.432  15.666  0.6691 -2.1787 -0.0183
  509TMC3    H2 7569   4.169   2.270  15.944 -1.2239  0.7029  1.3997
  509TMC3    C7 7570   3.969   2.211  15.789 -0.3608  0.0417 -0.2915
  509TMC3    C8 7571   4.342   2.455  15.927  0.6175  0.1363  0.4156
  509TMC3    O1 7572   3.916   2.190  15.682 -0.6157 -0.2793 -0.1762
  509TMC3    O2 7573   4.357   2.370  16.008  0.0731  0.2637 -0.0237
  510MPD2     C 7574   2.339   2.918  14.629  0.5321 -0.6078  0.4342
  510MPD2    C1 7575   2.228   2.850  14.575  0.2862  0.3431  0.8547
  510MPD2    C2 7576   2.236   2.806  14.436  0.4799 -1.2595  0.6173
  510MPD2    C3 7577   2.335   2.845  14.348  0.1375  0.2352  0.1395
  510MPD2    C4 7578   2.440   2.923  14.403 -0.0814  0.1594 -0.2246
  510MPD2    C5 7579   2.431   2.948  14.533 -0.0343 -0.0353 -0.4145
  510MPD2     H 7580   2.163   2.736  14.397  0.7013 -0.9770 -0.2908
  510MPD2    H1 7581   2.535   2.952  14.358 -1.9423  3.2622 -2.1663
  510MPD2    H2 7582   2.351   2.962  14.728 -1.1720  1.4970 -0.2899
  510MPD2    H3 7583   2.516   3.002  14.574 -0.4389 -0.7497  1.3750
  510MPD2     N 7584   2.335   2.801  14.218  0.8943 -0.3122 -0.6517
  510MPD2    H5 7585   2.248   2.760  14.187  0.8478 -0.1255 -0.7657
  510MPD2    N1 7586   2.120   2.833  14.664 -0.6348 -0.3114 -0.0945
  510MPD2    H7 7587   2.132   2.868  14.759 -1.8619  1.5349 -0.6107
  511TMC3    C1 7588   1.901   2.768  14.731 -0.4099 -0.0248  0.6468
  511TMC3    C2 7589   1.926   2.777  14.864  0.0061  0.5306 -0.7391
  511TMC3    C3 7590   1.826   2.731  14.952  0.5356 -0.0360  0.0458
  511TMC3    C4 7591   1.788   2.704  14.687 -0.7526 -0.0189 -0.3687
  511TMC3    C5 7592   1.707   2.647  14.777  0.3569 -0.3887 -0.3637
  511TMC3    C6 7593   1.715   2.662  14.912  1.1783 -0.5579  1.1318
  511TMC3     C 7594   1.996   2.787  14.628  0.2476 -0.0256  0.1687
  511TMC3     O 7595   1.950   2.759  14.518  0.4393 -0.2933 -0.0141
  511TMC3     H 7596   2.010   2.832  14.906  0.3651  1.6371 -2.8897
  511TMC3    H1 7597   1.764   2.688  14.582  0.5433 -0.0190 -0.6753
  511TMC3    H2 7598   1.636   2.636  14.982 -0.8200 -0.9168 -1.2651
  511TMC3    C7 7599   1.617   2.544  14.736  0.3738 -0.3312  0.6149
  511TMC3    C8 7600   1.819   2.775  15.084 -0.5883  0.0756  0.3815
  511TMC3    O1 7601   1.584   2.551  14.617  0.1482 -0.2134  0.4513
  511TMC3    O2 7602   1.860   2.889  15.101  0.4157 -0.3138  0.4283
  512TMC3    C1 7603   0.953   2.346  13.030 -0.7478 -0.5439  0.1996
  512TMC3    C2 7604   1.018   2.291  13.137  0.0074 -0.2945  0.4770
  512TMC3    C3 7605   1.116   2.191  13.124  0.0123 -0.0160  0.0223
  512TMC3    C4 7606   0.980   2.303  12.908 -0.0485  0.4954 -0.4737
  512TMC3    C5 7607   1.056   2.192  12.894 -0.2904 -0.5489 -0.4156
  512TMC3    C6 7608   1.126   2.135  13.002 -0.4037 -0.5036  0.6591
  512TMC3     C 7609   0.857   2.450  13.038  0.5938 -0.4929 -0.5111
  512TMC3     O 7610   0.840   2.512  12.938  0.5347 -0.0025  0.2744
  512TMC3     H 7611   0.987   2.328  13.234 -0.3011  0.9858 -0.1105
  512TMC3    H1 7612   0.926   2.340  12.822 -0.6962 -0.5904 -0.5411
  512TMC3    H2 7613   1.190   2.047  12.999  1.7945  1.1273  0.1545
  512TMC3    C7 7614   1.048   2.126  12.779 -0.2104 -0.0919 -0.7872
  512TMC3    C8 7615   1.185   2.141  13.249 -0.2292  0.6486 -0.1657
  512TMC3    O1 7616   1.038   2.199  12.683 -0.2417  0.5153 -0.3500
  512TMC3    O2 7617   1.229   2.028  13.245 -0.3224 -0.0529 -0.2657
  513MPD2     C 7618   2.503   1.933  13.152 -0.6185 -0.6405  0.0840
  513MPD2    C1 7619   2.609   1.935  13.059  0.3029 -0.5156 -0.3979
  513MPD2    C2 7620   2.703   2.035  13.056  0.2585  0.2051 -0.2776
  513MPD2    C3 7621   2.688   2.147  13.139  0.8538  0.6303 -0.0048
  513MPD2    C4 7622   2.588   2.139  13.235 -0.3373 -0.0820 -0.5156
  513MPD2    C5 7623   2.500   2.029  13.242 -1.1380 -0.8823 -0.0048
  513MPD2     H 7624   2.767   2.025  12.969 -1.2174  2.8678 -1.6820
  513MPD2    H1 7625   2.562   2.217  13.305 -3.1449  0.8996 -2.6071
  513MPD2    H2 7626   2.429   1.854  13.152 -1.0959 -0.1853  1.2010
  513MPD2    H3 7627   2.441   2.020  13.332 -3.1128 -0.8413 -1.3073
  513MPD2     N 7628   2.770   2.261  13.116  0.4660  0.6828  1.1910
  513MPD2    H5 7629   2.830   2.256  13.034  0.5501  0.7046  1.2518
  513MPD2    N1 7630   2.641   1.831  12.970  0.2795 -0.5595  0.4312
  513MPD2    H7 7631   2.736   1.826  12.934 -0.0719  0.6923 -0.6707
  514TMC3    C1 7632   2.637   1.621  12.864 -0.7157  0.1006 -0.3061
  514TMC3    C2 7633   2.582   1.612  12.742  0.6271 -0.7873  0.7228
  514TMC3    C3 7634   2.646   1.631  12.629  0.6130  0.2812  0.0293
  514TMC3    C4 7635   2.771   1.657  12.864 -1.2201 -0.1486  0.8500
  514TMC3    C5 7636   2.835   1.696  12.749  0.0918  0.3766  0.0830
  514TMC3    C6 7637   2.777   1.681  12.628 -0.6317  0.5042  0.6918
  514TMC3     C 7638   2.565   1.713  12.954 -0.1700  0.2955  0.5130
  514TMC3     O 7639   2.443   1.699  12.970  0.1423  0.7397  0.5754
  514TMC3     H 7640   2.484   1.567  12.736 -0.0187  0.7409 -0.1762
  514TMC3    H1 7641   2.816   1.674  12.961 -0.4826  2.3940  0.0485
  514TMC3    H2 7642   2.837   1.711  12.543  0.3078 -3.3371  0.0203
  514TMC3    C7 7643   2.928   1.805  12.781  0.3889 -0.0723 -0.2037
  514TMC3    C8 7644   2.569   1.612  12.505  0.4699 -0.1359  0.2204
  514TMC3    O1 7645   2.917   1.853  12.892  0.2724  0.2094 -0.1132
  514TMC3    O2 7646   2.461   1.557  12.504 -0.9563  0.4139 -0.4238
  515MPD2     C 7647   0.727   0.155  14.732  0.1060 -0.1354 -0.1316
  515MPD2    C1 7648   0.798   0.048  14.686  0.1025 -0.2232  0.0570
  515MPD2    C2 7649   0.911   0.006  14.766 -0.0634 -0.2799  0.4895
  515MPD2    C3 7650   0.948   0.068  14.882 -0.7252  0.1878 -0.0497
  515MPD2    C4 7651   0.874   0.179  14.920 -0.2028 -0.5958  0.8045
  515MPD2    C5 7652   0.765   0.217  14.848 -0.1896  0.1880 -0.5604
  515MPD2     H 7653   0.965   4.639  14.737  0.0608  0.2116 -0.8100
  515MPD2    H1 7654   0.906   0.227  15.012  1.6960 -2.4789  1.1222
  515MPD2    H2 7655   0.637   0.184  14.679 -0.4508  0.1367  0.9528
  515MPD2    H3 7656   0.698   0.297  14.880 -1.0551 -0.5058 -0.6243
  515MPD2     N 7657   1.067   0.036  14.957 -0.2898 -1.0331  0.0555
  515MPD2    H5 7658   1.077   0.098  15.037 -0.2197  2.0898 -2.3753
  515MPD2    N1 7659   0.764   4.690  14.578 -0.2775 -0.1237 -0.1139
  515MPD2    H7 7660   0.826   4.615  14.547  0.4376  0.3900  0.0793
  516TMC3    C1 7661   0.599   4.591  14.446 -1.0884  0.2501  0.1860
  516TMC3    C2 7662   0.533   4.599  14.325  1.2869  0.1972 -0.1087
  516TMC3    C3 7663   0.486   4.481  14.275 -0.5704  0.0620  0.4699
  516TMC3    C4 7664   0.616   4.472  14.510  0.6952  0.8118 -0.0247
  516TMC3    C5 7665   0.571   4.353  14.451  0.3970  1.0631  0.1619
  516TMC3    C6 7666   0.503   4.358  14.337 -0.2527  0.2934  0.0175
  516TMC3     C 7667   0.653   4.713  14.496 -0.2277 -0.9785 -0.1456
  516TMC3     O 7668   0.583   0.088  14.475  0.1479 -0.2248 -0.2683
  516TMC3     H 7669   0.519   4.689  14.267  1.7398 -0.6266 -1.4963
  516TMC3    H1 7670   0.659   4.470  14.610 -0.1706  1.6999  0.3692
  516TMC3    H2 7671   0.469   4.268  14.286 -1.9004  0.7419  0.3275
  516TMC3    C7 7672   0.597   4.238  14.531  0.2334  0.8406 -0.2846
  516TMC3    C8 7673   0.444   4.476  14.138 -0.2850 -0.0281 -0.7307
  516TMC3    O1 7674   0.686   4.250  14.615  0.3738 -0.0460 -0.1793
  516TMC3    O2 7675   0.356   4.396  14.105  0.2633  0.3738 -0.2508
  517MPD2     C 7676   0.701   1.092  17.683  0.4169  0.1305  0.8011
  517MPD2    C1 7677   0.832   1.131  17.666 -0.0972 -0.0581  0.2977
  517MPD2    C2 7678   0.880   1.245   0.031 -0.2407  0.1962 -0.2187
  517MPD2    C3 7679   0.801   1.329   0.106  0.2090  0.7773  0.8167
  517MPD2    C4 7680   0.675   1.288   0.134  0.0586  0.1558 -0.8872
  517MPD2    C5 7681   0.629   1.171   0.077  0.7181  0.1499  0.2141
  517MPD2     H 7682   0.985   1.274   0.022 -0.6680  2.0421  0.8573
  517MPD2    H1 7683   0.610   1.339   0.204 -1.0685 -1.0490 -1.0523
  517MPD2    H2 7684   0.652   0.999  17.655 -0.8837  0.7435  1.0161
  517MPD2    H3 7685   0.535   1.130   0.111  1.3270  0.1408  1.8820
  517MPD2     N 7686   0.845   1.451   0.164 -0.4358  0.2599  0.4464
  517MPD2    H5 7687   0.774   1.490   0.225  0.6538 -0.5453  2.2346
  517MPD2    N1 7688   0.923   1.050  17.597 -0.3929 -0.3924 -0.1976
  517MPD2    H7 7689   1.017   1.086  17.586  0.3455 -2.3220 -0.2514
  518TMC3    C1 7690   1.012   0.856  17.468 -0.7078 -0.2987  0.2327
  518TMC3    C2 7691   0.985   0.747  17.384 -0.0989  0.5794  0.9743
  518TMC3    C3 7692   1.090   0.687  17.322  0.3496 -0.8373  0.2574
  518TMC3    C4 7693   1.140   0.890  17.498  0.5605  0.0983  0.2716
  518TMC3    C5 7694   1.248   0.812  17.455  0.2817  0.1271 -0.4285
  518TMC3    C6 7695   1.220   0.714  17.363 -0.4493 -0.9685 -0.2633
  518TMC3     C 7696   0.901   0.927  17.536  0.0296 -0.0391  0.1349
  518TMC3     O 7697   0.796   0.868  17.537 -0.2236 -0.3164  0.6989
  518TMC3     H 7698   0.882   0.727  17.356  0.1031 -0.1291  0.7212
  518TMC3    H1 7699   1.175   0.946  17.584 -1.7630 -0.8186  1.8164
  518TMC3    H2 7700   1.296   0.663  17.304 -0.0192  0.4647 -0.9264
  518TMC3    C7 7701   1.317   0.768  17.578 -0.1141  0.2263 -0.5774
  518TMC3    C8 7702   1.072   0.546  17.293 -0.6991  0.1921 -0.0183
  518TMC3    O1 7703   1.356   0.840  17.668 -0.1663  0.2833 -0.1166
  518TMC3    O2 7704   1.157   0.475  17.346  0.4820  0.2666  0.0408
  519MPD2     C 7705   2.475   4.110  13.991 -0.1043 -0.0872 -0.1013
  519MPD2    C1 7706   2.340   4.110  13.949  0.0989  0.9088  0.0365
  519MPD2    C2 7707   2.267   3.997  13.926 -0.1115  0.2926  0.1458
  519MPD2    C3 7708   2.330   3.878  13.930  0.3854  1.0382  0.0098
  519MPD2    C4 7709   2.463   3.874  13.971  0.5469 -0.4249 -0.4114
  519MPD2    C5 7710   2.533   3.987  14.006  0.0927 -0.6850 -0.3282
  519MPD2     H 7711   2.162   4.011  13.901 -0.3603 -1.5046  0.2183
  519MPD2    H1 7712   2.517   3.780  13.982  0.1467 -0.6909 -0.7086
  519MPD2    H2 7713   2.536   4.195  14.019  0.3347 -0.4113 -0.0756
  519MPD2    H3 7714   2.630   3.981  14.054 -0.3084  4.1003  1.1579
  519MPD2     N 7715   2.262   3.755  13.911  0.3152 -0.3152  0.5940
  519MPD2    H5 7716   2.311   3.669  13.933 -0.5484 -0.5332  1.6666
  519MPD2    N1 7717   2.270   4.229  13.931 -0.7630  0.5395  0.1673
  519MPD2    H7 7718   2.170   4.227  13.911 -1.2915  0.5638  2.7904
  520TMC3    C1 7719   2.095   3.614  13.832 -0.6048  1.3868  0.2194
  520TMC3    C2 7720   1.985   3.629  13.753  0.4551  0.2802  0.3489
  520TMC3    C3 7721   1.989   3.571  13.629 -0.0258 -0.2904  0.2572
  520TMC3    C4 7722   2.191   3.519  13.802  0.4961  0.1534 -0.3436
  520TMC3    C5 7723   2.190   3.453  13.678  0.0131  0.0231  0.7685
  520TMC3    C6 7724   2.090   3.485  13.589  0.0365  0.6972 -0.1180
  520TMC3     C 7725   2.138   3.748  13.857  0.5553  0.6567  0.0047
  520TMC3     O 7726   2.072   3.834  13.798  0.0024  0.3535 -0.1652
  520TMC3     H 7727   1.908   3.701  13.773 -0.4682 -0.1822 -1.5563
  520TMC3    H1 7728   2.278   3.504  13.865  0.3292  0.8935  0.0507
  520TMC3    H2 7729   2.094   3.454  13.486 -2.3770 -0.8393  0.2538
  520TMC3    C7 7730   2.318   3.426  13.621 -0.6556  0.9521 -0.4981
  520TMC3    C8 7731   1.921   3.630  13.523 -0.3413 -0.4081 -0.1973
  520TMC3    O1 7732   2.337   3.465  13.506  0.8014 -0.2368  0.5701
  520TMC3    O2 7733   1.965   3.624  13.408 -0.2010 -0.0352  0.1921
  521MPD2     C 7734   2.526   2.329  17.255 -0.2188  0.2752 -0.3716
  521MPD2    C1 7735   2.527   2.199  17.210  0.9128  0.2601 -0.6673
  521MPD2    C2 7736   2.647   2.141  17.207  0.0732 -0.4830  0.0212
  521MPD2    C3 7737   2.771   2.207  17.226  0.0596 -0.4905 -0.5853
  521MPD2    C4 7738   2.768   2.333  17.277 -0.2117  0.4993 -0.7603
  521MPD2    C5 7739   2.645   2.390  17.288  0.1888  0.1831 -0.5528
  521MPD2     H 7740   2.646   2.037  17.176 -3.1252 -0.1930 -0.8821
  521MPD2    H1 7741   2.855   2.393  17.305  0.3646 -0.5388 -0.3271
  521MPD2    H2 7742   2.432   2.382  17.263 -0.3652 -0.2131  1.1080
  521MPD2    H3 7743   2.642   2.496  17.314 -2.2728  0.1387 -0.7104
  521MPD2     N 7744   2.892   2.143  17.211  0.3257 -0.4029 -0.1350
  521MPD2    H5 7745   2.903   2.054  17.164  1.9863 -0.6251  0.6646
  521MPD2    N1 7746   2.406   2.126  17.182 -0.8565 -0.3329 -0.2708
  521MPD2    H7 7747   2.317   2.174  17.195 -0.5834  0.7780 -2.5762
  522TMC3    C1 7748   3.127   2.101  17.196 -0.6214 -0.0509  0.1003
  522TMC3    C2 7749   3.252   2.093  17.254  0.5122  1.3404 -0.3409
  522TMC3    C3 7750   3.334   2.003  17.195 -0.1298 -0.2355  1.2447
  522TMC3    C4 7751   3.097   2.048  17.073  0.5771  0.7295 -0.1853
  522TMC3    C5 7752   3.189   1.963  17.014  0.5144  0.3324 -0.1993
  522TMC3    C6 7753   3.310   1.941  17.078  0.4651  0.4312 -0.5917
  522TMC3     C 7754   3.020   2.188  17.243 -0.5843  0.9616 -0.6202
  522TMC3     O 7755   3.051   2.270  17.332 -0.0319  0.0935  0.3092
  522TMC3     H 7756   3.276   2.132  17.352  0.8376  1.4531 -0.4684
  522TMC3    H1 7757   3.007   2.080  17.021 -1.2206  1.4700  3.3689
  522TMC3    H2 7758   3.368   1.857  17.042  2.2130  0.3317  2.4229
  522TMC3    C7 7759   3.191   1.931  16.869 -0.0452 -0.1339 -0.4550
  522TMC3    C8 7760   3.472   2.033  17.214  0.4320 -0.0423 -0.0699
  522TMC3    O1 7761   3.249   1.832  16.827 -0.2435  0.1777  0.2782
  522TMC3    O2 7762   3.518   2.099  17.305 -0.0229  0.1430  0.6256
  523MPD2     C 7763   0.987   1.813  10.132 -0.7967  0.0133 -0.1148
  523MPD2    C1 7764   0.932   1.752  10.023 -0.6797 -0.1586  0.2388
  523MPD2    C2 7765   0.879   1.825   9.921  0.0838  0.8032 -0.2080
  523MPD2    C3 7766   0.878   1.965   9.933  0.0724  0.9173 -0.3024
  523MPD2    C4 7767   0.943   2.020  10.038  0.2276  0.1050  0.1972
  523MPD2    C5 7768   0.995   1.945  10.135  0.3287 -0.4853  0.3105
  523MPD2     H 7769   0.810   1.788   9.846  1.0240  1.0430 -1.2064
  523MPD2    H1 7770   0.959   2.126  10.051  0.5565  0.5551 -3.8824
  523MPD2    H2 7771   1.028   1.751  10.211  1.3170 -0.1695 -1.3480
  523MPD2    H3 7772   1.049   1.994  10.215  1.2397  0.7577 -1.0761
  523MPD2     N 7773   0.813   2.056   9.849  0.2463  0.0090  0.4088
  523MPD2    H5 7774   0.827   2.156   9.863 -0.9668  0.2082  0.2457
  523MPD2    N1 7775   0.923   1.613  10.030  0.4629 -0.4075  0.3006
  523MPD2    H7 7776   0.977   1.571  10.105 -1.6325 -1.7227  1.0605
  524TMC3    C1 7777   0.685   2.137   9.667  0.5290  0.2082 -0.0642
  524TMC3    C2 7778   0.617   2.100   9.556  0.5305  0.2707  0.0672
  524TMC3    C3 7779   0.567   2.200   9.478 -0.6171 -0.6258 -0.3517
  524TMC3    C4 7780   0.659   2.261   9.722 -0.0049 -0.0827 -0.0147
  524TMC3    C5 7781   0.596   2.356   9.649 -0.5494 -0.9964 -0.1814
  524TMC3    C6 7782   0.547   2.325   9.527  0.1097  0.3247 -0.8634
  524TMC3     C 7783   0.733   2.026   9.739  0.7067 -0.2537  0.3098
  524TMC3     O 7784   0.696   1.922   9.694 -0.0086  0.1316 -0.0501
  524TMC3     H 7785   0.650   2.011   9.502  0.2153  0.6701 -0.7800
  524TMC3    H1 7786   0.678   2.281   9.827  0.6151 -1.6942  0.1749
  524TMC3    H2 7787   0.507   2.400   9.459 -0.1375  0.3592 -0.6802
  524TMC3    C7 7788   0.547   2.479   9.713  0.2801 -0.3058 -0.5871
  524TMC3    C8 7789   0.507   2.158   9.349  0.0791 -0.5643  0.3928
  524TMC3    O1 7790   0.606   2.505   9.812  0.0966  0.3046 -0.4180
  524TMC3    O2 7791   0.495   2.248   9.266 -0.3981 -0.8397 -0.2996
  525MPD2     C 7792   3.422   3.410  14.297  0.2047  0.2212  0.4196
  525MPD2    C1 7793   3.551   3.413  14.246 -0.2433 -0.2931  0.0193
  525MPD2    C2 7794   3.575   3.461  14.123 -0.3351  0.2227  0.7153
  525MPD2    C3 7795   3.469   3.517  14.052 -0.3258 -0.4872 -0.4326
  525MPD2    C4 7796   3.336   3.509  14.104 -0.1814 -0.4003  0.2552
  525MPD2    C5 7797   3.318   3.454  14.225 -0.5017  0.2851 -0.4315
  525MPD2     H 7798   3.676   3.445  14.085 -0.0496  1.9969  0.7207
  525MPD2    H1 7799   3.256   3.554  14.047  1.5403  1.0467 -1.0308
  525MPD2    H2 7800   3.390   3.366  14.391 -2.0568  2.8907  0.9101
  525MPD2    H3 7801   3.218   3.456  14.266  0.3893  2.2861  1.7063
  525MPD2     N 7802   3.485   3.584  13.931 -1.1241  0.0847 -0.3461
  525MPD2    H5 7803   3.401   3.629  13.896 -1.3186  1.0703  1.3979
  525MPD2    N1 7804   3.659   3.373  14.327  0.1162  0.3643 -0.6693
  525MPD2    H7 7805   3.750   3.373  14.281  0.5048 -0.5623  0.0868
  526TMC3    C1 7806   3.790   3.331  14.520  0.2555 -0.3334  0.9828
  526TMC3    C2 7807   3.797   3.323  14.654  0.3750  0.4395  0.0397
  526TMC3    C3 7808   3.912   3.274  14.716  0.1253 -0.4268 -0.0039
  526TMC3    C4 7809   3.891   3.289  14.447 -0.0916  0.1580  0.6229
  526TMC3    C5 7810   4.003   3.243  14.509 -0.0928  0.6276  0.3311
  526TMC3    C6 7811   4.014   3.236  14.639 -0.0514 -0.5755  0.3786
  526TMC3     C 7812   3.653   3.339  14.460  0.1871  0.2324 -0.3750
  526TMC3     O 7813   3.564   3.321  14.543 -0.1656  0.0761  0.5377
  526TMC3     H 7814   3.713   3.366  14.707  0.7087 -0.8301  1.5962
  526TMC3    H1 7815   3.886   3.288  14.339  0.6216  0.2916  0.5887
  526TMC3    H2 7816   4.108   3.201  14.680  0.5925  1.4263  0.6069
  526TMC3    C7 7817   4.128   3.225  14.430 -0.6029  0.5963  0.0481
  526TMC3    C8 7818   3.917   3.247  14.857 -0.3345 -0.7559  0.5447
  526TMC3    O1 7819   4.201   3.135  14.458 -0.1361  0.2690  0.4586
  526TMC3    O2 7820   4.015   3.195  14.908  0.6897 -0.4407  0.6652
  527MPD2     C 7821   1.458   1.263   1.027 -0.0656 -0.0034  0.5484
  527MPD2    C1 7822   1.510   1.251   1.154  0.5919 -0.1394  0.0554
  527MPD2    C2 7823   1.636   1.198   1.178  0.0239 -0.0031  0.1234
  527MPD2    C3 7824   1.714   1.159   1.066 -0.2994  0.1688 -1.2716
  527MPD2    C4 7825   1.663   1.165   0.939  0.3164  0.9606 -0.0174
  527MPD2    C5 7826   1.537   1.213   0.925 -0.2092 -0.2945 -0.7437
  527MPD2     H 7827   1.664   1.190   1.282 -2.7631  0.1651  0.8966
  527MPD2    H1 7828   1.712   1.122   0.853 -0.0506 -1.8297  1.1525
  527MPD2    H2 7829   1.365   1.314   1.002  0.7972  0.3264 -1.9209
  527MPD2    H3 7830   1.497   1.223   0.825  0.7513 -0.9974 -1.1909
  527MPD2     N 7831   1.846   1.110   1.071  0.1912 -0.3703 -0.0648
  527MPD2    H5 7832   1.898   1.101   0.984 -0.2251  0.7953 -0.4312
  527MPD2    N1 7833   1.438   1.311   1.261 -0.5358  0.2753 -0.7424
  527MPD2    H7 7834   1.493   1.328   1.345 -0.1423 -1.2908 -0.6745
  528TMC3    C1 7835   1.250   1.378   1.386 -0.0446 -0.9463  0.0178
  528TMC3    C2 7836   1.330   1.463   1.448 -0.1363 -0.2083 -0.6884
  528TMC3    C3 7837   1.283   1.513   1.567 -0.6146  0.8830 -0.5913
  528TMC3    C4 7838   1.122   1.353   1.420  0.4933 -0.1457 -0.3044
  528TMC3    C5 7839   1.083   1.406   1.540  0.3562 -0.2993 -0.1316
  528TMC3    C6 7840   1.161   1.485   1.618  0.1556  0.3209 -0.1948
  528TMC3     C 7841   1.301   1.328   1.260  0.2954  0.5881  0.2171
  528TMC3     O 7842   1.210   1.301   1.181 -0.7872 -0.6017 -0.0429
  528TMC3     H 7843   1.426   1.499   1.413 -0.3095  2.0696  1.1847
  528TMC3    H1 7844   1.050   1.315   1.348 -1.4512  2.5521  0.2278
  528TMC3    H2 7845   1.118   1.535   1.704  0.1985  2.0162 -1.1432
  528TMC3    C7 7846   0.943   1.423   1.562  0.8068 -0.6790 -0.5037
  528TMC3    C8 7847   1.382   1.587   1.644  0.4470 -0.2170  0.2725
  528TMC3    O1 7848   0.913   1.536   1.605 -0.3458  0.4058 -0.5343
  528TMC3    O2 7849   1.477   1.640   1.589  0.8259  0.0657  0.5361
  529MPD2     C 7850   0.445   4.277   0.820 -0.4238 -0.2926  0.2757
  529MPD2    C1 7851   0.317   4.291   0.792 -0.8245 -0.2456 -0.3958
  529MPD2    C2 7852   0.272   4.366   0.680  0.6884 -0.0284 -0.2863
  529MPD2    C3 7853   0.366   4.436   0.604 -0.3390  0.0315  0.2751
  529MPD2    C4 7854   0.499   4.418   0.638  0.0603  0.4584 -0.4913
  529MPD2    C5 7855   0.541   4.341   0.739 -0.5981  1.1513  0.3203
  529MPD2     H 7856   0.167   4.375   0.656  0.8808  0.5166 -0.8985
  529MPD2    H1 7857   0.577   4.455   0.572  0.5237 -1.2026 -0.8567
  529MPD2    H2 7858   0.483   4.211   0.897  0.2365 -1.0148 -0.6639
  529MPD2    H3 7859   0.645   4.315   0.751 -0.9405 -0.1112  0.5099
  529MPD2     N 7860   0.334   4.507   0.487  0.9369  1.2603 -0.2158
  529MPD2    H5 7861   0.414   4.550   0.442  0.5776  0.0997 -2.0063
  529MPD2    N1 7862   0.215   4.230   0.872  0.5160  0.4341  0.0046
  529MPD2    H7 7863   0.118   4.249   0.852 -0.2192 -1.7398  1.4373
  530TMC3    C1 7864   0.097   4.155   1.057 -0.9373 -0.5540  0.2491
  530TMC3    C2 7865   0.103   4.156   1.191  0.8341  0.3690  0.1015
  530TMC3    C3 7866   4.715   4.175   1.267  0.0312  0.4345 -0.1670
  530TMC3    C4 7867   4.704   4.204   0.999  0.3026  0.1577  0.3544
  530TMC3    C5 7868   4.592   4.229   1.076  0.2237  0.5483  0.6538
  530TMC3    C6 7869   4.597   4.217   1.216 -0.4042 -0.0565  0.3163
  530TMC3     C 7870   0.224   4.150   0.988  0.2855  0.0854 -0.1745
  530TMC3     O 7871   0.323   4.116   1.044 -0.2489 -0.7646 -0.1819
  530TMC3     H 7872   0.193   4.126   1.243  1.3524 -0.0855 -1.0590
  530TMC3    H1 7873   4.698   4.198   0.891 -0.3437 -2.0475  0.5105
  530TMC3    H2 7874   4.499   4.213   1.262 -0.6813 -0.1926 -0.2865
  530TMC3    C7 7875   4.543   4.346   1.020 -0.0201 -0.6918 -0.1096
  530TMC3    C8 7876   4.715   4.169   1.411  0.0065  1.5186 -0.7120
  530TMC3    O1 7877   4.538   4.363   0.903  0.0355 -0.3958 -0.2443
  530TMC3    O2 7878   4.614   4.204   1.470  0.2888 -0.0724  0.3070
  531MPD2     C 7879   3.253   2.160  12.649  0.5218 -0.1269 -0.2252
  531MPD2    C1 7880   3.140   2.161  12.731  0.3884  0.3825  0.3627
  531MPD2    C2 7881   3.068   2.045  12.748 -0.2809  0.3675 -0.5006
  531MPD2    C3 7882   3.105   1.937  12.670  0.3068  0.6475  0.0325
  531MPD2    C4 7883   3.214   1.936  12.597  0.3283 -0.4906 -0.1807
  531MPD2    C5 7884   3.296   2.043  12.595 -0.1564 -0.9809 -0.3988
  531MPD2     H 7885   2.974   2.040  12.801  0.8351  3.0913  1.7362
  531MPD2    H1 7886   3.248   1.850  12.540  1.3760  0.0868 -0.4359
  531MPD2    H2 7887   3.307   2.251  12.625 -1.2470  1.2971  1.0837
  531MPD2    H3 7888   3.392   2.050  12.545  0.3623 -1.8080  0.4874
  531MPD2     N 7889   3.021   1.827  12.673  0.2095  0.5673  0.1566
  531MPD2    H5 7890   3.033   1.765  12.593  0.5647  1.3295 -0.3898
  531MPD2    N1 7891   3.111   2.285  12.790 -0.0122  0.1349  0.3112
  531MPD2    H7 7892   3.185   2.355  12.784  0.6566 -0.7519 -1.8777
  532TMC3    C1 7893   3.004   2.424  12.950 -0.2031  0.4984 -0.3059
  532TMC3    C2 7894   2.882   2.448  13.014 -0.2980  0.1219 -0.2023
  532TMC3    C3 7895   2.886   2.453  13.147  0.3268 -0.3699 -0.0476
  532TMC3    C4 7896   3.125   2.434  13.010 -0.1505  0.0455 -0.1197
  532TMC3    C5 7897   3.123   2.452  13.146 -0.5757 -0.3735 -0.0512
  532TMC3    C6 7898   3.007   2.457  13.213  0.4032 -0.8817  0.1336
  532TMC3     C 7899   2.994   2.306  12.865  0.6101 -0.0473 -0.7100
  532TMC3     O 7900   2.885   2.250  12.865  0.4060 -0.1352  0.1111
  532TMC3     H 7901   2.787   2.453  12.964 -0.9524  0.1107  1.0393
  532TMC3    H1 7902   3.219   2.412  12.960  0.5189 -1.4369  1.8092
  532TMC3    H2 7903   3.004   2.481  13.318  0.1176  1.7308 -0.4814
  532TMC3    C7 7904   3.220   2.383  13.226  0.4641  0.5218 -0.7619
  532TMC3    C8 7905   2.780   2.366  13.202  0.3996  0.9961 -0.0180
  532TMC3    O1 7906   3.315   2.454  13.259 -0.6033 -0.1083 -0.4140
  532TMC3    O2 7907   2.748   2.379  13.318  0.1368 -0.0469 -0.6609
  533TMC3    C1 7908   3.615   3.752  13.825  0.6751 -0.0007 -0.8608
  533TMC3    C2 7909   3.746   3.798  13.816  0.7441  0.5637  0.4005
  533TMC3    C3 7910   3.776   3.933  13.841 -0.9932 -0.0329  1.2319
  533TMC3    C4 7911   3.518   3.841  13.872 -0.4346  0.0985 -0.5036
  533TMC3    C5 7912   3.554   3.974  13.906 -0.2524 -0.2595  1.0085
  533TMC3    C6 7913   3.677   4.020  13.874 -0.1072 -0.2102  0.3746
  533TMC3     C 7914   3.606   3.614  13.881 -0.6236  0.3410 -0.2107
  533TMC3     O 7915   3.715   3.559  13.900 -0.8645  0.3711 -0.3643
  533TMC3     H 7916   3.821   3.725  13.786 -0.7638 -0.7587 -0.1914
  533TMC3    H1 7917   3.420   3.812  13.909 -1.5142  0.7422 -2.8809
  533TMC3    H2 7918   3.694   4.123  13.901 -0.5553 -0.4554  1.6022
  533TMC3    C7 7919   3.552   3.967  14.052  0.0385 -0.3539  0.5672
  533TMC3    C8 7920   3.911   3.962  13.874  0.6979 -0.1919  0.5691
  533TMC3    O1 7921   3.527   3.858  14.109 -0.0838  0.4709  0.4017
  533TMC3    O2 7922   3.988   3.875  13.920 -0.3237  0.0483 -0.5598
  534MPD2     C 7923   2.363   0.322   1.995  0.3927  0.2062  0.3146
  534MPD2    C1 7924   2.252   0.392   1.957  0.4241 -1.1394  0.2166
  534MPD2    C2 7925   2.152   0.330   1.888 -0.7850 -0.2426 -0.4179
  534MPD2    C3 7926   2.156   0.197   1.864  0.0123  0.0253 -0.4595
  534MPD2    C4 7927   2.272   0.124   1.901 -0.0107  0.3298  0.0636
  534MPD2    C5 7928   2.377   0.186   1.959 -0.8542 -0.4016 -0.1866
  534MPD2     H 7929   2.077   0.395   1.845 -2.2650  0.2191  2.8475
  534MPD2    H1 7930   2.275   0.016   1.889 -2.9626 -0.0425  2.5574
  534MPD2    H2 7931   2.457   0.366   2.025 -0.3455  1.7879  0.3129
  534MPD2    H3 7932   2.467   0.128   1.971  1.0717  2.1193 -2.4847
  534MPD2     N 7933   2.066   0.130   1.781 -0.6505 -0.4384  0.1625
  534MPD2    H5 7934   2.080   0.031   1.764  0.0011 -0.0121 -1.8514
  534MPD2    N1 7935   2.241   0.528   1.977 -0.0557  0.0678  0.3798
  534MPD2    H7 7936   2.155   0.568   1.941  1.1985 -0.6985 -3.5477
  535TMC3    C1 7937   1.871   0.089   1.660  0.4440 -0.2684  0.2153
  535TMC3    C2 7938   1.736   0.116   1.639 -0.3668  0.7140  0.2021
  535TMC3    C3 7939   1.666   0.052   1.547  0.0058  0.2556  0.1027
  535TMC3    C4 7940   1.942   0.003   1.578 -0.2992  0.6132 -0.9026
  535TMC3    C5 7941   1.862   4.662   1.482 -0.6427 -0.3344  0.1872
  535TMC3    C6 7942   1.729   4.684   1.462  0.3864 -0.3620 -0.3656
  535TMC3     C 7943   1.944   0.179   1.748 -0.0061 -0.2032 -0.2515
  535TMC3     O 7944   1.903   0.296   1.759  0.4607  0.0989  0.0336
  535TMC3     H 7945   1.687   0.177   1.714  0.2769  0.6155  0.7135
  535TMC3    H1 7946   2.049   0.009   1.562 -0.4138  3.4455 -0.6396
  535TMC3    H2 7947   1.668   4.631   1.390 -0.1770 -1.6484  1.0553
  535TMC3    C7 7948   1.929   4.580   1.385 -0.3196 -0.6081  0.3367
  535TMC3    C8 7949   1.524   0.055   1.541 -0.3550  0.1278 -0.2737
  535TMC3    O1 7950   1.871   4.544   1.283  0.4346  0.2985 -0.1560
  535TMC3    O2 7951   1.469   4.711   1.453  0.4921 -0.0278  0.2153
  536MPD2     C 7952   0.419   3.523  16.718  0.6439  0.0299 -0.6128
  536MPD2    C1 7953   0.299   3.468  16.751 -0.8918  0.6081 -0.3311
  536MPD2    C2 7954   0.198   3.451  16.656 -0.1606 -0.3502  0.1646
  536MPD2    C3 7955   0.226   3.482  16.523 -0.5088 -0.0402  0.1577
  536MPD2    C4 7956   0.349   3.534  16.491 -0.1657 -0.8383  0.4303
  536MPD2    C5 7957   0.439   3.556  16.587 -0.0627 -0.4090  0.3898
  536MPD2     H 7958   0.105   3.407  16.689  0.2701 -2.2425 -1.1028
  536MPD2    H1 7959   0.383   3.544  16.389 -0.4971 -0.0523  0.3966
  536MPD2    H2 7960   0.491   3.538  16.797 -1.1495  3.0564  0.4446
  536MPD2    H3 7961   0.534   3.599  16.559  0.6209 -2.2261 -0.1220
  536MPD2     N 7962   0.131   3.470  16.413  0.5697  0.1186 -0.1589
  536MPD2    H5 7963   0.163   3.484  16.318  0.4489  0.4928 -0.1466
  536MPD2    N1 7964   0.285   3.424  16.882  0.9344  0.2818 -0.4297
  536MPD2    H7 7965   0.361   3.440  16.948 -0.1814  0.9506  0.6951
  537TMC3    C1 7966   0.160   3.361  17.071 -0.2412 -0.0465  0.1900
  537TMC3    C2 7967   0.196   3.483  17.119 -0.5793  0.5923  0.1045
  537TMC3    C3 7968   0.209   3.493  17.254  0.8510  1.0035  0.0073
  537TMC3    C4 7969   0.124   3.258  17.146 -0.3811  0.8903  0.2941
  537TMC3    C5 7970   0.130   3.277  17.284 -0.0906 -0.0370  0.0923
  537TMC3    C6 7971   0.162   3.396  17.342 -0.3043 -0.4226 -0.1352
  537TMC3     C 7972   0.189   3.343  16.928 -0.1555  0.4220 -0.4854
  537TMC3     O 7973   0.127   3.254  16.872  0.6097  0.6152  0.1947
  537TMC3     H 7974   0.219   3.570  17.058  0.1152  0.3782  0.0649
  537TMC3    H1 7975   0.113   3.159  17.103 -0.4050  1.1362 -0.2651
  537TMC3    H2 7976   0.164   3.414  17.449  3.5092 -0.4543 -0.2130
  537TMC3    C7 7977   0.089   3.179  17.384 -0.9453 -0.1367 -0.1552
  537TMC3    C8 7978   0.299   3.591  17.310 -0.3244  0.5591  0.1111
  537TMC3    O1 7979   0.045   3.217  17.492 -0.1455  0.2319 -0.1934
  537TMC3    O2 7980   0.356   3.569  17.416  0.2659 -0.0030  0.0134
  538TMC3    C1 7981   1.491   1.751  10.947  0.1299 -0.4563 -0.2687
  538TMC3    C2 7982   1.568   1.696  10.848  0.5566 -0.5057 -0.4915
  538TMC3    C3 7983   1.538   1.722  10.719 -0.1440 -0.3417 -0.8026
  538TMC3    C4 7984   1.377   1.818  10.919 -0.2724  0.3298 -0.0476
  538TMC3    C5 7985   1.352   1.846  10.784  0.2403 -0.1500 -0.3378
  538TMC3    C6 7986   1.426   1.794  10.680 -0.1243 -0.1860 -0.5085
  538TMC3     C 7987   1.524   1.726  11.084 -0.1708 -0.8735 -0.6952
  538TMC3     O 7988   1.427   1.712  11.158 -0.0105 -0.0264 -0.2404
  538TMC3     H 7989   1.661   1.643  10.868 -0.0272 -1.8480 -1.2877
  538TMC3    H1 7990   1.317   1.852  11.002 -1.7534 -0.4962 -0.7735
  538TMC3    H2 7991   1.401   1.794  10.575 -1.2477  1.2738 -0.2459
  538TMC3    C7 7992   1.233   1.925  10.753 -0.1421  0.0329  0.0394
  538TMC3    C8 7993   1.626   1.692  10.615  0.1497 -0.2979 -0.3218
  538TMC3    O1 7994   1.156   1.936  10.849  0.2914  0.5926  0.0709
  538TMC3    O2 7995   1.673   1.577  10.618 -0.4269 -0.3400  0.7266
  539MPD2     C 7996   1.008   0.283  11.644  0.9445 -0.0258 -0.6411
  539MPD2    C1 7997   1.035   0.340  11.522  0.2082  0.0651  0.3929
  539MPD2    C2 7998   1.034   0.478  11.511 -0.4128  0.3636 -0.1720
  539MPD2    C3 7999   1.008   0.556  11.618 -0.2962  0.0457 -1.2988
  539MPD2    C4 8000   0.998   0.500  11.739 -0.6243 -1.6024 -0.0146
  539MPD2    C5 8001   0.991   0.367  11.758  0.1687 -0.6347  0.2030
  539MPD2     H 8002   1.042   0.529  11.416 -0.8075  1.2002  0.2461
  539MPD2    H1 8003   0.982   0.561  11.827 -2.4401 -2.3792  0.1918
  539MPD2    H2 8004   0.999   0.176  11.659 -1.9379  0.1192 -1.3283
  539MPD2    H3 8005   0.986   0.319  11.855 -0.5935 -0.9805 -0.0038
  539MPD2     N 8006   1.016   0.700  11.602 -0.6599 -0.1696  0.2581
  539MPD2    H5 8007   1.004   0.750  11.690  1.0654  0.8338 -0.0905
  539MPD2    N1 8008   1.080   0.277  11.406 -0.0332  0.5138  0.0233
  539MPD2    H7 8009   1.133   0.341  11.347 -0.1353  0.7901  0.2343
  540TMC3    C1 8010   0.989   0.918  11.533 -1.1423  0.1899  0.6951
  540TMC3    C2 8011   0.989   1.005  11.430  0.1401 -0.2388  0.6907
  540TMC3    C3 8012   0.947   1.132  11.453  0.6760  0.5881 -0.4826
  540TMC3    C4 8013   0.931   0.963  11.649  1.4228  0.2018  0.0425
  540TMC3    C5 8014   0.899   1.093  11.670  0.1777 -0.4072  0.5360
  540TMC3    C6 8015   0.911   1.190  11.573 -0.1261  0.2443 -0.3202
  540TMC3     C 8016   0.985   0.776  11.495 -0.1084  0.2276 -0.2902
  540TMC3     O 8017   0.965   0.741  11.381  0.6384  0.0607  0.4028
  540TMC3     H 8018   1.026   0.970  11.335  0.0555  2.0154 -0.1807
  540TMC3    H1 8019   0.915   0.899  11.735  0.5978  0.1473 -0.1544
  540TMC3    H2 8020   0.870   1.289  11.587  1.2183  0.5368  1.4996
  540TMC3    C7 8021   0.795   1.130  11.767  0.0989 -0.1932 -0.5756
  540TMC3    C8 8022   0.879   1.198  11.347  0.1346 -0.1538  0.2606
  540TMC3    O1 8023   0.716   1.043  11.797  0.5515  0.0388 -0.1420
  540TMC3    O2 8024   0.840   1.316  11.356 -0.3541 -0.4263 -0.0249
  541MPD2     C 8025   4.206   2.651  13.236  0.8241  0.4583 -0.1078
  541MPD2    C1 8026   4.214   2.557  13.137 -0.2224  0.3130 -0.3882
  541MPD2    C2 8027   4.215   2.601  13.002  0.1476  0.0944 -0.1083
  541MPD2    C3 8028   4.190   2.736  12.977  0.0457 -0.4307  0.2258
  541MPD2    C4 8029   4.188   2.826  13.077 -0.2652  0.4353 -0.3998
  541MPD2    C5 8030   4.202   2.786  13.209 -0.2938  0.4698  0.3086
  541MPD2     H 8031   4.223   2.537  12.915  1.5226  2.8639 -2.0140
  541MPD2    H1 8032   4.163   2.929  13.053  2.4254  1.7828  2.4657
  541MPD2    H2 8033   4.186   2.629  13.340 -2.0359  1.9387 -0.3286
  541MPD2    H3 8034   4.182   2.858  13.287  0.3734  0.0518  0.8702
  541MPD2     N 8035   4.155   2.773  12.848 -1.0640 -0.1259 -0.5850
  541MPD2    H5 8036   4.191   2.718  12.770 -0.4404  0.4790 -0.7278
  541MPD2    N1 8037   4.218   2.416  13.168 -0.6152 -0.0970  0.0717
  541MPD2    H7 8038   4.217   2.391  13.266  1.0290  0.9836  0.3495
  542TMC3    C1 8039   4.062   2.910  12.666  1.1160  0.1432 -0.9265
  542TMC3    C2 8040   4.061   2.802  12.577 -0.4298  0.1873 -0.3807
  542TMC3    C3 8041   4.020   2.827  12.447  0.2819 -0.8790  0.6326
  542TMC3    C4 8042   4.019   3.032  12.625 -0.7169 -0.0923  0.1317
  542TMC3    C5 8043   3.992   3.054  12.494 -0.6000  0.2871 -0.0790
  542TMC3    C6 8044   3.990   2.953  12.405  0.5240  0.8399  0.1253
  542TMC3     C 8045   4.092   2.892  12.808 -0.4577  0.5184  0.3312
  542TMC3     O 8046   4.049   2.981  12.878 -0.3393 -0.2604 -0.2038
  542TMC3     H 8047   4.093   2.707  12.617 -0.1496  0.2972 -0.3431
  542TMC3    H1 8048   4.010   3.110  12.700  0.3630  0.1128  0.0560
  542TMC3    H2 8049   3.988   2.982  12.301  1.2515  1.3768  0.2621
  542TMC3    C7 8050   3.922   3.171  12.444 -0.0670  0.5759 -0.1299
  542TMC3    C8 8051   4.037   2.725  12.345  0.0107  0.3268  0.0503
  542TMC3    O1 8052   3.832   3.153  12.359  0.2441  0.1959  0.2600
  542TMC3    O2 8053   3.986   2.746  12.237 -0.3320 -0.3259 -0.2628
  543TMC3    C1 8054   3.569   3.874   0.206 -0.4241 -0.2102 -0.4911
  543TMC3    C2 8055   3.587   3.740   0.226  0.4601  0.1212  0.1715
  543TMC3    C3 8056   3.551   3.698   0.354 -0.5333 -0.6440 -0.1430
  543TMC3    C4 8057   3.506   3.954   0.292  0.3695 -0.3813  0.0311
  543TMC3    C5 8058   3.480   3.911   0.419  0.2769  0.3534  0.0812
  543TMC3    C6 8059   3.509   3.784   0.455 -0.1782 -0.1517 -0.3446
  543TMC3     C 8060   3.637   3.927   0.092 -0.9977 -0.4442  0.8172
  543TMC3     O 8061   3.746   3.874   0.066 -0.1226 -0.2431 -0.5033
  543TMC3     H 8062   3.616   3.680   0.141 -3.1259 -2.4934  0.8091
  543TMC3    H1 8063   3.486   4.059   0.274  2.7028  0.5278  2.7489
  543TMC3    H2 8064   3.481   3.740   0.550  2.7317 -1.4107 -0.0572
  543TMC3    C7 8065   3.470   4.011   0.523 -0.5526 -0.2459 -0.8608
  543TMC3    C8 8066   3.581   3.559   0.391  0.1391 -0.0453  0.2853
  543TMC3    O1 8067   3.477   4.130   0.495 -0.5107  0.2172 -0.3020
  543TMC3    O2 8068   3.669   3.543   0.477  0.3558 -0.6704  0.3886
  544MPD2     C 8069   3.561   3.063   0.299  0.4636  0.2012 -0.6370
  544MPD2    C1 8070   3.623   3.136   0.397  0.1423  0.2824 -0.1143
  544MPD2    C2 8071   3.604   3.275   0.404 -0.4652  0.0426  0.4238
  544MPD2    C3 8072   3.543   3.342   0.298  0.3664  0.1135 -0.6764
  544MPD2    C4 8073   3.495   3.268   0.189 -0.0618 -0.2512  0.3071
  544MPD2    C5 8074   3.499   3.129   0.193 -0.1976  0.2278 -0.4063
  544MPD2     H 8075   3.635   3.326   0.495 -1.0265  1.1351  0.0062
  544MPD2    H1 8076   3.449   3.323   0.108  0.9722 -1.9371 -1.4183
  544MPD2    H2 8077   3.558   2.955   0.297 -1.4450  0.3010 -2.4917
  544MPD2    H3 8078   3.455   3.064   0.118 -1.8648 -0.7115  1.3940
  544MPD2     N 8079   3.528   3.478   0.297 -0.7752 -0.2353  0.6460
  544MPD2    H5 8080   3.476   3.514   0.218  0.5847 -1.8423 -0.9605
  544MPD2    N1 8081   3.699   3.059   0.492 -0.1535 -0.1226 -0.4773
  544MPD2    H7 8082   3.713   2.960   0.474  2.2350  0.5101 -2.1738
  545TMC3    C1 8083   3.876   3.013   0.643 -0.6603  0.0148 -0.3546
  545TMC3    C2 8084   4.000   3.075   0.666 -0.4165 -0.1189 -0.0656
  545TMC3    C3 8085   4.107   2.991   0.689  0.1245  0.0458 -0.4695
  545TMC3    C4 8086   3.861   2.876   0.626 -0.5407  0.3313 -0.0707
  545TMC3    C5 8087   3.977   2.798   0.648  0.6326  0.3731 -0.1937
  545TMC3    C6 8088   4.099   2.850   0.678 -0.2737 -0.4339  0.7423
  545TMC3     C 8089   3.777   3.110   0.590  0.1641  0.5171 -0.0400
  545TMC3     O 8090   3.781   3.228   0.625 -0.1220  0.2146  0.3383
  545TMC3     H 8091   4.016   3.181   0.683  1.3303 -0.4988  0.6116
  545TMC3    H1 8092   3.757   2.843   0.620 -0.6200  0.2911  1.4382
  545TMC3    H2 8093   4.184   2.785   0.697  1.2250  0.5765 -2.4552
  545TMC3    C7 8094   3.951   2.657   0.622  0.1580  0.3762  0.0418
  545TMC3    C8 8095   4.240   3.039   0.731  0.3486  0.0533  0.4652
  545TMC3    O1 8096   3.850   2.621   0.564  0.5331 -0.3790  0.3350
  545TMC3    O2 8097   4.328   2.955   0.751  0.3109 -0.0935  0.6057
  546MPD2     C 8098   0.856   3.946   0.174  0.4116  0.7167 -0.0327
  546MPD2    C1 8099   0.770   4.002   0.080 -0.1870  0.0818 -0.6241
  546MPD2    C2 8100   0.812   4.076  17.665 -0.4183 -0.1235 -0.5306
  546MPD2    C3 8101   0.945   4.126  17.673 -0.5438 -0.2132  0.1431
  546MPD2    C4 8102   1.027   4.083   0.087 -0.3512  0.4027  0.5010
  546MPD2    C5 8103   0.982   3.993   0.185  0.0622 -0.0360  0.2479
  546MPD2     H 8104   0.753   4.116  17.583 -0.8998 -0.6795 -0.4543
  546MPD2    H1 8105   1.130   4.114   0.092 -0.0031 -0.3114 -1.9795
  546MPD2    H2 8106   0.825   3.876   0.251  2.0906 -0.7302 -0.6742
  546MPD2    H3 8107   1.051   3.960   0.262  0.2829 -2.7975 -1.1113
  546MPD2     N 8108   1.014   4.196  17.569 -0.5570  0.1785  0.2084
  546MPD2    H5 8109   1.104   4.239  17.587  0.7134 -1.0954 -2.9268
  546MPD2    N1 8110   0.634   3.953   0.083  0.0959  0.1096 -0.2897
  546MPD2    H7 8111   0.618   3.866   0.134 -0.5226 -0.9407 -2.2682
  547TMC3    C1 8112   0.419   3.891  17.677  0.2058  0.1188  0.3585
  547TMC3    C2 8113   0.310   3.918  17.598  0.5607 -0.7119 -0.2893
  547TMC3    C3 8114   0.217   3.825  17.578 -0.2750  0.4016 -0.2192
  547TMC3    C4 8115   0.431   3.770   0.050  0.1097 -0.3226  0.5083
  547TMC3    C5 8116   0.331   3.682   0.026  0.1386  0.9769  0.2401
  547TMC3    C6 8117   0.223   3.706  17.640  0.0479 -0.5140  0.0294
  547TMC3     C 8118   0.529   3.984  17.687  0.0698  0.0191 -0.3573
  547TMC3     O 8119   0.516   4.089  17.620 -0.3588  0.0022 -0.3533
  547TMC3     H 8120   0.314   4.010  17.542  1.5486 -0.5559  0.0300
  547TMC3    H1 8121   0.516   3.746   0.114  0.5310  1.4376  0.6088
  547TMC3    H2 8122   0.137   3.641  17.643  0.3976 -1.0452 -1.3942
  547TMC3    C7 8123   0.357   3.551   0.088 -0.2681  0.6550  0.7054
  547TMC3    C8 8124   0.094   3.872  17.526  0.4586  0.0164 -0.5391
  547TMC3    O1 8125   0.403   3.541   0.198  0.3982 -0.0658 -0.5975
  547TMC3    O2 8126   0.024   3.788  17.474  0.3755  0.0899 -0.1174
  548MPD2     C 8127   0.170   4.054  12.337 -0.2528 -0.1008 -0.4824
  548MPD2    C1 8128   0.116   4.029  12.460  0.3442  0.3997 -0.0399
  548MPD2    C2 8129   0.144   3.903  12.518  0.0099 -0.3818  0.8817
  548MPD2    C3 8130   0.214   3.806  12.455 -0.0591  0.0512  0.8292
  548MPD2    C4 8131   0.252   3.825  12.326 -0.1381 -0.0523  0.1207
  548MPD2    C5 8132   0.241   3.952  12.278 -0.7786 -0.2891 -0.2999
  548MPD2     H 8133   0.091   3.879  12.610 -1.3061  0.1334  0.2534
  548MPD2    H1 8134   0.296   3.752  12.260  1.1660  1.5684 -0.7964
  548MPD2    H2 8135   0.169   4.147  12.282  2.1193 -0.5339 -1.2800
  548MPD2    H3 8136   0.287   3.971  12.182 -0.6051  1.5869  0.1545
  548MPD2     N 8137   0.215   3.674  12.501  0.5083 -0.0171  0.8927
  548MPD2    H5 8138   0.233   3.592  12.443 -1.1763 -0.2919  0.7532
  548MPD2    N1 8139   0.032   4.127  12.521 -0.6587  0.7704  0.6165
  548MPD2    H7 8140   0.005   4.209  12.467 -1.6770  0.5111  0.7233
  549TMC3    C1 8141   4.567   4.171  12.653 -0.0826  0.5548  0.2830
  549TMC3    C2 8142   4.523   4.250  12.552  0.4005  0.3425 -0.4792
  549TMC3    C3 8143   4.389   4.255  12.524 -0.3261 -0.0029 -0.0019
  549TMC3    C4 8144   4.477   4.084  12.707  0.1101 -0.7975 -0.5765
  549TMC3    C5 8145   4.346   4.083  12.662  0.1890 -0.6309 -0.7773
  549TMC3    C6 8146   4.299   4.174  12.573  0.0181 -0.2242 -0.4683
  549TMC3     C 8147   4.704   4.123  12.647 -0.5156 -0.0936  0.1614
  549TMC3     O 8148   0.015   4.043  12.729  0.2166 -0.1945 -0.2132
  549TMC3     H 8149   4.598   4.322  12.521  3.2697 -2.2936  0.3815
  549TMC3    H1 8150   4.510   4.024  12.791 -0.6749 -1.7467 -0.9425
  549TMC3    H2 8151   4.198   4.170  12.532 -0.5267 -0.0696  0.8840
  549TMC3    C7 8152   4.248   3.984  12.711  1.0562  0.5205 -0.6034
  549TMC3    C8 8153   4.339   4.367  12.452 -0.1316 -0.7669  0.3455
  549TMC3    O1 8154   4.127   4.013  12.714 -0.1832  0.2884 -0.8725
  549TMC3    O2 8155   4.215   4.378  12.431  0.2354  0.2849  0.4512
  550TMC3    C1 8156   3.809   2.364  12.259  0.6655 -0.5169  0.4598
  550TMC3    C2 8157   3.796   2.412  12.387 -0.0251  0.1943  0.1719
  550TMC3    C3 8158   3.733   2.527  12.408  0.0579 -0.4794 -0.5665
  550TMC3    C4 8159   3.762   2.441  12.154 -0.0065  0.6546 -0.5312
  550TMC3    C5 8160   3.707   2.561  12.184 -0.0954  0.2825  0.2280
  550TMC3    C6 8161   3.688   2.607  12.308  0.0391  1.3051 -0.0556
  550TMC3     C 8162   3.881   2.238  12.242 -0.4025 -0.4632 -0.6998
  550TMC3     O 8163   3.953   2.198  12.332 -0.0394  0.1778 -0.1181
  550TMC3     H 8164   3.811   2.344  12.470 -0.1459 -0.2570 -0.1692
  550TMC3    H1 8165   3.783   2.415  12.050 -0.1170  2.0557 -0.9046
  550TMC3    H2 8166   3.636   2.702  12.312  1.1854  1.9018  0.6352
  550TMC3    C7 8167   3.605   2.606  12.093  0.3194 -0.0908  0.2343
  550TMC3    C8 8168   3.694   2.568  12.547 -0.1108  0.1316 -0.4886
  550TMC3    O1 8169   3.561   2.721  12.109 -0.0931  0.0399 -0.0157
  550TMC3    O2 8170   3.726   2.682  12.579 -0.3784 -0.4382 -0.0101
  551TMC3    C1 8171   1.359   4.679  13.200  0.3903  0.3195  0.1987
  551TMC3    C2 8172   1.488   4.673  13.170  0.0883 -0.1405 -0.3002
  551TMC3    C3 8173   1.587   4.709  13.256  0.1268 -0.2976  0.2470
  551TMC3    C4 8174   1.319   0.027  13.312 -0.8179 -0.3387  0.0410
  551TMC3    C5 8175   1.419   0.078  13.396 -0.1201 -0.6448 -0.5669
  551TMC3    C6 8176   1.553   0.045  13.372  0.5045 -0.0820  0.5251
  551TMC3     C 8177   1.262   4.658  13.100  0.2304 -1.0486  0.2490
  551TMC3     O 8178   1.298   4.674  12.986  0.1402 -0.2259  0.2011
  551TMC3     H 8179   1.517   4.642  13.071 -0.1623  0.2357 -0.4898
  551TMC3    H1 8180   1.214   0.052  13.329  0.3614  2.7674  2.6327
  551TMC3    H2 8181   1.629   0.088  13.435  1.0453 -0.4741  0.1384
  551TMC3    C7 8182   1.392   0.157  13.515  0.0899  0.2660 -0.5861
  551TMC3    C8 8183   1.678   0.070  13.186  0.6101  0.0164  0.1940
  551TMC3    O1 8184   1.483   0.163  13.596  0.3196 -0.3301  0.1950
  551TMC3    O2 8185   1.672   0.187  13.214  0.3226  0.1552  0.2330
  552MPD2     C 8186   3.404   2.414  13.632  0.3907  0.3335 -0.6472
  552MPD2    C1 8187   3.353   2.366  13.747  0.1456  0.1798  0.1955
  552MPD2    C2 8188   3.432   2.346  13.858  0.2471  1.0720  0.5761
  552MPD2    C3 8189   3.566   2.386  13.863 -0.0731  0.1736  0.1606
  552MPD2    C4 8190   3.623   2.429  13.744  0.1350  0.1680  0.4662
  552MPD2    C5 8191   3.541   2.448  13.636  0.0024 -0.7490  0.4327
  552MPD2     H 8192   3.392   2.303  13.949 -0.8191  0.5712 -0.1338
  552MPD2    H1 8193   3.730   2.444  13.744 -0.0861  1.6736 -0.7936
  552MPD2    H2 8194   3.344   2.427  13.543 -1.1015  0.5926  0.3836
  552MPD2    H3 8195   3.578   2.476  13.538  2.5879  4.2571  2.8855
  552MPD2     N 8196   3.650   2.368  13.972  0.2173 -0.8118 -0.2487
  552MPD2    H5 8197   3.749   2.389  13.961  0.4968 -1.8208  0.3525
  552MPD2    N1 8198   3.219   2.307  13.751  0.2438  0.0588 -0.2471
  552MPD2    H7 8199   3.205   2.256  13.837  1.0115  0.3818  0.0754
  553TMC3    C1 8200   3.027   2.215  13.651 -0.2568 -0.0971 -0.1100
  553TMC3    C2 8201   2.982   2.166  13.533  0.4116 -0.0562 -0.0099
  553TMC3    C3 8202   2.898   2.058  13.542  0.2513  0.7590 -0.5188
  553TMC3    C4 8203   2.996   2.162  13.779 -0.0164  0.6907  1.5187
  553TMC3    C5 8204   2.910   2.060  13.777  0.3079 -0.5657  0.7557
  553TMC3    C6 8205   2.867   2.002  13.663  0.4845  1.0128  0.4752
  553TMC3     C 8206   3.142   2.294  13.637 -0.6095 -0.1754 -0.1913
  553TMC3     O 8207   3.138   2.357  13.535 -0.1238 -0.1234  0.4845
  553TMC3     H 8208   3.013   2.203  13.436 -0.3241  0.1893 -0.1532
  553TMC3    H1 8209   3.033   2.194  13.875  0.1092 -0.2276  1.7775
  553TMC3    H2 8210   2.801   1.918  13.680  1.8890 -0.4780 -1.3807
  553TMC3    C7 8211   2.928   1.953  13.874 -0.1027 -0.4912 -0.5217
  553TMC3    C8 8212   2.879   1.986  13.419 -0.4458  0.5354  1.0973
  553TMC3    O1 8213   2.827   1.923  13.939  0.2031 -0.8149  0.6499
  553TMC3    O2 8214   2.975   1.983  13.342  0.0731 -0.4965 -0.4323
  554TMC3    C1 8215   0.031   0.976  11.217 -0.1152  0.1069 -0.1182
  554TMC3    C2 8216   0.008   0.925  11.091  0.0986  0.3356 -0.0960
  554TMC3    C3 8217   0.091   0.960  10.988  0.6583 -0.8813 -0.3762
  554TMC3    C4 8218   0.121   1.076  11.230 -0.2003 -0.2078 -0.5132
  554TMC3    C5 8219   0.200   1.104  11.123 -0.1683 -0.6161  0.0695
  554TMC3    C6 8220   0.191   1.038  11.003  0.1090  0.5383  0.3316
  554TMC3     C 8221   4.719   0.889  11.329 -0.3261  0.1366 -0.0513
  554TMC3     O 8222   4.627   0.807  11.323 -0.1838  0.0142 -0.3998
  554TMC3     H 8223   4.650   0.855  11.072 -0.7238  1.1415  0.3992
  554TMC3    H1 8224   0.126   1.117  11.330 -0.0087 -0.2372 -0.5126
  554TMC3    H2 8225   0.268   1.060  10.930 -1.1036  2.8569 -0.2653
  554TMC3    C7 8226   0.239   1.243  11.104 -0.7836 -0.1141  0.4666
  554TMC3    C8 8227   0.040   0.961  10.851  0.1159 -0.1849 -0.0412
  554TMC3    O1 8228   0.292   1.268  10.995 -0.2955  0.0036 -0.2986
  554TMC3    O2 8229   0.083   1.043  10.776 -0.0054  0.2693  0.6228
  555TMC3    C1 8230   3.888   0.383  14.746  1.1194 -0.6621 -0.1519
  555TMC3    C2 8231   4.011   0.413  14.804 -0.0155 -0.5798  0.2507
  555TMC3    C3 8232   4.057   0.321  14.896  0.2766  0.0607  0.0205
  555TMC3    C4 8233   3.818   0.268  14.769  0.7801 -0.3397  0.2175
  555TMC3    C5 8234   3.877   0.188  14.857  0.3818 -0.0283 -0.2663
  555TMC3    C6 8235   3.998   0.203  14.922 -0.1049 -0.5148  0.3327
  555TMC3     C 8236   3.855   0.477  14.645 -0.4095 -0.4235  0.1137
  555TMC3     O 8237   3.950   0.507  14.571 -0.5991  0.1286 -0.7440
  555TMC3     H 8238   4.062   0.505  14.775  0.3939 -0.7798  0.3447
  555TMC3    H1 8239   3.721   0.244  14.727  0.7388  1.3353 -0.6450
  555TMC3    H2 8240   4.029   0.132  14.997 -3.0834 -2.6410 -0.4701
  555TMC3    C7 8241   3.813   0.066  14.903 -1.3264  0.2985 -0.5539
  555TMC3    C8 8242   4.180   0.365  14.965 -0.6020  0.9446 -0.4780
  555TMC3    O1 8243   3.800   0.044  15.027 -0.2353 -0.5425  0.1048
  555TMC3    O2 8244   4.224   0.477  14.938 -0.7764  0.4490 -0.1782
  556MPD2     C 8245   1.530   2.740  10.703 -0.2763 -0.1609 -0.9661
  556MPD2    C1 8246   1.598   2.626  10.722 -0.4880 -0.6015  0.1574
  556MPD2    C2 8247   1.655   2.566  10.608 -0.4655  0.0045  0.1676
  556MPD2    C3 8248   1.640   2.619  10.480 -0.2911 -0.2821 -0.2595
  556MPD2    C4 8249   1.577   2.739  10.469 -0.4777  0.4146 -0.2537
  556MPD2    C5 8250   1.515   2.796  10.578 -0.3613  0.3479  0.2889
  556MPD2     H 8251   1.707   2.471  10.611 -0.2809  0.0747 -0.8433
  556MPD2    H1 8252   1.547   2.783  10.375 -2.4246  2.3304  1.2757
  556MPD2    H2 8253   1.491   2.805  10.780 -1.2382 -0.6584 -1.0373
  556MPD2    H3 8254   1.446   2.879  10.563  0.5283  1.2167  1.0457
  556MPD2     N 8255   1.687   2.544  10.364 -0.2517 -0.6374 -0.2720
  556MPD2    H5 8256   1.728   2.453  10.383 -0.2530 -0.2070  1.8572
  556MPD2    N1 8257   1.623   2.568  10.850 -0.0180  0.5802 -0.2469
  556MPD2    H7 8258   1.681   2.485  10.854 -3.5176 -1.8315  0.0671
  557TMC3    C1 8259   1.652   2.469  10.157 -0.8929 -0.5935  0.2159
  557TMC3    C2 8260   1.587   2.494  10.043  0.2128  0.1477 -0.2251
  557TMC3    C3 8261   1.571   2.382   9.962 -0.2070  0.1637  0.3668
  557TMC3    C4 8262   1.743   2.368  10.173  0.3247 -1.0326 -0.7646
  557TMC3    C5 8263   1.739   2.263  10.088 -0.2188 -0.5198 -0.3771
  557TMC3    C6 8264   1.655   2.269   9.982  0.5382  0.1947 -0.7416
  557TMC3     C 8265   1.678   2.589  10.236  0.3838 -0.2676 -1.0822
  557TMC3     O 8266   1.661   2.702  10.190  0.4042 -0.2012 -0.4975
  557TMC3     H 8267   1.530   2.585  10.030 -0.1155  0.0950  0.8569
  557TMC3    H1 8268   1.816   2.369  10.254 -2.3031 -0.3554  1.6207
  557TMC3    H2 8269   1.649   2.184   9.916 -0.8140  0.3161 -0.7737
  557TMC3    C7 8270   1.716   2.146  10.172 -0.0767  0.9679 -0.0157
  557TMC3    C8 8271   1.495   2.394   9.837 -0.0297 -0.5382  0.7521
  557TMC3    O1 8272   1.659   2.172  10.280 -0.0698  0.1376 -0.0342
  557TMC3    O2 8273   1.428   2.495   9.824  0.0753  0.4766  0.1318
  558TMC3    C1 8274   4.358   0.117  10.322  0.0654  0.6043 -0.2116
  558TMC3    C2 8275   4.237   0.080  10.376  0.0578 -0.7922  0.2114
  558TMC3    C3 8276   4.122   0.118  10.309 -0.5790 -0.3573  0.4705
  558TMC3    C4 8277   4.370   0.187  10.199 -0.2526 -0.4617 -0.2586
  558TMC3    C5 8278   4.252   0.220  10.141 -0.7148  0.2188  0.9012
  558TMC3    C6 8279   4.126   0.186  10.186 -0.1488  0.2504 -0.5771
  558TMC3     C 8280   4.489   0.072  10.383 -0.4230  0.5665  1.0530
  558TMC3     O 8281   4.593   0.099  10.323 -0.3703 -0.0185  0.0014
  558TMC3     H 8282   4.226   0.013  10.460 -0.0830 -0.7838  0.2003
  558TMC3    H1 8283   4.464   0.213  10.154  0.4154 -0.2603  1.2686
  558TMC3    H2 8284   4.039   0.230  10.138 -1.9740 -1.2072  1.3455
  558TMC3    C7 8285   4.257   0.192  10.001 -0.4921  0.4813 -0.4489
  558TMC3    C8 8286   3.992   0.100  10.372  0.3755  0.2886 -0.2482
  558TMC3    O1 8287   4.148   0.211   9.944 -0.0094 -0.1739 -0.4712
  558TMC3    O2 8288   3.904   0.173  10.330  0.5352  0.2334 -0.6785
  559MPD2     C 8289   4.473   0.456  10.384  0.1531  0.8633 -0.8753
  559MPD2    C1 8290   4.391   0.400  10.487 -0.1659  0.2462  1.0342
  559MPD2    C2 8291   4.449   0.340  10.598 -0.1057 -0.4309  0.0652
  559MPD2    C3 8292   4.586   0.336  10.613  0.4031 -0.8739  0.2882
  559MPD2    C4 8293   4.665   0.384  10.511 -0.7960 -0.4583 -0.1412
  559MPD2    C5 8294   4.607   0.438  10.399  0.3610 -0.0161 -0.1012
  559MPD2     H 8295   4.398   0.290  10.679 -0.4632  0.9406  0.6997
  559MPD2    H1 8296   0.049   0.362  10.505 -0.3731  0.8155  2.7629
  559MPD2    H2 8297   4.432   0.504  10.295 -0.7686 -0.4496 -1.1625
  559MPD2    H3 8298   4.679   0.478  10.329  0.2611 -0.6158 -0.5479
  559MPD2     N 8299   4.650   0.280  10.731  0.6956 -0.4198  0.0755
  559MPD2    H5 8300   4.587   0.266  10.809 -0.1915 -1.3202 -0.8019
  559MPD2    N1 8301   4.252   0.419  10.476  0.3671  0.5443 -0.1114
  559MPD2    H7 8302   4.225   0.483  10.402  2.6585  1.0028 -0.5515
  560TMC3    C1 8303   0.081   0.215  10.896 -0.2461  0.0582  0.3304
  560TMC3    C2 8304   4.689   0.155  10.959 -0.4528  0.1511 -0.5660
  560TMC3    C3 8305   4.702   0.132  11.100 -0.0214  0.5543 -0.4600
  560TMC3    C4 8306   0.196   0.247  10.964 -0.0186 -0.1052 -0.2133
  560TMC3    C5 8307   0.198   0.222  11.096  0.4260  0.2857  0.2560
  560TMC3    C6 8308   0.099   0.153  11.168 -0.8555 -0.5796 -0.6431
  560TMC3     C 8309   0.062   0.269  10.762  1.0910 -0.1552 -0.1543
  560TMC3     O 8310   0.163   0.293  10.695 -0.3277 -0.3396  0.0389
  560TMC3     H 8311   4.602   0.128  10.900  0.3130 -1.4969 -0.9562
  560TMC3    H1 8312   0.285   0.279  10.910  2.2043 -0.1682  3.4102
  560TMC3    H2 8313   0.107   0.137  11.275  0.6968  1.6212 -0.4240
  560TMC3    C7 8314   0.319   0.224  11.169  1.1071 -0.0811 -0.8515
  560TMC3    C8 8315   4.588   0.054  11.150 -0.4921 -0.5609 -0.1135
  560TMC3    O1 8316   0.335   0.146  11.259 -0.2316 -0.0114  0.2624
  560TMC3    O2 8317   4.537   4.707  11.062  0.9749 -0.2691 -0.4183
  561TMC3    C1 8318   2.504   4.288  11.641  0.4809 -0.9263  0.7855
  561TMC3    C2 8319   2.429   4.231  11.741  0.2108 -0.9947 -0.6532
  561TMC3    C3 8320   2.361   4.318  11.819  0.0676  0.4926 -0.1908
  561TMC3    C4 8321   2.507   4.421  11.617 -0.4866 -1.1849  0.8403
  561TMC3    C5 8322   2.433   4.501  11.697 -0.1376 -0.1431 -0.2483
  561TMC3    C6 8323   2.360   4.451  11.799 -0.2749 -0.6079  0.1790
  561TMC3     C 8324   2.593   4.199  11.578 -0.1264  0.0289 -0.5448
  561TMC3     O 8325   2.648   4.105  11.638 -0.4861  0.4047 -0.7263
  561TMC3     H 8326   2.416   4.125  11.761  1.2055 -0.8159  0.9658
  561TMC3    H1 8327   2.567   4.461  11.536  0.4110 -2.7935  0.7173
  561TMC3    H2 8328   2.301   4.520  11.858  0.6779 -0.2947  0.7673
  561TMC3    C7 8329   2.382   4.631  11.640 -0.2367  0.0407 -0.0641
  561TMC3    C8 8330   2.284   4.261  11.923 -0.2828  0.1377  0.5498
  561TMC3    O1 8331   2.275   4.669  11.679 -0.8301 -0.2321 -0.6125
  561TMC3    O2 8332   2.321   4.151  11.968  0.4623  0.0744 -0.5466
  562TMC3    C1 8333   3.676   1.048  16.121 -0.4363  0.6162 -0.4770
  562TMC3    C2 8334   3.595   1.139  16.065 -0.1196  0.2029 -0.2226
  562TMC3    C3 8335   3.608   1.164  15.931  0.7521  0.5029 -0.1802
  562TMC3    C4 8336   3.760   0.969  16.045 -0.7059 -0.5160  0.2648
  562TMC3    C5 8337   3.761   0.990  15.910 -0.5272 -0.0345 -0.2143
  562TMC3    C6 8338   3.697   1.094  15.849  0.3610  0.6269 -0.6236
  562TMC3     C 8339   3.659   1.043  16.262 -0.0420  0.1906  0.1261
  562TMC3     O 8340   3.542   1.059  16.298  0.0521 -0.3447 -0.6064
  562TMC3     H 8341   3.531   1.199  16.130  0.2362  0.8239 -0.4452
  562TMC3    H1 8342   3.821   0.888  16.086 -0.9457 -0.3891  0.8730
  562TMC3    H2 8343   3.692   1.100  15.741  1.9403  1.0691 -0.6694
  562TMC3    C7 8344   3.827   0.902  15.814  0.0612  0.1715  0.4466
  562TMC3    C8 8345   3.489   1.216  15.860 -0.1865 -0.2395  0.5894
  562TMC3    O1 8346   3.868   0.951  15.710 -0.1911 -0.4659 -0.6633
  562TMC3    O2 8347   3.385   1.193  15.919  0.0996 -0.1773 -0.3879
  563MPD2     C 8348   1.168   1.648  15.535 -0.5862  0.5481 -0.2963
  563MPD2    C1 8349   1.199   1.777  15.508  0.2257  0.2417  0.3818
  563MPD2    C2 8350   1.311   1.833  15.555 -0.4518 -0.1951  0.2319
  563MPD2    C3 8351   1.398   1.755  15.633  0.1683 -0.3478 -0.0017
  563MPD2    C4 8352   1.372   1.622  15.656  1.1166  0.1243  0.2469
  563MPD2    C5 8353   1.258   1.571  15.602 -0.2003  0.9436 -0.2002
  563MPD2     H 8354   1.335   1.939  15.553  1.7764 -0.6891  1.4244
  563MPD2    H1 8355   1.448   1.562  15.704 -0.6351 -2.4769 -0.2292
  563MPD2    H2 8356   1.079   1.606  15.489 -0.2877  0.0173 -0.3813
  563MPD2    H3 8357   1.236   1.465  15.606  0.7699  0.9446  4.7556
  563MPD2     N 8358   1.508   1.823  15.688 -0.8082 -0.7488 -0.1673
  563MPD2    H5 8359   1.530   1.918  15.659  1.0128 -1.4495 -1.0596
  563MPD2    N1 8360   1.112   1.860  15.441  0.6484  0.0540  0.4266
  563MPD2    H7 8361   1.022   1.816  15.425  0.0307  1.2124  0.6650
  564TMC3    C1 8362   1.035   2.072  15.421  0.2681  0.6644  0.7545
  564TMC3    C2 8363   0.916   2.004  15.425  0.1514 -0.5227  0.6225
  564TMC3    C3 8364   0.842   1.983  15.537  0.2049 -0.5552  0.4412
  564TMC3    C4 8365   1.081   2.141  15.531  0.3494 -0.5018 -0.1543
  564TMC3    C5 8366   1.012   2.114  15.644 -0.5182 -0.4510  0.0464
  564TMC3    C6 8367   0.888   2.053  15.648  0.0774 -0.0819 -0.4808
  564TMC3     C 8368   1.142   1.985  15.384 -0.5650  0.5422 -0.2222
  564TMC3     O 8369   1.250   2.029  15.346 -0.4250  0.4979  0.3532
  564TMC3     H 8370   0.890   1.950  15.334  0.9659 -0.3920  0.3068
  564TMC3    H1 8371   1.176   2.192  15.530  0.4294 -0.7205 -2.9445
  564TMC3    H2 8372   0.837   2.054  15.743  1.8222  3.2346  0.4389
  564TMC3    C7 8373   1.100   2.080  15.761 -0.4917 -0.0212 -0.4328
  564TMC3    C8 8374   0.825   1.843  15.578 -0.3072  0.4955 -0.0540
  564TMC3    O1 8375   1.196   2.148  15.788  0.5807  0.1193 -0.0201
  564TMC3    O2 8376   0.843   1.837  15.702 -0.4071 -0.3778  0.5409
  565TMC3    C1 8377   1.601   3.447  10.583 -0.0494 -0.1493  0.6275
  565TMC3    C2 8378   1.637   3.387  10.704 -0.2905  0.0369  0.7701
  565TMC3    C3 8379   1.605   3.254  10.718 -0.8772  0.1631  0.7168
  565TMC3    C4 8380   1.535   3.377  10.490 -0.0171 -0.3751 -0.0710
  565TMC3    C5 8381   1.499   3.247  10.514  0.7005  0.8571  0.2909
  565TMC3    C6 8382   1.537   3.177  10.622  0.2816  0.0214 -0.8797
  565TMC3     C 8383   1.655   3.577  10.557  0.0717 -0.3895 -0.2271
  565TMC3     O 8384   1.626   3.635  10.453  0.4698  0.1694  0.6447
  565TMC3     H 8385   1.690   3.426  10.789 -0.8541  1.7915  0.3177
  565TMC3    H1 8386   1.505   3.424  10.398 -2.6399 -1.2175  0.3661
  565TMC3    H2 8387   1.493   3.087  10.664  2.0601 -1.0740 -1.3262
  565TMC3    C7 8388   1.389   3.181  10.445 -0.0094 -0.1031 -0.0275
  565TMC3    C8 8389   1.675   3.173  10.819  0.2791 -0.0510 -0.0919
  565TMC3    O1 8390   1.325   3.103  10.513 -0.1961  0.5522 -0.2019
  565TMC3    O2 8391   1.710   3.234  10.921 -0.7571 -0.1616  0.0432
  566MPD2     C 8392   2.969   0.445  14.206 -0.3804 -0.5787 -0.6085
  566MPD2    C1 8393   3.021   0.535  14.117  0.1175 -0.5142 -0.3535
  566MPD2    C2 8394   2.957   0.561  14.001 -0.4678 -0.0918  0.0906
  566MPD2    C3 8395   2.847   0.492  13.966  0.8413 -0.0546  0.7659
  566MPD2    C4 8396   2.797   0.402  14.057 -0.0511 -0.2609 -0.9880
  566MPD2    C5 8397   2.861   0.370  14.176 -1.0222  0.6767  0.2190
  566MPD2     H 8398   2.984   0.641  13.932  0.4790  0.1567  0.7502
  566MPD2    H1 8399   2.709   0.343  14.035 -1.6519  1.5598  0.4775
  566MPD2    H2 8400   3.016   0.421  14.300 -0.0217 -1.2631 -0.9638
  566MPD2    H3 8401   2.817   0.295  14.241 -0.2010 -1.3588 -1.5845
  566MPD2     N 8402   2.773   0.502  13.844 -0.5865  0.0325 -0.3952
  566MPD2    H5 8403   2.683   0.455  13.853 -0.4626  0.0931  1.1291
  566MPD2    N1 8404   3.151   0.579  14.144  1.2255  0.2390  0.7701
  566MPD2    H7 8405   3.190   0.542  14.229  0.6621 -2.3892 -0.1055
  567TMC3    C1 8406   3.364   0.649  14.100 -0.5355 -0.6831 -0.3175
  567TMC3    C2 8407   3.458   0.706  14.018  0.4377  0.3631 -0.0097
  567TMC3    C3 8408   3.591   0.675  14.039  0.2047 -0.4251 -0.0481
  567TMC3    C4 8409   3.406   0.570  14.200 -0.6089  0.7319 -0.0381
  567TMC3    C5 8410   3.532   0.531  14.204 -0.3096 -0.4099  0.8207
  567TMC3    C6 8411   3.629   0.585  14.136  0.1611 -0.8284  0.4191
  567TMC3     C 8412   3.226   0.659  14.070  0.9827  0.5477  0.2495
  567TMC3     O 8413   3.195   0.726  13.972 -0.2674 -0.6984 -0.3620
  567TMC3     H 8414   3.430   0.780  13.944 -0.4108  0.4892  0.4399
  567TMC3    H1 8415   3.342   0.533  14.280 -0.5025  0.5452 -0.0390
  567TMC3    H2 8416   3.732   0.552  14.140  0.2462 -0.6711 -0.4086
  567TMC3    C7 8417   3.573   0.414  14.282  1.0526  0.9911  0.2001
  567TMC3    C8 8418   3.675   0.696  13.921  0.5014 -0.4466 -0.4448
  567TMC3    O1 8419   3.680   0.366  14.253  0.1064  0.4957  0.1768
  567TMC3    O2 8420   3.618   0.747  13.827  0.2686  0.3109  0.2915
  568MPD2     C 8421   0.893   0.472  16.369  0.0632 -0.5917  0.0034
  568MPD2    C1 8422   0.887   0.582  16.453 -0.6365 -0.6914 -0.2616
  568MPD2    C2 8423   0.858   0.703  16.397 -0.4684  0.2638  0.2239
  568MPD2    C3 8424   0.847   0.715  16.256  0.2812  0.2727 -0.4933
  568MPD2    C4 8425   0.844   0.604  16.177 -0.6472  0.1168  0.4570
  568MPD2    C5 8426   0.870   0.486  16.238  0.1759  0.4858  0.1631
  568MPD2     H 8427   0.854   0.791  16.460 -2.2711  1.0487 -0.9666
  568MPD2    H1 8428   0.844   0.612  16.069  0.3459 -4.1630  0.1517
  568MPD2    H2 8429   0.921   0.376  16.412  1.4498 -0.1741  0.0448
  568MPD2    H3 8430   0.878   0.394  16.181  0.3055  0.3004  0.4809
  568MPD2     N 8431   0.853   0.854  16.211 -0.1122  0.6872  0.2377
  568MPD2    H5 8432   0.879   0.923  16.282  0.9395  0.7821 -0.2427
  568MPD2    N1 8433   0.924   0.560  16.588  0.3570 -0.5184  0.7090
  568MPD2    H7 8434   0.978   0.477  16.609  0.8140 -0.9851 -2.4101
  569TMC3    C1 8435   0.883   1.030  16.049  0.1467 -0.3917 -0.0460
  569TMC3    C2 8436   0.864   1.124  16.147 -0.2646  0.3976  0.1984
  569TMC3    C3 8437   0.922   1.248  16.121  0.3348 -0.3824  0.4769
  569TMC3    C4 8438   0.937   1.060  15.930  0.4912  0.6513 -0.1291
  569TMC3    C5 8439   0.966   1.187  15.902 -0.4146  0.1622  0.5958
  569TMC3    C6 8440   0.967   1.285  15.997  0.3342 -0.3214 -0.1522
  569TMC3     C 8441   0.849   0.890  16.079  0.0440  0.0486 -0.3195
  569TMC3     O 8442   0.808   0.831  15.983  0.3938  0.0130  0.3486
  569TMC3     H 8443   0.814   1.114  16.243 -0.3485  1.4053  0.2673
  569TMC3    H1 8444   0.960   0.982  15.858 -2.7837  0.3064 -0.7981
  569TMC3    H2 8445   1.004   1.384  15.973 -3.2456  0.6693 -1.5775
  569TMC3    C7 8446   0.939   1.220  15.764 -0.1740 -0.3707 -0.8299
  569TMC3    C8 8447   0.875   1.360  16.195 -0.2014 -0.2892 -0.3613
  569TMC3    O1 8448   0.966   1.130  15.684 -0.1503 -0.5885  0.0750
  569TMC3    O2 8449   0.754   1.357  16.217  0.3296 -0.3092  0.2516
  570TMC3    C1 8450   0.397   4.491  16.330 -0.4800  0.7931 -0.1130
  570TMC3    C2 8451   0.479   4.515  16.226  0.2370 -0.2804 -0.6814
  570TMC3    C3 8452   0.435   4.577  16.116  0.2767  0.2731 -0.3658
  570TMC3    C4 8453   0.266   4.519  16.328  0.0670 -0.2482  0.4206
  570TMC3    C5 8454   0.216   4.585  16.215 -0.0074  0.7856  1.0764
  570TMC3    C6 8455   0.302   4.619  16.112 -0.1195  0.1252  0.1035
  570TMC3     C 8456   0.453   4.409  16.434  0.3290  0.7980  0.0273
  570TMC3     O 8457   0.518   4.310  16.399 -0.6241 -0.0675  0.2036
  570TMC3     H 8458   0.584   4.488  16.238  0.7498  2.6686  1.4412
  570TMC3    H1 8459   0.200   4.500  16.411  0.2874 -3.7231 -0.1948
  570TMC3    H2 8460   0.262   4.686  16.037  0.2015  0.4543  0.2237
  570TMC3    C7 8461   0.070   4.567  16.179  0.2791 -0.4850 -0.0636
  570TMC3    C8 8462   0.534   4.639  16.027 -0.4128 -0.3927  0.4829
  570TMC3    O1 8463   0.038   4.453  16.168  0.0417 -0.1317  0.0687
  570TMC3    O2 8464   0.651   4.651  16.062 -0.5834 -0.0405 -0.2769
  571MPD2     C 8465   3.233   1.580  17.169  0.5141  0.6012 -0.0568
  571MPD2    C1 8466   3.301   1.636  17.280 -0.6300 -0.0700  0.7013
  571MPD2    C2 8467   3.232   1.718  17.365 -0.1495 -0.5023 -0.4031
  571MPD2    C3 8468   3.097   1.727  17.367  0.6517 -0.9751 -0.4850
  571MPD2    C4 8469   3.029   1.663  17.268 -0.1196  0.5008 -0.0531
  571MPD2    C5 8470   3.096   1.600  17.168 -0.6115  0.2817  0.0049
  571MPD2     H 8471   3.291   1.772  17.439  0.2970  1.2216 -1.9940
  571MPD2    H1 8472   2.922   1.647  17.272 -0.3890  2.2021 -0.7534
  571MPD2    H2 8473   3.280   1.518  17.093 -1.0266 -0.3690 -0.2126
  571MPD2    H3 8474   3.030   1.546  17.102  0.4926 -0.3746 -0.5558
  571MPD2     N 8475   3.025   1.809  17.457  0.4305  0.1431 -0.0218
  571MPD2    H5 8476   2.923   1.807  17.452  0.4975  2.8539 -2.1409
  571MPD2    N1 8477   3.443   1.626  17.278 -0.1577 -0.1993 -0.0736
  571MPD2    H7 8478   3.492   1.577  17.203  0.2478 -0.1963  0.1863
  572TMC3    C1 8479   2.982   1.956  17.629  0.2965 -0.2423 -0.5240
  572TMC3    C2 8480   2.875   1.878  17.654  0.2924  0.1343 -0.0830
  572TMC3    C3 8481   2.764   1.939   0.023  0.4471  0.4044 -0.0414
  572TMC3    C4 8482   2.980   2.092  17.658  0.3231  0.3422  0.4679
  572TMC3    C5 8483   2.870   2.148   0.019 -0.1347  0.7059  0.9900
  572TMC3    C6 8484   2.755   2.076   0.047 -0.1452  0.0026  0.6334
  572TMC3     C 8485   3.082   1.904  17.541 -0.2564 -0.2223 -0.2468
  572TMC3     O 8486   3.187   1.961  17.524  0.2034 -0.1615  0.9796
  572TMC3     H 8487   2.882   1.770  17.649 -0.0924 -0.0101  2.2676
  572TMC3    H1 8488   3.071   2.144  17.630  1.3606 -2.4118 -1.2983
  572TMC3    H2 8489   2.678   2.125   0.105  1.3027  1.1034  1.6134
  572TMC3    C7 8490   2.841   2.283  17.672 -0.5702  0.2451 -0.2290
  572TMC3    C8 8491   2.655   1.855   0.079  0.2764  0.8354 -0.9229
  572TMC3    O1 8492   2.722   2.301  17.647 -0.4045  0.0530  0.1418
  572TMC3    O2 8493   2.646   1.741   0.043 -0.0845  0.1990 -0.2686
  573MPD2     C 8494   0.299   2.018   1.193 -0.5219 -0.4529  0.0641
  573MPD2    C1 8495   0.273   2.143   1.139  0.2841  0.3516  0.1378
  573MPD2    C2 8496   0.203   2.154   1.012 -0.0656  0.6315 -0.5159
  573MPD2    C3 8497   0.157   2.038   0.943  0.2372  0.0572 -0.5527
  573MPD2    C4 8498   0.169   1.922   1.011  0.2114 -0.3096  0.3996
  573MPD2    C5 8499   0.235   1.909   1.138 -0.7419  0.0434 -0.3882
  573MPD2     H 8500   0.198   2.251   0.965 -2.6441  1.0975  0.6783
  573MPD2    H1 8501   0.127   1.840   0.954 -0.5171  0.1697  0.2556
  573MPD2    H2 8502   0.343   2.016   1.293  0.3584  0.7975 -0.2918
  573MPD2    H3 8503   0.258   1.812   1.182 -0.7078 -1.0018 -2.7398
  573MPD2     N 8504   0.105   2.059   0.810 -0.6093 -0.7927  0.4174
  573MPD2    H5 8505   0.075   1.979   0.755  0.4265  0.0762 -1.4024
  573MPD2    N1 8506   0.324   2.258   1.201 -0.2411 -0.2595 -0.2706
  573MPD2    H7 8507   0.375   2.249   1.289 -0.3896  1.2570 -0.0345
  574TMC3    C1 8508   0.028   2.161   0.615  0.5320  0.7911 -0.6456
  574TMC3    C2 8509   4.635   2.088   0.613  0.2300 -0.0177  1.1071
  574TMC3    C3 8510   4.556   2.110   0.500  0.1172 -0.2474 -0.5282
  574TMC3    C4 8511   0.054   2.262   0.522  0.3932 -0.0979  0.0157
  574TMC3    C5 8512   4.697   2.276   0.410 -0.1106  0.4362  0.4867
  574TMC3    C6 8513   4.584   2.200   0.403 -0.3472 -0.0053  0.3709
  574TMC3     C 8514   0.103   2.176   0.736  0.0698 -1.1970  0.0304
  574TMC3     O 8515   0.131   2.295   0.769 -0.2082  0.3468  0.2890
  574TMC3     H 8516   4.592   2.043   0.702 -0.1277  1.4136  1.6749
  574TMC3    H1 8517   0.145   2.319   0.535  0.4049  0.1923 -1.3602
  574TMC3    H2 8518   4.510   2.217   0.325 -0.1921 -1.4598 -0.0948
  574TMC3    C7 8519   0.003   2.373   0.305 -0.2215  0.6979  0.1837
  574TMC3    C8 8520   4.411   2.106   0.530  0.1283  0.3211  0.1292
  574TMC3    O1 8521   4.637   2.393   0.222  0.8932  0.3523  0.0961
  574TMC3    O2 8522   4.360   1.999   0.567  0.0393 -0.4464 -0.3070
  575TMC3    C1 8523   1.970   2.963  11.577  0.3690  0.0150 -0.0944
  575TMC3    C2 8524   2.044   2.853  11.609  0.1890 -0.3243  0.3495
  575TMC3    C3 8525   2.107   2.787  11.504  0.4283 -0.3592 -0.7711
  575TMC3    C4 8526   1.970   3.021  11.446  0.7029 -0.1573 -0.2997
  575TMC3    C5 8527   2.035   2.949  11.348  0.3470 -0.0645  0.2882
  575TMC3    C6 8528   2.103   2.830  11.373 -0.2633  0.2965  0.5521
  575TMC3     C 8529   1.906   3.031  11.690 -0.4345 -0.0166 -0.9739
  575TMC3     O 8530   1.955   3.028  11.802 -0.4178  0.6752  0.0757
  575TMC3     H 8531   2.037   2.820  11.712  0.4156  1.0531  0.8070
  575TMC3    H1 8532   1.927   3.120  11.433  0.5120 -0.4604 -1.9399
  575TMC3    H2 8533   2.164   2.783  11.297 -0.2265  2.3208 -0.6680
  575TMC3    C7 8534   1.984   2.977  11.217  0.5068 -0.0835 -0.2929
  575TMC3    C8 8535   2.212   2.700  11.537  0.7877  0.5050 -0.0694
  575TMC3    O1 8536   1.925   3.084  11.202 -0.3758 -0.9951 -0.1709
  575TMC3    O2 8537   2.281   2.652  11.449 -0.7116 -1.0120  0.1485
  576MPD2     C 8538   1.023   0.112  12.538  0.0825  0.5796 -0.1320
  576MPD2    C1 8539   1.123   0.197  12.487  0.6937  0.2540 -0.5718
  576MPD2    C2 8540   1.115   0.326  12.526  0.5214  0.1909 -0.7847
  576MPD2    C3 8541   1.020   0.370  12.614  0.8820 -0.2446 -0.3577
  576MPD2    C4 8542   0.927   0.287  12.665 -0.5218  0.6853  0.4201
  576MPD2    C5 8543   0.925   0.154  12.627  0.4478  0.4359  0.7298
  576MPD2     H 8544   1.187   0.394  12.483  0.0073  1.9116  1.0969
  576MPD2    H1 8545   0.851   0.323  12.733  1.0099 -0.7176  2.8974
  576MPD2    H2 8546   1.008   0.013  12.499  1.3266  0.3128  0.0670
  576MPD2    H3 8547   0.850   0.081  12.658  1.7069 -1.4556 -0.6622
  576MPD2     N 8548   1.026   0.510  12.635  0.5946 -0.8374  1.0884
  576MPD2    H5 8549   1.113   0.556  12.608 -1.5686  2.6539  0.1882
  576MPD2    N1 8550   1.227   0.158  12.404  0.1423 -0.6977 -0.1754
  576MPD2    H7 8551   1.293   0.231  12.380  0.8982 -0.8721  1.3592
  577TMC3    C1 8552   1.395   0.022  12.312 -0.0871 -0.7014  0.4334
  577TMC3    C2 8553   1.463   4.624  12.310  0.9218  0.4640 -0.1023
  577TMC3    C3 8554   1.596   4.618  12.264 -0.2068  0.6418 -0.5764
  577TMC3    C4 8555   1.451   0.141  12.265 -0.2417  0.6053 -0.2702
  577TMC3    C5 8556   1.578   0.130  12.214 -0.3549  0.4328  0.3116
  577TMC3    C6 8557   1.651   0.012  12.211 -0.0798 -0.0974  0.1380
  577TMC3     C 8558   1.274   0.028  12.395 -0.3065 -0.1169 -0.2636
  577TMC3     O 8559   1.225   4.650  12.440 -0.0165  0.2248 -0.0932
  577TMC3     H 8560   1.423   4.531  12.348 -1.3234  1.6158  0.3325
  577TMC3    H1 8561   1.383   0.221  12.237  0.7901  1.1909 -1.0961
  577TMC3    H2 8562   1.750   0.013  12.166  0.6214  3.7223  1.7448
  577TMC3    C7 8563   1.619   0.229  12.108 -0.0934 -0.3264 -0.5907
  577TMC3    C8 8564   1.661   4.491  12.254  0.0617  0.3103  0.1050
  577TMC3    O1 8565   1.595   0.346  12.136  0.2549 -0.2914 -0.2451
  577TMC3    O2 8566   1.628   4.412  12.340 -0.1156 -0.0280  0.0978
  578MPD2     C 8567   0.142   4.526   1.281  0.5286  0.5756 -0.3042
  578MPD2    C1 8568   0.262   4.509   1.219 -0.2256 -0.0000 -0.4699
  578MPD2    C2 8569   0.369   4.454   1.295 -0.2613 -0.5649  0.2912
  578MPD2    C3 8570   0.362   4.430   1.428  0.5640 -0.2582 -0.3190
  578MPD2    C4 8571   0.238   4.461   1.491  1.2706 -0.1977  0.8020
  578MPD2    C5 8572   0.134   4.503   1.421  0.1684 -0.1435 -0.3778
  578MPD2     H 8573   0.470   4.440   1.257  0.9904  1.0951  3.0248
  578MPD2    H1 8574   0.224   4.444   1.597  2.2098  0.3655  1.0213
  578MPD2    H2 8575   0.061   4.572   1.226  1.0234  2.1317  0.2582
  578MPD2    H3 8576   0.040   4.527   1.470  0.5460 -2.8422  1.7050
  578MPD2     N 8577   0.476   4.386   1.490  0.8134  0.8811 -0.1073
  578MPD2    H5 8578   0.553   4.361   1.429 -0.4043 -1.3489 -0.7675
  578MPD2    N1 8579   0.280   4.568   1.092 -0.1161 -0.5213 -0.3772
  578MPD2    H7 8580   0.200   4.612   1.046 -0.4701 -0.8472 -0.0697
  579TMC3    C1 8581   0.643   4.353   1.639 -0.2015  0.1827 -0.7196
  579TMC3    C2 8582   0.717   4.448   1.700 -0.1126  0.5629  0.0128
  579TMC3    C3 8583   0.857   4.446   1.686 -0.7953 -0.6481 -0.6227
  579TMC3    C4 8584   0.700   4.259   1.559 -0.0117 -0.3515 -0.3449
  579TMC3    C5 8585   0.836   4.263   1.534  0.7772  0.3928 -0.0834
  579TMC3    C6 8586   0.913   4.357   1.599 -0.1614 -0.2884  0.9800
  579TMC3     C 8587   0.506   4.385   1.623 -0.4793  0.0779 -0.4469
  579TMC3     O 8588   0.445   4.447   1.709  0.6467 -0.0092  0.0022
  579TMC3     H 8589   0.665   4.525   1.756  2.3820  2.8210 -0.7853
  579TMC3    H1 8590   0.634   4.183   1.521  0.9237 -0.7368 -1.1701
  579TMC3    H2 8591   1.021   4.361   1.597 -0.1860  0.2158  0.8642
  579TMC3    C7 8592   0.902   4.154   1.469 -0.3488 -0.5467 -0.0419
  579TMC3    C8 8593   0.929   4.562   1.740 -0.5137 -0.1595  0.5548
  579TMC3    O1 8594   1.012   4.132   1.512  0.1106 -0.4564  0.6672
  579TMC3    O2 8595   0.868   4.619   1.829  0.4312 -0.2281  0.0302
  580TMC3    C1 8596   3.939   3.706  12.124  0.2304  0.2445  0.0864
  580TMC3    C2 8597   3.912   3.689  11.986 -0.5142  0.1794 -0.0175
  580TMC3    C3 8598   3.975   3.574  11.935 -0.0340  0.5975 -0.4997
  580TMC3    C4 8599   3.990   3.602  12.206  0.2671  0.0037 -0.2643
  580TMC3    C5 8600   4.022   3.481  12.146 -0.2603 -0.0272 -0.0768
  580TMC3    C6 8601   4.033   3.473  12.010 -0.0351  0.2978 -0.2020
  580TMC3     C 8602   4.014   3.824  12.148  0.4024 -0.2287  0.3689
  580TMC3     O 8603   3.961   3.929  12.109 -0.1542 -0.3336 -0.5128
  580TMC3     H 8604   3.889   3.768  11.916  2.5728  1.3653  0.2698
  580TMC3    H1 8605   3.983   3.614  12.313 -0.6630 -1.3784 -0.1643
  580TMC3    H2 8606   4.079   3.387  11.961 -3.1941 -0.9942 -0.9344
  580TMC3    C7 8607   4.114   3.402  12.232 -0.5209 -0.3087  0.1897
  580TMC3    C8 8608   4.048   3.596  11.810  0.0263 -0.5017  0.3557
  580TMC3    O1 8609   4.187   3.453  12.311 -0.6790 -0.2426 -0.4248
  580TMC3    O2 8610   3.995   3.571  11.697  0.0756 -0.1411  0.2750
  581MPD2     C 8611   2.385   3.273  14.618  0.6296 -0.4801  0.8148
  581MPD2    C1 8612   2.375   3.328  14.744 -0.2709 -0.5754 -0.0941
  581MPD2    C2 8613   2.259   3.401  14.776 -0.3288  0.2299  0.4961
  581MPD2    C3 8614   2.150   3.407  14.687  0.1951 -0.1849 -0.8625
  581MPD2    C4 8615   2.167   3.355  14.563 -0.3044 -0.6195 -0.0305
  581MPD2    C5 8616   2.281   3.290  14.527  0.1700 -0.4920 -0.1284
  581MPD2     H 8617   2.244   3.443  14.875 -0.9125 -2.0205  1.3635
  581MPD2    H1 8618   2.084   3.362  14.493  0.9892  1.6282 -1.3651
  581MPD2    H2 8619   2.469   3.212  14.586  0.3585 -1.2686  1.5869
  581MPD2    H3 8620   2.281   3.244  14.429 -0.3755  2.0921 -1.3522
  581MPD2     N 8621   2.033   3.481  14.724 -0.5073 -0.0796  0.1101
  581MPD2    H5 8622   2.018   3.524  14.815 -2.3388  0.8696 -0.6340
  581MPD2    N1 8623   2.467   3.303  14.847 -0.3530 -0.2896  0.1046
  581MPD2    H7 8624   2.441   3.349  14.934 -0.1254  0.6221 -0.3104
  582TMC3    C1 8625   2.637   3.200  14.968 -0.4853  0.7049  0.0660
  582TMC3    C2 8626   2.617   3.295  15.071  0.8294 -0.3190  0.1876
  582TMC3    C3 8627   2.578   3.231  15.189  0.5186  0.2756 -0.7076
  582TMC3    C4 8628   2.614   3.068  14.983 -0.4680  0.1104 -0.1451
  582TMC3    C5 8629   2.555   3.020  15.094  0.5121  0.1430 -1.5368
  582TMC3    C6 8630   2.545   3.095  15.205 -0.3067  0.4319 -0.3688
  582TMC3     C 8631   2.585   3.235  14.836 -0.1324  0.1117  0.0100
  582TMC3     O 8632   2.643   3.171  14.748 -0.3141  0.4046 -0.0164
  582TMC3     H 8633   2.628   3.401  15.051  0.3983 -0.1622  0.8072
  582TMC3    H1 8634   2.610   3.008  14.893 -1.1599  0.9226 -0.6675
  582TMC3    H2 8635   2.498   3.052  15.293 -0.9604 -3.0280 -2.4230
  582TMC3    C7 8636   2.413   2.984  15.052  0.1887 -0.8172  0.3846
  582TMC3    C8 8637   2.565   3.307  15.308  0.1478 -0.2546 -0.1755
  582TMC3    O1 8638   2.398   2.940  14.940 -0.0157  0.7919 -0.2420
  582TMC3    O2 8639   2.468   3.305  15.380  0.5241 -0.2920 -0.3841
  583MPD2     C 8640   2.437   0.213  16.759 -0.0729 -0.4136  0.0486
  583MPD2    C1 8641   2.399   0.320  16.691 -0.1530  0.4088 -0.4146
  583MPD2    C2 8642   2.327   0.414  16.762 -0.9554  0.2478 -0.1192
  583MPD2    C3 8643   2.309   0.413  16.900 -0.0955  0.6527 -0.0242
  583MPD2    C4 8644   2.362   0.311  16.966  0.0450 -0.3392 -1.0636
  583MPD2    C5 8645   2.428   0.212  16.897  0.0126  0.2000  0.3628
  583MPD2     H 8646   2.289   0.501  16.709  2.3849  0.3462 -2.3026
  583MPD2    H1 8647   2.347   0.300  17.073  0.3340 -0.6342 -1.0515
  583MPD2    H2 8648   2.481   0.126  16.711 -1.0302 -1.8327  1.7555
  583MPD2    H3 8649   2.456   0.130  16.963 -1.5662 -1.6416 -1.2549
  583MPD2     N 8650   2.233   0.518  16.956  0.1697 -0.1212  0.0883
  583MPD2    H5 8651   2.188   0.575  16.885 -0.6692 -1.8580 -0.7704
  583MPD2    N1 8652   2.421   0.344  16.557  0.3654 -0.5014  0.0323
  583MPD2    H7 8653   2.389   0.434  16.522  2.2179  0.7550  1.6000
  584TMC3    C1 8654   2.147   0.662  17.128  0.3985 -0.0761 -0.2249
  584TMC3    C2 8655   2.124   0.761  17.034 -0.5234  0.1470 -0.1125
  584TMC3    C3 8656   2.057   0.868  17.080  0.2813 -0.6930  0.0529
  584TMC3    C4 8657   2.114   0.688  17.264 -0.1254  0.6134  0.6070
  584TMC3    C5 8658   2.055   0.801  17.310 -0.2304  0.2800  0.1304
  584TMC3    C6 8659   2.017   0.892  17.210 -0.7380  0.3867  0.6432
  584TMC3     C 8660   2.202   0.532  17.090  0.1414  0.3026  0.1063
  584TMC3     O 8661   2.216   0.454  17.179  0.8330  0.2777  0.1287
  584TMC3     H 8662   2.143   0.759  16.928 -0.3710 -2.4182 -0.0217
  584TMC3    H1 8663   2.120   0.603  17.332  0.2904 -0.5108 -0.8242
  584TMC3    H2 8664   1.951   0.973  17.238 -0.3915 -0.1021  2.8716
  584TMC3    C7 8665   2.021   0.820  17.450 -0.4084  0.5876 -0.4855
  584TMC3    C8 8666   2.027   0.961  16.974  0.7293  0.6866 -0.1977
  584TMC3    O1 8667   2.078   0.743  17.528 -0.3363  0.0379  0.1768
  584TMC3    O2 8668   2.019   0.921  16.856  0.3198  0.0960 -0.1384
  585MPD2     C 8669   2.408   3.936   0.499 -0.0980 -0.0973  0.0615
  585MPD2    C1 8670   2.405   4.059   0.442 -0.2457 -0.2941  0.2040
  585MPD2    C2 8671   2.352   4.067   0.315 -0.9512 -0.6099  0.4244
  585MPD2    C3 8672   2.303   3.955   0.250 -0.4161  0.3414  0.1739
  585MPD2    C4 8673   2.294   3.835   0.319  0.2145  0.5932  0.2019
  585MPD2    C5 8674   2.346   3.826   0.446  0.1989  0.2436 -0.0883
  585MPD2     H 8675   2.352   4.158   0.256 -0.3542 -0.5146  0.5713
  585MPD2    H1 8676   2.246   3.748   0.275 -0.5610  1.1272 -0.0242
  585MPD2    H2 8677   2.431   3.928   0.605 -1.9414 -0.7053  0.4141
  585MPD2    H3 8678   2.347   3.730   0.497  2.9360  0.1402 -0.3521
  585MPD2     N 8679   2.257   3.948   0.114 -0.2462  0.4359 -0.9497
  585MPD2    H5 8680   2.206   3.863   0.090  0.7307 -0.7469  1.1886
  585MPD2    N1 8681   2.454   4.174   0.510 -0.8642 -0.4174  0.1062
  585MPD2    H7 8682   2.480   4.157   0.607 -2.0688 -0.1587  0.4730
  586TMC3    C1 8683   2.188   4.033  17.607 -0.2496  0.0017 -0.5568
  586TMC3    C2 8684   2.233   4.101  17.491  0.3074  0.1061 -0.1162
  586TMC3    C3 8685   2.143   4.156  17.404  0.1274  1.0012  0.4998
  586TMC3    C4 8686   2.052   4.013  17.631  0.5701 -0.4506  0.0549
  586TMC3    C5 8687   1.970   4.077  17.538 -0.7632 -0.3257 -0.0688
  586TMC3    C6 8688   2.011   4.152  17.433  1.0890 -0.0168 -0.1360
  586TMC3     C 8689   2.271   4.047   0.027 -1.1435 -0.3514 -0.2928
  586TMC3     O 8690   2.346   4.142   0.030  0.5700 -0.6868 -0.2922
  586TMC3     H 8691   2.339   4.107  17.466  0.1662  0.4212 -0.6281
  586TMC3    H1 8692   2.023   3.964   0.030 -2.5709  1.1921 -0.0821
  586TMC3    H2 8693   1.939   4.199  17.367  0.2624  0.0601  0.7974
  586TMC3    C7 8694   1.845   4.015  17.521 -0.1234 -0.1908 -0.6406
  586TMC3    C8 8695   2.161   4.109  17.268  0.8686  0.2667  1.0489
  586TMC3    O1 8696   1.789   3.955  17.611  0.5755  0.6424  0.0224
  586TMC3    O2 8697   2.214   3.998  17.251  0.5112 -0.2560  0.2442
  587TMC3    C1 8698   3.907   2.523  16.606  0.8456 -0.2891  0.5315
  587TMC3    C2 8699   3.952   2.622  16.517 -0.0089 -0.4815 -0.2389
  587TMC3    C3 8700   4.076   2.676  16.534 -0.7194 -0.1231 -0.4656
  587TMC3    C4 8701   3.976   2.490  16.719  0.2643 -1.1296 -0.8937
  587TMC3    C5 8702   4.098   2.551  16.730 -0.4086  0.1769 -0.7143
  587TMC3    C6 8703   4.151   2.633  16.637 -0.0798  0.1474 -0.4904
  587TMC3     C 8704   3.772   2.495  16.613 -0.1699  0.4734  0.0689
  587TMC3     O 8705   3.725   2.487  16.728  0.0050 -0.3173 -0.1729
  587TMC3     H 8706   3.888   2.657  16.437  1.1766 -0.7895 -1.3028
  587TMC3    H1 8707   3.951   2.421  16.798 -1.5837 -1.5571 -1.8528
  587TMC3    H2 8708   4.252   2.674  16.647  0.4092 -1.2548  0.2913
  587TMC3    C7 8709   4.197   2.500  16.824 -0.5780 -0.2668  0.3208
  587TMC3    C8 8710   4.113   2.806  16.475 -0.4306 -1.2173  0.8689
  587TMC3    O1 8711   4.177   2.392  16.872 -0.2672 -0.0361  0.0124
  587TMC3    O2 8712   4.233   2.841  16.477  0.0376 -0.3178  0.2235
  588TMC3    C1 8713   0.967   0.487   9.819  0.9029 -0.4061 -0.1229
  588TMC3    C2 8714   0.918   0.376   9.870 -0.1094  0.1161 -1.2105
  588TMC3    C3 8715   1.003   0.283   9.916 -0.2278  0.0929 -0.2112
  588TMC3    C4 8716   1.105   0.508   9.808 -0.3465  0.4424  0.4459
  588TMC3    C5 8717   1.185   0.419   9.878  0.1984 -0.3243 -0.7962
  588TMC3    C6 8718   1.140   0.299   9.916 -0.1485  0.3347 -0.3438
  588TMC3     C 8719   0.879   0.600   9.786  0.3562 -0.1903 -0.3606
  588TMC3     O 8720   0.773   0.586   9.724 -0.4068  0.1656 -0.2347
  588TMC3     H 8721   0.810   0.371   9.872 -0.1121  1.0187  0.9926
  588TMC3    H1 8722   1.148   0.598   9.766 -0.3654 -1.0325 -2.7219
  588TMC3    H2 8723   1.218   0.238   9.961 -0.6414  1.0162  1.4636
  588TMC3    C7 8724   1.306   0.464   9.948  0.2084  0.2763 -0.2780
  588TMC3    C8 8725   0.943   0.178  10.001  0.8899 -0.1861  0.4518
  588TMC3    O1 8726   1.352   0.389  10.033  0.3113  0.1376  0.4566
  588TMC3    O2 8727   0.831   0.204  10.035  0.7320 -0.0315  0.2410
  589TMC3    C1 8728   1.310   3.604   1.820 -0.0505 -0.2561 -0.5148
  589TMC3    C2 8729   1.416   3.695   1.814  0.0723  0.4125 -0.7552
  589TMC3    C3 8730   1.518   3.669   1.727 -0.4721  0.1341  0.6750
  589TMC3    C4 8731   1.305   3.491   1.745 -0.0065 -0.0966 -0.0067
  589TMC3    C5 8732   1.414   3.465   1.667 -0.8321  0.2595  0.5295
  589TMC3    C6 8733   1.512   3.556   1.649  0.1226 -0.5914 -0.4312
  589TMC3     C 8734   1.183   3.647   1.871 -0.5373  0.0407 -0.6692
  589TMC3     O 8735   1.081   3.604   1.817  0.3713 -0.2209  0.2587
  589TMC3     H 8736   1.419   3.784   1.877 -1.5673 -0.4885  0.5953
  589TMC3    H1 8737   1.237   3.414   1.778  1.6576 -1.4858  0.1740
  589TMC3    H2 8738   1.595   3.534   1.583  1.5365 -0.1740  1.2221
  589TMC3    C7 8739   1.407   3.368   1.570  0.2240 -0.3626  0.0392
  589TMC3    C8 8740   1.608   3.783   1.692  0.2081 -0.8652 -0.0580
  589TMC3    O1 8741   1.514   3.340   1.519  0.4221  0.1337 -0.1691
  589TMC3    O2 8742   1.602   3.881   1.762 -0.5599  0.3481  0.0819
  590MPD2     C 8743   4.482   1.410  16.746  0.7597 -0.5215 -0.5234
  590MPD2    C1 8744   4.451   1.500  16.649  0.2199  0.3001 -0.8067
  590MPD2    C2 8745   4.549   1.531  16.559  0.4324  0.4655 -0.7278
  590MPD2    C3 8746   4.667   1.454  16.559  0.6466  0.2093 -0.1377
  590MPD2    C4 8747   4.704   1.369  16.665 -0.3051 -0.5262 -1.1678
  590MPD2    C5 8748   4.602   1.345  16.754  0.0943  0.5122  0.3077
  590MPD2     H 8749   4.535   1.604  16.481 -0.3220 -0.2526 -1.2665
  590MPD2    H1 8750   0.077   1.320  16.671  0.6488  1.1807 -2.6871
  590MPD2    H2 8751   4.418   1.389  16.831 -1.7686  1.6030 -1.9105
  590MPD2    H3 8752   4.610   1.270  16.832  0.0252 -0.7621 -0.9227
  590MPD2     N 8753   0.036   1.478  16.453  0.5331 -0.3884  0.4513
  590MPD2    H5 8754   0.017   1.553  16.387  0.3519  0.4115  1.4115
  590MPD2    N1 8755   4.324   1.558  16.646  0.1552 -0.2320 -0.6577
  590MPD2    H7 8756   4.260   1.543  16.723  2.5317  0.0675  1.4190
  591TMC3    C1 8757   0.247   1.476  16.344  0.8457  0.2704  0.2663
  591TMC3    C2 8758   0.279   1.414  16.222 -0.0197 -0.5101 -0.0253
  591TMC3    C3 8759   0.333   1.509  16.134  0.1769 -0.1608  0.0018
  591TMC3    C4 8760   0.261   1.601  16.382  0.9407 -0.6188 -0.1349
  591TMC3    C5 8761   0.314   1.681  16.285  0.7107 -0.5128  0.0719
  591TMC3    C6 8762   0.362   1.638  16.161  0.5751 -0.5545 -0.4986
  591TMC3     C 8763   0.147   1.401  16.423  0.0691  0.1391 -0.3928
  591TMC3     O 8764   0.190   1.297  16.462  0.1551  0.3038 -0.4535
  591TMC3     H 8765   0.243   1.314  16.204  1.7414 -1.0497 -0.5929
  591TMC3    H1 8766   0.242   1.637  16.482  1.3536 -2.8373  0.7440
  591TMC3    H2 8767   0.411   1.709  16.096 -0.5842  0.8559  0.1815
  591TMC3    C7 8768   0.306   1.824  16.312 -1.0242  0.1609  0.4506
  591TMC3    C8 8769   0.366   1.456  16.004 -0.5337 -0.2231 -0.3383
  591TMC3    O1 8770   0.324   1.855  16.429 -0.8183 -0.1321  0.4406
  591TMC3    O2 8771   0.374   1.332  15.993 -0.0114  0.1026 -0.3577
  592MPD2     C 8772   0.257   3.475  11.408  0.2357  0.0998  0.0978
  592MPD2    C1 8773   0.223   3.511  11.534  0.7326  0.3183 -0.2863
  592MPD2    C2 8774   0.133   3.433  11.605  0.6575 -0.6311 -0.2637
  592MPD2    C3 8775   0.062   3.326  11.539 -0.5733 -0.6985  0.0948
  592MPD2    C4 8776   0.096   3.297  11.406  0.5495  0.2130  0.5342
  592MPD2    C5 8777   0.193   3.373  11.339 -0.2967  0.9157  0.1958
  592MPD2     H 8778   0.130   3.449  11.712 -1.8296 -3.7636  0.1359
  592MPD2    H1 8779   0.070   3.201  11.363  0.9824  0.0549  0.6230
  592MPD2    H2 8780   0.335   3.522  11.350 -0.5608  0.0285 -1.0396
  592MPD2    H3 8781   0.228   3.350  11.239 -0.0971 -1.3788  0.7994
  592MPD2     N 8782   4.692   3.255  11.618  0.0471 -0.1816 -0.0834
  592MPD2    H5 8783   4.682   3.277  11.716 -3.6837 -0.1020 -0.4971
  592MPD2    N1 8784   0.311   3.607  11.586 -0.5207 -0.4655  0.9268
  592MPD2    H7 8785   0.366   3.654  11.515  0.0474 -1.8069  0.4814
  593TMC3    C1 8786   0.358   3.806  11.713  0.4832 -0.2296 -0.2837
  593TMC3    C2 8787   0.352   3.877  11.836 -0.7139 -0.8674  0.2715
  593TMC3    C3 8788   0.392   4.006  11.827 -0.1376 -0.3806 -0.2378
  593TMC3    C4 8789   0.389   3.872  11.598 -0.0689  0.5486 -0.8056
  593TMC3    C5 8790   0.430   4.005  11.608  0.0777  0.2792  0.4476
  593TMC3    C6 8791   0.431   4.072  11.722 -0.3827  0.1315 -0.1263
  593TMC3     C 8792   0.296   3.674  11.707  0.1415  0.1860 -0.4063
  593TMC3     O 8793   0.223   3.646  11.800 -0.2407 -0.0325  0.0519
  593TMC3     H 8794   0.337   3.815  11.924 -1.5661 -0.6664  0.2707
  593TMC3    H1 8795   0.383   3.817  11.505  2.9308 -0.2467 -0.5382
  593TMC3    H2 8796   0.471   4.173  11.726  3.1046 -1.2672  0.1913
  593TMC3    C7 8797   0.517   4.054  11.506  0.0901 -0.3913  0.9408
  593TMC3    C8 8798   0.415   4.078  11.949 -0.2339  0.0284  0.0836
  593TMC3    O1 8799   0.548   3.966  11.428 -0.1731  0.5046  0.3788
  593TMC3    O2 8800   0.329   4.153  11.991  0.4892  0.1159 -0.1785
  594MPD2     C 8801   4.406   2.233  14.177  0.1906 -0.2666  0.3308
  594MPD2    C1 8802   4.316   2.341  14.160  0.0915  0.4906  0.7689
  594MPD2    C2 8803   4.353   2.462  14.097 -0.6870  0.0970  0.6507
  594MPD2    C3 8804   4.485   2.466  14.058 -0.5519 -0.3933 -0.1123
  594MPD2    C4 8805   4.567   2.359  14.074  0.0820  0.0293 -0.0174
  594MPD2    C5 8806   4.535   2.244  14.144 -0.5254 -0.4756 -0.2203
  594MPD2     H 8807   4.284   2.544  14.081  2.0124  2.2173 -0.0748
  594MPD2    H1 8808   4.666   2.363  14.029 -0.9896 -0.2904 -2.3757
  594MPD2    H2 8809   4.369   2.145  14.229  1.8029 -0.2424  1.4820
  594MPD2    H3 8810   4.601   2.159  14.157  0.8141  0.5006 -0.6480
  594MPD2     N 8811   4.524   2.585  13.998  0.2560  0.0759 -0.1808
  594MPD2    H5 8812   4.449   2.655  13.998  0.2903  0.1034 -1.1173
  594MPD2    N1 8813   4.181   2.305  14.199  0.5515 -0.4839 -0.3679
  594MPD2    H7 8814   4.173   2.209  14.231 -0.6857  0.2132  1.4270
  595TMC3    C1 8815   0.095   2.919  14.001 -0.0484  0.9781  0.0537
  595TMC3    C2 8816   0.072   2.797  13.943  0.6757  0.2486  0.0708
  595TMC3    C3 8817   4.663   2.759  13.925  0.4958  1.0218  0.9488
  595TMC3    C4 8818   4.716   3.000  14.035 -0.1556 -0.1507  0.1690
  595TMC3    C5 8819   4.588   2.955  14.015 -0.2229 -0.5592  0.5548
  595TMC3    C6 8820   4.559   2.836  13.951 -0.4762 -0.1722  0.5268
  595TMC3     C 8821   0.207   2.911  14.097 -0.0535  0.0427 -0.7870
  595TMC3     O 8822   0.206   2.810  14.162  0.0392  0.0248  0.0453
  595TMC3     H 8823   0.158   2.731  13.937 -0.2451 -1.0615  1.2154
  595TMC3    H1 8824   0.015   3.085  14.099  0.3831 -0.9344  1.0262
  595TMC3    H2 8825   4.457   2.806  13.934  0.3004 -1.8295 -1.1665
  595TMC3    C7 8826   4.476   3.032  14.069 -0.1225 -0.2818 -1.0412
  595TMC3    C8 8827   4.647   2.617  13.950  0.2555  0.4809 -0.0055
  595TMC3    O1 8828   4.374   2.975  14.089 -0.0156 -0.4164 -0.1167
  595TMC3    O2 8829   0.027   2.545  13.951  0.1478  1.0095  0.1596
  596MPD2     C 8830   3.158   0.347  16.825 -0.1983 -0.8498 -0.1518
  596MPD2    C1 8831   3.125   0.446  16.730  0.5982  0.4592  0.1230
  596MPD2    C2 8832   3.136   0.413  16.596 -0.4925 -0.6631 -0.1090
  596MPD2    C3 8833   3.194   0.292  16.556 -0.1912  0.5587  0.3062
  596MPD2    C4 8834   3.229   0.195  16.653  0.3715  0.0067 -0.1370
  596MPD2    C5 8835   3.208   0.227  16.781  0.2216  0.2474  0.6213
  596MPD2     H 8836   3.111   0.491  16.526 -0.8819  0.1819  0.9735
  596MPD2    H1 8837   3.287   0.104  16.641 -0.6643 -0.7728  0.6527
  596MPD2    H2 8838   3.166   0.365  16.931  1.4839  0.6614 -0.5228
  596MPD2    H3 8839   3.241   0.152  16.851  1.9606  0.1039 -0.3477
  596MPD2     N 8840   3.219   0.259  16.421  0.3006 -0.1017  0.4356
  596MPD2    H5 8841   3.227   0.161  16.397 -2.0583  0.0655 -1.0317
  596MPD2    N1 8842   3.075   0.573  16.767 -0.5622  0.5831  0.3366
  596MPD2    H7 8843   3.047   0.633  16.690  0.3124  2.9207  1.8245
  597TMC3    C1 8844   2.995   0.752  16.885 -0.3500 -0.2294  0.1035
  597TMC3    C2 8845   3.024   0.844  16.785 -0.0247 -0.3358 -1.1565
  597TMC3    C3 8846   2.959   0.964  16.781 -0.4430 -0.1162 -0.3449
  597TMC3    C4 8847   2.903   0.785  16.977 -1.1225  0.0303  0.1597
  597TMC3    C5 8848   2.830   0.903  16.966 -0.3810  0.6481 -0.0048
  597TMC3    C6 8849   2.858   0.993  16.864 -0.0723 -0.0714 -0.1112
  597TMC3     C 8850   3.051   0.613  16.891 -0.4960  0.4214  0.2778
  597TMC3     O 8851   3.056   0.552  16.997 -0.4738 -0.0562  0.4448
  597TMC3     H 8852   3.100   0.817  16.713  1.3336  1.5209 -0.4125
  597TMC3    H1 8853   2.873   0.706  17.044  0.2935 -0.0008  0.7595
  597TMC3    H2 8854   2.818   1.094  16.866 -1.8731 -0.7815 -0.4750
  597TMC3    C7 8855   2.709   0.911  17.048  0.6232 -0.5539  0.3490
  597TMC3    C8 8856   3.005   1.070  16.696  0.6013  0.6893  0.4482
  597TMC3    O1 8857   2.683   0.817  17.128 -0.0120 -0.4300 -0.1092
  597TMC3    O2 8858   2.913   1.136  16.643 -0.0367 -0.4602 -0.1324
  598TMC3    C1 8859   1.514   1.731  15.264  0.5318  0.2479  0.1847
  598TMC3    C2 8860   1.426   1.631  15.297 -0.3238  0.7099 -0.0878
  598TMC3    C3 8861   1.318   1.622  15.209  0.1089 -0.5008  0.3061
  598TMC3    C4 8862   1.493   1.823  15.161  0.0215  0.3826  0.3219
  598TMC3    C5 8863   1.386   1.802  15.081  0.7942  0.0394  0.1087
  598TMC3    C6 8864   1.298   1.706  15.102 -0.4691 -0.1647  0.0466
  598TMC3     C 8865   1.633   1.749  15.340  0.4481  0.1715 -0.1197
  598TMC3     O 8866   1.708   1.655  15.359  1.1470 -0.2948 -0.6621
  598TMC3     H 8867   1.452   1.552  15.366 -0.9305  1.7781  1.3604
  598TMC3    H1 8868   1.568   1.901  15.149 -0.8362  0.9159 -1.5459
  598TMC3    H2 8869   1.213   1.691  15.038  0.3756 -2.2048 -0.5834
  598TMC3    C7 8870   1.359   1.892  14.966  0.1522 -0.5042  0.2865
  598TMC3    C8 8871   1.254   1.490  15.211  0.0437 -0.3479  0.8404
  598TMC3    O1 8872   1.268   1.865  14.886  0.1342 -0.2453 -0.4447
  598TMC3    O2 8873   1.307   1.401  15.275 -0.2562  0.1991  0.3965
  599MPD2     C 8874   1.124   3.719  15.783 -0.6539  0.1893 -0.8076
  599MPD2    C1 8875   1.182   3.842  15.800 -0.5913 -0.4393 -0.2472
  599MPD2    C2 8876   1.154   3.925  15.906 -0.0723  0.0158  0.1872
  599MPD2    C3 8877   1.068   3.875  16.003 -0.2409  0.1733 -0.6812
  599MPD2    C4 8878   1.008   3.750  15.988  0.4125 -0.5519  0.0683
  599MPD2    C5 8879   1.032   3.679  15.879  0.0093 -0.4710 -0.9517
  599MPD2     H 8880   1.197   4.024  15.914  2.3723 -0.9232 -1.3581
  599MPD2    H1 8881   0.936   3.717  16.061 -1.6528  1.1681 -1.2059
  599MPD2    H2 8882   1.148   3.651  15.702  0.8240  2.9966 -2.6975
  599MPD2    H3 8883   0.983   3.586  15.850 -0.5427 -0.0346 -1.4353
  599MPD2     N 8884   1.025   3.943  16.124 -0.5267  0.8172 -0.0041
  599MPD2    H5 8885   0.948   3.905  16.178 -0.0249  1.5811  1.2426
  599MPD2    N1 8886   1.273   3.879  15.707 -0.4436  0.0819  0.0869
  599MPD2    H7 8887   1.295   3.801  15.646  0.2998 -0.2620  0.7878
  600TMC3    C1 8888   0.999   4.110  16.292  0.0534 -0.7313 -0.0993
  600TMC3    C2 8889   0.959   4.015  16.379  0.4386 -0.1559  0.2576
  600TMC3    C3 8890   0.875   4.046  16.482  0.3428  0.6901 -0.2690
  600TMC3    C4 8891   0.948   4.238  16.307 -1.2342  0.1104 -0.6805
  600TMC3    C5 8892   0.855   4.266  16.405  0.2244  0.4176 -0.3893
  600TMC3    C6 8893   0.814   4.172  16.495 -0.5579 -0.1113  0.4146
  600TMC3     C 8894   1.059   4.071  16.162 -0.6581 -0.7085  0.2474
  600TMC3     O 8895   1.142   4.146  16.110 -1.0396 -0.3346 -0.6797
  600TMC3     H 8896   0.993   3.913  16.369 -0.5330 -0.2899 -1.7638
  600TMC3    H1 8897   0.972   4.321  16.243 -0.8271 -0.0124 -0.6877
  600TMC3    H2 8898   0.762   4.191  16.588  0.2565 -1.6235  1.1884
  600TMC3    C7 8899   0.829   4.403  16.431 -1.1445  0.1526 -0.7476
  600TMC3    C8 8900   0.834   3.947  16.589  0.2113 -0.7132 -1.0471
  600TMC3    O1 8901   0.858   4.479  16.339 -0.1158  0.0305  0.1286
  600TMC3    O2 8902   0.899   3.850  16.625  0.3252 -0.7588  0.0383
  601MPD2     C 8903   2.950   2.761  17.510  0.2490  0.0809 -0.7692
  601MPD2    C1 8904   2.834   2.684  17.499  0.6330 -0.1951  0.0929
  601MPD2    C2 8905   2.833   2.566  17.571 -0.6645  0.5880 -0.9647
  601MPD2    C3 8906   2.938   2.509  17.641  0.1599 -0.4275 -0.8182
  601MPD2    C4 8907   3.053   2.587  17.647 -0.6904 -0.1689 -0.3772
  601MPD2    C5 8908   3.052   2.712  17.587 -0.0756  0.0013  0.1136
  601MPD2     H 8909   2.740   2.513  17.555  0.1536 -1.1439  0.0517
  601MPD2    H1 8910   3.141   2.548   0.003 -1.6173 -2.7356 -0.7352
  601MPD2    H2 8911   2.973   2.850  17.452  1.7819  0.5944  0.6436
  601MPD2    H3 8912   3.143   2.769  17.603 -0.9528  0.8906  1.8526
  601MPD2     N 8913   2.945   2.373  17.682  0.6806 -0.7741 -0.2083
  601MPD2    H5 8914   3.034   2.348   0.031 -0.8602 -1.9947  2.3320
  601MPD2    N1 8915   2.720   2.719  17.433  0.0419 -0.4956  0.2300
  601MPD2    H7 8916   2.640   2.655  17.438  0.4425 -0.9453  0.9186
  602TMC3    C1 8917   2.553   2.861  17.353 -0.2390 -0.0949 -0.3593
  602TMC3    C2 8918   2.510   2.996  17.362  0.4504  0.8057  0.1353
  602TMC3    C3 8919   2.376   3.011  17.359  0.0412  0.4631  0.6358
  602TMC3    C4 8920   2.474   2.761  17.305  0.7446  0.8002  0.8648
  602TMC3    C5 8921   2.341   2.781  17.303 -0.2300  0.6055  0.4053
  602TMC3    C6 8922   2.294   2.904  17.332 -0.2429  0.1708  0.6766
  602TMC3     C 8923   2.694   2.841  17.380 -0.4271 -0.3722 -0.3802
  602TMC3     O 8924   2.750   2.946  17.401 -0.6015 -0.1785  0.5520
  602TMC3     H 8925   2.570   3.086  17.371 -0.0016  1.1125  0.1062
  602TMC3    H1 8926   2.498   2.656  17.298 -1.2562  0.3856  0.3215
  602TMC3    H2 8927   2.189   2.925  17.345 -0.5469 -1.1549  0.3490
  602TMC3    C7 8928   2.291   2.741  17.173  0.2671 -0.3400  0.1925
  602TMC3    C8 8929   2.318   3.137  17.314 -0.5404 -0.2821  0.6049
  602TMC3    O1 8930   2.322   2.632  17.124  0.2567  0.4770  0.5324
  602TMC3    O2 8931   2.238   3.110  17.224 -0.1648  0.1529  0.3971
  603TMC3    C1 8932   1.275   2.975  10.913 -0.1529 -0.6859  0.3192
  603TMC3    C2 8933   1.304   2.954  11.048 -0.9345  0.9407 -0.2094
  603TMC3    C3 8934   1.322   3.068  11.121  0.2384  0.6494  0.0021
  603TMC3    C4 8935   1.249   3.096  10.856 -0.5498  0.9103 -0.2940
  603TMC3    C5 8936   1.274   3.205  10.932  0.3934 -0.3482  0.3391
  603TMC3    C6 8937   1.311   3.193  11.062  0.3420 -0.0149  0.9113
  603TMC3     C 8938   1.235   2.869  10.827  0.8277  0.7216  0.3555
  603TMC3     O 8939   1.162   2.901  10.734 -0.5976  0.2392 -0.1756
  603TMC3     H 8940   1.312   2.856  11.095  2.9690  0.0799 -2.6699
  603TMC3    H1 8941   1.228   3.103  10.750  1.5291 -0.3773 -0.7878
  603TMC3    H2 8942   1.304   3.291  11.109 -1.2575  0.2072  0.1911
  603TMC3    C7 8943   1.298   3.334  10.864  0.3067 -0.9065  0.1712
  603TMC3    C8 8944   1.341   3.060  11.266 -0.4162 -0.6372  0.0436
  603TMC3    O1 8945   1.355   3.424  10.922  0.2883  0.5556  0.2299
  603TMC3    O2 8946   1.402   2.963  11.307  0.2608  0.3151 -0.5234
  604MPD2     C 8947   2.247   1.699  16.357 -0.3535 -0.3981 -0.1826
  604MPD2    C1 8948   2.144   1.649  16.280  0.0777  0.3807  0.3275
  604MPD2    C2 8949   2.171   1.575  16.170 -0.2506 -0.5125  0.8543
  604MPD2    C3 8950   2.296   1.544  16.129 -0.4395 -0.0462 -0.3968
  604MPD2    C4 8951   2.402   1.597  16.205 -0.4103 -0.3684 -0.0545
  604MPD2    C5 8952   2.372   1.666  16.317 -1.0486  0.4526 -0.1397
  604MPD2     H 8953   2.089   1.537  16.109 -0.0785  0.9926 -0.3031
  604MPD2    H1 8954   2.505   1.581  16.175 -0.6036 -1.0753 -0.3603
  604MPD2    H2 8955   2.233   1.768  16.439  1.1976  0.3498 -0.5415
  604MPD2    H3 8956   2.454   1.707  16.375 -1.1104 -0.2025  0.4150
  604MPD2     N 8957   2.317   1.474  16.006  0.1085 -0.1894  0.4811
  604MPD2    H5 8958   2.227   1.451  15.966  0.8293  0.9232 -1.8240
  604MPD2    N1 8959   2.021   1.695  16.324 -0.1475  0.0463  0.5153
  604MPD2    H7 8960   2.023   1.737  16.416 -0.4745  2.3121 -0.5097
  605TMC3    C1 8961   1.818   1.809  16.290  0.1680 -0.0394  0.2227
  605TMC3    C2 8962   1.886   1.929  16.302  0.4746 -0.3950 -0.3520
  605TMC3    C3 8963   1.839   2.055  16.266 -0.5363  0.1637  0.1427
  605TMC3    C4 8964   1.690   1.806  16.223  0.3551 -0.1836 -0.4456
  605TMC3    C5 8965   1.661   1.931  16.168 -0.6785 -0.1888  0.3469
  605TMC3    C6 8966   1.725   2.052  16.189 -0.4247  0.0812  0.3370
  605TMC3     C 8967   1.904   1.701  16.249  0.3092 -0.2877  0.3971
  605TMC3     O 8968   1.887   1.638  16.143  0.1459 -0.0288  0.0441
  605TMC3     H 8969   1.967   1.942  16.373 -0.2783 -1.3274  0.6697
  605TMC3    H1 8970   1.634   1.715  16.205  2.9810 -1.9248  0.2807
  605TMC3    H2 8971   1.704   2.151  16.149  0.1688 -0.0639 -0.3159
  605TMC3    C7 8972   1.533   1.948  16.099  0.3366 -0.0491 -0.1025
  605TMC3    C8 8973   1.943   2.152  16.233 -0.6578 -0.7448  0.4138
  605TMC3    O1 8974   1.512   2.053  16.048 -0.3814 -0.7337  0.0435
  605TMC3    O2 8975   2.037   2.116  16.159  0.4569 -0.3066 -0.2608
  606TMC3    C1 8976   4.082   0.496  17.352  0.0425  0.1039 -0.0462
  606TMC3    C2 8977   4.156   0.418  17.441  0.6414 -0.5874  0.1421
  606TMC3    C3 8978   4.135   0.278  17.433 -0.1757  0.3844 -0.6326
  606TMC3    C4 8979   3.997   0.445  17.265  0.2772  0.7570 -0.0609
  606TMC3    C5 8980   3.978   0.307  17.267 -0.0895  0.8664  0.1709
  606TMC3    C6 8981   4.040   0.223  17.357  0.2296 -0.2602  0.2335
  606TMC3     C 8982   4.086   0.641  17.354 -0.2209  0.0379 -0.3572
  606TMC3     O 8983   4.059   0.696  17.249 -0.5655  0.4149  0.3924
  606TMC3     H 8984   4.217   0.461  17.520 -0.7787  2.4634 -0.4287
  606TMC3    H1 8985   3.942   0.494  17.186 -2.1552 -3.5190 -1.0430
  606TMC3    H2 8986   4.042   0.115  17.353 -1.5832 -0.2757 -0.0794
  606TMC3    C7 8987   3.871   0.254  17.193  0.4026 -0.1573  0.3239
  606TMC3    C8 8988   4.208   0.190  17.527  1.0458 -0.8405 -0.2204
  606TMC3    O1 8989   3.844   0.286  17.077 -0.1247 -0.5953  0.0246
  606TMC3    O2 8990   4.298   0.254  17.570 -1.0224  0.2598 -0.5410
  607MPD2     C 8991   0.279   2.729  12.055  0.0919 -1.1089  0.1155
  607MPD2    C1 8992   0.321   2.832  12.129  0.1913  0.0541  0.1078
  607MPD2    C2 8993   0.367   2.825  12.258 -0.2050 -0.1923 -0.4223
  607MPD2    C3 8994   0.383   2.698  12.317 -0.2918  0.3956 -0.5511
  607MPD2    C4 8995   0.342   2.590  12.243  0.0387 -0.0844  0.1059
  607MPD2    C5 8996   0.288   2.601  12.117  0.9857  0.5625  0.2766
  607MPD2     H 8997   0.385   2.915  12.316  1.2256 -1.4383  1.0745
  607MPD2    H1 8998   0.334   2.495  12.292  0.3481 -0.1660  0.0034
  607MPD2    H2 8999   0.228   2.746  11.961  2.2909  1.5428 -0.5711
  607MPD2    H3 9000   0.264   2.508  12.067  1.9203 -0.7944  2.3392
  607MPD2     N 9001   0.427   2.697  12.446 -0.1839  0.3846 -0.0494
  607MPD2    H5 9002   0.439   2.788  12.488 -0.0378  0.5323 -0.4184
  607MPD2    N1 9003   0.321   2.968  12.082 -0.6297 -0.6372 -0.4157
  607MPD2    H7 9004   0.359   3.039  12.144  0.4350 -1.2416 -0.3766
  608TMC3    C1 9005   0.327   3.153  11.961 -0.6503 -0.8614  0.0822
  608TMC3    C2 9006   0.298   3.224  12.077 -0.4162 -0.0539  0.1183
  608TMC3    C3 9007   0.326   3.357  12.073  1.2189 -0.7485 -0.1451
  608TMC3    C4 9008   0.384   3.208  11.850 -0.1873  0.2232 -0.5481
  608TMC3    C5 9009   0.417   3.340  11.856  0.2103 -0.4408 -0.7210
  608TMC3    C6 9010   0.382   3.418  11.966  0.0561 -0.1651 -0.2292
  608TMC3     C 9011   0.302   3.013  11.958 -0.4035 -0.1344 -0.1002
  608TMC3     O 9012   0.288   2.950  11.854 -0.3133 -0.1856  1.0087
  608TMC3     H 9013   0.235   3.183  12.155 -0.7466 -1.1802 -0.7421
  608TMC3    H1 9014   0.397   3.147  11.761  0.0456 -1.5355  0.6879
  608TMC3    H2 9015   0.415   3.520  11.983 -1.0988 -0.1917  2.0954
  608TMC3    C7 9016   0.531   3.378  11.763  0.6068 -0.3007  0.5501
  608TMC3    C8 9017   0.356   3.419  12.203  0.6196 -0.1498 -0.1112
  608TMC3    O1 9018   0.540   3.331  11.650 -0.4289 -0.1791 -0.0421
  608TMC3    O2 9019   0.370   3.539  12.211 -0.1879 -0.1373  0.0127
  609TMC3    C1 9020   4.330   1.878   9.095  0.2935  0.4264 -0.1178
  609TMC3    C2 9021   4.383   1.880   8.969 -0.0511 -0.2282 -0.6540
  609TMC3    C3 9022   4.495   1.803   8.946 -0.4439 -0.3093 -0.3059
  609TMC3    C4 9023   4.387   1.803   9.201 -0.0173  0.2462 -0.0515
  609TMC3    C5 9024   4.496   1.731   9.167  0.0869  0.7426 -0.1241
  609TMC3    C6 9025   4.553   1.724   9.043  0.1384  0.1490 -0.0817
  609TMC3     C 9026   4.211   1.952   9.125 -0.0485 -0.4843 -0.1692
  609TMC3     O 9027   4.150   1.908   9.221 -0.5206  0.1440  0.0259
  609TMC3     H 9028   4.344   1.937   8.886 -2.0692 -2.3857 -1.1743
  609TMC3    H1 9029   4.351   1.808   9.303 -0.4199  0.3845 -0.1978
  609TMC3    H2 9030   4.643   1.665   9.026 -1.0591 -0.7946 -3.2084
  609TMC3    C7 9031   4.578   1.696   9.275 -0.0605  0.1710 -0.3314
  609TMC3    C8 9032   4.574   1.828   8.829 -0.1878 -0.0107 -0.3112
  609TMC3    O1 9033   4.576   1.767   9.375  0.5527 -0.0862 -0.2417
  609TMC3    O2 9034   4.660   1.747   8.790  0.9302  0.0990 -0.2126
  610TMC3    C1 9035   1.049   3.037  12.923 -0.4258 -0.2109  0.1798
  610TMC3    C2 9036   0.967   3.105  12.841  0.5208 -0.4807  0.6023
  610TMC3    C3 9037   1.016   3.136  12.716 -0.4382 -0.7908 -0.7201
  610TMC3    C4 9038   1.176   3.007  12.897 -0.4914  0.0633  0.1572
  610TMC3    C5 9039   1.223   3.027  12.770  0.2964 -0.2145 -0.1250
  610TMC3    C6 9040   1.148   3.096  12.679 -0.3606  0.9019  0.0438
  610TMC3     C 9041   1.003   3.005  13.054  0.0903  0.2477 -0.2526
  610TMC3     O 9042   1.054   2.911  13.116 -0.1031  0.3066  0.5335
  610TMC3     H 9043   0.864   3.118  12.871  0.2904 -2.4030  0.6620
  610TMC3    H1 9044   1.234   2.953  12.972 -2.4902 -0.9394  0.9971
  610TMC3    H2 9045   1.197   3.132  12.590 -0.4253 -1.4101 -0.9236
  610TMC3    C7 9046   1.362   3.012  12.743 -0.3355 -0.4271 -0.6002
  610TMC3    C8 9047   0.937   3.211  12.620  0.1995  0.1535 -0.7617
  610TMC3    O1 9048   1.408   3.082  12.651 -0.8194  0.1218  0.7140
  610TMC3    O2 9049   0.851   3.281  12.673 -0.4515  0.1598  0.0387
  611MPD2     C 9050   0.520   2.926  10.216  0.3365  0.0034  0.0239
  611MPD2    C1 9051   0.442   3.032  10.168  0.3839  0.9020  0.2993
  611MPD2    C2 9052   0.507   3.147  10.129  0.6087  0.4298 -0.1933
  611MPD2    C3 9053   0.641   3.160  10.137  0.0601 -0.4808  0.2070
  611MPD2    C4 9054   0.716   3.058  10.188 -0.5752 -0.1160  1.1955
  611MPD2    C5 9055   0.652   2.941  10.224  0.3758  0.5682  0.3748
  611MPD2     H 9056   0.441   3.227  10.096  1.8497  1.4179 -0.2632
  611MPD2    H1 9057   0.822   3.069  10.209 -0.4243  1.7002 -0.5801
  611MPD2    H2 9058   0.476   2.838  10.261  0.5358  0.4288  1.0459
  611MPD2    H3 9059   0.712   2.867  10.277  0.8732  0.0007 -0.9946
  611MPD2     N 9060   0.711   3.283  10.116 -0.4756 -0.2435 -0.6073
  611MPD2    H5 9061   0.811   3.287  10.135 -0.3765 -1.0097 -0.9359
  611MPD2    N1 9062   0.299   3.027  10.157  0.0929  0.0747 -0.4884
  611MPD2    H7 9063   0.260   2.943  10.198  0.1251  0.1050 -0.3933
  612TMC3    C1 9064   0.763   3.503  10.061  0.0483 -0.1417 -0.2378
  612TMC3    C2 9065   0.840   3.532  10.172  0.7254  1.0300  0.1176
  612TMC3    C3 9066   0.901   3.649  10.187 -0.3517 -0.4000 -0.9579
  612TMC3    C4 9067   0.747   3.599   9.967  0.8141  0.5414  0.0076
  612TMC3    C5 9068   0.814   3.715   9.991 -0.0094 -0.1717 -0.0344
  612TMC3    C6 9069   0.897   3.744  10.090  0.4246 -0.4606 -0.1535
  612TMC3     C 9070   0.660   3.403  10.067 -0.2094  0.6296 -0.2151
  612TMC3     O 9071   0.545   3.424  10.021 -0.2547 -0.2221 -0.2235
  612TMC3     H 9072   0.834   3.458  10.251 -0.6318 -0.2174 -1.1670
  612TMC3    H1 9073   0.690   3.569   9.880  0.6262 -1.6840  0.8898
  612TMC3    H2 9074   0.967   3.827  10.088  1.3876 -1.2768 -0.3952
  612TMC3    C7 9075   0.791   3.816   9.886  0.2701 -0.1739  0.2948
  612TMC3    C8 9076   0.988   3.670  10.296  0.1796  0.3407 -0.7522
  612TMC3    O1 9077   0.739   3.772   9.786 -0.0762  0.0775 -0.1852
  612TMC3    O2 9078   1.029   3.786  10.301  0.7230 -0.3692 -0.3175
  613MPD2     C 9079   4.407   4.292  16.146  0.2350  0.1812  0.2960
  613MPD2    C1 9080   4.399   4.399  16.062 -0.5269  0.9106 -0.0329
  613MPD2    C2 9081   4.284   4.480  16.060 -0.5705 -0.2669 -0.2538
  613MPD2    C3 9082   4.173   4.443  16.126 -0.7603  0.2904 -0.0754
  613MPD2    C4 9083   4.186   4.329  16.206  0.2636 -0.6297  0.6240
  613MPD2    C5 9084   4.303   4.265  16.226 -0.2511 -0.4153 -0.0892
  613MPD2     H 9085   4.273   4.555  15.982 -0.1560 -0.3090 -0.3569
  613MPD2    H1 9086   4.099   4.287  16.256  0.0876 -0.8437  0.1436
  613MPD2    H2 9087   4.487   4.219  16.143 -0.5161 -0.6817  1.3383
  613MPD2    H3 9088   4.317   4.179  16.291 -2.3756 -1.4424 -0.9951
  613MPD2     N 9089   4.054   4.515  16.127  0.1567  0.3694  0.6751
  613MPD2    H5 9090   3.973   4.477  16.176  0.8644 -0.1617  1.4371
  613MPD2    N1 9091   4.512   4.416  15.975 -0.3525  0.5498  0.7168
  613MPD2    H7 9092   4.560   4.337  15.933 -0.9354  1.0308 -0.8512
  614TMC3    C1 9093   4.570   4.504  15.772  0.1669 -0.0954  0.2735
  614TMC3    C2 9094   4.506   4.399  15.711  0.2868  0.5308  0.4623
  614TMC3    C3 9095   4.419   4.419  15.603 -0.5506  0.0915  0.0419
  614TMC3    C4 9096   4.570   4.622  15.701 -0.7111 -0.3623 -0.3792
  614TMC3    C5 9097   4.496   4.636  15.588  0.3045  0.3591 -0.3351
  614TMC3    C6 9098   4.417   4.538  15.541 -0.2118  0.7342  0.0913
  614TMC3     C 9099   4.531   4.530  15.906  0.1928 -0.3506 -0.4512
  614TMC3     O 9100   4.517   4.641  15.955 -0.0880  0.3895  0.4001
  614TMC3     H 9101   4.511   4.297  15.746  2.4915 -0.2128 -2.0005
  614TMC3    H1 9102   4.624   4.708  15.738 -0.3923 -1.9726  2.9190
  614TMC3    H2 9103   4.350   4.546  15.457  0.5388  1.0672 -0.4721
  614TMC3    C7 9104   4.511   0.041  15.516  0.6019  0.4521 -0.3418
  614TMC3    C8 9105   4.288   4.350  15.611  0.0959  0.0352 -0.1164
  614TMC3    O1 9106   4.571   0.128  15.578  0.1627 -0.0729  0.0335
  614TMC3    O2 9107   4.203   4.392  15.537  0.1701  0.2952  0.2034
  615MPD2     C 9108   3.093   1.399  15.948 -0.7095 -0.4604 -0.2701
  615MPD2    C1 9109   3.089   1.525  15.892 -0.0407 -0.9280  0.2492
  615MPD2    C2 9110   2.997   1.550  15.790 -0.1820 -0.3827 -0.0765
  615MPD2    C3 9111   2.921   1.445  15.740  0.3764  0.3281 -0.3029
  615MPD2    C4 9112   2.940   1.323  15.791 -0.3678  1.0856 -0.3158
  615MPD2    C5 9113   3.022   1.292  15.895 -0.7484  0.3198 -0.2141
  615MPD2     H 9114   3.004   1.645  15.738  1.0672 -0.7832 -0.6598
  615MPD2    H1 9115   2.885   1.240  15.747  0.5809  1.0545 -1.4393
  615MPD2    H2 9116   3.161   1.380  16.031 -0.7730  0.5910  0.0182
  615MPD2    H3 9117   3.035   1.190  15.931 -0.7338  0.7223  0.9301
  615MPD2     N 9118   2.839   1.475  15.629  0.0929  0.4966  0.6906
  615MPD2    H5 9119   2.799   1.395  15.581 -0.6638  0.4995  1.3202
  615MPD2    N1 9120   3.164   1.642  15.916 -0.3088  0.2452 -0.2933
  615MPD2    H7 9121   3.143   1.724  15.859  0.4077  0.8852  0.3582
  616TMC3    C1 9122   3.323   1.782  16.020 -0.1236  0.2088 -0.2547
  616TMC3    C2 9123   3.388   1.812  16.137 -0.3827  0.9018  0.2567
  616TMC3    C3 9124   3.493   1.901  16.133  0.4873 -0.7342 -0.3010
  616TMC3    C4 9125   3.362   1.829  15.901 -0.2749  0.6411 -0.1440
  616TMC3    C5 9126   3.460   1.919  15.901 -0.0934 -0.0388 -0.1264
  616TMC3    C6 9127   3.520   1.967  16.015  0.4662  0.1850 -0.5056
  616TMC3     C 9128   3.250   1.656  16.019 -0.4509 -0.0095  0.4280
  616TMC3     O 9129   3.293   1.573  16.097 -0.0032  0.0323  0.5855
  616TMC3     H 9130   3.366   1.745  16.219  0.3864  1.8346  1.2236
  616TMC3    H1 9131   3.324   1.787  15.808  1.2637 -0.1113 -0.4210
  616TMC3    H2 9132   3.594   2.046  16.015 -0.0500  0.6619  0.3726
  616TMC3    C7 9133   3.500   1.977  15.773 -0.1073 -0.3980  0.1720
  616TMC3    C8 9134   3.561   1.943  16.256 -0.3286 -0.1821 -0.5961
  616TMC3    O1 9135   3.534   2.094  15.767  0.5564  0.3981  0.5029
  616TMC3    O2 9136   3.541   1.871  16.350  0.5952 -0.3803  0.1845
  617MPD2     C 9137   2.254   0.197  13.854 -0.4300 -0.0009 -0.4577
  617MPD2    C1 9138   2.279   0.115  13.964  0.0256 -0.1106 -0.5708
  617MPD2    C2 9139   2.178   0.074  14.049 -0.2335 -0.9609  0.4364
  617MPD2    C3 9140   2.058   0.142  14.034  0.3775 -0.3179 -0.7800
  617MPD2    C4 9141   2.031   0.222  13.926 -0.0320 -0.0108 -0.7322
  617MPD2    C5 9142   2.131   0.257  13.838  0.4631 -0.4269 -0.4382
  617MPD2     H 9143   2.196   0.003  14.128  0.5441 -0.5986  0.5851
  617MPD2    H1 9144   1.937   0.273  13.911  0.4053  1.0146 -0.0594
  617MPD2    H2 9145   2.337   0.225  13.790 -0.6591 -2.7162 -1.9817
  617MPD2    H3 9146   2.111   0.315  13.748  0.3690 -1.5061 -1.1093
  617MPD2     N 9147   1.947   0.107  14.120  0.1583 -0.5628  0.2533
  617MPD2    H5 9148   1.853   0.134  14.093  0.1549 -1.8629 -1.0151
  617MPD2    N1 9149   2.409   0.072  13.993 -0.2131 -0.2372 -0.0659
  617MPD2    H7 9150   2.490   0.103  13.939  0.5570  0.9096  1.7816
  618TMC3    C1 9151   2.591   4.675  14.092 -0.0319 -0.5180  0.0565
  618TMC3    C2 9152   2.635   4.546  14.108  0.0931  1.0266  0.2782
  618TMC3    C3 9153   2.768   4.521  14.108  0.0809  0.1407  0.5590
  618TMC3    C4 9154   2.675   0.053  14.067  0.1145  0.3517 -0.3183
  618TMC3    C5 9155   2.809   0.026  14.072  0.0495 -0.7453  0.3591
  618TMC3    C6 9156   2.861   4.621  14.099  0.5259 -0.0985  0.1643
  618TMC3     C 9157   2.445   4.700  14.092 -0.0997 -0.1168  0.5014
  618TMC3     O 9158   2.384   4.646  14.184  0.1509  0.8489  0.3955
  618TMC3     H 9159   2.566   4.473  14.149  1.1469 -0.8108 -1.2462
  618TMC3    H1 9160   2.638   0.154  14.064  2.1027  1.0558 -0.9851
  618TMC3    H2 9161   2.968   4.603  14.104  0.6626  1.3855  2.6687
  618TMC3    C7 9162   2.882   0.091  13.962 -0.2987  0.0828  0.3199
  618TMC3    C8 9163   2.812   4.404  14.034 -0.6751 -0.4051  0.1540
  618TMC3    O1 9164   2.802   0.149  13.886 -0.2298 -0.2075  0.1887
  618TMC3    O2 9165   2.932   4.374  14.035  0.1523 -0.2981 -0.3480
  619MPD2     C 9166   3.197   1.080  13.703 -0.0588 -0.4507  0.7321
  619MPD2    C1 9167   3.110   1.145  13.616  0.0282  0.1537 -0.2708
  619MPD2    C2 9168   2.972   1.126  13.630 -0.4210  0.2983  0.3800
  619MPD2    C3 9169   2.926   1.045  13.733 -0.2299 -0.8575 -0.0356
  619MPD2    C4 9170   3.014   0.980  13.821  0.0106 -0.1598 -0.2831
  619MPD2    C5 9171   3.145   0.994  13.806 -0.3204 -0.0459 -0.0353
  619MPD2     H 9172   2.904   1.163  13.555 -1.4333  0.0338  1.1751
  619MPD2    H1 9173   2.972   0.919  13.900 -0.3487  0.6879  0.1738
  619MPD2    H2 9174   3.305   1.087  13.697 -0.1884  0.8397 -0.1727
  619MPD2    H3 9175   3.212   0.939  13.871  1.3593  2.1386  0.0815
  619MPD2     N 9176   2.790   1.011  13.746 -0.1662  0.0593 -0.2972
  619MPD2    H5 9177   2.771   0.947  13.822  0.3825  1.7900  1.2906
  619MPD2    N1 9178   3.150   1.243  13.521  0.3238  0.1061  0.0278
  619MPD2    H7 9179   3.071   1.280  13.469  0.9772  0.5122 -0.6890
  620TMC3    C1 9180   3.291   1.386  13.380 -1.0750  0.5961 -0.1670
  620TMC3    C2 9181   3.189   1.388  13.291  0.2057 -0.0328 -0.4339
  620TMC3    C3 9182   3.205   1.477  13.185  0.3321  0.4696 -0.3614
  620TMC3    C4 9183   3.396   1.477  13.382 -0.0456 -0.3619  0.5742
  620TMC3    C5 9184   3.406   1.557  13.273 -0.6596  0.0094 -0.3177
  620TMC3    C6 9185   3.318   1.556  13.169  0.6471 -0.3767 -0.0757
  620TMC3     C 9186   3.274   1.301  13.501  0.2578 -0.0677 -0.0959
  620TMC3     O 9187   3.383   1.263  13.551  0.6259  0.6607 -0.0368
  620TMC3     H 9188   3.120   1.305  13.283  0.2458 -0.3623  2.7217
  620TMC3    H1 9189   3.475   1.477  13.456 -0.1569 -1.8604  0.6921
  620TMC3    H2 9190   3.340   1.624  13.087  1.1549  1.2958  1.4648
  620TMC3    C7 9191   3.457   1.689  13.304  0.1234  0.2185 -0.1619
  620TMC3    C8 9192   3.089   1.566  13.157  0.5566 -0.0993 -0.3757
  620TMC3    O1 9193   3.554   1.690  13.376  0.2157 -0.2687 -0.1918
  620TMC3    O2 9194   3.132   1.678  13.139 -1.0173  0.0115 -0.3946
  621MPD2     C 9195   3.169   1.295   9.683  0.4344 -0.6122 -0.5456
  621MPD2    C1 9196   3.199   1.403   9.601  0.1587 -0.0941  0.0842
  621MPD2    C2 9197   3.330   1.455   9.603 -0.4761  0.6900 -0.4633
  621MPD2    C3 9198   3.419   1.424   9.701  0.1219 -0.3935 -0.1853
  621MPD2    C4 9199   3.378   1.328   9.795 -0.0297 -0.6216  0.8623
  621MPD2    C5 9200   3.255   1.265   9.786 -0.0217  0.2996 -0.4157
  621MPD2     H 9201   3.353   1.517   9.517  2.1701  0.4443  0.0552
  621MPD2    H1 9202   3.449   1.296   9.871  0.0401 -0.4995  0.8485
  621MPD2    H2 9203   3.079   1.235   9.673  0.1773 -0.2841 -0.1906
  621MPD2    H3 9204   3.236   1.184   9.856  1.8995  0.8434  0.7242
  621MPD2     N 9205   3.539   1.496   9.713  0.7437  0.1836  0.6722
  621MPD2    H5 9206   3.543   1.577   9.652 -4.0878 -0.9593 -1.1588
  621MPD2    N1 9207   3.114   1.456   9.496 -0.2840 -0.1816 -0.5667
  621MPD2    H7 9208   3.139   1.539   9.444  1.1456 -1.1646 -1.4201
  622TMC3    C1 9209   2.905   1.484   9.379  0.5502  0.0375 -0.1046
  622TMC3    C2 9210   2.769   1.488   9.395  0.5961 -0.2152  0.2928
  622TMC3    C3 9211   2.691   1.557   9.303  0.5215 -0.3056 -0.5552
  622TMC3    C4 9212   2.961   1.544   9.275  0.2021  0.3024  0.8658
  622TMC3    C5 9213   2.878   1.604   9.177 -0.0778  0.1427  0.5272
  622TMC3    C6 9214   2.746   1.614   9.188 -0.2861  0.1586 -0.5494
  622TMC3     C 9215   2.984   1.408   9.481 -0.4588  0.7257 -0.3320
  622TMC3     O 9216   2.920   1.332   9.549  0.5604  0.0093 -0.3802
  622TMC3     H 9217   2.719   1.435   9.475 -0.7891 -1.0692 -1.1576
  622TMC3    H1 9218   3.067   1.527   9.263  0.4262  1.0955  1.7435
  622TMC3    H2 9219   2.680   1.668   9.122 -0.5169  0.7755  0.1903
  622TMC3    C7 9220   2.943   1.680   9.065 -0.3346 -0.4539  0.0568
  622TMC3    C8 9221   2.566   1.608   9.352 -0.1889 -0.6404 -0.3430
  622TMC3    O1 9222   3.052   1.638   9.026  0.5141  0.4020  0.0440
  622TMC3    O2 9223   2.479   1.643   9.272  0.3191 -0.3335  0.0167
  623MPD2     C 9224   2.339   1.807  15.833  0.7676  0.4959  0.0932
  623MPD2    C1 9225   2.272   1.898  15.908  0.3126 -0.3271 -0.3436
  623MPD2    C2 9226   2.347   2.010  15.957  0.7778  0.1036 -0.6637
  623MPD2    C3 9227   2.479   2.033  15.919  0.9482  0.4996 -0.3623
  623MPD2    C4 9228   2.540   1.940  15.845 -0.1540 -0.2327  0.1282
  623MPD2    C5 9229   2.476   1.824  15.810 -0.0526  0.2584  0.0455
  623MPD2     H 9230   2.301   2.080  16.026 -1.0240 -2.5264  0.7734
  623MPD2    H1 9231   2.642   1.946  15.809 -1.2663  1.9135 -2.6781
  623MPD2    H2 9232   2.299   1.719  15.785 -0.8540  0.5652  1.3494
  623MPD2    H3 9233   2.534   1.769  15.737 -1.1072 -1.5503  0.5561
  623MPD2     N 9234   2.548   2.141  15.974  0.2416  0.4933 -0.5261
  623MPD2    H5 9235   2.488   2.200  16.031 -0.9368 -0.7441 -0.4671
  623MPD2    N1 9236   2.135   1.906  15.934 -0.6746 -0.5494 -0.6852
  623MPD2    H7 9237   2.106   1.977  16.001 -2.1039 -1.8670  0.0972
  624TMC3    C1 9238   2.762   2.285  16.275 -0.0045 -0.0091 -0.1929
  624TMC3    C2 9239   2.647   2.356  16.297  0.1600 -0.2866 -0.1072
  624TMC3    C3 9240   2.569   2.386  16.195  0.3187 -0.2890 -0.0065
  624TMC3    C4 9241   2.799   2.249  16.143  0.2984 -0.1674  0.8959
  624TMC3    C5 9242   2.711   2.278  16.044  0.2018 -0.7451  0.7973
  624TMC3    C6 9243   2.603   2.349  16.070 -0.3367 -0.2337  0.4095
  624TMC3     C 9244   2.831   2.238  16.398  0.0273  0.0554  0.2465
  624TMC3     O 9245   2.781   2.270  16.505 -0.0965 -0.7501 -0.0917
  624TMC3     H 9246   2.620   2.380  16.399  0.9225 -2.7294  0.6696
  624TMC3    H1 9247   2.884   2.199  16.098 -0.0358 -1.7957  2.0708
  624TMC3    H2 9248   2.530   2.385  15.998 -0.7501  0.7276  1.3127
  624TMC3    C7 9249   2.679   2.174  15.954 -1.1875  0.0617  0.2319
  624TMC3    C8 9250   2.431   2.361  16.220  0.5324 -0.5087 -0.1422
  624TMC3    O1 9251   2.770   2.122  15.891 -0.3614  0.0545 -0.4973
  624TMC3    O2 9252   2.381   2.269  16.160  0.6238 -0.6322  0.5151
  625MPD2     C 9253   2.512   2.766   0.396 -0.2030 -0.6845 -0.4768
  625MPD2    C1 9254   2.618   2.823   0.462  0.7027  0.2668 -0.7010
  625MPD2    C2 9255   2.697   2.740   0.537 -0.1770 -0.7596  0.2069
  625MPD2    C3 9256   2.672   2.611   0.563  0.1105 -0.4773 -0.2106
  625MPD2    C4 9257   2.566   2.551   0.495  0.3526  0.6787  0.8540
  625MPD2    C5 9258   2.501   2.626   0.401  0.4374 -0.0782  0.4141
  625MPD2     H 9259   2.778   2.780   0.597  0.2300 -0.1156 -0.7816
  625MPD2    H1 9260   2.540   2.446   0.500 -0.4728  0.8636  0.5322
  625MPD2    H2 9261   2.450   2.828   0.331  0.3317 -2.8466 -3.0501
  625MPD2    H3 9262   2.436   2.573   0.332  0.8422  0.8260 -0.6593
  625MPD2     N 9263   2.754   2.541   0.658 -0.4610  0.4692  0.1151
  625MPD2    H5 9264   2.810   2.599   0.720 -0.7383 -0.1229  0.9188
  625MPD2    N1 9265   2.667   2.953   0.447 -0.2062  0.4344 -0.4113
  625MPD2    H7 9266   2.758   2.976   0.485  0.5943 -3.0960 -0.2153
  626TMC3    C1 9267   2.653   3.187   0.395  0.0506 -0.7077  0.5289
  626TMC3    C2 9268   2.632   3.265   0.290 -0.1669  0.4354 -0.5714
  626TMC3    C3 9269   2.705   3.387   0.288  0.2854  0.1529 -0.0261
  626TMC3    C4 9270   2.734   3.211   0.500 -1.1171  0.1344 -0.5841
  626TMC3    C5 9271   2.791   3.339   0.507  0.0297  0.2026 -0.3793
  626TMC3    C6 9272   2.779   3.421   0.398 -0.3188 -0.3497  0.0671
  626TMC3     C 9273   2.595   3.054   0.380 -0.5191 -0.2862  0.0898
  626TMC3     O 9274   2.499   3.044   0.309  0.3011  0.0519 -0.0613
  626TMC3     H 9275   2.570   3.237   0.205  1.1675  0.3889 -1.5334
  626TMC3    H1 9276   2.741   3.139   0.581  1.6041  0.5390 -0.4672
  626TMC3    H2 9277   2.853   3.496   0.376 -0.2629 -0.9293 -1.7654
  626TMC3    C7 9278   2.886   3.363   0.618 -0.4235 -0.7362  0.5067
  626TMC3    C8 9279   2.687   3.481   0.171  0.5337 -0.1918  1.2649
  626TMC3    O1 9280   2.904   3.273   0.697  0.0834  0.0321 -0.7304
  626TMC3    O2 9281   2.639   3.429   0.073  0.1787 -0.1423 -0.2448
  627MPD2     C 9282   1.259   3.671  14.461  0.0704 -0.8883  0.4895
  627MPD2    C1 9283   1.325   3.595  14.554 -0.4962 -0.1217  0.1673
  627MPD2    C2 9284   1.261   3.477  14.594 -0.2430  0.0238  0.0837
  627MPD2    C3 9285   1.131   3.444  14.551  0.2401 -0.7098  0.6621
  627MPD2    C4 9286   1.074   3.520  14.458  0.3499 -0.6171  0.2499
  627MPD2    C5 9287   1.136   3.634  14.418 -0.1589 -0.0157 -0.0963
  627MPD2     H 9288   1.312   3.407  14.660  1.5195 -1.3198 -2.6897
  627MPD2    H1 9289   0.975   3.498  14.421 -0.4739 -1.1439  2.7721
  627MPD2    H2 9290   1.301   3.765  14.428  0.3845  0.0219  3.4543
  627MPD2    H3 9291   1.069   3.691  14.356 -0.1685  0.0173 -0.0559
  627MPD2     N 9292   1.083   3.322  14.602 -0.1014  0.0845 -0.4587
  627MPD2    H5 9293   1.132   3.284  14.682 -1.6127  2.5960  1.6568
  627MPD2    N1 9294   1.446   3.625  14.616 -0.2425  0.2640 -0.7788
  627MPD2    H7 9295   1.486   3.549  14.670 -1.9983 -0.8902 -1.0968
  628TMC3    C1 9296   1.651   3.726  14.652  0.4187 -0.0478  0.3300
  628TMC3    C2 9297   1.723   3.611  14.631  0.6887 -0.1471  0.0583
  628TMC3    C3 9298   1.842   3.603  14.693  0.1626  0.4910 -0.6816
  628TMC3    C4 9299   1.699   3.834  14.715  0.7772 -0.3932  0.5673
  628TMC3    C5 9300   1.832   3.829  14.758 -0.4651 -0.1550 -0.2573
  628TMC3    C6 9301   1.899   3.711  14.745  0.3561 -0.3120 -0.2166
  628TMC3     C 9302   1.516   3.742  14.593  0.3103 -0.3074 -0.1000
  628TMC3     O 9303   1.474   3.852  14.558 -0.0471 -0.1272  0.1979
  628TMC3     H 9304   1.685   3.525  14.577  1.1678 -1.3384  1.6186
  628TMC3    H1 9305   1.642   3.926  14.719  3.2547  1.0859  1.7183
  628TMC3    H2 9306   2.005   3.711  14.766  0.4806 -0.8156 -0.8436
  628TMC3    C7 9307   1.898   3.939  14.817  0.3503 -0.0572 -0.7304
  628TMC3    C8 9308   1.929   3.506  14.640 -0.3973 -0.7866 -0.5486
  628TMC3    O1 9309   1.995   3.913  14.882 -0.1449  0.2194  0.2423
  628TMC3    O2 9310   1.895   3.449  14.539 -0.0026  0.1366 -0.2138
  629MPD2     C 9311   3.865   2.120  16.593 -0.0829 -0.0349  0.2044
  629MPD2    C1 9312   3.916   2.154  16.467 -0.6198 -0.2438 -0.4937
  629MPD2    C2 9313   3.837   2.141  16.355 -0.3989  0.4232 -0.2157
  629MPD2    C3 9314   3.706   2.101  16.365 -0.1084 -0.4045  0.2736
  629MPD2    C4 9315   3.653   2.104  16.490  0.6346  0.0566  0.0310
  629MPD2    C5 9316   3.727   2.116  16.606  0.6721  0.9482  0.4478
  629MPD2     H 9317   3.890   2.151  16.261 -1.8492 -0.8997 -1.1727
  629MPD2    H1 9318   3.546   2.090  16.505  0.9871 -0.5323  1.9861
  629MPD2    H2 9319   3.929   2.109  16.679  0.1028 -0.9442 -0.0467
  629MPD2    H3 9320   3.687   2.101  16.706  0.1571 -0.2368  0.0566
  629MPD2     N 9321   3.645   2.051  16.247  0.1052  0.0471  0.3278
  629MPD2    H5 9322   3.684   2.074  16.157 -2.6513 -0.6140 -1.0204
  629MPD2    N1 9323   4.053   2.180  16.458  0.4235 -0.3129 -1.3876
  629MPD2    H7 9324   4.112   2.171  16.540  0.2939 -1.0052 -1.3685
  630TMC3    C1 9325   4.245   2.305  16.403 -0.2003 -0.0578 -0.8750
  630TMC3    C2 9326   4.281   2.421  16.340 -0.0512  0.1798 -0.1014
  630TMC3    C3 9327   4.386   2.482  16.389 -0.3579 -0.4374  0.5122
  630TMC3    C4 9328   4.322   2.233  16.494  0.1147  0.1434  0.2651
  630TMC3    C5 9329   4.440   2.294  16.530 -0.1795 -0.6019  0.0957
  630TMC3    C6 9330   4.461   2.423  16.488 -0.4085 -0.1096  0.3666
  630TMC3     C 9331   4.113   2.245  16.355 -0.3265  0.3732 -0.2370
  630TMC3     O 9332   4.069   2.280  16.244  0.4472  0.0710  0.6222
  630TMC3     H 9333   4.219   2.463  16.261 -2.0384  1.4634  2.1424
  630TMC3    H1 9334   4.303   2.127  16.508 -1.2758  0.5849  1.6883
  630TMC3    H2 9335   4.543   2.472  16.539  1.2084 -2.1847 -0.2338
  630TMC3    C7 9336   4.523   2.241  16.641  0.6791  1.0696  0.6586
  630TMC3    C8 9337   4.453   2.596  16.332 -0.3736  0.2189  0.0265
  630TMC3    O1 9338   4.591   2.329  16.699 -0.5311 -0.1522 -0.5245
  630TMC3    O2 9339   4.552   2.627  16.393 -0.1615  0.6001  0.2714
  631MPD2     C 9340   2.579   2.340  15.096  0.0432 -0.2382 -0.3707
  631MPD2    C1 9341   2.711   2.313  15.091  0.2001  0.5238  0.3364
  631MPD2    C2 9342   2.751   2.181  15.115 -0.0200  0.2701  0.2704
  631MPD2    C3 9343   2.658   2.084  15.153 -0.6371  0.3107  0.6090
  631MPD2    C4 9344   2.524   2.114  15.167 -0.1295  0.2553  0.6987
  631MPD2    C5 9345   2.487   2.242  15.132  0.1705 -0.2542 -0.0484
  631MPD2     H 9346   2.853   2.145  15.116 -0.2776 -0.4892 -0.7185
  631MPD2    H1 9347   2.449   2.045  15.203 -0.0550 -0.6172 -0.8232
  631MPD2    H2 9348   2.532   2.435  15.073 -1.0918  0.1134  3.3595
  631MPD2    H3 9349   2.380   2.255  15.122  0.4784  0.5142 -2.5067
  631MPD2     N 9350   2.712   1.958  15.197 -0.2130  0.0552  0.8865
  631MPD2    H5 9351   2.813   1.946  15.190 -0.3498 -0.0456 -0.9415
  631MPD2    N1 9352   2.803   2.423  15.081  0.0669 -0.0805  0.0170
  631MPD2    H7 9353   2.768   2.518  15.081  0.1948 -0.0367  2.1582
  632TMC3    C1 9354   3.009   2.538  15.079  0.0700 -0.1093  0.5327
  632TMC3    C2 9355   2.960   2.638  15.162 -0.3271  0.0891 -0.8450
  632TMC3    C3 9356   3.039   2.747  15.179  0.3739  0.3638 -0.2905
  632TMC3    C4 9357   3.139   2.538  15.030 -0.2413  0.2131  0.6395
  632TMC3    C5 9358   3.214   2.651  15.061  0.1608  0.2156 -0.8401
  632TMC3    C6 9359   3.172   2.754  15.139 -0.3370 -0.1186  0.9076
  632TMC3     C 9360   2.941   2.412  15.074  0.1335 -0.0689  0.0653
  632TMC3     O 9361   3.016   2.316  15.085  0.1081  0.0635  0.4012
  632TMC3     H 9362   2.859   2.636  15.202 -0.2622 -1.0931 -0.7415
  632TMC3    H1 9363   3.171   2.458  14.965 -1.0241  0.0375  0.4724
  632TMC3    H2 9364   3.240   2.838  15.144  0.8878 -1.0621  0.0355
  632TMC3    C7 9365   3.325   2.676  14.972  0.9354 -0.0613 -0.7332
  632TMC3    C8 9366   2.978   2.862  15.263 -0.6689  0.3398  0.0221
  632TMC3    O1 9367   3.340   2.780  14.913 -0.5755 -0.3099  0.7815
  632TMC3    O2 9368   2.863   2.844  15.299  0.0271 -0.5873 -0.4338
  633MPD2     C 9369   2.637   0.277  17.451  0.5414 -0.7400  0.0742
  633MPD2    C1 9370   2.747   0.271  17.372  0.5338 -0.5730  0.4094
  633MPD2    C2 9371   2.856   0.192  17.424 -0.5529 -0.3879  0.2087
  633MPD2    C3 9372   2.850   0.132  17.548 -0.0919  0.3437  1.1882
  633MPD2    C4 9373   2.732   0.142  17.619 -0.2642 -0.2193  0.6585
  633MPD2    C5 9374   2.628   0.214  17.577  0.0707  0.2165 -0.9667
  633MPD2     H 9375   2.943   0.182  17.360  0.1424 -1.1929  1.2870
  633MPD2    H1 9376   2.712   0.102   0.025 -1.6630  0.3910  0.6241
  633MPD2    H2 9377   2.540   0.317  17.423  1.0654  1.3525  1.2761
  633MPD2    H3 9378   2.542   0.232  17.640  1.8428 -0.2812  1.5477
  633MPD2     N 9379   2.950   0.055  17.601  0.3721  0.1178  0.4451
  633MPD2    H5 9380   2.921   0.019  17.691  1.0066  0.5319  0.8173
  633MPD2    N1 9381   2.763   0.324  17.244  0.1331 -0.7699 -0.5224
  633MPD2    H7 9382   2.839   0.297  17.183  1.5907  2.8228 -0.2429
  634TMC3    C1 9383   2.684   0.418  17.053  0.3757  0.6204 -0.2288
  634TMC3    C2 9384   2.760   0.321  16.993 -0.3614 -0.3603  0.1365
  634TMC3    C3 9385   2.795   0.336  16.860  0.1654 -0.3147  0.2938
  634TMC3    C4 9386   2.654   0.535  16.987  0.3797 -1.1423  0.6950
  634TMC3    C5 9387   2.676   0.533  16.849  0.7040 -0.4660 -0.4341
  634TMC3    C6 9388   2.749   0.441  16.785  0.1382  0.3121 -0.1241
  634TMC3     C 9389   2.668   0.409  17.193  0.2270 -0.0963 -0.8271
  634TMC3     O 9390   2.579   0.478  17.242 -0.0992 -0.2516 -0.1866
  634TMC3     H 9391   2.781   0.225  17.038 -1.1238  0.3805  2.0513
  634TMC3    H1 9392   2.596   0.604  17.048  0.9391  1.4253 -1.6655
  634TMC3    H2 9393   2.739   0.428  16.678 -1.3361  1.2205 -0.0959
  634TMC3    C7 9394   2.613   0.629  16.765 -0.6278 -0.3221 -0.2039
  634TMC3    C8 9395   2.809   0.210  16.780  0.1815  0.2153  0.3421
  634TMC3    O1 9396   2.654   0.638  16.651  0.0775 -0.1979  0.2789
  634TMC3    O2 9397   2.777   0.105  16.840  0.0367 -0.3237 -0.4104
  635TMC3    C1 9398   3.671   1.684  17.317  0.0677 -1.1816  0.1218
  635TMC3    C2 9399   3.764   1.727  17.404  0.1603  0.8603 -0.3676
  635TMC3    C3 9400   3.893   1.738  17.358 -0.1006 -0.3402  0.0890
  635TMC3    C4 9401   3.699   1.642  17.194  0.0771 -0.6140  0.4961
  635TMC3    C5 9402   3.830   1.638  17.164 -0.5567  0.8017 -0.3086
  635TMC3    C6 9403   3.933   1.690  17.237 -0.2809 -0.1226  0.6251
  635TMC3     C 9404   3.538   1.698  17.355  0.5364 -0.2555  0.7968
  635TMC3     O 9405   3.512   1.779  17.444  0.1768 -0.0165 -0.1041
  635TMC3     H 9406   3.734   1.780  17.494 -3.9266 -1.9346 -0.0869
  635TMC3    H1 9407   3.626   1.600  17.126  2.7545 -0.1024 -2.6548
  635TMC3    H2 9408   4.033   1.692  17.196 -1.7394  0.7707 -2.9307
  635TMC3    C7 9409   3.882   1.553  17.061 -0.1112 -0.1443  0.1240
  635TMC3    C8 9410   3.989   1.835  17.416  0.1455 -0.2634 -0.2212
  635TMC3    O1 9411   3.998   1.510  17.063  0.4150  0.2417  0.3239
  635TMC3    O2 9412   4.084   1.877  17.349 -0.0996 -0.6132  0.4057
  636MPD2     C 9413   3.954   0.665  15.689 -0.3053 -0.4275 -0.2852
  636MPD2    C1 9414   3.883   0.657  15.804  0.9586  0.1290  0.8334
  636MPD2    C2 9415   3.861   0.532  15.860  0.1848  0.1257 -0.3948
  636MPD2    C3 9416   3.891   0.417  15.789 -0.1851 -0.6587 -0.6158
  636MPD2    C4 9417   3.955   0.424  15.670  0.5589 -0.1631  0.2390
  636MPD2    C5 9418   3.990   0.554  15.623  0.8826 -0.0270  0.1782
  636MPD2     H 9419   3.784   0.515  15.935  0.9835  2.0099  0.8521
  636MPD2    H1 9420   3.993   0.340  15.613 -0.1290  0.8873 -1.7485
  636MPD2    H2 9421   3.980   0.763  15.650 -1.1149 -0.3983 -0.7476
  636MPD2    H3 9422   4.058   0.555  15.539 -0.0158  1.1277 -0.5255
  636MPD2     N 9423   3.844   0.294  15.847 -1.0143  0.3613 -0.0679
  636MPD2    H5 9424   3.796   0.293  15.936  0.8486 -0.3557  0.9143
  636MPD2    N1 9425   3.826   0.775  15.859  0.5590  0.3128  0.1548
  636MPD2    H7 9426   3.775   0.760  15.946  0.8444  2.4521  0.6981
  637TMC3    C1 9427   3.813   0.065  15.876 -0.2711 -0.1306 -0.3854
  637TMC3    C2 9428   3.873   0.063  16.002 -0.2148 -0.5250  0.4557
  637TMC3    C3 9429   3.877   4.665  16.071  0.0360 -0.0762  0.4719
  637TMC3    C4 9430   3.771   4.672  15.813  0.0980 -0.0873 -0.4068
  637TMC3    C5 9431   3.768   4.553  15.887  0.1530  0.2485 -0.2355
  637TMC3    C6 9432   3.812   4.554  16.018  0.9338 -0.6134  0.2083
  637TMC3     C 9433   3.855   0.172  15.787  0.2312 -0.0367  0.4078
  637TMC3     O 9434   3.915   0.137  15.684  0.6212  0.0667 -0.3090
  637TMC3     H 9435   3.934   0.140  16.047  1.3512 -1.8114  0.5736
  637TMC3    H1 9436   3.750   4.669  15.707  0.9765  0.6635 -0.6006
  637TMC3    H2 9437   3.790   4.469  16.081  1.1201 -0.1248  0.9255
  637TMC3    C7 9438   3.829   4.446  15.817 -0.1554 -0.5530 -0.0047
  637TMC3    C8 9439   4.024   4.639  16.075  0.3563 -0.5321  0.2365
  637TMC3    O1 9440   3.851   4.462  15.697 -0.1101 -0.4274  0.5049
  637TMC3    O2 9441   4.098   0.001  16.026  0.0790  0.0377 -0.3652
  638MPD2     C 9442   3.559   4.250  14.277 -0.1844  0.2355  0.1109
  638MPD2    C1 9443   3.568   4.118  14.244  0.4866  0.4240 -0.3814
  638MPD2    C2 9444   3.571   4.025  14.344 -0.0969  0.3288 -0.7811
  638MPD2    C3 9445   3.578   4.059  14.475 -0.5173  0.0006 -0.4009
  638MPD2    C4 9446   3.575   4.187  14.507  0.0868 -0.3907  0.1553
  638MPD2    C5 9447   3.558   4.288  14.410  0.4325 -0.2566 -0.0316
  638MPD2     H 9448   3.573   3.918  14.329  1.8998  0.1954  0.3857
  638MPD2    H1 9449   3.572   4.230  14.607 -1.6966  0.4674 -0.2577
  638MPD2    H2 9450   3.550   4.329  14.203 -3.7622 -1.3959 -1.1613
  638MPD2    H3 9451   3.556   4.392  14.442 -1.7679  0.0708 -1.2464
  638MPD2     N 9452   3.597   3.960  14.574 -0.0645  0.3515  0.2998
  638MPD2    H5 9453   3.607   3.865  14.539  0.3731  0.2629  0.6626
  638MPD2    N1 9454   3.565   4.087  14.112 -0.0782  0.1620  0.7328
  638MPD2    H7 9455   3.558   4.162  14.044  1.9785 -1.1227 -0.9285
  639TMC3    C1 9456   3.571   3.839  14.768 -0.0224 -0.2585 -0.1964
  639TMC3    C2 9457   3.473   3.764  14.707 -0.4669 -0.1417 -0.0459
  639TMC3    C3 9458   3.423   3.654  14.777 -0.2343  0.3875 -0.0349
  639TMC3    C4 9459   3.604   3.818  14.899 -0.4525 -0.5390  0.1316
  639TMC3    C5 9460   3.546   3.708  14.967 -0.1427  0.1387 -0.3038
  639TMC3    C6 9461   3.459   3.621  14.907 -0.0469 -0.1702  0.0256
  639TMC3     C 9462   3.577   3.974  14.712  0.2062 -0.0534 -0.3309
  639TMC3     O 9463   3.567   4.066  14.792 -0.4596  0.1695  0.5291
  639TMC3     H 9464   3.436   3.789  14.608 -2.3102  2.0618  1.1917
  639TMC3    H1 9465   3.676   3.880  14.951 -1.2093  0.5453 -0.1099
  639TMC3    H2 9466   3.418   3.533  14.956 -1.3876  0.2217 -0.3987
  639TMC3    C7 9467   3.607   3.676  15.087 -0.3789 -0.1115  0.1560
  639TMC3    C8 9468   3.349   3.553  14.702 -0.2440 -0.0446 -0.2736
  639TMC3    O1 9469   3.535   3.619  15.165 -0.0221 -0.0696 -0.5545
  639TMC3    O2 9470   3.358   3.556  14.576  0.0434 -0.0316 -1.0985
  640MPD2     C 9471   4.206   2.592  10.110  0.0723 -0.2634  0.1617
  640MPD2    C1 9472   4.210   2.688  10.009 -0.5305 -0.7600  0.3890
  640MPD2    C2 9473   4.106   2.784  10.004  0.3337  0.4620 -0.2608
  640MPD2    C3 9474   4.008   2.790  10.101 -0.5139 -0.2827 -0.8412
  640MPD2    C4 9475   4.011   2.705  10.203 -0.2629 -0.3246 -0.1037
  640MPD2    C5 9476   4.113   2.607  10.210  0.3962  0.7235 -1.2098
  640MPD2     H 9477   4.104   2.854   9.922 -1.4508  0.7282  0.0078
  640MPD2    H1 9478   3.930   2.699  10.275  0.7055 -0.0301  1.0103
  640MPD2    H2 9479   4.277   2.510  10.110 -1.7014 -1.8251  0.0565
  640MPD2    H3 9480   4.119   2.526  10.282 -3.5600 -0.1338 -1.8398
  640MPD2     N 9481   3.913   2.893  10.109  0.2530  0.6390 -0.6945
  640MPD2    H5 9482   3.861   2.906  10.195  0.6490  2.0822 -0.6721
  640MPD2    N1 9483   4.304   2.668   9.901 -0.0744  0.2146 -0.2960
  640MPD2    H7 9484   4.361   2.584   9.901 -1.3745 -0.6782  1.0187
  641TMC3    C1 9485   4.437   2.735   9.713  0.4786  0.0683  0.0657
  641TMC3    C2 9486   4.522   2.629   9.747 -0.4209  0.3280 -0.0719
  641TMC3    C3 9487   4.609   2.588   9.648  0.9884 -0.2907  0.4734
  641TMC3    C4 9488   4.437   2.783   9.587 -0.0691 -0.4785 -0.3081
  641TMC3    C5 9489   4.521   2.733   9.491 -0.1499  0.2855  0.2099
  641TMC3    C6 9490   4.617   2.637   9.521 -0.2450  0.6837  0.0256
  641TMC3     C 9491   4.322   2.762   9.796 -0.9576  0.4162 -0.0397
  641TMC3     O 9492   4.248   2.852   9.751 -0.1850  0.6637 -0.2896
  641TMC3     H 9493   4.515   2.583   9.845 -0.5238 -1.1225 -0.7596
  641TMC3    H1 9494   4.370   2.864   9.563 -0.2013 -0.8366 -1.1115
  641TMC3    H2 9495   4.672   2.586   9.442 -1.6085  0.7034 -0.9409
  641TMC3    C7 9496   4.509   2.779   9.353  0.4259  0.2087 -0.1337
  641TMC3    C8 9497   4.717   2.505   9.690 -0.0851  0.6274 -0.0463
  641TMC3    O1 9498   4.610   2.759   9.291  0.4523 -0.1346 -0.0049
  641TMC3    O2 9499   0.034   2.420   9.609  0.2717 -0.0054  0.2624
  642TMC3    C1 9500   0.186   3.479  12.626 -0.6362 -0.3748  0.4845
  642TMC3    C2 9501   0.210   3.429  12.745 -0.0168  0.4306  0.0938
  642TMC3    C3 9502   0.215   3.294  12.761  0.4031 -0.2735  0.4520
  642TMC3    C4 9503   0.140   3.409  12.522 -0.1056  0.3826 -0.0864
  642TMC3    C5 9504   0.131   3.271  12.544  0.2524 -0.4099 -0.3932
  642TMC3    C6 9505   0.170   3.211  12.660  0.1477  0.8021  0.2394
  642TMC3     C 9506   0.171   3.626  12.623 -0.5630  0.3489  0.6958
  642TMC3     O 9507   0.135   3.685  12.723  0.2069 -0.4904  0.1558
  642TMC3     H 9508   0.214   3.502  12.824  1.5800  0.8237 -0.3416
  642TMC3    H1 9509   0.108   3.463  12.433  0.9121  0.0505 -0.6462
  642TMC3    H2 9510   0.150   3.110  12.694  2.0125  0.3539  0.0280
  642TMC3    C7 9511   0.090   3.195  12.433 -0.4858 -0.2449 -0.3484
  642TMC3    C8 9512   0.240   3.237  12.894 -0.3457  0.0937 -0.6282
  642TMC3    O1 9513   0.036   3.263  12.344  0.0397  0.4756 -0.0383
  642TMC3    O2 9514   0.208   3.122  12.912 -0.6208  0.4501  0.2589
  643TMC3    C1 9515   0.303   3.268   0.680 -0.1697  0.6443  0.3463
  643TMC3    C2 9516   0.176   3.317   0.650  0.4713 -0.1651  0.3791
  643TMC3    C3 9517   0.102   3.257   0.554 -0.6382 -0.3706  1.1197
  643TMC3    C4 9518   0.354   3.154   0.627 -0.0409  0.3073 -0.7640
  643TMC3    C5 9519   0.280   3.105   0.526 -0.2491 -0.2096 -0.0779
  643TMC3    C6 9520   0.159   3.152   0.493 -0.9308 -1.0118  0.3966
  643TMC3     C 9521   0.345   3.297   0.818  0.0146 -0.1249 -0.2682
  643TMC3     O 9522   0.259   3.311   0.902  0.0720  0.1680  0.3724
  643TMC3     H 9523   0.137   3.414   0.675 -0.7455 -0.2174 -1.3306
  643TMC3    H1 9524   0.455   3.119   0.649 -1.0066 -1.3636  0.9970
  643TMC3    H2 9525   0.102   3.097   0.419  0.2289  0.5079 -1.6341
  643TMC3    C7 9526   0.370   3.115   0.421  0.1717  1.3295  1.0301
  643TMC3    C8 9527   0.045   3.357   0.455 -0.0646  0.3954  0.2274
  643TMC3    O1 9528   0.445   3.212   0.430 -0.1405 -0.2874 -0.0375
  643TMC3    O2 9529   4.659   3.321   0.410 -0.4638 -0.8317 -0.0176
  644MPD2     C 9530   4.248   3.535   9.345  0.5465  0.4371 -0.5748
  644MPD2    C1 9531   4.242   3.409   9.390  0.2104  0.1225 -0.0359
  644MPD2    C2 9532   4.113   3.355   9.417  0.4278  0.2126  0.2581
  644MPD2    C3 9533   3.999   3.427   9.388 -0.3362  0.0426  0.0369
  644MPD2    C4 9534   4.018   3.557   9.342  0.1295  0.4445  0.1919
  644MPD2    C5 9535   4.144   3.614   9.317 -0.2356  0.8265 -0.2256
  644MPD2     H 9536   4.093   3.255   9.456 -0.7631  0.4583  0.2719
  644MPD2    H1 9537   3.936   3.628   9.337  0.4082  0.6174 -1.7119
  644MPD2    H2 9538   4.344   3.586   9.343  0.8921 -0.1467  0.9591
  644MPD2    H3 9539   4.157   3.718   9.291 -2.3536  1.6982  2.0598
  644MPD2     N 9540   3.870   3.353   9.404 -0.1704  0.0352  0.0296
  644MPD2    H5 9541   3.864   3.257   9.436  3.2856 -0.5811 -1.0977
  644MPD2    N1 9542   4.366   3.349   9.421  0.2315 -0.2790  0.4728
  644MPD2    H7 9543   4.453   3.396   9.399  1.7136 -4.0918 -1.6602
  645TMC3    C1 9544   3.634   3.332   9.394 -0.8278  0.4793  0.0991
  645TMC3    C2 9545   3.644   3.196   9.367  0.4173 -0.5870  0.3954
  645TMC3    C3 9546   3.529   3.124   9.373  0.3227 -0.5230 -0.7583
  645TMC3    C4 9547   3.516   3.387   9.417  0.3200  0.1764 -0.3444
  645TMC3    C5 9548   3.398   3.320   9.407  0.0567  0.2916  0.4743
  645TMC3    C6 9549   3.406   3.181   9.390 -0.3207  0.4467  0.0740
  645TMC3     C 9550   3.749   3.414   9.371 -0.5722  0.3287  0.2569
  645TMC3     O 9551   3.726   3.528   9.346 -0.2530 -0.2979  0.1416
  645TMC3     H 9552   3.738   3.151   9.337  0.8821  0.3233  0.4909
  645TMC3    H1 9553   3.513   3.494   9.437  0.8012  0.1364 -0.0603
  645TMC3    H2 9554   3.312   3.129   9.382 -0.6354  1.1037 -0.5158
  645TMC3    C7 9555   3.272   3.391   9.431 -0.4999 -0.4738  0.9964
  645TMC3    C8 9556   3.523   2.983   9.328 -0.2710 -0.3383 -0.2515
  645TMC3    O1 9557   3.285   3.516   9.427 -0.3999  0.3359  0.4703
  645TMC3    O2 9558   3.417   2.923   9.343 -0.3654 -0.0823 -0.8801
  646MPD2     C 9559   3.846   2.989  14.277  0.4372  0.0570  0.3540
  646MPD2    C1 9560   3.759   2.988  14.382 -0.3496 -0.2750  0.0745
  646MPD2    C2 9561   3.619   3.012  14.358 -0.5473  0.0865  0.3356
  646MPD2    C3 9562   3.573   3.027  14.230 -0.0493 -0.4058 -0.3447
  646MPD2    C4 9563   3.669   3.026  14.126 -0.2600 -0.4925  0.0488
  646MPD2    C5 9564   3.804   3.012  14.151  0.3202  0.3987 -0.2461
  646MPD2     H 9565   3.549   3.000  14.440 -1.0407 -1.0501 -0.2446
  646MPD2    H1 9566   3.641   3.055  14.026 -1.3470  3.0873  1.4036
  646MPD2    H2 9567   3.953   2.980  14.294  1.1663  1.9890 -3.0972
  646MPD2    H3 9568   3.873   3.023  14.067 -1.2799 -1.0763 -1.7610
  646MPD2     N 9569   3.430   3.028  14.213  0.3996  0.5257  0.0534
  646MPD2    H5 9570   3.390   3.062  14.299  0.5855  0.3456  0.2125
  646MPD2    N1 9571   3.804   2.936  14.502 -0.1555  0.9661  0.2671
  646MPD2    H7 9572   3.899   2.900  14.498 -0.6589 -0.1560 -1.5537
  647TMC3    C1 9573   3.800   2.831  14.713  0.3133  0.7266  0.4506
  647TMC3    C2 9574   3.751   2.818  14.840 -0.3638  0.1489 -0.1895
  647TMC3    C3 9575   3.793   2.709  14.908 -0.5179  1.2514 -0.0009
  647TMC3    C4 9576   3.882   2.730  14.660 -0.0689  0.3162 -0.2275
  647TMC3    C5 9577   3.924   2.628  14.724 -0.3293 -0.4064  0.0577
  647TMC3    C6 9578   3.875   2.614  14.853  0.0948  0.4545  0.3504
  647TMC3     C 9579   3.739   2.926  14.621  0.3051  0.3520  0.2000
  647TMC3     O 9580   3.635   2.985  14.655 -0.6104  0.1263  0.4115
  647TMC3     H 9581   3.701   2.907  14.878  0.3572  0.2147  0.6033
  647TMC3    H1 9582   3.899   2.733  14.553  3.7421  0.8995  0.4030
  647TMC3    H2 9583   3.901   2.523  14.906 -0.7496  0.7310  1.2438
  647TMC3    C7 9584   4.012   2.528  14.664  0.5989 -0.4552  0.2336
  647TMC3    C8 9585   3.790   2.701  15.057 -0.5998  0.1954  0.1561
  647TMC3    O1 9586   4.008   2.421  14.721 -0.1753  0.2922 -0.5254
  647TMC3    O2 9587   3.865   2.610  15.096  0.0629  0.3888  0.4291
  648TMC3    C1 9588   3.188   0.279  16.184  0.4338  0.5593 -0.4991
  648TMC3    C2 9589   3.249   0.163  16.144 -0.3605  0.1931  0.6737
  648TMC3    C3 9590   3.253   0.118  16.016 -0.4787  0.4355 -0.0200
  648TMC3    C4 9591   3.125   0.353  16.095  0.1110  0.0114  0.1285
  648TMC3    C5 9592   3.119   0.306  15.963 -0.1197  1.2216  0.8652
  648TMC3    C6 9593   3.188   0.191  15.923 -0.2748  1.1469  0.2393
  648TMC3     C 9594   3.220   0.345  16.313  0.2709  0.1641  0.1971
  648TMC3     O 9595   3.204   0.466  16.329 -0.3417 -0.3676 -0.0181
  648TMC3     H 9596   3.305   0.113  16.222  3.4003  0.2011 -2.0133
  648TMC3    H1 9597   3.104   0.457  16.116  0.2335  0.3990 -1.6392
  648TMC3    H2 9598   3.177   0.154  15.822  0.7193  3.4204 -0.6875
  648TMC3    C7 9599   3.066   0.393  15.856  0.3287 -0.0785  0.4923
  648TMC3    C8 9600   3.249   4.696  16.013  0.1408 -0.3770 -0.1236
  648TMC3    O1 9601   3.098   0.367  15.739 -0.3902 -0.0184  0.1882
  648TMC3    O2 9602   3.223   4.647  16.122  0.2342  0.3073 -0.5080
  649TMC3    C1 9603   1.441   1.238  12.975 -0.4560 -0.3685 -0.0844
  649TMC3    C2 9604   1.578   1.223  12.960 -0.3798 -0.4046  0.7872
  649TMC3    C3 9605   1.650   1.176  13.066  0.1111 -0.5288  0.1514
  649TMC3    C4 9606   1.376   1.208  13.092 -0.2794 -0.2322  0.0370
  649TMC3    C5 9607   1.451   1.150  13.189  0.1345  0.0213  0.3839
  649TMC3    C6 9608   1.583   1.137  13.175  0.0065  0.0491 -0.1272
  649TMC3     C 9609   1.389   1.331  12.883 -0.4767  0.6331  0.0113
  649TMC3     O 9610   1.306   1.408  12.932 -0.3084  0.2108  0.2959
  649TMC3     H 9611   1.622   1.265  12.871  0.0990 -0.9880  0.7502
  649TMC3    H1 9612   1.269   1.217  13.101 -0.3418  1.9411 -3.3129
  649TMC3    H2 9613   1.632   1.107  13.267  1.4880  1.8059 -0.3243
  649TMC3    C7 9614   1.397   1.123  13.321  0.3801  0.0758 -0.4791
  649TMC3    C8 9615   1.791   1.159  13.064 -0.0646 -0.1428  0.2855
  649TMC3    O1 9616   1.471   1.143  13.419 -0.1595  0.2341  0.2274
  649TMC3    O2 9617   1.829   1.082  13.151  0.3267 -0.0596  0.7834
  650TMC3    C1 9618   4.591   3.073  12.976  1.0418  0.6741 -0.4503
  650TMC3    C2 9619   4.617   3.207  12.981 -0.3775 -0.1533  0.0108
  650TMC3    C3 9620   4.588   3.281  12.861  0.5627  0.7571  0.1239
  650TMC3    C4 9621   4.536   3.009  12.870 -0.4313 -0.4943 -1.1985
  650TMC3    C5 9622   4.508   3.088  12.760  0.3140  0.2762 -0.1606
  650TMC3    C6 9623   4.535   3.222  12.750  0.4546  0.5951  0.2520
  650TMC3     C 9624   4.681   3.003  13.071 -0.6745 -0.5237  0.1276
  650TMC3     O 9625   4.682   3.054  13.183  0.0502  0.1626 -0.0755
  650TMC3     H 9626   4.648   3.256  13.073 -0.6441  0.9985 -0.5099
  650TMC3    H1 9627   4.510   2.904  12.876 -0.2860 -0.4774 -0.1301
  650TMC3    H2 9628   4.518   3.280  12.660 -1.0262 -0.6385 -0.2668
  650TMC3    C7 9629   4.446   3.017  12.645  0.6382 -0.2498  0.6854
  650TMC3    C8 9630   4.552   3.419  12.861  0.4583 -0.2760  0.8944
  650TMC3    O1 9631   4.473   2.902  12.630  0.4858  0.3294 -0.2794
  650TMC3    O2 9632   4.592   3.488  12.772 -0.3116  0.4271  0.2628
  651MPD2     C 9633   3.497   0.447  11.208 -0.5442 -0.3223 -0.5306
  651MPD2    C1 9634   3.425   0.492  11.101 -0.0201  0.5181 -0.1242
  651MPD2    C2 9635   3.474   0.513  10.973 -0.1851 -0.5553 -0.2505
  651MPD2    C3 9636   3.600   0.458  10.941  0.2093 -0.5258 -0.4664
  651MPD2    C4 9637   3.670   0.400  11.041 -0.0877 -0.6687  0.1873
  651MPD2    C5 9638   3.622   0.390  11.169 -0.2250 -0.5144  0.0941
  651MPD2     H 9639   3.414   0.557  10.894 -1.4448  0.5947  1.3525
  651MPD2    H1 9640   3.765   0.347  11.032  0.1432 -0.2447  0.1394
  651MPD2    H2 9641   3.460   0.426  11.307 -3.1924  1.1980 -1.1954
  651MPD2    H3 9642   3.674   0.333  11.245 -0.5757  0.7823  1.3076
  651MPD2     N 9643   3.652   0.457  10.810  0.1975 -0.1159 -0.2501
  651MPD2    H5 9644   3.590   0.502  10.743 -0.3807  0.8881  0.9522
  651MPD2    N1 9645   3.282   0.522  11.130  0.0148  0.8234 -0.0903
  651MPD2    H7 9646   3.221   0.538  11.051 -1.9657  1.3390  1.5658
  652TMC3    C1 9647   4.031   0.447  10.554  0.0266  0.0308 -0.1686
  652TMC3    C2 9648   3.932   0.374  10.608 -0.3785  0.1670  0.5373
  652TMC3    C3 9649   3.820   0.440  10.647  0.2702  0.1361  0.3772
  652TMC3    C4 9650   4.024   0.579  10.531  0.0636 -0.2177  1.1645
  652TMC3    C5 9651   3.907   0.641  10.572  0.5436  0.1124  0.8269
  652TMC3    C6 9652   3.806   0.572  10.632 -0.3190 -0.5183 -0.7438
  652TMC3     C 9653   4.165   0.389  10.578  0.2228 -0.3210  0.4441
  652TMC3     O 9654   4.173   0.304  10.669  0.1013 -0.1982 -0.1412
  652TMC3     H 9655   3.933   0.266  10.618  0.9420  0.1285  0.0744
  652TMC3    H1 9656   4.105   0.629  10.481 -1.2411  1.1923  0.4536
  652TMC3    H2 9657   3.724   0.629  10.672 -1.0537 -3.1468  1.4546
  652TMC3    C7 9658   3.921   0.759  10.656  0.2259  0.2903 -0.0448
  652TMC3    C8 9659   3.756   0.388  10.767  0.2428  0.1448  0.5276
  652TMC3    O1 9660   3.866   0.757  10.766  0.0754  0.3937 -0.0517
  652TMC3    O2 9661   3.819   0.300  10.825 -0.1487  0.0151  0.0524
  653MPD2     C 9662   2.247   0.365   0.075  0.9573  0.2557 -0.0586
  653MPD2    C1 9663   2.259   0.459  17.668  0.2247  0.4346  0.1380
  653MPD2    C2 9664   2.252   0.416  17.535 -0.4973 -0.1648 -0.5134
  653MPD2    C3 9665   2.221   0.285  17.499 -0.9070  0.0482 -0.3137
  653MPD2    C4 9666   2.213   0.196  17.604  0.6311 -0.5679  0.6249
  653MPD2    C5 9667   2.224   0.235   0.044 -0.3116 -0.2401 -0.0905
  653MPD2     H 9668   2.256   0.490  17.455 -1.8164 -0.6780 -1.0448
  653MPD2    H1 9669   2.182   0.094  17.581  0.0540 -0.1214 -0.6188
  653MPD2    H2 9670   2.264   0.399   0.177  2.1659 -1.4694  0.3104
  653MPD2    H3 9671   2.215   0.160   0.122 -0.5754 -1.8729 -1.6750
  653MPD2     N 9672   2.196   0.253  17.363 -0.2665 -0.1472  0.0085
  653MPD2    H5 9673   2.177   0.326  17.295 -0.4947  0.9447  1.2286
  653MPD2    N1 9674   2.293   0.590  17.677  0.3358  0.1971 -0.4502
  653MPD2    H7 9675   2.300   0.644  17.592  1.9770 -0.2974 -0.6225
  654TMC3    C1 9676   2.160   0.111  17.189  0.0533  0.4443  0.6247
  654TMC3    C2 9677   2.052   0.193  17.153 -0.8263  0.0325 -0.3155
  654TMC3    C3 9678   2.007   0.174  17.027  0.7079 -0.1660  0.1277
  654TMC3    C4 9679   2.214   0.011  17.109 -0.0882 -0.0085  0.4081
  654TMC3    C5 9680   2.170   0.009  16.976 -0.0972  0.3191  0.0610
  654TMC3    C6 9681   2.071   0.089  16.939  0.3499 -0.6292 -0.5682
  654TMC3     C 9682   2.210   0.126  17.317  0.5675  0.1748  0.0824
  654TMC3     O 9683   2.275   0.037  17.365 -0.1369 -0.2064 -0.6694
  654TMC3     H 9684   1.999   0.259  17.221  2.0149  0.5368  1.4034
  654TMC3    H1 9685   2.297   4.676  17.146  0.1698  0.4518  0.5534
  654TMC3    H2 9686   2.041   0.078  16.836 -2.4070  0.0159  0.1607
  654TMC3    C7 9687   2.231   4.649  16.877 -0.8225 -0.7361 -0.1147
  654TMC3    C8 9688   1.869   0.212  16.996  0.2049  0.3440  0.2454
  654TMC3    O1 9689   2.256   4.688  16.766  1.2605 -0.2844 -0.2563
  654TMC3    O2 9690   1.802   0.265  17.086 -0.1761  0.6031  0.0191
  655MPD2     C 9691   3.587   0.372  15.543  0.5605 -0.1879 -0.1561
  655MPD2    C1 9692   3.464   0.431  15.521 -0.1262  0.0909  0.1131
  655MPD2    C2 9693   3.378   0.379  15.422 -0.1752 -0.6342  0.5031
  655MPD2    C3 9694   3.414   0.265  15.347  0.1109 -0.5933 -0.4203
  655MPD2    C4 9695   3.532   0.202  15.387 -0.3969  0.3216  0.3526
  655MPD2    C5 9696   3.618   0.246  15.487  0.2145 -0.3342  0.2924
  655MPD2     H 9697   3.282   0.426  15.408  0.6189  1.1478  1.0383
  655MPD2    H1 9698   3.570   0.114  15.337 -2.3080 -0.9249  1.1015
  655MPD2    H2 9699   3.653   0.427  15.610  0.7082  1.1688 -1.4007
  655MPD2    H3 9700   3.714   0.196  15.498  0.6803  0.5140  0.0437
  655MPD2     N 9701   3.336   0.213  15.241 -0.7351  0.6902  0.4699
  655MPD2    H5 9702   3.375   0.139  15.183  0.7715  1.0022  1.1005
  655MPD2    N1 9703   3.435   0.556  15.591  0.4457 -0.0552  0.2166
  655MPD2    H7 9704   3.363   0.609  15.543 -0.6584 -2.4441 -0.8112
  656TMC3    C1 9705   3.446   0.720  15.753 -0.1645  0.5216  0.3795
  656TMC3    C2 9706   3.401   0.724  15.887  0.1939 -0.5408  0.3105
  656TMC3    C3 9707   3.308   0.817  15.923  0.4712 -0.1330  0.0578
  656TMC3    C4 9708   3.405   0.812  15.662  0.4541 -0.1132  0.2558
  656TMC3    C5 9709   3.316   0.899  15.697 -0.3694 -0.3595  0.2428
  656TMC3    C6 9710   3.267   0.910  15.829  0.1347  0.1198 -0.5193
  656TMC3     C 9711   3.494   0.591  15.710 -0.0134  0.3758 -0.5185
  656TMC3     O 9712   3.546   0.520  15.798  0.2365 -0.0445 -0.5986
  656TMC3     H 9713   3.443   0.658  15.963  1.3296  0.7180  0.7762
  656TMC3    H1 9714   3.423   0.806  15.555  2.1651  0.4556  0.5074
  656TMC3    H2 9715   3.192   0.986  15.847 -2.1555 -1.8655 -1.7404
  656TMC3    C7 9716   3.254   0.966  15.583  0.0479  0.2380 -0.3659
  656TMC3    C8 9717   3.233   0.774  16.041  0.3225  0.1947  0.1046
  656TMC3    O1 9718   3.317   1.002  15.482  0.0428 -0.2704  0.1578
  656TMC3    O2 9719   3.254   0.656  16.077  0.2601 -0.1104 -0.2585
  657TMC3    C1 9720   2.452   4.362  15.292 -0.4217 -0.3938 -0.2685
  657TMC3    C2 9721   2.572   4.352  15.352 -0.3171  0.1071 -0.1430
  657TMC3    C3 9722   2.581   4.398  15.485 -0.2626  0.0871  0.7034
  657TMC3    C4 9723   2.335   4.416  15.357  0.1162 -0.2950 -0.1432
  657TMC3    C5 9724   2.347   4.454  15.489 -0.2520  0.5733  0.6036
  657TMC3    C6 9725   2.473   4.444  15.554  0.0858  0.0662 -0.5604
  657TMC3     C 9726   2.437   4.312  15.159  0.0868  0.3101 -0.3601
  657TMC3     O 9727   2.321   4.305  15.119  0.1790  0.3968  0.3934
  657TMC3     H 9728   2.657   4.294  15.319  0.4401  0.9546  0.2970
  657TMC3    H1 9729   2.244   4.430  15.300  0.0139  0.9992  0.3511
  657TMC3    H2 9730   2.488   4.487  15.652  0.4797 -0.2383 -0.4881
  657TMC3    C7 9731   2.230   4.505  15.559  0.4016 -0.6559 -0.2120
  657TMC3    C8 9732   2.694   4.368  15.558  0.0010  0.1638  0.3450
  657TMC3    O1 9733   2.233   4.476  15.678  0.2512 -0.0557  0.9750
  657TMC3    O2 9734   2.678   4.356  15.680 -0.2808 -0.6801  0.2582
  658MPD2     C 9735   3.534   0.017  14.611  0.1133  0.1970  0.0675
  658MPD2    C1 9736   3.432   0.109  14.636  0.4629 -0.0774 -0.3894
  658MPD2    C2 9737   3.419   0.222  14.556 -0.5186 -0.1852 -0.4726
  658MPD2    C3 9738   3.502   0.238  14.446 -0.0637  0.4082  0.1148
  658MPD2    C4 9739   3.600   0.152  14.423 -0.4552  0.7873 -0.1291
  658MPD2    C5 9740   3.613   0.041  14.504  0.5354  0.1673  0.5187
  658MPD2     H 9741   3.343   0.294  14.580 -1.0883 -0.9347 -0.0347
  658MPD2    H1 9742   3.678   0.157  14.348 -0.3412 -1.4365 -0.1772
  658MPD2    H2 9743   3.559   4.644  14.657  1.3333 -0.3724 -1.7799
  658MPD2    H3 9744   3.689   4.688  14.488  0.3255  0.1754 -0.5324
  658MPD2     N 9745   3.479   0.356  14.368 -0.6192  0.6529  0.5239
  658MPD2    H5 9746   3.399   0.409  14.401 -0.2430  1.4820  0.1339
  658MPD2    N1 9747   3.351   0.093  14.751 -1.2542 -0.3954 -0.2329
  658MPD2    H7 9748   3.367   0.019  14.818 -0.7595 -1.2745 -1.3079
  659TMC3    C1 9749   3.154   0.120  14.875  0.0968  0.6829  0.3393
  659TMC3    C2 9750   3.221   0.163  14.986 -0.2193  0.2622  0.0177
  659TMC3    C3 9751   3.150   0.192  15.099 -0.8242  0.0577 -0.4848
  659TMC3    C4 9752   3.020   0.093  14.863 -0.1416 -0.5275  0.0650
  659TMC3    C5 9753   2.949   0.120  14.982  0.1495 -0.9775 -0.3190
  659TMC3    C6 9754   3.014   0.173  15.092 -0.0537  0.1435  0.3546
  659TMC3     C 9755   3.223   0.140  14.758 -0.8599  0.3652 -0.7131
  659TMC3     O 9756   3.150   0.193  14.675  0.1045  0.0981  0.4278
  659TMC3     H 9757   3.324   0.196  14.980  0.4501 -1.9822 -1.1272
  659TMC3    H1 9758   2.977   0.059  14.769  3.4249 -1.5808 -1.1857
  659TMC3    H2 9759   2.958   0.185  15.183 -2.3022 -0.1311 -0.9857
  659TMC3    C7 9760   2.800   0.117  14.995 -0.0419 -0.4617 -0.2542
  659TMC3    C8 9761   3.204   0.251  15.213 -0.2752 -0.0910 -0.2279
  659TMC3    O1 9762   2.753   0.189  15.081 -1.3611 -0.2088  0.7435
  659TMC3    O2 9763   3.128   0.334  15.264 -0.8363 -0.3195  0.0180
  660MPD2     C 9764   1.675   3.726  12.730 -0.5031 -0.3152 -0.0485
  660MPD2    C1 9765   1.545   3.751  12.758  0.4236  0.6733  0.2415
  660MPD2    C2 9766   1.496   3.716  12.884 -0.4765 -0.3327 -0.1058
  660MPD2    C3 9767   1.576   3.655  12.977  0.2535 -0.2313 -0.0525
  660MPD2    C4 9768   1.701   3.619  12.939 -0.5232 -0.6886 -0.0559
  660MPD2    C5 9769   1.753   3.658  12.821  0.1207 -0.5307  0.2739
  660MPD2     H 9770   1.399   3.751  12.918  0.0727  0.4123  0.7210
  660MPD2    H1 9771   1.779   3.575  13.001 -0.9120 -0.0612  0.8667
  660MPD2    H2 9772   1.713   3.764  12.636  0.9512  0.0360  0.6801
  660MPD2    H3 9773   1.857   3.632  12.805 -0.5319 -0.7749 -3.6912
  660MPD2     N 9774   1.539   3.615  13.104 -0.3635  0.6204  0.1323
  660MPD2    H5 9775   1.609   3.563  13.156 -0.4154 -1.5643 -1.9979
  660MPD2    N1 9776   1.475   3.829  12.663  0.1315  0.0351  0.4586
  660MPD2    H7 9777   1.528   3.863  12.583 -1.4175 -0.3108 -0.7084
  661TMC3    C1 9778   1.295   3.910  12.555 -0.2682  0.3351  0.2426
  661TMC3    C2 9779   1.370   3.892  12.439  0.2688  0.0746 -0.7046
  661TMC3    C3 9780   1.298   3.917  12.326 -0.2972 -0.3021 -0.7298
  661TMC3    C4 9781   1.165   3.965  12.552  0.0941 -0.5893 -0.0054
  661TMC3    C5 9782   1.099   3.982  12.432  0.0700 -0.5907  0.4956
  661TMC3    C6 9783   1.173   3.969  12.322 -0.2499  0.6553  0.8404
  661TMC3     C 9784   1.339   3.854  12.674 -0.1478 -0.4427 -0.4771
  661TMC3     O 9785   1.257   3.838  12.761  0.1278  0.0455 -0.1856
  661TMC3     H 9786   1.460   3.832  12.427 -0.8657 -2.0510  1.3579
  661TMC3    H1 9787   1.115   3.984  12.647 -0.8675  0.2754 -0.6913
  661TMC3    H2 9788   1.138   3.990  12.222 -2.3338  2.9102  2.0347
  661TMC3    C7 9789   0.973   4.050  12.431 -0.4910  0.0122  0.9602
  661TMC3    C8 9790   1.356   3.903  12.196 -0.4197 -0.5911 -0.5051
  661TMC3    O1 9791   0.942   4.108  12.531  0.1084 -0.0270 -0.2615
  661TMC3    O2 9792   1.290   3.886  12.093 -0.0707  0.4570 -0.1875
  662MPD2     C 9793   1.990   4.046  16.790 -0.3729 -0.0154  0.1813
  662MPD2    C1 9794   1.996   3.955  16.897 -0.2505  0.6704 -0.5721
  662MPD2    C2 9795   2.033   4.004  17.024 -0.1658  0.0043 -0.3691
  662MPD2    C3 9796   2.056   4.133  17.049  0.4476  0.5815  0.0043
  662MPD2    C4 9797   2.033   4.218  16.945  0.3161 -0.1036  0.2260
  662MPD2    C5 9798   2.008   4.184  16.816  0.7988 -0.0534  0.1065
  662MPD2     H 9799   2.036   3.936  17.109  2.1939 -1.3918 -1.5822
  662MPD2    H1 9800   2.052   4.324  16.956  2.3825 -0.1296 -3.0986
  662MPD2    H2 9801   1.953   4.012  16.694 -1.4024 -0.3691  0.6903
  662MPD2    H3 9802   1.988   4.249  16.732 -0.9368 -1.4563 -0.5662
  662MPD2     N 9803   2.096   4.181  17.169 -0.5268  0.2914 -0.3993
  662MPD2    H5 9804   2.085   4.281  17.183  1.1615 -0.0722  3.6844
  662MPD2    N1 9805   1.961   3.824  16.887  0.7437 -0.7801 -0.3787
  662MPD2    H7 9806   1.963   3.767  16.971 -0.6606 -0.4820 -0.1464
  663TMC3    C1 9807   1.839   3.638  16.812 -0.1752  0.6134  0.5317
  663TMC3    C2 9808   1.798   3.608  16.941 -0.6790 -0.0942  0.0074
  663TMC3    C3 9809   1.719   3.503  16.950 -0.3581  0.6866  0.4276
  663TMC3    C4 9810   1.811   3.569  16.702 -0.3778 -0.1141 -0.4276
  663TMC3    C5 9811   1.738   3.451  16.718 -0.0169 -0.6290 -0.2366
  663TMC3    C6 9812   1.695   3.418  16.842  0.2062  0.2006 -0.2054
  663TMC3     C 9813   1.899   3.766  16.777  0.2136  0.4073 -0.4970
  663TMC3     O 9814   1.877   3.813  16.662  0.2088 -0.6275  0.5641
  663TMC3     H 9815   1.782   3.692  17.008 -0.8309 -2.6258  3.1504
  663TMC3    H1 9816   1.854   3.584  16.604 -1.6040  1.7346 -0.6822
  663TMC3    H2 9817   1.611   3.351  16.857 -0.4272  0.9112 -0.5795
  663TMC3    C7 9818   1.769   3.338  16.637  1.3392  0.4225 -0.0937
  663TMC3    C8 9819   1.605   3.510  17.030 -0.0502  0.3713 -0.7237
  663TMC3    O1 9820   1.832   3.361  16.537 -0.4616  0.4133 -0.4399
  663TMC3    O2 9821   1.494   3.543  16.983 -0.6351 -0.2507  0.3267
  664MPD2     C 9822   0.112   2.010   0.100 -0.1893  0.4284 -0.1553
  664MPD2    C1 9823   0.191   2.114   0.065  0.2273  0.1041 -1.3607
  664MPD2    C2 9824   0.277   2.168   0.167 -0.2885 -0.4143 -0.0906
  664MPD2    C3 9825   0.278   2.110   0.296 -0.9083 -0.6886  0.0580
  664MPD2    C4 9826   0.188   2.011   0.322  0.1983  0.0903  0.3066
  664MPD2    C5 9827   0.107   1.962   0.227  0.0954 -0.5672  0.0258
  664MPD2     H 9828   0.356   2.238   0.143  1.6004 -2.8333 -0.8149
  664MPD2    H1 9829   0.185   1.953   0.414  0.6754 -0.8416 -0.2722
  664MPD2    H2 9830   0.041   1.971   0.028 -0.2989 -3.4090  1.9968
  664MPD2    H3 9831   0.032   1.886   0.243 -1.8705  1.1988 -0.7289
  664MPD2     N 9832   0.373   2.152   0.392  0.5893  0.0060  0.1199
  664MPD2    H5 9833   0.435   2.231   0.376  1.2132 -0.5224 -0.0679
  664MPD2    N1 9834   0.197   2.164  17.631  0.4026  0.3917  0.3851
  664MPD2    H7 9835   0.264   2.234  17.602 -1.6149  1.1951 -2.2145
  665TMC3    C1 9836   0.468   2.180   0.609  0.5232 -0.2920 -0.4622
  665TMC3    C2 9837   0.514   2.124   0.731  0.1300  0.0986  0.2490
  665TMC3    C3 9838   0.537   2.206   0.842  0.3619  0.2199  0.2625
  665TMC3    C4 9839   0.439   2.313   0.612 -0.9375 -0.7261  0.5082
  665TMC3    C5 9840   0.459   2.389   0.731  0.1224  0.1322 -0.5392
  665TMC3    C6 9841   0.511   2.342   0.846  0.1424 -0.4023  0.5410
  665TMC3     C 9842   0.400   2.095   0.515  0.4537 -0.0754 -0.2420
  665TMC3     O 9843   0.339   2.007   0.572 -0.4698  0.0486  0.0936
  665TMC3     H 9844   0.525   2.016   0.728 -1.5238 -0.0257 -1.3565
  665TMC3    H1 9845   0.391   2.372   0.535  0.9877 -2.2936 -1.8579
  665TMC3    H2 9846   0.539   2.397   0.936  1.1555 -1.5777  0.9454
  665TMC3    C7 9847   0.406   2.532   0.738 -0.0908  0.1057  0.0864
  665TMC3    C8 9848   0.602   2.159   0.966  0.2445 -0.8391 -0.0961
  665TMC3    O1 9849   0.337   2.561   0.642  1.1547  0.0843 -0.4866
  665TMC3    O2 9850   0.645   2.241   1.047  0.0436  0.2001  0.8226
  666TMC3    C1 9851   3.755   1.551   9.766 -0.0219  0.1146  0.2318
  666TMC3    C2 9852   3.878   1.509   9.812  0.8039  0.3503 -0.3862
  666TMC3    C3 9853   3.984   1.586   9.784 -0.3333  0.7184 -0.1098
  666TMC3    C4 9854   3.734   1.671   9.706  1.1676  0.2156 -0.1025
  666TMC3    C5 9855   3.845   1.741   9.669  0.7096  0.8826 -0.0796
  666TMC3    C6 9856   3.968   1.696   9.704 -0.6625  0.5911  0.3832
  666TMC3     C 9857   3.650   1.453   9.778 -0.1923 -0.1889 -0.0842
  666TMC3     O 9858   3.667   1.363   9.860 -0.2251 -0.2800 -0.2933
  666TMC3     H 9859   3.875   1.424   9.879  1.0048  0.0487 -0.7568
  666TMC3    H1 9860   3.641   1.721   9.682  2.4878  3.5139  1.6511
  666TMC3    H2 9861   4.055   1.747   9.663 -1.3367  0.8060 -0.7624
  666TMC3    C7 9862   3.847   1.856   9.591  0.2043 -0.9269  0.0456
  666TMC3    C8 9863   4.101   1.578   9.871 -0.3962 -0.6509  0.5823
  666TMC3    O1 9864   3.930   1.869   9.500 -0.2245 -0.1827 -0.2987
  666TMC3    O2 9865   4.110   1.481   9.943 -0.5705  0.2637  0.0678
  667MPD2     C 9866   0.354   1.671  14.689  0.0114  0.0583  0.2712
  667MPD2    C1 9867   0.274   1.783  14.713  1.4968 -0.0965  0.0490
  667MPD2    C2 9868   0.166   1.808  14.628  0.3883  0.3119 -0.4801
  667MPD2    C3 9869   0.151   1.730  14.509 -0.5381 -0.0351  1.1969
  667MPD2    C4 9870   0.227   1.617  14.486 -0.2104  0.1274  0.3245
  667MPD2    C5 9871   0.331   1.597  14.575 -0.7845  0.8752  0.0871
  667MPD2     H 9872   0.090   1.881  14.652  0.3841 -0.8226  2.8249
  667MPD2    H1 9873   0.211   1.550  14.403  0.4648  3.0215 -2.1368
  667MPD2    H2 9874   0.432   1.638  14.756 -0.5419 -1.2655  0.2723
  667MPD2    H3 9875   0.392   1.508  14.558  1.0979  2.2900 -0.5940
  667MPD2     N 9876   0.037   1.733  14.425  0.3101  0.4878 -0.3203
  667MPD2    H5 9877   0.019   1.648  14.372  2.8845  0.0192 -0.4673
  667MPD2    N1 9878   0.282   1.839  14.837 -0.4082  0.3021  0.4943
  667MPD2    H7 9879   0.207   1.898  14.870 -1.1255 -1.0166  1.2399
  668TMC3    C1 9880   0.375   1.895  15.044 -0.1802 -0.0611 -0.1614
  668TMC3    C2 9881   0.460   1.983  15.093 -0.3146 -0.2247 -0.0440
  668TMC3    C3 9882   0.436   2.003  15.225  0.3637  0.4997 -0.3461
  668TMC3    C4 9883   0.262   1.846  15.108  1.1542 -0.3165 -0.8624
  668TMC3    C5 9884   0.256   1.861  15.238 -0.3788  0.0188 -0.0104
  668TMC3    C6 9885   0.336   1.950  15.300 -0.3334  0.6809 -0.1323
  668TMC3     C 9886   0.395   1.848  14.911  0.4668 -0.5745  0.0722
  668TMC3     O 9887   0.510   1.832  14.880 -0.2960 -0.1987 -0.0715
  668TMC3     H 9888   0.534   2.035  15.033  1.6462 -0.9543  1.7477
  668TMC3    H1 9889   0.199   1.773  15.058  0.0496  0.5688 -0.7760
  668TMC3    H2 9890   0.349   1.941  15.407 -0.0221  1.2051 -0.1293
  668TMC3    C7 9891   0.151   1.796  15.309 -0.3854 -0.1000  0.3035
  668TMC3    C8 9892   0.510   2.103  15.299 -0.0056 -0.5343  0.5236
  668TMC3    O1 9893   0.174   1.768  15.429  0.0180 -0.1204  0.0066
  668TMC3    O2 9894   0.475   2.132  15.412  0.0069  0.0557  0.6721
  669TMC3    C1 9895   3.825   2.226  14.402  0.1562 -0.4293  0.0312
  669TMC3    C2 9896   3.721   2.232  14.313 -0.4175 -0.2314  1.1977
  669TMC3    C3 9897   3.726   2.311  14.199  0.0901 -0.0381  0.2435
  669TMC3    C4 9898   3.952   2.268  14.359 -0.4845  0.1401  0.2085
  669TMC3    C5 9899   3.952   2.353  14.244  0.2604 -0.4456 -0.1254
  669TMC3    C6 9900   3.841   2.373  14.170  0.2864  0.7054 -0.2145
  669TMC3     C 9901   3.809   2.138  14.520 -0.3729 -0.4131 -0.1969
  669TMC3     O 9902   3.701   2.099  14.547  0.4452  0.1209 -0.4361
  669TMC3     H 9903   3.624   2.195  14.346  0.5526 -1.2412  2.9079
  669TMC3    H1 9904   4.046   2.251  14.410 -0.1688  2.6471  0.4695
  669TMC3    H2 9905   3.846   2.453  14.098 -1.7964 -0.1401 -1.2850
  669TMC3    C7 9906   4.078   2.392  14.186 -0.1729  0.3344 -0.7167
  669TMC3    C8 9907   3.612   2.326  14.100  0.2206  0.3744 -0.1338
  669TMC3    O1 9908   4.071   2.498  14.123  0.0338 -0.0430  0.1062
  669TMC3    O2 9909   3.506   2.279  14.137 -0.3481 -0.0178  0.3999
  670MPD2     C 9910   2.336   0.096  13.165  0.2882  0.6242  0.2348
  670MPD2    C1 9911   2.437   0.074  13.255  0.0770  0.1169 -0.0878
  670MPD2    C2 9912   2.410   0.019  13.382 -0.1684 -0.4467  0.2993
  670MPD2    C3 9913   2.281   4.715  13.416  0.0718 -0.7336 -0.6356
  670MPD2    C4 9914   2.181   0.016  13.326 -0.0806 -0.0331  0.7522
  670MPD2    C5 9915   2.210   0.055  13.198  0.0069 -0.3951  0.5541
  670MPD2     H 9916   2.490   0.012  13.454  0.1558  1.1338  0.0866
  670MPD2    H1 9917   2.075   0.012  13.349 -0.0577 -2.6737  0.3658
  670MPD2    H2 9918   2.352   0.134  13.065  1.3598  1.5880  0.7776
  670MPD2    H3 9919   2.129   0.087  13.134  0.4692 -2.2558 -0.9658
  670MPD2     N 9920   2.254   4.680  13.549 -0.6374 -0.0156  0.4722
  670MPD2    H5 9921   2.333   4.692  13.612  0.5911  1.4916 -1.3658
  670MPD2    N1 9922   2.572   0.102  13.226  0.0834  0.2999  0.0388
  670MPD2    H7 9923   2.635   0.072  13.300 -1.3623  2.1046  1.9829
  671TMC3    C1 9924   2.142   4.599  13.740  0.0388  0.0556  0.0627
  671TMC3    C2 9925   2.253   4.530  13.783  0.0198 -0.0349 -0.0562
  671TMC3    C3 9926   2.230   4.456  13.899  0.4357  1.1215  0.3144
  671TMC3    C4 9927   2.023   4.597  13.809  0.5789 -0.5515 -0.5512
  671TMC3    C5 9928   2.013   4.529  13.925  0.5230 -0.0090  0.0833
  671TMC3    C6 9929   2.119   4.457  13.978  0.2040 -0.2802 -0.8307
  671TMC3     C 9930   2.132   4.645  13.600 -0.2464  0.0211  0.2772
  671TMC3     O 9931   2.027   4.663  13.545 -0.3041  0.2370 -0.5396
  671TMC3     H 9932   2.334   4.505  13.715 -0.0958  0.0037 -0.2084
  671TMC3    H1 9933   1.954   4.673  13.775  2.5254  0.4586 -2.2639
  671TMC3    H2 9934   2.118   4.388  14.061 -0.9006 -0.1777 -0.7560
  671TMC3    C7 9935   1.879   4.482  13.952  0.2478 -0.1272  0.4037
  671TMC3    C8 9936   2.331   4.354  13.915  0.1682 -0.2702  0.3368
  671TMC3    O1 9937   1.802   4.501  13.857 -0.5652  0.6117 -0.2719
  671TMC3    O2 9938   2.444   4.390  13.914  1.0949 -0.6223 -0.0056
  672MPD2     C 9939   2.676   4.586   1.005  0.5636 -0.0041 -0.4440
  672MPD2    C1 9940   2.656   0.002   1.006  0.0716 -0.8629 -0.0627
  672MPD2    C2 9941   2.602   0.063   1.120  0.0707  0.6632  0.5043
  672MPD2    C3 9942   2.570   4.714   1.227  0.4863  0.7627 -0.8725
  672MPD2    C4 9943   2.605   4.581   1.228  0.0897  0.4436 -0.3179
  672MPD2    C5 9944   2.656   4.524   1.121 -0.0007  0.6322 -0.1728
  672MPD2     H 9945   2.586   0.170   1.116  0.0804  0.6317 -0.4757
  672MPD2    H1 9946   2.588   4.523   1.318  0.5349 -0.2897 -0.7024
  672MPD2    H2 9947   2.718   4.532   0.921 -0.8333  0.2182 -1.2785
  672MPD2    H3 9948   2.678   4.418   1.130 -0.7966  0.5537  0.9158
  672MPD2     N 9949   2.529   0.048   1.345  0.2073 -0.2428 -0.3282
  672MPD2    H5 9950   2.527   4.706   1.423 -0.5899  0.1819 -0.0028
  672MPD2    N1 9951   2.677   0.085   0.891 -0.2682  0.2437 -0.2837
  672MPD2    H7 9952   2.674   0.182   0.919 -0.7945 -0.1822  1.1321
  673TMC3    C1 9953   2.804   0.137   0.700 -0.6036  0.7750 -0.3025
  673TMC3    C2 9954   2.930   0.099   0.669  0.8053  0.0810  0.1342
  673TMC3    C3 9955   3.021   0.185   0.626 -0.0633  0.1860 -0.5013
  673TMC3    C4 9956   2.763   0.268   0.696 -0.6538  0.4160 -0.1594
  673TMC3    C5 9957   2.863   0.352   0.657 -0.1216  0.3545  0.1907
  673TMC3    C6 9958   2.991   0.315   0.622  0.3125  0.3545 -0.2961
  673TMC3     C 9959   2.726   0.036   0.775  0.3390  0.6825 -0.5109
  673TMC3     O 9960   2.715   4.646   0.724  0.3372 -0.4758  0.2863
  673TMC3     H 9961   2.946   4.715   0.681  1.6154  0.1687 -0.1230
  673TMC3    H1 9962   2.659   0.297   0.703 -0.1607  1.9796  0.5607
  673TMC3    H2 9963   3.059   0.394   0.593 -0.9965  2.2263  1.8330
  673TMC3    C7 9964   2.836   0.495   0.624  0.5489  0.2028 -0.4293
  673TMC3    C8 9965   3.164   0.153   0.628  0.6148 -0.1535 -0.0154
  673TMC3    O1 9966   2.929   0.575   0.613  0.3453 -0.1439  0.3582
  673TMC3    O2 9967   3.246   0.217   0.560 -0.3969 -0.2504 -0.1489
  674MPD2     C 9968   2.560   0.445   0.315  0.1927  0.7129  0.3224
  674MPD2    C1 9969   2.659   0.347   0.307  0.3392 -0.6094 -1.0235
  674MPD2    C2 9970   2.629   0.223   0.368 -0.8188 -0.9519  0.0363
  674MPD2    C3 9971   2.514   0.204   0.444  0.0469  0.1084  0.2769
  674MPD2    C4 9972   2.428   0.306   0.452 -0.0022  0.0257 -0.7242
  674MPD2    C5 9973   2.441   0.420   0.373  0.9292  0.4551  0.1748
  674MPD2     H 9974   2.696   0.138   0.360 -0.0237 -0.1555 -1.7406
  674MPD2    H1 9975   2.331   0.292   0.500 -0.0454 -1.9744 -1.3764
  674MPD2    H2 9976   2.583   0.544   0.276 -3.3401  1.6536  0.5972
  674MPD2    H3 9977   2.362   0.495   0.377  0.6780  0.2728 -1.3808
  674MPD2     N 9978   2.494   0.074   0.508 -0.0629 -0.2103  0.6335
  674MPD2    H5 9979   2.569   0.008   0.492 -1.3771 -1.6204  0.2489
  674MPD2    N1 9980   2.788   0.388   0.267  0.2302 -0.3938 -0.1680
  674MPD2    H7 9981   2.806   0.481   0.231 -2.0321 -0.1705 -0.7324
  675TMC3    C1 9982   3.029   0.367   0.233  0.0403 -0.3658 -0.5570
  675TMC3    C2 9983   3.131   0.292   0.262  0.4689  0.0778  0.5566
  675TMC3    C3 9984   3.245   0.296   0.183  0.4265  0.2606  0.9185
  675TMC3    C4 9985   3.030   0.451   0.121 -0.6628  0.5636 -0.8973
  675TMC3    C5 9986   3.141   0.455   0.048 -0.1428  0.1162 -0.3986
  675TMC3    C6 9987   3.242   0.369   0.066 -0.3971 -0.3362  0.3543
  675TMC3     C 9988   2.900   0.299   0.267 -0.4917  0.3123  0.2867
  675TMC3     O 9989   2.914   0.183   0.305 -0.0568  0.1567  0.4121
  675TMC3     H 9990   3.122   0.246   0.360 -1.1758  0.1215  0.4285
  675TMC3    H1 9991   2.949   0.511   0.082 -1.2993 -0.3899 -1.0619
  675TMC3    H2 9992   3.328   0.372   0.000 -1.2485  0.0589 -0.7548
  675TMC3    C7 9993   3.133   0.529  17.622  0.0099  0.3486  0.0642
  675TMC3    C8 9994   3.290   0.162   0.158 -0.2854  0.4219 -0.0825
  675TMC3    O1 9995   3.165   0.465  17.524 -0.6081 -0.1196  0.1966
  675TMC3    O2 9996   3.357   0.137   0.059  0.0952 -0.2580  0.0122
  676MPD2     C 9997   4.230   3.026  10.901  0.0953 -0.3051 -0.6802
  676MPD2    C1 9998   4.166   2.947  10.993 -0.4440 -0.0297 -0.1381
  676MPD2    C2 9999   4.166   2.806  10.972  0.4357  0.5168  0.3961
  676MPD2    C310000   4.243   2.750  10.870 -0.2955  0.6013 -0.3191
  676MPD2    C410001   4.299   2.835  10.776 -0.5855 -0.4686  0.0615
  676MPD2    C510002   4.293   2.974  10.790 -0.4670 -0.2566  0.7140
  676MPD2     H10003   4.103   2.738  11.028  1.1955 -1.2345 -0.8473
  676MPD2    H110004   4.348   2.793  10.689  0.3969  0.4859  0.1532
  676MPD2    H210005   4.226   3.134  10.898  0.0318 -0.3347 -1.8675
  676MPD2    H310006   4.343   3.052  10.734 -1.2676 -2.1555 -2.6517
  676MPD2     N10007   4.255   2.615  10.842  0.8490  0.0324 -0.1436
  676MPD2    H510008   4.303   2.596  10.755  0.2850 -0.3551 -0.3669
  676MPD2    N110009   4.101   2.996  11.108 -0.3326  0.0723 -0.2640
  676MPD2    H710010   4.050   2.931  11.167 -1.2155 -0.0973 -1.2321
  677TMC3    C110011   4.027   3.146  11.268  0.0304 -0.4266 -0.7536
  677TMC3    C210012   3.900   3.103  11.270 -1.0798  0.0861  0.4676
  677TMC3    C310013   3.829   3.139  11.382 -0.1108 -0.2080  0.0837
  677TMC3    C410014   4.073   3.240  11.355  0.6570 -0.0894 -0.0887
  677TMC3    C510015   4.004   3.272  11.468 -0.0686 -0.1279  0.0841
  677TMC3    C610016   3.880   3.219  11.481  0.0505  0.3443 -0.0735
  677TMC3     C10017   4.101   3.126  11.146  0.0333 -0.0775  0.3133
  677TMC3     O10018   4.164   3.222  11.107  0.0637 -0.0513 -0.2677
  677TMC3     H10019   3.862   3.039  11.191  0.1578 -0.8630  0.6270
  677TMC3    H110020   4.176   3.273  11.342  0.7663 -0.1998  0.4692
  677TMC3    H210021   3.829   3.231  11.576 -0.2316 -1.8224  0.0644
  677TMC3    C710022   4.083   3.284  11.589 -0.4044 -0.9926  0.1305
  677TMC3    C810023   3.698   3.083  11.394  0.3031 -0.1993  0.4851
  677TMC3    O110024   4.059   3.214  11.688  0.4528  0.3657 -0.3680
  677TMC3    O210025   3.628   3.101  11.295 -0.6606 -0.1281 -0.1468
  678MPD2     C10026   2.074   3.924   1.495 -0.4014 -0.2574  0.1959
  678MPD2    C110027   2.033   3.808   1.439  0.4775 -0.2256  0.0540
  678MPD2    C210028   1.910   3.759   1.473  0.0663 -0.9723 -0.6828
  678MPD2    C310029   1.827   3.811   1.576  0.2450 -0.2093  0.3344
  678MPD2    C410030   1.867   3.935   1.626 -0.8043 -0.4627  0.7881
  678MPD2    C510031   1.987   3.985   1.586 -0.1507 -0.3180  0.4546
  678MPD2     H10032   1.864   3.683   1.411 -2.1078 -1.4403  1.5413
  678MPD2    H110033   1.806   3.980   1.704 -1.4059  0.4082 -0.1865
  678MPD2    H210034   2.167   3.977   1.475 -0.7052  0.1595 -0.1208
  678MPD2    H310035   2.013   4.080   1.632  0.4305 -1.6650  2.9398
  678MPD2     N10036   1.709   3.739   1.606 -0.0623  0.1099 -0.1103
  678MPD2    H510037   1.701   3.654   1.550  1.9369  0.1673 -0.4656
  678MPD2    N110038   2.106   3.747   1.332  0.6949  0.6470  1.1103
  678MPD2    H710039   2.075   3.667   1.276  1.9320  0.0388  1.2962
  679TMC3    C110040   2.241   3.489   1.085  0.2827 -0.1189  0.5959
  679TMC3    C210041   2.254   3.566   1.198 -0.4356  0.3466  0.3248
  679TMC3    C310042   2.279   3.695   1.180  0.0518  0.4375 -0.2550
  679TMC3    C410043   2.218   3.538   0.960  0.7292 -0.6745  0.1214
  679TMC3    C510044   2.234   3.671   0.949  0.0061 -0.3527  0.4972
  679TMC3    C610045   2.274   3.749   1.055 -1.0623 -0.5741  1.0487
  679TMC3     C10046   2.231   3.342   1.107 -0.6114 -0.2198 -0.3079
  679TMC3     O10047   2.183   3.273   1.017  0.0926  0.1768 -0.2405
  679TMC3     H10048   2.251   3.532   1.301 -2.8778 -0.2946  0.0270
  679TMC3    H110049   2.213   3.478   0.870 -1.0068  0.4051 -0.4814
  679TMC3    H210050   2.280   3.857   1.044 -0.1354 -0.7240  0.0450
  679TMC3    C710051   2.180   3.737   0.831  0.5953  0.4387  0.4696
  679TMC3    C810052   2.226   3.790   1.278  0.0774 -0.3980  0.3665
  679TMC3    O110053   2.118   3.664   0.755  0.4859 -0.2368  0.3119
  679TMC3    O210054   2.279   3.898   1.294  0.1687 -0.3005  0.5465
  680MPD2     C10055   1.317   1.855  14.044 -0.3738 -0.2294  0.7327
  680MPD2    C110056   1.417   1.775  14.000  0.2711  0.3107 -0.0399
  680MPD2    C210057   1.546   1.820  13.974  0.5997  0.4279  0.6036
  680MPD2    C310058   1.570   1.957  13.994 -0.8719  0.0704 -0.0160
  680MPD2    C410059   1.474   2.039  14.047  0.5168 -0.3801  0.4432
  680MPD2    C510060   1.348   1.989  14.059  0.9450 -0.4835  0.2943
  680MPD2     H10061   1.619   1.747  13.941 -1.3164 -0.8798 -0.6862
  680MPD2    H110062   1.483   2.146  14.056  1.4473 -0.5183  1.1648
  680MPD2    H210063   1.217   1.822  14.068 -0.8431  1.2906  0.8486
  680MPD2    H310064   1.263   2.052  14.083  0.9263 -0.0554 -0.9040
  680MPD2     N10065   1.696   2.016  13.986  0.9137  0.8005  0.5296
  680MPD2    H510066   1.703   2.115  14.009 -0.7669  1.1463 -0.4097
  680MPD2    N110067   1.401   1.638  13.983 -0.4034  0.8410 -0.1940
  680MPD2    H710068   1.487   1.584  13.982 -0.1433  1.2380  0.4211
  681TMC3    C110069   1.270   1.442  14.015  0.3676  0.4128  0.8247
  681TMC3    C210070   1.296   1.404  14.151  0.7022 -0.9295  0.0384
  681TMC3    C310071   1.232   1.291  14.190 -0.8126  0.2950 -0.1805
  681TMC3    C410072   1.197   1.367  13.927 -0.3280 -0.3519  0.2300
  681TMC3    C510073   1.147   1.254  13.978  0.1157 -0.6467 -0.6916
  681TMC3    C610074   1.168   1.208  14.108 -0.2332 -0.5576  0.0779
  681TMC3     C10075   1.275   1.587  13.977 -0.0159 -0.3798  0.0005
  681TMC3     O10076   1.171   1.634  13.935  0.6057 -0.6273 -0.1009
  681TMC3     H10077   1.349   1.478  14.211 -1.0325 -0.1446  0.5987
  681TMC3    H110078   1.173   1.412  13.832 -0.5251 -0.9184  0.0156
  681TMC3    H210079   1.120   1.116  14.140 -0.0028 -0.5151  0.5471
  681TMC3    C710080   1.112   1.148  13.883 -0.0110  0.3069  0.3339
  681TMC3    C810081   1.202   1.286  14.336  0.0552  0.1888  0.4597
  681TMC3    O110082   1.036   1.064  13.929 -0.8176 -0.6031  0.3364
  681TMC3    O210083   1.102   1.231  14.378  0.0028  0.1368  0.0397
  682MPD2     C10084   3.596   2.697  10.403  0.3771 -0.1753 -0.5281
  682MPD2    C110085   3.467   2.670  10.365 -0.0925  0.2676  0.2503
  682MPD2    C210086   3.356   2.700  10.445  0.0462 -0.3110  0.0791
  682MPD2    C310087   3.378   2.739  10.577 -1.0305 -0.5400 -0.5840
  682MPD2    C410088   3.509   2.751  10.622  0.2735 -0.3264  0.2067
  682MPD2    C510089   3.618   2.740  10.536 -0.3565 -0.4149  0.0081
  682MPD2     H10090   3.254   2.681  10.415 -0.1206 -1.7074  1.5301
  682MPD2    H110091   3.543   2.776  10.722  2.2291  1.3810 -0.8764
  682MPD2    H210092   3.677   2.703  10.331  1.2430  0.5779  0.5299
  682MPD2    H310093   3.718   2.769  10.568 -0.1267 -1.7043  0.4752
  682MPD2     N10094   3.282   2.766  10.677  0.3064  0.3700 -0.2798
  682MPD2    H510095   3.309   2.810  10.764 -3.0650  4.2839 -1.2106
  682MPD2    N110096   3.429   2.620  10.241  0.8363  0.3900  0.4066
  682MPD2    H710097   3.330   2.601  10.228  0.6253  0.9600  1.1622
  683TMC3    C110098   3.167   2.750  11.011  0.5394 -0.2758  0.0791
  683TMC3    C210099   3.139   2.618  11.039  0.0090  0.0748  0.2391
  683TMC3    C310100   3.077   2.549  10.938  0.0140 -0.1983 -0.4445
  683TMC3    C410101   3.135   2.807  10.890  0.3339 -0.1000 -0.1781
  683TMC3    C510102   3.083   2.732  10.786  0.0954 -0.0343 -0.1476
  683TMC3    C610103   3.049   2.605  10.814  0.2566 -0.4008 -0.2896
  683TMC3     C10104   3.192   2.841  11.124  0.1813  0.0372 -0.7936
  683TMC3     O10105   3.245   2.947  11.105  0.0151  1.1821 -0.5626
  683TMC3     H10106   3.146   2.568  11.135  0.3559  0.0619  0.2047
  683TMC3    H110107   3.178   2.904  10.867 -1.8663  1.5984  2.7049
  683TMC3    H210108   3.004   2.548  10.733  1.1899 -1.5173 -0.0367
  683TMC3    C710109   3.148   2.738  10.662  0.3376  0.3106 -1.1912
  683TMC3    C810110   3.080   2.405  10.935  0.0965 -0.3949 -0.3968
  683TMC3    O110111   3.082   2.710  10.560  0.0974 -0.3593  0.1869
  683TMC3    O210112   3.005   2.359  10.849  0.2189  0.2041  0.5589
  684MPD2     C10113   1.525   2.455  15.898  0.0194 -0.6335  0.0845
  684MPD2    C110114   1.653   2.422  15.884  0.5318  0.6449 -0.3788
  684MPD2    C210115   1.742   2.517  15.848 -0.2067  0.2738 -0.2850
  684MPD2    C310116   1.700   2.650  15.823 -0.0044 -0.3028 -1.0463
  684MPD2    C410117   1.568   2.682  15.848  0.8571  0.0336  0.2780
  684MPD2    C510118   1.476   2.584  15.874  0.2967  0.4734  0.8969
  684MPD2     H10119   1.847   2.502  15.825 -0.0111  0.3836  0.5333
  684MPD2    H110120   1.546   2.788  15.846  2.5530  0.3793 -0.2693
  684MPD2    H210121   1.447   2.390  15.936 -1.7723  0.6248 -1.4270
  684MPD2    H310122   1.371   2.603  15.897  0.2041  0.0684  0.8081
  684MPD2     N10123   1.798   2.746  15.785  0.6010 -0.1569  0.4400
  684MPD2    H510124   1.757   2.838  15.769 -0.8255 -0.9297 -0.4190
  684MPD2    N110125   1.679   2.282  15.894  0.0378 -0.3617 -0.0368
  684MPD2    H710126   1.601   2.219  15.912  0.7506 -1.5880 -1.1934
  685TMC3    C110127   1.800   2.078  15.849  0.1381 -0.6296 -0.1718
  685TMC3    C210128   1.686   2.008  15.809  0.0053  0.2293 -0.2393
  685TMC3    C310129   1.693   1.869  15.817 -0.7670  0.4609 -0.2680
  685TMC3    C410130   1.914   2.014  15.867  0.1519 -0.0823  0.4006
  685TMC3    C510131   1.911   1.882  15.884 -0.5067 -0.3758  0.9681
  685TMC3    C610132   1.805   1.806  15.866 -0.2004  0.1168 -0.0119
  685TMC3     C10133   1.800   2.227  15.853 -0.2695  0.0424  0.3428
  685TMC3     O10134   1.908   2.282  15.834  0.9547  0.0655 -0.1603
  685TMC3     H10135   1.589   2.053  15.792  1.6039  3.1397 -1.5973
  685TMC3    H110136   1.994   2.080  15.896 -0.5301  1.0419 -0.2591
  685TMC3    H210137   1.811   1.699  15.882  0.3515  0.0119 -0.9579
  685TMC3    C710138   2.041   1.815  15.889 -0.7690 -0.4861 -0.5504
  685TMC3    C810139   1.587   1.773  15.776 -0.6852  0.0592  0.0647
  685TMC3    O110140   2.063   1.708  15.836  0.0499  0.2531  0.0691
  685TMC3    O210141   1.611   1.660  15.815 -0.5928  0.1063 -0.2727
  686MPD2     C10142   3.328   1.896  15.212  0.9928 -0.4052 -0.0180
  686MPD2    C110143   3.239   1.842  15.305  0.2806  0.8246  0.3215
  686MPD2    C210144   3.168   1.730  15.283  0.6041 -0.9417  0.3091
  686MPD2    C310145   3.173   1.678  15.157 -0.0461  0.4348  0.3142
  686MPD2    C410146   3.265   1.729  15.071 -0.5135  0.4019 -0.7139
  686MPD2    C510147   3.347   1.835  15.094  0.1226 -0.3634  0.4983
  686MPD2     H10148   3.107   1.687  15.361  0.4814  0.2067  0.8510
  686MPD2    H110149   3.266   1.684  14.972 -2.5263 -0.0896 -0.5120
  686MPD2    H210150   3.388   1.981  15.240  1.1817 -0.2403 -0.9145
  686MPD2    H310151   3.422   1.864  15.021  1.9128 -0.8368  2.1666
  686MPD2     N10152   3.094   1.568  15.102  0.5833 -0.3748 -1.0257
  686MPD2    H510153   3.139   1.523  15.023  1.1925 -2.6680  0.6368
  686MPD2    N110154   3.213   1.916  15.425  0.3516 -0.1382 -0.1565
  686MPD2    H710155   3.259   2.006  15.434  0.7533 -0.6086  2.5857
  687TMC3    C110156   2.903   1.600  15.247 -0.3321  0.1169  0.8841
  687TMC3    C210157   2.831   1.710  15.196  0.1828  1.0580  0.4542
  687TMC3    C310158   2.729   1.752  15.272 -0.2141 -0.1761  0.1901
  687TMC3    C410159   2.874   1.538  15.369 -0.0740 -0.5598  0.3675
  687TMC3    C510160   2.779   1.597  15.444  0.2111  0.0169  0.1288
  687TMC3    C610161   2.717   1.706  15.398  0.3316  0.1950  0.2644
  687TMC3     C10162   2.977   1.508  15.154 -0.6667  0.3800 -0.1549
  687TMC3     O10163   2.918   1.411  15.113  0.1961 -0.3417 -0.5807
  687TMC3     H10164   2.834   1.728  15.089  0.9796  1.4439  0.5400
  687TMC3    H110165   2.928   1.450  15.403  0.3309  0.1706  1.5777
  687TMC3    H210166   2.660   1.773  15.460  1.0457  1.6856 -0.6855
  687TMC3    C710167   2.799   1.601  15.591 -0.0541  0.0156 -0.7695
  687TMC3    C810168   2.644   1.862  15.249  0.3383 -0.3597  0.0511
  687TMC3    O110169   2.789   1.701  15.657  0.5491 -0.2176 -0.1713
  687TMC3    O210170   2.530   1.858  15.293 -0.3024 -0.0284 -0.0717
  688MPD2     C10171   2.348   1.209  17.282 -0.1612 -0.3535 -0.3204
  688MPD2    C110172   2.399   1.084  17.316 -0.5251  0.0734 -0.1100
  688MPD2    C210173   2.491   1.020  17.230  0.0191  0.5838  0.6129
  688MPD2    C310174   2.540   1.086  17.123  0.3802 -0.7727  0.2175
  688MPD2    C410175   2.491   1.207  17.092  0.2528 -0.4985 -0.2620
  688MPD2    C510176   2.396   1.263  17.169 -0.2179  0.7132 -0.7826
  688MPD2     H10177   2.525   0.919  17.247 -0.1018  0.4087 -0.1803
  688MPD2    H110178   2.526   1.249  16.999  1.5026  2.3541  1.5026
  688MPD2    H210179   2.281   1.266  17.345 -0.1329 -0.4984 -0.1601
  688MPD2    H310180   2.367   1.363  17.139  1.0029  0.8827 -1.4088
  688MPD2     N10181   2.648   1.034  17.037  0.3043 -0.2572  0.5521
  688MPD2    H510182   2.697   1.096  16.973 -1.1709 -0.3422 -0.6582
  688MPD2    N110183   2.372   1.022  17.444  0.0279 -0.0915 -0.6513
  688MPD2    H710184   2.434   0.941  17.445 -0.2205 -0.2874 -1.2236
  689TMC3    C110185   2.314   1.012  17.677 -0.1197 -0.0730 -0.7528
  689TMC3    C210186   2.310   1.074   0.106  0.5378  0.2101 -0.3338
  689TMC3    C310187   2.296   1.007   0.227  0.0139  1.3462  0.3786
  689TMC3    C410188   2.318   0.871  17.673  0.2735 -0.1878  0.2096
  689TMC3    C510189   2.312   0.805   0.105  0.1294  0.0566 -0.1319
  689TMC3    C610190   2.302   0.871   0.220 -0.1110  0.2618  0.6781
  689TMC3     C10191   2.300   1.083  17.549 -0.2398 -0.8072  0.0378
  689TMC3     O10192   2.215   1.173  17.557 -0.1997 -0.0454  0.0293
  689TMC3     H10193   2.302   1.182   0.093  0.5491  0.0661 -1.5545
  689TMC3    H110194   2.295   0.818  17.581 -0.9693 -1.8053  1.4735
  689TMC3    H210195   2.281   0.807   0.305  0.1047 -1.4011 -0.5359
  689TMC3    C710196   2.274   0.663   0.103 -0.5230  0.1647  0.0771
  689TMC3    C810197   2.257   1.073   0.351  0.4599 -0.1501 -0.0362
  689TMC3    O110198   2.225   0.622   0.211 -0.4457  0.2146  0.4057
  689TMC3    O210199   2.203   1.003   0.439  0.0899  0.9013  0.7690
  690MPD2     C10200   0.898   3.218  15.637 -0.1104  0.3245  0.7851
  690MPD2    C110201   0.783   3.242  15.553 -0.5708 -0.7947  0.0431
  690MPD2    C210202   0.795   3.353  15.474 -0.0698 -0.3383  0.8233
  690MPD2    C310203   0.906   3.434  15.469 -0.0852 -0.8607  0.3537
  690MPD2    C410204   1.004   3.413  15.561  0.1970 -0.2415  1.0831
  690MPD2    C510205   1.007   3.300  15.640 -0.2343 -0.4439 -0.0130
  690MPD2     H10206   0.706   3.372  15.415  0.3407  0.3563  0.4340
  690MPD2    H110207   1.093   3.475  15.562 -0.6382  0.9264  2.9764
  690MPD2    H210208   0.900   3.130  15.700  2.5191 -0.6321 -0.6406
  690MPD2    H310209   1.082   3.287  15.717  0.1665 -3.2964 -0.8962
  690MPD2     N10210   0.901   3.545  15.383 -0.6557  0.1624  0.7300
  690MPD2    H510211   0.814   3.548  15.331 -0.7531 -1.4583  0.8175
  690MPD2    N110212   0.666   3.164  15.544 -1.0102 -0.3479 -0.4215
  690MPD2    H710213   0.593   3.188  15.479 -0.3431  0.4902 -0.8669
  691TMC3    C110214   0.518   2.995  15.612  0.7029  0.3238 -0.1231
  691TMC3    C210215   0.457   3.001  15.488  0.4573  0.2361 -0.2603
  691TMC3    C310216   0.332   2.954  15.481 -0.2017 -0.2051 -0.1921
  691TMC3    C410217   0.455   2.929  15.720  0.0606 -0.0060  0.1894
  691TMC3    C510218   0.333   2.876  15.700 -0.4873 -0.1313  0.2001
  691TMC3    C610219   0.263   2.892  15.587  0.0287  0.3269 -0.2013
  691TMC3     C10220   0.648   3.057  15.633 -0.3170 -0.1616  0.4602
  691TMC3     O10221   0.702   3.032  15.741  0.2996  0.4371  0.0533
  691TMC3     H10222   0.502   3.051  15.404 -0.0752  0.1214 -0.6116
  691TMC3    H110223   0.509   2.918  15.813 -0.6952 -1.2410  0.4827
  691TMC3    H210224   0.164   2.848  15.575  0.2181 -0.1218 -0.1246
  691TMC3    C710225   0.272   2.812  15.817 -0.3657  0.1827  0.3366
  691TMC3    C810226   0.251   2.993  15.368 -0.2010  1.3197 -0.4067
  691TMC3    O110227   0.339   2.793  15.918  0.3328  0.4534 -0.3967
  691TMC3    O210228   0.304   2.992  15.257 -0.3909 -0.2818 -0.0455
  692TMC3    C110229   1.459   3.967  15.594 -0.1184  0.0382 -0.3549
  692TMC3    C210230   1.583   4.014  15.633  0.2588 -0.2780 -0.8763
  692TMC3    C310231   1.699   3.953  15.597 -0.0921 -0.2687  0.6422
  692TMC3    C410232   1.448   3.862  15.506  0.5394 -0.0207 -0.3669
  692TMC3    C510233   1.566   3.807  15.465  0.2944  0.8558 -0.7166
  692TMC3    C610234   1.684   3.857  15.503 -0.8541 -0.5022 -0.2383
  692TMC3     C10235   1.352   3.994  15.694 -0.0007 -0.6266 -1.1041
  692TMC3     O10236   1.358   4.086  15.774 -0.3598  0.2014 -0.1378
  692TMC3     H10237   1.597   4.066  15.727  2.5084  1.6538 -2.2760
  692TMC3    H110238   1.357   3.820  15.464 -0.4004 -0.4214  2.0751
  692TMC3    H210239   1.773   3.800  15.479 -0.5709 -0.7589  1.4404
  692TMC3    C710240   1.560   3.683  15.385  0.0765  0.3810 -0.0387
  692TMC3    C810241   1.775   3.923  15.712 -0.2166  0.8771 -0.1058
  692TMC3    O110242   1.481   3.679  15.290 -0.0700  0.2785 -0.4477
  692TMC3    O210243   1.726   3.843  15.788 -0.2250  0.2545  0.6268
  693MPD2     C10244   0.912   2.142  10.415 -0.3444 -0.2010  0.5966
  693MPD2    C110245   0.883   2.068  10.527  0.0747 -0.0727  0.2828
  693MPD2    C210246   0.986   2.029  10.609 -0.2197 -0.0366 -0.4821
  693MPD2    C310247   1.118   2.033  10.568 -1.2347 -0.6937 -0.1826
  693MPD2    C410248   1.142   2.111  10.463 -0.1005 -0.2885 -0.2112
  693MPD2    C510249   1.045   2.173  10.396 -0.8108  0.3873  0.0906
  693MPD2     H10250   0.972   1.975  10.702 -0.7407 -1.5453 -1.4475
  693MPD2    H110251   1.246   2.124  10.436 -0.3735  0.6610 -0.8236
  693MPD2    H210252   0.841   2.156  10.335  0.1536 -3.7809 -0.4725
  693MPD2    H310253   1.072   2.226  10.305  1.4758 -0.0023  0.5295
  693MPD2     N10254   1.232   1.975  10.627  0.3209  0.2694  0.1361
  693MPD2    H510255   1.318   1.971  10.573  2.4939 -0.3813  3.6105
  693MPD2    N110256   0.740   2.039  10.538  0.5990  0.5004  0.4193
  693MPD2    H710257   0.677   2.065  10.462  0.2489 -0.3166  0.4335
  694TMC3    C110258   0.550   1.952  10.657 -0.1135 -0.1218 -0.5698
  694TMC3    C210259   0.484   1.896  10.552  0.2245 -0.1332  0.1452
  694TMC3    C310260   0.365   1.831  10.572 -0.6664 -0.4520 -0.5025
  694TMC3    C410261   0.492   1.932  10.780 -0.1658 -0.5521  0.2164
  694TMC3    C510262   0.377   1.867  10.796 -0.0823  0.5533  0.1132
  694TMC3    C610263   0.307   1.816  10.689 -0.2435  0.3438  0.5524
  694TMC3     C10264   0.692   1.985  10.654 -0.5772  0.8118 -0.3686
  694TMC3     O10265   0.748   1.984  10.760 -0.2508 -0.2743 -0.2609
  694TMC3     H10266   0.527   1.904  10.453 -0.3697 -0.0659 -0.1121
  694TMC3    H110267   0.560   1.951  10.862  0.0358  1.3911 -0.4071
  694TMC3    H210268   0.208   1.773  10.699  0.4290 -0.7437  2.5310
  694TMC3    C710269   0.333   1.843  10.934  0.0011 -0.0776  0.2449
  694TMC3    C810270   0.300   1.767  10.455  0.1606  0.2889  0.2719
  694TMC3    O110271   0.389   1.919  11.012 -0.1852  0.2396 -0.5894
  694TMC3    O210272   0.248   1.658  10.471  0.2043 -0.3592  0.6855
  695MPD2     C10273   1.724   3.808  13.368 -0.8957 -0.1611 -0.1916
  695MPD2    C110274   1.724   3.781  13.501  0.4875 -0.3038 -0.2978
  695MPD2    C210275   1.638   3.861  13.575 -0.3027  0.3283  0.5793
  695MPD2    C310276   1.540   3.944  13.516 -0.2910  0.2257 -0.1680
  695MPD2    C410277   1.536   3.949  13.376 -0.3670  0.0635 -0.0263
  695MPD2    C510278   1.641   3.896  13.307  0.0844  0.4006 -1.0187
  695MPD2     H10279   1.645   3.836  13.680 -1.9950  0.4561  0.7092
  695MPD2    H110280   1.467   4.012  13.321  0.8489 -0.0780 -1.7276
  695MPD2    H210281   1.795   3.763  13.299 -0.8226 -2.4043  1.3566
  695MPD2    H310282   1.654   3.921  13.202  0.2555 -1.4106 -1.4374
  695MPD2     N10283   1.454   4.016  13.605  0.7267  0.1299  0.0294
  695MPD2    H510284   1.477   4.016  13.703 -0.8268 -0.7731  0.4044
  695MPD2    N110285   1.807   3.690  13.569 -0.2867 -0.9797 -0.1411
  695MPD2    H710286   1.780   3.675  13.665  1.2263 -2.7333  0.0119
  696TMC3    C110287   1.260   4.122  13.693  0.0009  0.6084 -0.7275
  696TMC3    C210288   1.303   4.084  13.822  0.9812 -0.7374  0.6336
  696TMC3    C310289   1.225   4.130  13.928  0.7923  0.2056  0.0315
  696TMC3    C410290   1.147   4.198  13.676  0.5671 -0.9167 -0.0229
  696TMC3    C510291   1.066   4.240  13.780  0.7020  0.4110 -0.4261
  696TMC3    C610292   1.106   4.198  13.906  0.3712 -0.0986  0.0121
  696TMC3     C10293   1.336   4.087  13.573 -0.5956  0.9940 -0.4722
  696TMC3     O10294   1.290   4.106  13.459  0.2942  0.3160  0.1010
  696TMC3     H10295   1.395   4.033  13.847  2.9537  1.2403 -2.4616
  696TMC3    H110296   1.122   4.211  13.571  0.1623  0.2256  0.2113
  696TMC3    H210297   1.052   4.234  13.994 -1.4189 -0.9684 -0.7219
  696TMC3    C710298   1.075   4.390  13.781  0.6988  0.5785 -0.4013
  696TMC3    C810299   1.303   4.165  14.038 -0.1416 -0.4891 -0.5413
  696TMC3    O110300   1.046   4.436  13.675 -0.1511 -0.2146 -0.3965
  696TMC3    O210301   1.238   4.191  14.135 -0.0930 -0.1312 -0.7661
  697MPD2     C10302   1.259   0.933  16.051  0.6786  0.3047 -0.1975
  697MPD2    C110303   1.246   0.884  15.921  1.0129  0.7323 -0.1574
  697MPD2    C210304   1.280   0.970  15.818 -0.8135 -0.2752 -0.2892
  697MPD2    C310305   1.323   1.095  15.838  0.4275  0.2633  0.8065
  697MPD2    C410306   1.316   1.148  15.971  0.7482  0.4684  0.7175
  697MPD2    C510307   1.283   1.062  16.071 -0.3463  0.1836 -0.3562
  697MPD2     H10308   1.273   0.932  15.717  1.0834 -3.4410  0.7709
  697MPD2    H110309   1.350   1.246  16.004  0.9993  0.2591  1.0790
  697MPD2    H210310   1.240   0.870  16.137 -1.0943 -0.5257 -1.2004
  697MPD2    H310311   1.283   1.093  16.175 -1.3908 -1.3153  0.0918
  697MPD2     N10312   1.375   1.166  15.726 -0.0686 -0.4485  0.0886
  697MPD2    H510313   1.372   1.124  15.634  0.4840 -1.2838  0.4494
  697MPD2    N110314   1.207   0.753  15.883  0.4059  0.6583 -0.7195
  697MPD2    H710315   1.204   0.737  15.783  0.7781  1.5638 -0.8767
  698TMC3    C110316   1.528   1.298  15.611 -0.5367  0.1205  0.5720
  698TMC3    C210317   1.638   1.371  15.624 -0.3513  0.3355  0.0784
  698TMC3    C310318   1.721   1.379  15.519 -0.1819 -0.3979  0.0008
  698TMC3    C410319   1.504   1.221  15.496 -0.4557 -0.1508  0.4649
  698TMC3    C510320   1.587   1.244  15.388 -0.5812 -0.0516 -0.0647
  698TMC3    C610321   1.696   1.323  15.399  0.3691 -0.0440  0.3144
  698TMC3     C10322   1.455   1.275  15.731  0.2800 -0.4763  0.1469
  698TMC3     O10323   1.479   1.346  15.825  0.1785  0.1104 -0.4645
  698TMC3     H10324   1.664   1.419  15.718  1.8788  2.5462 -1.6864
  698TMC3    H110325   1.419   1.156  15.476 -0.5108  0.3014 -0.7745
  698TMC3    H210326   1.771   1.315  15.321  1.2834  2.5308  0.9276
  698TMC3    C710327   1.549   1.185  15.250 -0.1264  1.0110 -0.2849
  698TMC3    C810328   1.853   1.417  15.550  0.6114  0.3714  0.7898
  698TMC3    O110329   1.454   1.111  15.247  0.0350 -0.0153  0.1843
  698TMC3    O210330   1.908   1.360  15.644  0.5900 -0.5153 -0.6702
  699TMC3    C110331   1.415   3.591  13.314  1.1833  0.0367 -0.0386
  699TMC3    C210332   1.501   3.491  13.349  0.2562 -0.7162  0.7368
  699TMC3    C310333   1.506   3.463  13.480 -0.1016 -0.0797 -0.3722
  699TMC3    C410334   1.341   3.668  13.401  0.2149  0.4226  0.7302
  699TMC3    C510335   1.358   3.633  13.530 -0.1031  0.6133 -0.7182
  699TMC3    C610336   1.426   3.527  13.570 -0.7807  0.3797 -0.2075
  699TMC3     C10337   1.419   3.638  13.176  0.3009 -0.0240 -0.3439
  699TMC3     O10338   1.324   3.705  13.138  0.5802 -0.1285 -0.0137
  699TMC3     H10339   1.553   3.434  13.273 -3.5499 -1.3101 -1.3985
  699TMC3    H110340   1.272   3.749  13.377 -1.3509 -1.2218 -0.3313
  699TMC3    H210341   1.430   3.502  13.676  1.3674 -2.3937 -0.9348
  699TMC3    C710342   1.277   3.710  13.625  0.3650 -0.1705  0.4048
  699TMC3    C810343   1.583   3.356  13.535  0.5537 -0.4033 -0.2957
  699TMC3    O110344   1.170   3.753  13.587 -0.3721 -0.2069  0.4482
  699TMC3    O210345   1.557   3.318  13.647 -0.0883 -0.1540 -0.7262
  700TMC3    C110346   0.593   1.503  17.285 -0.0765 -0.1554  0.2560
  700TMC3    C210347   0.663   1.396  17.246  0.4764  0.2725  0.4393
  700TMC3    C310348   0.777   1.370  17.311  0.2068  0.1771 -0.1700
  700TMC3    C410349   0.626   1.566  17.406  0.2108  0.1336 -0.3931
  700TMC3    C510350   0.735   1.536  17.475  0.2465 -0.5488 -0.0315
  700TMC3    C610351   0.826   1.449  17.414 -0.1763 -0.0335 -0.2173
  700TMC3     C10352   0.488   1.564  17.211  0.2053 -0.2911 -0.5065
  700TMC3     O10353   0.391   1.602  17.270  0.2107  0.3448  0.0381
  700TMC3     H10354   0.628   1.336  17.163  0.1808  0.0314  0.7343
  700TMC3    H110355   0.562   1.648  17.436  2.2417  1.5503 -0.0231
  700TMC3    H210356   0.917   1.431  17.469 -0.6147 -2.9509 -0.4277
  700TMC3    C710357   0.791   1.655  17.533 -0.2897 -0.2653 -0.2206
  700TMC3    C810358   0.854   1.252  17.270  0.1799 -0.0262  0.0301
  700TMC3    O110359   0.893   1.694  17.487  0.1709  0.2611 -0.4168
  700TMC3    O210360   0.802   1.179  17.185  0.1801  0.1830 -0.0116
  701TMC3    C110361   0.125   0.019  15.358  0.5091 -0.0004  0.1163
  701TMC3    C210362   0.062   0.038  15.240  0.9513  0.7559 -0.5243
  701TMC3    C310363   0.095   0.145  15.161  0.0276 -0.2046  0.1118
  701TMC3    C410364   0.226   0.102  15.403  0.0419 -1.1387 -0.1613
  701TMC3    C510365   0.246   0.217  15.324  0.1728 -0.0439 -0.1892
  701TMC3    C610366   0.184   0.238  15.202 -0.3589  0.1637  0.4517
  701TMC3     C10367   0.097   4.625  15.441  0.0867 -0.1301  0.1062
  701TMC3     O10368   0.141   4.634  15.555  0.0176 -0.3961  1.2494
  701TMC3     H10369   4.695   4.710  15.207  0.1219  2.4673 -0.8701
  701TMC3    H110370   0.281   0.085  15.495 -1.7594 -1.0120  0.9325
  701TMC3    H210371   0.204   0.327  15.144  1.6694 -1.5446 -1.4530
  701TMC3    C710372   0.352   0.315  15.358 -1.0008  0.2679  0.5835
  701TMC3    C810373   0.034   0.167  15.034 -0.1140  0.0339 -0.7111
  701TMC3    O110374   0.390   0.393  15.269  1.0488 -0.1281  0.7640
  701TMC3    O210375   0.018   0.285  14.993 -0.3160  0.1722  0.0858
  702MPD2     C10376   4.505   2.304  10.287  1.0625 -0.4070  0.3996
  702MPD2    C110377   4.498   2.390  10.392  0.0205  0.0581 -0.2081
  702MPD2    C210378   4.520   2.520  10.361  0.7974 -0.8221  0.1738
  702MPD2    C310379   4.555   2.563  10.234 -0.1460  0.0050 -0.2401
  702MPD2    C410380   4.575   2.477  10.132 -0.6288  0.0575  0.4140
  702MPD2    C510381   4.544   2.343  10.163 -0.7305  0.4493 -0.4144
  702MPD2     H10382   4.501   2.592  10.440  0.8739  0.5560 -1.0862
  702MPD2    H110383   4.613   2.505  10.034  2.1897 -0.6647  1.3058
  702MPD2    H210384   4.489   2.198  10.299  0.1643 -0.1297  1.6504
  702MPD2    H310385   4.564   2.270  10.085  0.9888 -0.0702  0.5145
  702MPD2     N10386   4.559   2.699  10.223 -0.6452 -0.2764 -0.6135
  702MPD2    H510387   4.557   2.752  10.309  0.7859 -0.8663 -0.2063
  702MPD2    N110388   4.452   2.367  10.521 -0.0741 -0.1251 -0.0488
  702MPD2    H710389   4.477   2.435  10.592  0.9449 -0.4622 -0.0821
  703TMC3    C110390   4.622   2.906  10.147  0.1659  0.0807 -0.3765
  703TMC3    C210391   4.543   2.974  10.238 -0.1510 -0.1885 -0.7240
  703TMC3    C310392   4.586   3.097  10.279  0.5640 -0.6054 -0.6504
  703TMC3    C410393   0.018   2.957  10.105 -0.1261 -0.1088  0.4237
  703TMC3    C510394   0.060   3.075  10.146  0.6418  0.0987 -0.9090
  703TMC3    C610395   4.711   3.150  10.232  0.4003 -0.0442  0.5186
  703TMC3     C10396   4.591   2.766  10.110 -0.2443 -0.0621 -1.3928
  703TMC3     O10397   4.618   2.732   9.998 -0.2513 -0.2116 -0.1101
  703TMC3     H10398   4.451   2.927  10.271 -0.7773  1.3752 -0.2219
  703TMC3    H110399   0.098   2.900  10.059 -0.3241 -0.2409  0.2429
  703TMC3    H210400   0.020   3.251  10.256  0.7318 -0.0182 -0.0403
  703TMC3    C710401   0.203   3.119  10.127 -0.3693  1.1680 -0.0039
  703TMC3    C810402   4.496   3.190  10.352  0.2111 -0.1123  0.5480
  703TMC3    O110403   0.215   3.233  10.075  0.1108  0.5621 -0.2787
  703TMC3    O210404   4.531   3.304  10.359  0.1481  0.3452 -0.2794
  704TMC3    C110405   1.980   0.646  12.119 -0.2862 -0.0241  0.5120
  704TMC3    C210406   2.096   0.713  12.147 -0.3345  0.2258 -0.1000
  704TMC3    C310407   2.150   0.689  12.266  0.3898 -0.8643  0.2567
  704TMC3    C410408   1.923   0.561  12.204 -0.0200  0.0861 -0.0481
  704TMC3    C510409   1.980   0.540  12.326 -0.8699  0.2278  0.1430
  704TMC3    C610410   2.090   0.607  12.355 -0.0501  0.6007 -0.0995
  704TMC3     C10411   1.896   0.695  12.014  0.2680  0.1136 -0.4097
  704TMC3     O10412   1.777   0.678  12.027  0.6255 -1.0160  0.3104
  704TMC3     H10413   2.130   0.804  12.099  3.0680 -1.1171 -0.2357
  704TMC3    H110414   1.832   0.506  12.182 -0.5998  1.5312 -1.2032
  704TMC3    H210415   2.137   0.565  12.443 -0.3632 -1.1014 -0.7502
  704TMC3    C710416   2.012   0.394  12.340 -0.6151  0.0114  0.9662
  704TMC3    C810417   2.292   0.719  12.288  0.2115 -0.6247 -0.7859
  704TMC3    O110418   2.085   0.342  12.258 -0.0384  0.2455  0.4795
  704TMC3    O210419   2.365   0.733  12.187  0.4059  0.3055 -0.2958
  705MPD2     C10420   1.863   3.471  16.001  0.8179  0.0276 -0.3052
  705MPD2    C110421   1.896   3.600  16.047  0.6217 -0.4418  0.1027
  705MPD2    C210422   1.806   3.649  16.141  0.5308  0.0281 -0.2351
  705MPD2    C310423   1.694   3.581  16.180  0.0828  0.1897  0.3340
  705MPD2    C410424   1.658   3.458  16.122  0.3070  0.4830  0.0473
  705MPD2    C510425   1.735   3.413  16.022  0.7884 -0.0282 -0.6063
  705MPD2     H10426   1.832   3.747  16.178 -1.0879 -0.1303  1.2931
  705MPD2    H110427   1.572   3.398  16.151 -0.6672  1.7510 -0.2265
  705MPD2    H210428   1.940   3.411  15.953 -1.5674 -1.4291 -2.2766
  705MPD2    H310429   1.722   3.315  15.979  0.9857  0.0783 -0.9084
  705MPD2     N10430   1.620   3.625  16.293  0.0345  0.4251 -0.4292
  705MPD2    H510431   1.548   3.567  16.334  1.0906 -1.4029 -1.1736
  705MPD2    N110432   2.006   3.678  16.006 -0.0795  0.2509 -0.0503
  705MPD2    H710433   2.019   3.766  16.054 -3.4332  0.7146  0.0480
  706TMC3    C110434   2.430   3.786  15.851 -0.2699 -0.0021 -0.1528
  706TMC3    C210435   2.422   3.900  15.923 -0.4830  0.0851 -0.4307
  706TMC3    C310436   2.300   3.945  15.980  0.1755 -0.3717 -0.4007
  706TMC3    C410437   2.315   3.711  15.829  0.3712  0.3749 -0.7030
  706TMC3    C510438   2.203   3.752  15.902 -0.6386 -0.1186  0.6880
  706TMC3    C610439   2.197   3.871  15.971 -0.6728 -0.4420  0.0649
  706TMC3     C10440   2.556   3.740  15.811  0.1867  0.2908  0.3249
  706TMC3     O10441   2.661   3.776  15.866 -0.0209  0.1252 -0.1246
  706TMC3     H10442   2.510   3.963  15.922 -2.3092  2.6436 -0.8717
  706TMC3    H110443   2.316   3.615  15.778  1.9468 -0.8442  1.6040
  706TMC3    H210444   2.106   3.910  16.015  0.1894 -0.0582  1.5276
  706TMC3    C710445   2.099   3.647  15.915 -0.0848  0.2824  0.3054
  706TMC3    C810446   2.306   4.075  16.047  0.5221  0.1131 -0.6820
  706TMC3    O110447   2.109   3.543  15.853  0.1827  0.2886 -0.5098
  706TMC3    O210448   2.357   4.171  15.988 -0.7935  0.1286  0.0846
  707TMC3    C110449   0.161   3.038   1.915 -0.0951 -0.5687 -0.0996
  707TMC3    C210450   0.276   2.985   1.968 -0.2137  0.5273 -0.5059
  707TMC3    C310451   0.300   3.018   2.096 -0.1188 -0.2048 -0.0369
  707TMC3    C410452   0.069   3.114   1.982 -0.1664  0.2593 -0.3604
  707TMC3    C510453   0.110   3.151   2.107  0.1694  0.9265  0.0929
  707TMC3    C610454   0.225   3.104   2.171  0.4310  0.1056 -0.0141
  707TMC3     C10455   0.133   2.990   1.776  0.2296  0.0198  0.5568
  707TMC3     O10456   0.193   2.887   1.751 -0.2920 -0.6120  0.5483
  707TMC3     H10457   0.355   2.939   1.910  1.2106  3.0617 -0.5782
  707TMC3    H110458   4.697   3.136   1.934 -1.0186 -1.1753  0.6585
  707TMC3    H210459   0.236   3.109   2.278  0.9366 -1.1345 -0.0107
  707TMC3    C710460   0.024   3.241   2.181 -0.1551 -0.4247 -0.2502
  707TMC3    C810461   0.400   2.941   2.168  0.1328  0.2427  0.3184
  707TMC3    O110462   0.035   3.243   2.303 -0.1466 -0.4476 -0.7057
  707TMC3    O210463   0.433   2.988   2.274 -0.0072 -0.2469 -0.3855
  708MPD2     C10464   0.854   1.526  14.050 -0.0800 -0.4613 -0.6579
  708MPD2    C110465   0.829   1.657  14.020 -0.0909 -0.5928 -0.3146
  708MPD2    C210466   0.708   1.705  14.050  0.0740 -0.0222 -0.8156
  708MPD2    C310467   0.605   1.629  14.111 -0.1153  0.0865  0.1973
  708MPD2    C410468   0.631   1.501  14.148  0.6553 -0.1048 -0.4264
  708MPD2    C510469   0.756   1.451  14.114 -0.5482  0.8467  0.3414
  708MPD2     H10470   0.686   1.801  14.003 -0.3123  0.7740  1.0065
  708MPD2    H110471   0.552   1.439  14.190  1.6204 -0.5330  0.7473
  708MPD2    H210472   0.950   1.483  14.025  0.2873  0.3078 -0.5738
  708MPD2    H310473   0.786   1.348  14.129 -3.5104  0.0549  0.8632
  708MPD2     N10474   0.478   1.679  14.138 -0.2237 -0.2433 -0.1708
  708MPD2    H510475   0.408   1.620  14.183 -0.1649  2.1575  3.0655
  708MPD2    N110476   0.922   1.726  13.936 -0.0123  0.8521 -0.4276
  708MPD2    H710477   1.007   1.677  13.907 -0.9554 -0.6110 -0.7478
  709TMC3    C110478   1.013   1.893  13.788 -0.0122  0.4905  0.3649
  709TMC3    C210479   1.010   1.835  13.660 -0.0080 -0.2690 -0.2345
  709TMC3    C310480   0.976   1.920  13.559  0.1757 -0.0515 -0.4045
  709TMC3    C410481   0.999   2.034  13.791  1.0957  0.6256  0.0680
  709TMC3    C510482   0.972   2.108  13.682  0.8889 -0.6139  0.0871
  709TMC3    C610483   0.953   2.057  13.559  0.5582 -0.2532 -0.4970
  709TMC3     C10484   0.906   1.845  13.869  0.2176 -0.3050 -0.0548
  709TMC3     O10485   0.815   1.920  13.887 -0.2733  0.1352  0.2078
  709TMC3     H10486   1.003   1.729  13.642  0.6395 -0.2701 -0.4755
  709TMC3    H110487   0.993   2.082  13.889 -1.1493 -1.3755  0.8927
  709TMC3    H210488   0.963   2.117  13.469  0.6193  2.3024  1.2187
  709TMC3    C710489   0.888   2.226  13.702 -0.7312  0.0927 -0.1669
  709TMC3    C810490   0.959   1.858  13.424 -0.4059 -0.0458 -0.2010
  709TMC3    O110491   0.877   2.314  13.618 -0.1287 -0.2062 -0.7614
  709TMC3    O210492   1.025   1.758  13.407  0.3275  0.6236 -0.0776
  710TMC3    C110493   1.600   3.938   0.182  0.6768  0.2859  0.2281
  710TMC3    C210494   1.575   3.835   0.099  0.0038 -0.1825  0.5009
  710TMC3    C310495   1.674   3.742   0.091  0.4808  0.5124 -0.8267
  710TMC3    C410496   1.710   3.958   0.261 -0.0637  0.1475  0.1330
  710TMC3    C510497   1.808   3.872   0.246 -0.4115 -0.4860  0.4673
  710TMC3    C610498   1.787   3.759   0.166  0.3280 -0.1037 -0.2218
  710TMC3     C10499   1.488   4.023   0.207  0.8822 -0.5677  0.0655
  710TMC3     O10500   1.429   4.074   0.109  0.7304  0.3199  0.3923
  710TMC3     H10501   1.481   3.830   0.045 -1.4411 -1.1054  3.1340
  710TMC3    H110502   1.727   4.053   0.311 -0.2454  0.1566  0.1753
  710TMC3    H210503   1.850   3.672   0.178  0.3043 -0.3172 -1.6672
  710TMC3    C710504   1.915   3.861   0.343 -0.7706 -0.5651 -0.2050
  710TMC3    C810505   1.685   3.649  17.672 -0.5227  0.1190  0.1695
  710TMC3    O110506   1.940   3.748   0.377 -0.3335  0.4499 -0.2827
  710TMC3    O210507   1.794   3.603  17.633  0.0869  0.3344 -0.6134
  711TMC3    C110508   1.267   4.654  15.028 -0.0170  0.1028  0.0415
  711TMC3    C210509   1.263   0.019  15.135  0.6584  0.0439  0.4324
  711TMC3    C310510   1.360   4.719  15.229 -0.4169  0.1970 -0.0834
  711TMC3    C410511   1.362   4.560  15.010  0.2885 -0.3926  1.0201
  711TMC3    C510512   1.459   4.541  15.103 -0.8879  0.2639 -0.1111
  711TMC3    C610513   1.455   4.617  15.219 -0.6469 -0.1778 -0.0841
  711TMC3     C10514   1.157   4.664  14.925  0.2917  0.6432  1.7181
  711TMC3     O10515   1.170   4.619  14.812 -0.1005  0.4451  0.1407
  711TMC3     H10516   1.195   0.103  15.141  1.4919  0.5956  2.3602
  711TMC3    H110517   1.354   4.500  14.920  0.3159  0.5239  0.4067
  711TMC3    H210518   1.509   4.582  15.306 -0.2295 -2.0613 -1.1021
  711TMC3    C710519   1.505   4.409  15.122 -0.0963 -0.7464  0.4484
  711TMC3    C810520   1.321   0.038  15.362 -0.2195 -0.0094 -0.1054
  711TMC3    O110521   1.610   4.395  15.186 -1.0282  0.3012  0.2771
  711TMC3    O210522   1.205   0.077  15.380 -0.1912  0.2089 -0.3117
  712MPD2     C10523   2.244   0.384  13.441  0.0075  0.5213 -0.2548
  712MPD2    C110524   2.159   0.465  13.502  0.6252  0.1460  0.5058
  712MPD2    C210525   2.203   0.554  13.595 -0.1159 -0.0473  0.7948
  712MPD2    C310526   2.337   0.572  13.622 -0.2562 -0.6378 -0.6057
  712MPD2    C410527   2.426   0.497  13.545  0.4108  0.2440  0.1606
  712MPD2    C510528   2.382   0.396  13.462 -0.0957 -0.1902 -0.1802
  712MPD2     H10529   2.133   0.617  13.649 -0.3887 -0.3011  0.7372
  712MPD2    H110530   2.533   0.508  13.557 -0.1517  2.8871  2.4950
  712MPD2    H210531   2.209   0.300  13.382 -2.5040  0.2549  1.6214
  712MPD2    H310532   2.453   0.344  13.399  1.6985  2.6246 -0.4878
  712MPD2     N10533   2.388   0.676  13.701 -0.5006  0.0990  1.0395
  712MPD2    H510534   2.489   0.685  13.690 -0.8143  1.9373 -0.3119
  712MPD2    N110535   2.018   0.448  13.472  0.1540  0.3057  0.1103
  712MPD2    H710536   1.995   0.403  13.384  0.8394  1.1485 -0.4960
  713TMC3    C110537   2.399   0.880  13.816  0.4734 -0.0950 -0.5747
  713TMC3    C210538   2.515   0.898  13.747  0.2446 -0.0490  0.4618
  713TMC3    C310539   2.563   1.027  13.736  1.1025  0.1356  0.5710
  713TMC3    C410540   2.318   0.982  13.859  0.1068 -0.4890  0.1933
  713TMC3    C510541   2.366   1.108  13.835 -0.2174  0.5791  1.0409
  713TMC3    C610542   2.497   1.131  13.790 -0.0891 -0.3356  0.0789
  713TMC3     C10543   2.320   0.765  13.776  0.1094 -0.7558 -0.0059
  713TMC3     O10544   2.200   0.763  13.812 -0.8233 -0.0267 -0.6640
  713TMC3     H10545   2.583   0.817  13.723 -0.5499 -0.2881 -1.0130
  713TMC3    H110546   2.222   0.963  13.904 -0.2436  0.2982 -0.2198
  713TMC3    H210547   2.522   1.235  13.774 -1.1425 -0.2631 -1.1211
  713TMC3    C710548   2.270   1.208  13.866 -0.1249  0.2606 -0.0110
  713TMC3    C810549   2.687   1.056  13.667  0.4621 -0.0387  0.1966
  713TMC3    O110550   2.155   1.175  13.869  0.3314 -0.0100  0.2472
  713TMC3    O210551   2.681   1.142  13.577 -0.4273 -0.1627  0.3333
  714MPD2     C10552   0.246   4.066   1.858  0.2678  0.5653 -0.7654
  714MPD2    C110553   0.322   4.025   1.754  0.0095 -0.2383 -0.1060
  714MPD2    C210554   0.272   4.042   1.623  0.0456 -0.6683  0.2614
  714MPD2    C310555   0.148   4.101   1.599 -0.4732  0.4757  0.4027
  714MPD2    C410556   0.069   4.127   1.710 -0.0164  0.2268 -0.4217
  714MPD2    C510557   0.122   4.114   1.829  0.1909  0.0254 -0.3163
  714MPD2     H10558   0.333   4.038   1.534  0.8862  0.2620  0.8015
  714MPD2    H110559   4.693   4.170   1.696 -0.3260 -0.2470  0.2897
  714MPD2    H210560   0.272   4.077   1.963 -2.3317  4.4723 -0.5397
  714MPD2    H310561   0.061   4.142   1.915  0.2341 -1.6591  0.2546
  714MPD2     N10562   0.111   4.119   1.466  0.2313  1.1543 -0.0858
  714MPD2    H510563   0.186   4.097   1.401 -0.1477  0.4897 -0.2987
  714MPD2    N110564   0.457   3.986   1.778  0.5447 -0.0168 -0.8111
  714MPD2    H710565   0.477   3.964   1.875 -0.6562  1.2387 -0.2788
  715TMC3    C110566   0.687   3.951   1.749  0.3769 -0.5424  0.1514
  715TMC3    C210567   0.769   3.876   1.679  0.2133 -0.6006  0.5832
  715TMC3    C310568   0.902   3.879   1.712 -0.2546 -0.3101 -0.7429
  715TMC3    C410569   0.727   4.034   1.849  0.9761 -0.2065  0.0793
  715TMC3    C510570   0.860   4.039   1.872  0.7845 -0.7521 -0.3770
  715TMC3    C610571   0.952   3.962   1.812 -0.8570  0.0623 -0.0370
  715TMC3     C10572   0.556   3.970   1.686  1.1013  0.0956 -0.6175
  715TMC3     O10573   0.555   3.969   1.565 -0.0478  0.2287 -0.0081
  715TMC3     H10574   0.727   3.828   1.592  0.3151  1.7381 -0.7701
  715TMC3    H110575   0.652   4.101   1.888 -0.4711 -1.2346 -0.9216
  715TMC3    H210576   1.060   3.956   1.817 -0.8365  0.6814  0.1952
  715TMC3    C710577   0.924   4.159   1.921  0.6648  0.3167 -0.8556
  715TMC3    C810578   0.986   3.811   1.621 -0.4552  0.5413  0.5110
  715TMC3    O110579   1.041   4.171   1.886 -0.0990 -0.0923 -0.4851
  715TMC3    O210580   0.932   3.733   1.541  0.1131 -0.2981  0.2268
  716MPD2     C10581   0.196   2.522  10.010  0.0687 -0.1518  0.3131
  716MPD2    C110582   0.140   2.467   9.896 -0.1539  0.4852  0.6927
  716MPD2    C210583   0.177   2.341   9.867  0.1420 -0.2484 -0.0051
  716MPD2    C310584   0.261   2.262   9.943 -0.4766  0.3330  0.2922
  716MPD2    C410585   0.312   2.319  10.058 -0.7656 -0.6681 -0.2334
  716MPD2    C510586   0.287   2.450  10.084 -0.0010  0.8364 -0.4450
  716MPD2     H10587   0.128   2.296   9.782  0.7330 -1.1166  0.1075
  716MPD2    H110588   0.386   2.270  10.119  0.6638  3.2349  1.0883
  716MPD2    H210589   0.165   2.620  10.043 -1.1687 -0.6445  0.6107
  716MPD2    H310590   0.322   2.495  10.176  0.2634  0.3219 -0.2958
  716MPD2     N10591   0.304   2.132   9.899 -0.0622 -0.2139 -0.1696
  716MPD2    H510592   0.277   2.100   9.806  1.3187 -1.8439 -0.0001
  716MPD2    N110593   0.040   2.540   9.813 -0.0572 -0.0225 -0.3514
  716MPD2    H710594   0.009   2.625   9.859 -0.6593 -0.6101  0.3128
  717TMC3    C110595   0.402   1.922   9.897 -0.3162 -0.2033  0.9624
  717TMC3    C210596   0.321   1.883   9.797  0.0589 -0.0794 -0.1032
  717TMC3    C310597   0.318   1.749   9.764  0.0998  0.1433  0.4292
  717TMC3    C410598   0.489   1.834   9.956 -0.6201  0.4801 -0.4443
  717TMC3    C510599   0.477   1.702   9.932 -0.0369  0.0676 -0.1736
  717TMC3    C610600   0.392   1.656   9.833  1.0919 -0.2146  0.3796
  717TMC3     C10601   0.379   2.044   9.965  0.1116  0.6643  0.5024
  717TMC3     O10602   0.442   2.048  10.072  0.4324  0.1517 -0.0685
  717TMC3     H10603   0.236   1.945   9.771 -0.3984  0.2160  2.0826
  717TMC3    H110604   0.562   1.878  10.022 -0.9052  1.8913 -1.0675
  717TMC3    H210605   0.393   1.548   9.829 -0.0397 -0.1742 -1.0483
  717TMC3    C710606   0.521   1.605  10.033 -0.0567  0.1842  0.1540
  717TMC3    C810607   0.216   1.707   9.673  0.6762  0.0219  0.2129
  717TMC3    O110608   0.478   1.491  10.032  0.2858  0.6259 -0.4451
  717TMC3    O210609   0.112   1.772   9.668 -0.2059 -0.0959 -0.1020
  718MPD2     C10610   3.630   1.087  12.100 -0.4736 -0.1718 -0.8241
  718MPD2    C110611   3.571   1.217  12.109  0.2338 -0.2511  0.4042
  718MPD2    C210612   3.479   1.235  12.215 -0.2767  0.7472 -0.4269
  718MPD2    C310613   3.451   1.136  12.307  0.2274  0.4767 -0.3113
  718MPD2    C410614   3.505   1.006  12.299  0.7005  0.0846 -0.1215
  718MPD2    C510615   3.596   0.984  12.194 -0.0965  0.3342  0.2369
  718MPD2     H10616   3.428   1.330  12.225  1.6792  1.5087  2.0561
  718MPD2    H110617   3.495   0.930  12.376 -0.1867  1.3430  1.0175
  718MPD2    H210618   3.707   1.057  12.031  1.1455 -0.9004  1.2797
  718MPD2    H310619   3.644   0.888  12.184 -1.2105 -0.3223  1.1540
  718MPD2     N10620   3.362   1.172  12.416  0.2367  0.1960 -0.1079
  718MPD2    H510621   3.323   1.265  12.411  0.1418  0.2325  1.1506
  718MPD2    N110622   3.618   1.319  12.021  0.3814  0.2557 -0.6368
  718MPD2    H710623   3.677   1.288  11.945  1.9861  0.2018  0.6364
  719TMC3    C110624   3.678   1.550  11.969 -0.4159 -0.0973 -0.3620
  719TMC3    C210625   3.650   1.681  12.013  0.1181 -0.1087  0.2379
  719TMC3    C310626   3.753   1.763  12.072  0.3287 -0.3023  0.5777
  719TMC3    C410627   3.806   1.507  11.968  0.3755 -0.2514 -0.1507
  719TMC3    C510628   3.902   1.588  12.022 -0.6309 -0.5364  0.3822
  719TMC3    C610629   3.879   1.713  12.072  0.1730  0.4708  0.1357
  719TMC3     C10630   3.588   1.454  12.041 -0.2978  0.0519  0.4026
  719TMC3     O10631   3.496   1.509  12.104 -0.0961 -0.3324 -0.2926
  719TMC3     H10632   3.549   1.715  11.990 -0.8149 -2.7563  0.4517
  719TMC3    H110633   3.838   1.413  11.925  1.9047  0.4973 -0.6826
  719TMC3    H210634   3.957   1.779  12.107  0.6107  1.1046 -2.0881
  719TMC3    C710635   4.033   1.530  12.056 -0.5436  0.2687 -0.4052
  719TMC3    C810636   3.718   1.822  12.201 -0.7232  0.1081 -0.6756
  719TMC3    O110637   4.082   1.478  11.959  0.3716  0.4824  1.1589
  719TMC3    O210638   3.810   1.880  12.260 -0.0068  0.1644  0.5714
  720MPD2     C10639   2.834   2.518  13.842 -0.3647  0.4479  0.1691
  720MPD2    C110640   2.918   2.580  13.755  0.0099  0.1143  0.1367
  720MPD2    C210641   3.044   2.616  13.799 -0.0921  0.2200 -0.4332
  720MPD2    C310642   3.087   2.586  13.924 -0.3227 -0.0594  0.0838
  720MPD2    C410643   3.009   2.498  13.995  0.9634 -0.9112 -0.1581
  720MPD2    C510644   2.885   2.474  13.958  0.4187  0.3968  0.0498
  720MPD2     H10645   3.112   2.672  13.736 -0.5376 -1.5557 -2.4831
  720MPD2    H110646   3.038   2.455  14.090  0.1477 -2.2704 -0.5180
  720MPD2    H210647   2.729   2.506  13.817 -1.4648  3.0750  3.5601
  720MPD2    H310648   2.831   2.402  14.019  1.3135  0.9727  1.5392
  720MPD2     N10649   3.213   2.628  13.966  0.1254  0.0589 -0.7594
  720MPD2    H510650   3.258   2.692  13.902 -2.7610  1.8900 -0.8906
  720MPD2    N110651   2.878   2.618  13.625  0.3709  0.0777  0.2069
  720MPD2    H710652   2.955   2.649  13.566 -0.4691  0.4610 -0.6929
  721TMC3    C110653   3.405   2.647  14.107 -0.5141  0.2592  0.4486
  721TMC3    C210654   3.444   2.650  14.238 -0.1231  0.5494 -0.3392
  721TMC3    C310655   3.568   2.691  14.275  0.1256  0.5981  0.4035
  721TMC3    C410656   3.491   2.671  14.009 -0.2608 -0.6031  0.9266
  721TMC3    C510657   3.615   2.711  14.049 -0.7853 -0.2274 -0.0039
  721TMC3    C610658   3.664   2.718  14.180  0.4432 -0.3538  0.5535
  721TMC3     C10659   3.273   2.594  14.083 -0.3883  0.2346  0.0306
  721TMC3     O10660   3.243   2.510  14.167  0.1819  0.1584  0.2489
  721TMC3     H10661   3.368   2.641  14.315  1.2016 -0.6200  0.8318
  721TMC3    H110662   3.461   2.656  13.906 -0.7221 -0.4052  1.0357
  721TMC3    H210663   3.767   2.734  14.207  1.1182 -1.4137 -1.3768
  721TMC3    C710664   3.714   2.732  13.945 -0.5671 -0.3017  0.1873
  721TMC3    C810665   3.620   2.642  14.399 -0.0322 -0.2840 -0.1316
  721TMC3    O110666   3.835   2.727  13.968 -0.1444  0.7084 -0.1274
  721TMC3    O210667   3.736   2.605  14.401  0.1966 -0.6784  0.1533
  722MPD2     C10668   1.120   1.401  13.482  0.0448 -0.1117  0.2970
  722MPD2    C110669   1.213   1.428  13.384  0.8523  0.5102 -0.2610
  722MPD2    C210670   1.179   1.414  13.249  0.1899  0.4437  0.6478
  722MPD2    C310671   1.053   1.373  13.209 -0.7070 -0.6467 -0.5293
  722MPD2    C410672   0.963   1.333  13.311  0.6093  0.2013  0.7675
  722MPD2    C510673   0.999   1.346  13.446 -0.2368  0.6259 -0.2459
  722MPD2     H10674   1.249   1.451  13.175 -0.5422 -1.6231 -1.0611
  722MPD2    H110675   0.865   1.291  13.291  0.3109  1.1452  0.2239
  722MPD2    H210676   1.139   1.413  13.588  0.8924 -1.1419  0.2558
  722MPD2    H310677   0.929   1.310  13.520 -0.3895 -2.6561 -1.9877
  722MPD2     N10678   1.025   1.356  13.074  0.5175 -0.3821  0.1434
  722MPD2    H510679   1.095   1.386  13.007  0.2558  0.2657  0.1649
  722MPD2    N110680   1.335   1.475  13.423 -0.2812 -0.3880 -0.9592
  722MPD2    H710681   1.388   1.518  13.349  0.0252  0.1306 -0.4429
  723TMC3    C110682   0.923   1.261  12.882 -0.4252 -0.4327  0.1903
  723TMC3    C210683   0.826   1.183  12.827 -0.1353  0.1740 -0.6196
  723TMC3    C310684   0.818   1.172  12.690 -0.7041  0.6525 -0.4394
  723TMC3    C410685   1.009   1.334  12.800 -0.0938 -0.4089 -0.1018
  723TMC3    C510686   0.996   1.323  12.660  0.4928  0.0388 -0.2220
  723TMC3    C610687   0.906   1.238  12.607  0.1196  0.6898  0.8159
  723TMC3     C10688   0.916   1.280  13.023 -0.1746 -1.3797  0.2826
  723TMC3     O10689   0.807   1.247  13.070 -0.7720 -0.0099 -0.3893
  723TMC3     H10690   0.754   1.124  12.882  1.0036 -1.2043 -0.6187
  723TMC3    H110691   1.102   1.381  12.831 -0.0380 -0.8664  0.4348
  723TMC3    H210692   0.877   1.239  12.502  2.7288  1.2212  0.1072
  723TMC3    C710693   1.023   1.442  12.579 -0.1533 -0.0470 -0.5485
  723TMC3    C810694   0.740   1.065  12.629 -0.1854  0.0910 -0.1536
  723TMC3    O110695   0.966   1.441  12.467  0.2473 -0.4749 -0.0710
  723TMC3    O210696   0.775   1.018  12.521  0.3516  0.1300  0.3006
  724TMC3    C110697   0.616   0.579   9.360 -0.0443  0.2732 -0.4662
  724TMC3    C210698   0.609   0.616   9.229 -1.1728  0.0825  0.0574
  724TMC3    C310699   0.730   0.611   9.170 -0.2811  0.5997  0.0419
  724TMC3    C410700   0.715   0.518   9.423  0.1249 -0.2301 -0.2334
  724TMC3    C510701   0.837   0.513   9.364 -0.4990 -0.6483 -0.2070
  724TMC3    C610702   0.845   0.570   9.236  0.5729 -0.5277  0.0496
  724TMC3     C10703   0.506   0.622   9.444  0.1767 -0.7393 -0.1067
  724TMC3     O10704   0.410   0.660   9.379  0.5662 -0.3289  0.8116
  724TMC3     H10705   0.526   0.672   9.187 -1.1123  1.7224  2.1161
  724TMC3    H110706   0.702   0.475   9.521  0.0069  1.1106  0.3384
  724TMC3    H210707   0.935   0.567   9.177  0.1473  0.7171 -0.6452
  724TMC3    C710708   0.944   0.421   9.417  0.9454  0.3685 -0.4321
  724TMC3    C810709   0.749   0.707   9.059  0.1168  0.3619  0.7561
  724TMC3    O110710   1.054   0.443   9.369 -0.1559 -0.0729  0.2680
  724TMC3    O210711   0.641   0.715   8.994  0.0961  0.6459  0.3849
  725TMC3    C110712   3.397   3.192  13.113  0.4539 -0.2156  0.4878
  725TMC3    C210713   3.257   3.200  13.091 -0.9849 -0.6657  0.2677
  725TMC3    C310714   3.190   3.087  13.075  0.5874  0.3200 -0.4966
  725TMC3    C410715   3.466   3.071  13.118 -0.8558 -1.1328  0.0175
  725TMC3    C510716   3.387   2.964  13.080 -0.1778  0.2353 -0.6707
  725TMC3    C610717   3.251   2.968  13.058  0.7638  0.1457  0.5048
  725TMC3     C10718   3.462   3.316  13.146 -0.3280  0.1043 -0.6020
  725TMC3     O10719   3.393   3.416  13.122 -0.4843 -0.1910 -0.0402
  725TMC3     H10720   3.210   3.297  13.098 -2.9592 -1.5008 -1.7492
  725TMC3    H110721   3.573   3.057  13.125 -0.8946 -0.6262  1.6443
  725TMC3    H210722   3.199   2.880  13.024 -0.0297  1.0081 -0.5086
  725TMC3    C710723   3.444   2.833  13.078  0.1998  0.1503  0.8890
  725TMC3    C810724   3.068   3.095  12.997  0.2618  0.3497 -0.1744
  725TMC3    O110725   3.483   2.782  13.184 -0.3025  0.3308 -0.2960
  725TMC3    O210726   2.984   3.011  13.020  0.1586  0.4179 -0.0161
  726MPD2     C10727   1.121   4.368  10.587 -0.4579  0.5922 -0.3037
  726MPD2    C110728   1.053   4.478  10.535  1.1203  0.1728  0.5725
  726MPD2    C210729   0.913   4.473  10.539  0.1887 -0.4006  0.5924
  726MPD2    C310730   0.846   4.362  10.582 -0.5595  0.5563  0.2939
  726MPD2    C410731   0.908   4.254  10.632  0.0893  0.0157 -0.4071
  726MPD2    C510732   1.046   4.260  10.634  0.6491  0.5331  0.6679
  726MPD2     H10733   0.862   4.565  10.512  2.5794  0.6702 -0.3099
  726MPD2    H110734   0.858   4.164  10.666 -0.2363 -0.0630 -1.1010
  726MPD2    H210735   1.229   4.364  10.577 -0.3159  1.5866  0.8554
  726MPD2    H310736   1.103   4.177  10.674  1.2476  0.3502 -0.5542
  726MPD2     N10737   0.705   4.350  10.597  0.0273 -0.2960  0.0296
  726MPD2    H510738   0.661   4.268  10.635  1.4746  0.2699  2.9596
  726MPD2    N110739   1.118   4.591  10.478 -0.3221 -0.1305  0.1216
  726MPD2    H710740   1.052   4.663  10.449 -1.4243 -1.2822 -0.2500
  727TMC3    C110741   1.289   0.003  10.386 -0.1231 -0.3223 -0.7161
  727TMC3    C210742   1.401   0.006  10.312 -0.5632 -0.3368  0.1734
  727TMC3    C310743   1.436   0.127  10.267 -0.5168 -0.4757  0.2303
  727TMC3    C410744   1.211   0.113  10.408 -0.0904  0.2492 -0.0506
  727TMC3    C510745   1.246   0.237  10.365 -0.5785 -0.4127  0.2855
  727TMC3    C610746   1.355   0.241  10.282  0.0340  0.1464 -0.1805
  727TMC3     C10747   1.249   4.598  10.441  0.2973  0.6474 -0.5038
  727TMC3     O10748   1.333   4.505  10.446 -0.3998  0.2205  0.1798
  727TMC3     H10749   1.469   4.645  10.299 -0.3481  0.0176 -1.0471
  727TMC3    H110750   1.123   0.104  10.471 -1.1268 -0.0926 -1.5437
  727TMC3    H210751   1.401   0.338  10.266  0.4823 -0.1899 -0.9539
  727TMC3    C710752   1.159   0.340  10.372 -0.0314  0.0781 -0.3261
  727TMC3    C810753   1.570   0.148  10.212 -0.3393  0.0468  0.2837
  727TMC3    O110754   1.050   0.312  10.417 -0.2122  0.6299  0.0583
  727TMC3    O210755   1.665   0.073  10.237 -0.0562 -0.0355 -0.4564
  728TMC3    C110756   0.951   3.745  15.260 -0.2123  0.3574  0.3944
  728TMC3    C210757   0.988   3.875  15.289  0.0327 -0.3740  0.1656
  728TMC3    C310758   0.960   3.966  15.197 -0.3785 -0.1443  0.0177
  728TMC3    C410759   0.870   3.712  15.158  0.0480 -0.1976 -0.5972
  728TMC3    C510760   0.838   3.811  15.074  0.2340 -0.3770 -0.0013
  728TMC3    C610761   0.883   3.942  15.090  0.1571 -0.9259  0.2435
  728TMC3     C10762   0.989   3.655  15.373 -0.5235 -0.3467 -0.3613
  728TMC3     O10763   1.087   3.675  15.440  0.4494 -0.0191 -0.8397
  728TMC3     H10764   1.050   3.891  15.377 -1.7943  2.5030  0.9334
  728TMC3    H110765   0.840   3.610  15.140 -1.6843  0.6750 -2.6282
  728TMC3    H210766   0.853   4.023  15.026  0.5786 -0.1106  1.0822
  728TMC3    C710767   0.749   3.769  14.962 -0.3209 -0.4714  1.2288
  728TMC3    C810768   0.982   4.107  15.246  0.6195  0.6970  0.3280
  728TMC3    O110769   0.684   3.666  14.976 -0.7793 -0.5925  0.0938
  728TMC3    O210770   0.887   4.184  15.231 -0.1989 -0.4884  0.5535
  729MPD2     C10771   2.620   4.537  17.039  0.2654  0.0147  0.6969
  729MPD2    C110772   2.701   4.435  17.030 -0.3594  0.5154 -0.3674
  729MPD2    C210773   2.776   4.405  17.147 -0.2119  0.3828  0.2054
  729MPD2    C310774   2.760   4.475  17.268 -0.3442 -0.7819  0.2665
  729MPD2    C410775   2.666   4.577  17.273 -0.1526  0.4887  0.2086
  729MPD2    C510776   2.600   4.602  17.157 -0.4191 -0.0814 -0.1569
  729MPD2     H10777   2.841   4.319  17.159  0.6969  0.8425 -1.4568
  729MPD2    H110778   2.647   4.642  17.358  1.3358  1.5152 -0.2567
  729MPD2    H210779   2.566   4.568  16.950  3.3881 -1.8515 -1.8303
  729MPD2    H310780   2.538   4.690  17.149  0.8401  0.7744 -0.5108
  729MPD2     N10781   2.836   4.457  17.392 -0.3883  0.0777 -0.1319
  729MPD2    H510782   2.804   4.509  17.473  0.9873 -0.7686  0.9539
  729MPD2    N110783   2.725   4.375  16.905 -0.3765  0.1464 -0.4952
  729MPD2    H710784   2.665   4.411  16.831  2.2396  4.5563 -0.4616
  730TMC3    C110785   3.037   4.411  17.501  0.7425 -0.2297 -0.2496
  730TMC3    C210786   3.164   4.384  17.448 -0.2973  0.3448  0.4109
  730TMC3    C310787   3.262   4.470  17.477  0.2271  0.0647  0.1288
  730TMC3    C410788   3.015   4.525  17.571  0.6189  0.2804  0.4685
  730TMC3    C510789   3.114   4.612  17.594 -0.0035  0.5409  0.0633
  730TMC3    C610790   3.235   4.581  17.552 -0.3100 -0.2866  0.4569
  730TMC3     C10791   2.934   4.367  17.406 -0.3561 -0.4034  0.0755
  730TMC3     O10792   2.955   4.268  17.337  0.4655  0.2805 -1.1917
  730TMC3     H10793   3.187   4.291  17.399 -1.3759 -0.0549  0.6606
  730TMC3    H110794   2.913   4.540  17.603  0.3936 -1.4997  0.5949
  730TMC3    H210795   3.308   4.658  17.574 -0.5171 -0.0192  0.2121
  730TMC3    C710796   3.066   0.017  17.540 -0.4673 -0.9600 -0.7974
  730TMC3    C810797   3.339   4.502  17.359  0.0626 -0.6798 -0.0215
  730TMC3    O110798   3.124   0.061  17.441 -0.2088  0.2380  0.4340
  730TMC3    O210799   3.306   4.441  17.255  0.2064 -0.4611  0.0765
  731MPD2     C10800   2.565   1.655  11.992  0.6048 -0.3235 -0.0798
  731MPD2    C110801   2.683   1.714  12.035  0.8960 -0.2312 -0.1080
  731MPD2    C210802   2.704   1.719  12.175  0.0957 -0.7423 -0.0469
  731MPD2    C310803   2.616   1.664  12.267  0.1278 -0.5232 -0.3891
  731MPD2    C410804   2.504   1.594  12.216  0.3200  0.2630 -0.9009
  731MPD2    C510805   2.481   1.598  12.083 -0.5097  0.3016 -0.2809
  731MPD2     H10806   2.792   1.769  12.214 -1.2893  1.6237  0.0125
  731MPD2    H110807   2.425   1.559  12.281  2.6997 -3.3182  0.0445
  731MPD2    H210808   2.530   1.634  11.892 -1.7284  0.1870  0.6438
  731MPD2    H310809   2.387   1.555  12.050  0.8007 -1.4143 -1.8281
  731MPD2     N10810   2.639   1.669  12.403 -0.7595 -0.2889  0.0878
  731MPD2    H510811   2.717   1.730  12.428  0.0588 -0.7810 -1.2815
  731MPD2    N110812   2.774   1.774  11.941 -0.0789 -0.3816 -0.1668
  731MPD2    H710813   2.742   1.757  11.846 -1.3905  0.1232  0.1847
  732TMC3    C110814   2.919   1.939  11.853  0.3542 -0.0276 -0.3671
  732TMC3    C210815   2.818   1.987  11.774  0.3279  0.2065 -0.7013
  732TMC3    C310816   2.836   2.107  11.712 -0.8553 -0.2347 -0.8812
  732TMC3    C410817   3.036   2.004  11.861 -0.5896  0.0503  0.2505
  732TMC3    C510818   3.047   2.122  11.796 -0.0758  0.7614  0.2566
  732TMC3    C610819   2.950   2.176  11.720 -0.6608 -0.0462  0.2129
  732TMC3     C10820   2.871   1.866  11.972 -0.2436 -0.0529 -0.1581
  732TMC3     O10821   2.913   1.900  12.084  0.2282 -0.0504  0.8843
  732TMC3     H10822   2.716   1.949  11.767 -0.9529  3.6749 -0.8051
  732TMC3    H110823   3.112   1.962  11.926 -1.4187 -0.9836  0.5592
  732TMC3    H210824   2.951   2.267  11.661 -1.6918  0.6199  1.2268
  732TMC3    C710825   3.161   2.196  11.824 -0.1371 -0.6048  0.2828
  732TMC3    C810826   2.735   2.150  11.615 -0.0835 -0.0371 -0.2202
  732TMC3    O110827   3.250   2.148  11.897 -0.0068 -0.2518 -0.2416
  732TMC3    O210828   2.774   2.203  11.511 -0.3461 -0.3776 -0.0680
  733TMC3    C110829   3.075   1.243  12.752 -1.0349  0.0872 -0.3007
  733TMC3    C210830   3.151   1.145  12.681  0.3180 -0.1278 -0.0460
  733TMC3    C310831   3.275   1.183  12.637 -0.3280  0.1904 -0.1916
  733TMC3    C410832   3.115   1.373  12.763  0.1596 -0.0798  0.1661
  733TMC3    C510833   3.237   1.404  12.713  0.1685  0.9616  0.7336
  733TMC3    C610834   3.314   1.314  12.644  0.0541 -0.0570  0.3653
  733TMC3     C10835   2.948   1.201  12.806  0.4450  0.7889  0.2165
  733TMC3     O10836   2.871   1.289  12.841 -0.9214 -0.4617 -0.5805
  733TMC3     H10837   3.115   1.044  12.667 -0.2486  0.3547 -2.0945
  733TMC3    H110838   3.063   1.436  12.834 -2.5806 -0.4626 -1.4915
  733TMC3    H210839   3.417   1.344  12.625  0.8075 -2.9047 -0.0530
  733TMC3    C710840   3.284   1.543  12.708 -0.3148 -0.1185  0.3694
  733TMC3    C810841   3.323   1.101  12.526 -0.8629  0.5532 -1.4100
  733TMC3    O110842   3.295   1.606  12.813  0.7156  0.5889  0.3380
  733TMC3    O210843   3.334   0.984  12.551 -0.0583  0.0397 -0.4443
  734MPD2     C10844   0.559   3.334  12.658 -0.1423  0.1983 -0.1777
  734MPD2    C110845   0.516   3.215  12.609 -0.8334 -0.1866 -1.0854
  734MPD2    C210846   0.454   3.225  12.486 -0.2579  0.6926 -0.3849
  734MPD2    C310847   0.438   3.342  12.418  0.0869 -1.0014 -0.7434
  734MPD2    C410848   0.471   3.466  12.471  0.0907 -0.8774  0.2373
  734MPD2    C510849   0.533   3.454  12.593 -0.2443 -0.0878 -0.2526
  734MPD2     H10850   0.420   3.135  12.434 -1.1622 -0.4257  2.1558
  734MPD2    H110851   0.470   3.564  12.425 -0.1133 -0.4797  1.0991
  734MPD2    H210852   0.612   3.332  12.752 -2.1526  1.4267  0.9924
  734MPD2    H310853   0.567   3.550  12.632 -0.2732 -0.0195 -0.3958
  734MPD2     N10854   0.389   3.322  12.291 -0.1827  0.5204 -0.4033
  734MPD2    H510855   0.383   3.226  12.261  0.4642  0.1156  0.7686
  734MPD2    N110856   0.524   3.092  12.681 -0.6228 -0.2418  0.4433
  734MPD2    H710857   0.564   3.093  12.774 -2.0444  1.7213  1.0333
  735TMC3    C110858   0.496   2.859  12.729 -0.6507  0.0775  0.2254
  735TMC3    C210859   0.426   2.745  12.682  0.3707 -0.3849  0.4262
  735TMC3    C310860   0.499   2.629  12.652  0.1176 -0.2176  0.1765
  735TMC3    C410861   0.630   2.848  12.760  0.6854  0.4783  0.6745
  735TMC3    C510862   0.696   2.734  12.724 -0.3968 -0.1158 -0.0478
  735TMC3    C610863   0.631   2.626  12.674  0.4683  0.5588  0.0148
  735TMC3     C10864   0.460   2.969  12.643  0.1889 -0.0136  0.0334
  735TMC3     O10865   0.375   2.948  12.556  0.5087 -0.3477 -0.0026
  735TMC3     H10866   0.321   2.750  12.654  0.6459 -0.3480 -0.5796
  735TMC3    H110867   0.683   2.938  12.791  1.7531  0.5409 -1.3119
  735TMC3    H210868   0.692   2.552  12.623  0.6998  1.3988 -0.9237
  735TMC3    C710869   0.833   2.767  12.703  0.2907 -0.2745  0.3472
  735TMC3    C810870   0.461   2.587  12.528  0.5925  0.1821 -0.0452
  735TMC3    O110871   0.842   2.879  12.644  0.4679 -0.7983  0.2352
  735TMC3    O210872   0.449   2.468  12.506  0.5382  1.0113  0.0976
  736MPD2     C10873   1.130   2.614  12.832  0.0016 -0.5450 -0.3173
  736MPD2    C110874   1.061   2.693  12.746 -0.1116 -0.9470  0.0782
  736MPD2    C210875   1.118   2.754  12.633 -0.1405  0.7636 -0.2267
  736MPD2    C310876   1.250   2.725  12.599 -0.8521  0.4514 -0.4965
  736MPD2    C410877   1.317   2.646  12.694  0.7631  0.4246  0.1624
  736MPD2    C510878   1.260   2.591  12.805 -0.7166 -0.4377  0.2313
  736MPD2     H10879   1.060   2.796  12.552  0.7321 -0.7912 -1.6389
  736MPD2    H110880   1.420   2.620  12.674  0.0202 -2.5337  0.1003
  736MPD2    H210881   1.077   2.580  12.920 -1.3957  1.2043 -0.4764
  736MPD2    H310882   1.317   2.523  12.867 -0.1289 -0.2606 -0.1166
  736MPD2     N10883   1.309   2.772  12.482 -0.0426 -0.4886  0.3036
  736MPD2    H510884   1.405   2.739  12.472 -0.1436  0.4334 -3.7729
  736MPD2    N110885   0.925   2.698  12.769  0.6256  0.5928 -0.1180
  736MPD2    H710886   0.898   2.626  12.835 -1.2299 -0.6941 -2.2782
  737TMC3    C110887   1.334   2.848  12.264  0.1787 -0.4427  0.4651
  737TMC3    C210888   1.311   2.950  12.176  0.2106 -1.0371  0.4377
  737TMC3    C310889   1.319   2.916  12.046  0.0746 -0.4243 -0.3033
  737TMC3    C410890   1.376   2.727  12.225 -0.6786  0.1634  0.0044
  737TMC3    C510891   1.395   2.703  12.090 -0.3821 -0.5434 -0.2328
  737TMC3    C610892   1.374   2.798  11.995 -0.9384  0.1512  0.1698
  737TMC3     C10893   1.262   2.864  12.389 -0.0180 -0.3159  0.7219
  737TMC3     O10894   1.172   2.951  12.409 -0.2664 -0.9918 -0.3017
  737TMC3     H10895   1.269   3.043  12.213  0.5163 -0.7169 -0.0161
  737TMC3    H110896   1.370   2.633  12.280 -0.1702 -0.0315 -0.2711
  737TMC3    H210897   1.370   2.767  11.891  0.9454  0.7455 -0.0792
  737TMC3    C710898   1.457   2.570  12.053 -0.3602 -0.0157 -0.2932
  737TMC3    C810899   1.268   3.013  11.944  0.2190  0.2977 -0.2126
  737TMC3    O110900   1.489   2.493  12.146  0.1561 -0.3783  0.0660
  737TMC3    O210901   1.207   3.103  12.001 -0.0512 -0.1579 -0.3435
  738MPD2     C10902   2.136   1.510  15.530 -0.4502  0.4155  0.5840
  738MPD2    C110903   2.032   1.545  15.445  0.1085 -0.1277  0.1263
  738MPD2    C210904   2.062   1.640  15.340 -0.1451 -0.4856 -0.5757
  738MPD2    C310905   2.194   1.682  15.328 -0.0208 -0.0783  0.4209
  738MPD2    C410906   2.291   1.647  15.418  0.0049  0.6851  0.1467
  738MPD2    C510907   2.264   1.554  15.514  0.6935  0.4915  0.1256
  738MPD2     H10908   1.981   1.673  15.276  0.0532  0.4254 -0.3601
  738MPD2    H110909   2.393   1.680  15.403 -0.0216  0.6411 -0.1251
  738MPD2    H210910   2.117   1.434  15.604  1.7870  0.1269  0.8476
  738MPD2    H310911   2.337   1.508  15.579  0.6451 -1.5696 -1.2673
  738MPD2     N10912   2.245   1.771  15.227  1.0146 -0.1294 -0.3033
  738MPD2    H510913   2.346   1.786  15.230  0.5687  2.8819 -0.0086
  738MPD2    N110914   1.900   1.501  15.455  0.7044 -0.0091 -0.1351
  738MPD2    H710915   1.835   1.532  15.385  3.2483  1.0083 -2.0508
  739TMC3    C110916   2.256   1.862  15.008 -0.3388 -0.2556  0.3274
  739TMC3    C210917   2.208   1.956  14.923  0.6302 -0.5732  0.0756
  739TMC3    C310918   2.307   1.998  14.837  0.7424  0.0478 -0.3506
  739TMC3    C410919   2.377   1.806  15.003 -0.3458  0.6662  0.0510
  739TMC3    C510920   2.462   1.840  14.906  0.6553  0.3285 -0.0163
  739TMC3    C610921   2.431   1.941  14.823  0.5433  0.2379  0.4156
  739TMC3     C10922   2.173   1.817  15.125  0.1769  0.4084 -0.2866
  739TMC3     O10923   2.051   1.832  15.110  0.0248  0.2223  0.3045
  739TMC3     H10924   2.111   2.005  14.922  1.7002  1.6141  1.9171
  739TMC3    H110925   2.411   1.727  15.069  0.0829  2.8643  2.4782
  739TMC3    H210926   2.503   1.976  14.749 -0.7006  4.4566  1.2354
  739TMC3    C710927   2.592   1.781  14.912  0.4480  0.2939 -0.3575
  739TMC3    C810928   2.266   2.081  14.725 -0.4455  0.1366  0.7874
  739TMC3    O110929   2.607   1.687  14.985 -1.0287  0.0749 -0.0847
  739TMC3    O210930   2.149   2.074  14.691  0.7690 -0.3099 -0.5793
  740TMC3    C110931   2.380   2.788  13.981  0.2193  1.2444 -0.4649
  740TMC3    C210932   2.340   2.657  13.987  0.5388 -0.5743  0.5108
  740TMC3    C310933   2.303   2.593  13.869  0.3627  0.4157  0.0091
  740TMC3    C410934   2.406   2.851  13.859  0.1338 -0.5446 -0.0134
  740TMC3    C510935   2.369   2.779  13.744 -0.5591  1.0259 -0.1206
  740TMC3    C610936   2.307   2.654  13.751 -0.3538  0.1309 -0.3283
  740TMC3     C10937   2.406   2.852  14.108  0.2424 -0.1035  0.0739
  740TMC3     O10938   2.478   2.947  14.103 -0.3645  0.5530 -0.1590
  740TMC3     H10939   2.344   2.599  14.079 -1.4649  2.5794  2.5697
  740TMC3    H110940   2.437   2.954  13.852  0.2539 -0.6981 -1.6422
  740TMC3    H210941   2.306   2.596  13.659  0.5017  0.1023 -0.3227
  740TMC3    C710942   2.314   2.854  13.633  0.0269 -0.1509 -0.6695
  740TMC3    C810943   2.197   2.501  13.892 -0.1714 -0.3057  0.0257
  740TMC3    O110944   2.208   2.820  13.591  0.2574 -0.7491  0.3102
  740TMC3    O210945   2.179   2.460  14.005 -0.7039 -0.2575 -0.3919
  741TMC3    C110946   1.849   2.432  14.368  0.4212 -0.5133 -0.0417
  741TMC3    C210947   1.770   2.323  14.349 -0.2520  0.4510  0.1799
  741TMC3    C310948   1.737   2.251  14.459 -0.6004 -0.0581 -0.3686
  741TMC3    C410949   1.914   2.451  14.485 -0.1278 -0.3804 -0.0157
  741TMC3    C510950   1.893   2.363  14.587 -0.4556  0.1732  0.2869
  741TMC3    C610951   1.803   2.263  14.576 -0.1364 -0.0807  0.0592
  741TMC3     C10952   1.877   2.517  14.250  0.6577  0.0601  0.1405
  741TMC3     O10953   1.826   2.477  14.145 -0.0991  0.1134  0.0766
  741TMC3     H10954   1.720   2.312  14.253  1.0495  2.0437 -0.6828
  741TMC3    H110955   1.986   2.528  14.507 -0.3024 -0.0851 -0.4887
  741TMC3    H210956   1.779   2.209  14.667  2.3401 -1.4640 -0.1037
  741TMC3    C710957   1.950   2.387  14.709 -0.0875  0.0388  0.3091
  741TMC3    C810958   1.649   2.143  14.433 -0.4324  0.6079  0.5003
  741TMC3    O110959   1.882   2.357  14.805  0.1910  0.0939  0.0534
  741TMC3    O210960   1.587   2.148  14.329 -0.2711  0.2327 -0.2807
  742TMC3    C110961   1.912   0.935  15.133 -0.0823  0.3552 -0.5255
  742TMC3    C210962   1.808   0.856  15.090 -0.0848 -0.2344 -0.0971
  742TMC3    C310963   1.834   0.739  15.018 -0.2348 -0.1155 -0.5880
  742TMC3    C410964   2.041   0.888  15.128  0.0239 -0.2485 -0.5257
  742TMC3    C510965   2.059   0.767  15.065 -0.4020  0.0493  0.3163
  742TMC3    C610966   1.962   0.695  15.008 -0.6231  0.3014 -0.1286
  742TMC3     C10967   1.877   0.997  15.263  0.3771 -0.6576 -0.3412
  742TMC3     O10968   1.969   1.066  15.313  0.6502  0.0062  0.0479
  742TMC3     H10969   1.716   0.908  15.062 -0.7378 -1.1520  0.3435
  742TMC3    H110970   2.111   0.948  15.186 -0.5460 -0.4472  0.3733
  742TMC3    H210971   1.995   0.604  14.959  2.3096  1.5981 -0.5576
  742TMC3    C710972   2.174   0.694  15.112 -0.1631 -0.1806 -0.4502
  742TMC3    C810973   1.737   0.675  14.932  0.2967  1.1927  0.6795
  742TMC3    O110974   2.158   0.573  15.125 -0.3010 -0.4809 -0.3963
  742TMC3    O210975   1.773   0.585  14.860  0.0614  0.2608  0.4836
  743MPD2     C10976   0.870   1.774   2.124  0.2015 -0.4817 -0.3294
  743MPD2    C110977   0.901   1.904   2.086  0.7018 -0.0861  0.1242
  743MPD2    C210978   1.017   1.950   2.134  0.6400 -0.0979  0.6658
  743MPD2    C310979   1.105   1.877   2.211 -0.1107  0.1554 -0.2501
  743MPD2    C410980   1.070   1.754   2.247  0.8140 -0.0513  0.7865
  743MPD2    C510981   0.948   1.703   2.208 -0.5557  0.3039  0.8642
  743MPD2     H10982   1.044   2.048   2.098  1.4687 -0.1148  1.2401
  743MPD2    H110983   1.137   1.694   2.308 -1.3128 -2.3871  0.8213
  743MPD2    H210984   0.774   1.731   2.099 -1.0985  3.0031 -1.3830
  743MPD2    H310985   0.931   1.600   2.235 -0.0603 -0.3456 -1.4051
  743MPD2     N10986   1.234   1.937   2.249 -0.0839 -0.1299  0.1583
  743MPD2    H510987   1.256   2.029   2.213  0.8088  0.5429  2.4562
  743MPD2    N110988   0.830   1.982   1.997  0.4234 -0.1355  0.1900
  743MPD2    H710989   0.842   2.083   1.990  1.0203 -0.0952  1.8174
  744TMC3    C110990   0.666   2.036   1.838 -0.4463 -0.3260  0.1641
  744TMC3    C210991   0.665   2.168   1.884 -0.4754  0.2944  0.0001
  744TMC3    C310992   0.629   2.271   1.800  0.2348  0.4305 -0.0584
  744TMC3    C410993   0.632   2.011   1.706 -0.3858  0.1509 -0.0028
  744TMC3    C510994   0.578   2.112   1.630  0.3693  0.4538 -0.3647
  744TMC3    C610995   0.572   2.241   1.675 -0.9440 -0.5808  0.4942
  744TMC3     C10996   0.732   1.934   1.918 -0.3696  0.1355 -0.4168
  744TMC3     O10997   0.706   1.816   1.891 -0.3522 -0.3477 -0.5407
  744TMC3     H10998   0.675   2.179   1.992 -1.5130 -1.0476  0.2327
  744TMC3    H110999   0.634   1.910   1.668 -0.1443 -0.3652  1.3878
  744TMC3    H211000   0.518   2.316   1.617 -1.0625 -1.4456 -0.5283
  744TMC3    C711001   0.562   2.086   1.483  0.1828 -0.5395 -0.5082
  744TMC3    C811002   0.612   2.406   1.854 -0.2240 -0.2396  0.6048
  744TMC3    O111003   0.496   2.169   1.423 -0.5125 -0.3670  0.1488
  744TMC3    O211004   0.554   2.491   1.790  0.1725  0.4276  0.1025
  745TMC3    C111005   1.796   0.511  13.453 -0.5820 -0.3715  0.1087
  745TMC3    C211006   1.672   0.517  13.521 -0.1168  0.2098  0.4374
  745TMC3    C311007   1.567   0.568  13.458  0.5052 -0.8317 -0.3898
  745TMC3    C411008   1.806   0.550  13.321 -0.0402  0.1326  0.5650
  745TMC3    C511009   1.689   0.585  13.252 -0.1561 -0.0003  0.5392
  745TMC3    C611010   1.567   0.596  13.323 -0.2656  0.4697  0.3361
  745TMC3     C11011   1.908   0.504  13.538 -0.4387 -0.5124 -0.4278
  745TMC3     O11012   1.907   0.567  13.640 -0.0494  0.8836  0.3999
  745TMC3     H11013   1.665   0.492  13.626  0.4012  4.0978  1.3855
  745TMC3    H111014   1.905   0.547  13.277 -0.1715 -0.8241  0.3261
  745TMC3    H211015   1.475   0.641  13.288 -0.8174 -3.1857 -2.9682
  745TMC3    C711016   1.718   0.672  13.135 -0.1290 -0.4280 -0.1131
  745TMC3    C811017   1.476   0.654  13.540 -0.6844  0.3088  0.5131
  745TMC3    O111018   1.836   0.684  13.108  0.0276  0.7121  0.5425
  745TMC3    O211019   1.361   0.656  13.509  0.0813 -0.0711  0.4771
  746TMC3    C111020   4.223   2.390  10.858  0.2297 -0.1348 -0.1214
  746TMC3    C211021   4.323   2.373  10.767  0.4424 -0.1563  0.0174
  746TMC3    C311022   4.337   2.245  10.704  0.2105 -0.6208  0.7105
  746TMC3    C411023   4.145   2.290  10.892  0.1775 -0.3731 -0.0338
  746TMC3    C511024   4.155   2.166  10.827  0.5482 -0.0825 -0.3867
  746TMC3    C611025   4.262   2.139  10.742 -0.1655  0.2175 -0.2385
  746TMC3     C11026   4.204   2.517  10.919  0.1143 -1.1312 -0.0744
  746TMC3     O11027   4.145   2.520  11.029 -0.3377  0.7041 -0.8788
  746TMC3     H11028   4.388   2.457  10.749 -1.1199  1.1155  0.3270
  746TMC3    H111029   4.061   2.310  10.958  1.3991  3.2265  0.4123
  746TMC3    H211030   4.265   2.043  10.691 -1.5532  0.0222  0.0445
  746TMC3    C711031   4.037   2.137  10.740  0.2066  0.5326 -0.3798
  746TMC3    C811032   4.398   2.240  10.565 -0.6040 -0.5857  0.2566
  746TMC3    O111033   4.030   2.024  10.696 -0.1612  0.2692  0.2133
  746TMC3    O211034   4.386   2.137  10.502  0.4184 -0.7270 -0.1639
  747TMC3    C111035   1.660   2.545  11.076 -0.3128 -0.0282  0.3533
  747TMC3    C211036   1.611   2.540  11.199  0.1462 -0.1567  0.0205
  747TMC3    C311037   1.675   2.461  11.295  0.2627 -0.3660 -0.7209
  747TMC3    C411038   1.779   2.494  11.049  0.3510  0.0168  0.2305
  747TMC3    C511039   1.848   2.418  11.144  0.0026 -0.6201 -0.0195
  747TMC3    C611040   1.789   2.391  11.265 -0.6749 -0.2195 -0.3020
  747TMC3     C11041   1.588   2.612  10.975 -0.9976  0.2694  0.1382
  747TMC3     O11042   1.485   2.671  11.014  0.4147 -0.4161  0.0725
  747TMC3     H11043   1.514   2.583  11.220  0.3847  1.2670 -1.8265
  747TMC3    H111044   1.823   2.524  10.955  0.1867 -0.0323  0.1380
  747TMC3    H211045   1.851   2.346  11.341 -0.2164  0.8748 -0.0307
  747TMC3    C711046   1.981   2.474  11.159  0.4237 -0.3870 -0.3114
  747TMC3    C811047   1.617   2.476  11.421 -0.2594 -0.0866  0.4752
  747TMC3    O111048   2.007   2.503  11.275  0.2162 -0.1795 -0.1799
  747TMC3    O211049   1.529   2.559  11.437  0.3072 -0.2601 -0.0348
  748MPD2     C11050   3.856   3.933   1.886  0.7118 -0.1709  0.4101
  748MPD2    C111051   3.884   3.860   1.775 -0.1002 -0.4182 -0.2840
  748MPD2    C211052   4.015   3.817   1.742  0.6720 -0.2557  0.2660
  748MPD2    C311053   4.119   3.856   1.819  0.1281 -0.3286 -1.2175
  748MPD2    C411054   4.084   3.935   1.935 -0.2775 -0.0098 -0.3638
  748MPD2    C511055   3.955   3.970   1.970 -0.0602 -0.3929  0.1614
  748MPD2     H11056   4.024   3.774   1.643  3.7901 -0.1272  0.4866
  748MPD2    H111057   4.163   3.962   2.004  1.0567 -0.9020 -1.5452
  748MPD2    H211058   3.756   3.968   1.910  0.3540  0.0229 -1.3459
  748MPD2    H311059   3.929   4.028   2.057  0.5307  2.7834 -1.7746
  748MPD2     N11060   4.251   3.826   1.788 -0.4159  0.2785  0.4034
  748MPD2    H511061   4.276   3.778   1.702 -1.1641 -1.0264  0.9224
  748MPD2    N111062   3.772   3.846   1.691 -0.1857 -0.9140  0.0593
  748MPD2    H711063   3.688   3.877   1.738  1.1907 -1.6103  3.0104
  749TMC3    C111064   4.480   3.776   1.806 -0.0053  0.2369 -0.1903
  749TMC3    C211065   4.578   3.728   1.892  0.5715  0.6385  0.1988
  749TMC3    C311066   4.702   3.690   1.835  0.4598 -0.1276 -0.6506
  749TMC3    C411067   4.504   3.786   1.673 -0.1241 -0.4721  0.3011
  749TMC3    C511068   4.630   3.756   1.623  0.9452  0.3820 -0.3284
  749TMC3    C611069   0.011   3.704   1.703  0.1226  0.1715  0.1989
  749TMC3     C11070   4.361   3.837   1.868  0.1103 -0.1597 -0.0638
  749TMC3     O11071   4.372   3.874   1.981 -0.0617 -0.3131 -0.3082
  749TMC3     H11072   4.566   3.720   2.000  0.2479  0.5649  0.1570
  749TMC3    H111073   4.421   3.812   1.609  0.9253 -0.6002 -1.1188
  749TMC3    H211074   0.113   3.714   1.667  0.7082  2.2158  2.4336
  749TMC3    C711075   4.660   3.768   1.487 -0.3106 -0.1460 -0.0326
  749TMC3    C811076   0.071   3.608   1.914  0.4472  0.3886 -0.1529
  749TMC3    O111077   0.053   3.756   1.454 -0.2019  0.7594 -0.4086
  749TMC3    O211078   0.071   3.618   2.038 -0.2202 -0.3945 -0.3683
  750MPD2     C11079   4.594   4.423  11.320 -0.3169 -0.2848 -1.5888
  750MPD2    C111080   4.506   4.347  11.391 -0.3414 -0.3247 -0.6452
  750MPD2    C211081   4.459   4.231  11.324 -0.4920  1.2855  0.8583
  750MPD2    C311082   4.507   4.193  11.195  0.2562  0.0706  0.0813
  750MPD2    C411083   4.597   4.272  11.132 -0.8171 -1.1243 -0.1140
  750MPD2    C511084   4.635   4.391  11.194  0.2886  0.4362 -0.5310
  750MPD2     H11085   4.382   4.173  11.373  0.3219 -0.2588  0.2931
  750MPD2    H111086   4.637   4.241  11.036 -1.6804 -1.9919 -0.1889
  750MPD2    H211087   4.629   4.519  11.354 -0.2733 -1.4971  1.7996
  750MPD2    H311088   4.705   4.457  11.145  1.3186  1.1090  1.8397
  750MPD2     N11089   4.479   4.064  11.135 -0.5212 -0.0015  0.0279
  750MPD2    H511090   4.539   4.034  11.059  0.1223  0.3282  0.4043
  750MPD2    N111091   4.474   4.394  11.522  0.2145 -0.0596  0.7874
  750MPD2    H711092   4.526   4.472  11.564 -0.2201  1.9673 -2.4744
  751TMC3    C111093   4.330   3.886  11.071  0.0403  1.3740 -0.2289
  751TMC3    C211094   4.207   3.831  11.081 -0.0968  0.8221  0.1594
  751TMC3    C311095   4.173   3.731  10.996 -0.3225  0.0861 -0.5822
  751TMC3    C411096   4.430   3.844  10.985  0.4574  0.6499  0.4500
  751TMC3    C511097   4.391   3.740  10.901  0.4020  0.3870 -0.1743
  751TMC3    C611098   4.267   3.682  10.912  0.2909 -0.4127 -0.1155
  751TMC3     C11099   4.357   4.001  11.162  0.0023 -1.0007  0.4631
  751TMC3     O11100   4.266   4.034  11.241  0.1614  0.8525 -0.0474
  751TMC3     H11101   4.127   3.874  11.139 -0.0341  1.5035 -0.2493
  751TMC3    H111102   4.529   3.886  10.983  0.6831 -0.0059 -1.7962
  751TMC3    H211103   4.236   3.602  10.846  0.0165 -1.7781  1.6641
  751TMC3    C711104   4.497   3.656  10.851 -0.1800  0.5710 -0.0448
  751TMC3    C811105   4.044   3.674  10.993  0.0346 -0.3791  0.5416
  751TMC3    O111106   4.605   3.703  10.816  0.4643 -0.4002  0.1282
  751TMC3    O211107   3.997   3.647  10.881  0.4830 -0.3890  0.4727
  752TMC3    C111108   3.636   3.777  17.123 -0.5673 -0.2993 -0.4534
  752TMC3    C211109   3.759   3.738  17.167 -0.3599  0.8389 -0.9168
  752TMC3    C311110   3.777   3.704  17.299 -0.2235 -0.2491 -0.0368
  752TMC3    C411111   3.529   3.783  17.209  0.4289  0.2153 -0.0511
  752TMC3    C511112   3.554   3.738  17.338 -0.2846  0.1157 -0.0833
  752TMC3    C611113   3.676   3.705  17.388  0.3072 -0.8487  0.6898
  752TMC3     C11114   3.633   3.828  16.986  0.3548 -1.3203  0.1572
  752TMC3     O11115   3.732   3.815  16.916 -0.3279 -0.9493 -0.0582
  752TMC3     H11116   3.844   3.737  17.100  1.1433  1.1276  0.9807
  752TMC3    H111117   3.427   3.806  17.182  1.1913  1.2703 -1.9926
  752TMC3    H211118   3.695   3.684  17.493  2.4654 -1.4785  0.1909
  752TMC3    C711119   3.448   3.735  17.433  0.5694 -0.0323 -0.0529
  752TMC3    C811120   3.914   3.713  17.345  0.0291 -0.1497  0.2599
  752TMC3    O111121   3.470   3.656  17.523 -0.1931  0.7239 -0.3891
  752TMC3    O211122   4.002   3.679  17.262  0.0211  0.4056 -0.1090
  753TMC3    C111123   0.735   0.901  13.494  1.0169  0.2546 -0.0132
  753TMC3    C211124   0.708   0.837  13.613  0.8675  0.0759  0.5058
  753TMC3    C311125   0.716   0.701  13.616  0.1359  0.1978  0.1448
  753TMC3    C411126   0.760   0.829  13.381 -0.3632 -0.3223 -0.3252
  753TMC3    C511127   0.750   0.696  13.388  0.1494  0.2503 -0.4137
  753TMC3    C611128   0.737   0.623  13.509  1.2862 -0.3405  0.3827
  753TMC3     C11129   0.710   1.045  13.476 -0.3091  0.1550  0.3860
  753TMC3     O11130   0.703   1.087  13.360  0.1251 -0.0921  0.1491
  753TMC3     H11131   0.655   0.882  13.696 -4.0205  0.6732 -2.9417
  753TMC3    H111132   0.784   0.884  13.291 -1.3605 -0.6005 -0.7625
  753TMC3    H211133   0.725   0.515  13.515  2.6952 -0.6045 -1.4466
  753TMC3    C711134   0.815   0.621  13.276 -0.3697  0.1919  0.0580
  753TMC3    C811135   0.707   0.629  13.743 -0.0998 -0.4934  0.0532
  753TMC3    O111136   0.921   0.662  13.232 -0.2452  0.0954 -0.1363
  753TMC3    O211137   0.705   0.505  13.734  0.8137  0.9494 -0.3265
  754MPD2     C11138   4.147   4.591  13.167 -0.0607 -0.7993 -0.2679
  754MPD2    C111139   4.169   4.476  13.090 -0.7659  0.8822 -0.2897
  754MPD2    C211140   4.058   4.399  13.058  0.4081  0.3337 -0.0415
  754MPD2    C311141   3.931   4.437  13.069  0.3869 -0.5103  0.3314
  754MPD2    C411142   3.904   4.566  13.129 -0.5405  0.3487 -0.5138
  754MPD2    C511143   4.018   4.627  13.184  0.1565 -0.1936  0.0837
  754MPD2     H11144   4.068   4.294  13.033  0.7709  0.5206 -0.6781
  754MPD2    H111145   3.806   4.611  13.138 -1.3548 -1.8721  1.7744
  754MPD2    H211146   4.223   4.662  13.196 -1.6477  1.1157 -0.8467
  754MPD2    H311147   3.999   4.722  13.233  1.1628 -0.4403  0.9476
  754MPD2     N11148   3.819   4.353  13.030 -0.2832  0.1474  0.4258
  754MPD2    H511149   3.727   4.388  13.052 -0.7732 -0.1149 -1.1825
  754MPD2    N111150   4.310   4.452  13.074  0.3560  1.3281 -0.0386
  754MPD2    H711151   4.370   4.514  13.128  0.9826 -0.3725  1.2085
  755MPD2     C11152   2.996   4.606  12.948  0.4539  0.0264 -0.9429
  755MPD2    C111153   2.978   4.479  12.997  0.3159  0.0895 -0.6644
  755MPD2    C211154   3.090   4.393  13.025 -0.0884  0.1655  0.6673
  755MPD2    C311155   3.218   4.434  12.986 -0.4020 -0.5526  0.0379
  755MPD2    C411156   3.233   4.559  12.934  0.0104 -0.0703 -0.1606
  755MPD2    C511157   3.126   4.644  12.925  0.6076 -0.3912  0.5010
  755MPD2     H11158   3.077   4.295  13.070  0.2505  0.3634  1.1978
  755MPD2    H111159   3.332   4.590  12.901  0.2078  1.1554  1.6049
  755MPD2    H211160   2.916   4.680  12.947  0.1385 -0.2792  1.3594
  755MPD2    H311161   3.145   0.018  12.881 -4.2196  1.4205  2.2930
  755MPD2     N11162   3.342   4.358  13.004  0.0214 -0.1433 -0.4169
  755MPD2    H511163   3.430   4.408  13.000 -0.3758  0.3904 -2.4953
  755MPD2    N111164   2.853   4.428  13.030 -0.1572  0.5607 -0.0086
  755MPD2    H711165   2.846   4.340  13.080 -0.1213 -1.4458 -3.5717
  756MPD2     C11166   4.269   0.034   9.745 -0.0624  0.2263  0.4730
  756MPD2    C111167   4.355   0.013   9.855 -0.3035  0.0869  0.3240
  756MPD2    C211168   4.447   4.637   9.855 -0.3844  0.2433  0.4810
  756MPD2    C311169   4.468   4.550   9.748 -0.2980 -0.1395  0.5176
  756MPD2    C411170   4.389   4.572   9.634 -0.4881 -0.6427  0.9555
  756MPD2    C511171   4.300   4.677   9.630 -0.1141 -0.0671 -0.2946
  756MPD2     H11172   4.513   4.628   9.940 -1.0924 -0.4708  0.9584
  756MPD2    H111173   4.392   4.516   9.541 -1.4677 -0.0463  0.5671
  756MPD2    H211174   4.198   0.115   9.732 -1.3841 -0.9628  0.2854
  756MPD2    H311175   4.247   4.690   9.537 -0.4565  0.4842 -0.0196
  756MPD2     N11176   4.558   4.446   9.767 -0.1001  0.1204 -0.4114
  756MPD2    H511177   4.611   4.438   9.853 -0.6893  4.2400  0.3434
  756MPD2    N111178   4.347   0.085   9.975  0.4335 -0.8630  0.2681
  756MPD2    H711179   4.406   0.054  10.051  0.4542  2.5355  1.6243
  757MPD2     C11180   4.282   3.515   9.716 -0.1346  0.4622  0.3393
  757MPD2    C111181   4.226   3.641   9.712 -0.1240 -0.2672 -0.0591
  757MPD2    C211182   4.306   3.755   9.718  0.3767  0.2647 -0.2562
  757MPD2    C311183   4.435   3.746   9.751 -0.1043  0.9605  0.5751
  757MPD2    C411184   4.483   3.621   9.769 -0.3939 -0.1295  0.0579
  757MPD2    C511185   4.410   3.505   9.749  0.2222  0.2630  0.2584
  757MPD2     H11186   4.263   3.854   9.714  1.4815  0.8211  1.7703
  757MPD2    H111187   4.588   3.600   9.782 -0.5341 -1.1931 -0.5048
  757MPD2    H211188   4.230   3.421   9.701  0.0652  0.4174 -0.0608
  757MPD2    H311189   4.456   3.407   9.742 -1.0845 -0.3195 -0.2456
  757MPD2     N11190   4.514   3.862   9.764  0.6074 -0.3404 -0.1353
  757MPD2    H511191   4.456   3.946   9.762  1.4319  0.3044  2.8611
  757MPD2    N111192   4.098   3.641   9.680 -0.4213 -0.2713 -0.0138
  757MPD2    H711193   4.051   3.551   9.683 -0.0819 -0.6076 -4.2946
  758MPD2     C11194   4.023   3.626  16.405  0.1964  0.3140 -0.1505
  758MPD2    C111195   4.143   3.632  16.462  0.1387  0.0589  0.0314
  758MPD2    C211196   4.152   3.692  16.582  0.1396 -0.7220 -0.2846
  758MPD2    C311197   4.042   3.742  16.644  0.6489  0.1118  0.3014
  758MPD2    C411198   3.921   3.750  16.580 -1.0674  0.2221  0.6278
  758MPD2    C511199   3.909   3.683  16.463 -0.1178 -0.5201 -0.7060
  758MPD2     H11200   4.250   3.685  16.628  0.0299  0.8365  0.1655
  758MPD2    H111201   3.844   3.811  16.625 -0.4589  0.2976  1.5631
  758MPD2    H211202   4.017   3.574  16.310 -1.1539 -1.5471  0.9555
  758MPD2    H311203   3.817   3.689  16.406 -0.8442  0.8713  0.6213
  758MPD2     N11204   4.045   3.806  16.773 -0.4131  0.2392 -0.6898
  758MPD2    H511205   3.956   3.835  16.810 -0.0118  1.9437 -1.0547
  758MPD2    N111206   4.257   3.575  16.406  0.0101 -0.2223 -0.3969
  758MPD2    H711207   4.336   3.567  16.468 -0.6660  3.5192  0.9199
  759MPD2     C11208   2.841   2.402   9.774  0.3204  0.5329 -0.0572
  759MPD2    C111209   2.875   2.281   9.823 -0.2864 -0.0358 -0.4964
  759MPD2    C211210   2.990   2.222   9.770 -0.1234 -0.5427  0.2171
  759MPD2    C311211   3.055   2.266   9.657 -0.5246 -0.7231  0.1390
  759MPD2    C411212   3.009   2.392   9.611  0.4451  0.6081 -0.1331
  759MPD2    C511213   2.916   2.465   9.671  0.3112 -0.8463 -0.4486
  759MPD2     H11214   3.033   2.149   9.838 -2.1084 -1.9406 -0.0177
  759MPD2    H111215   3.067   2.450   9.540  1.2646 -0.1599 -0.0995
  759MPD2    H211216   2.758   2.456   9.820  1.7227  2.1645  0.5884
  759MPD2    H311217   2.889   2.563   9.633 -0.3702 -0.5187  0.8621
  759MPD2     N11218   3.161   2.199   9.599 -0.5120 -0.3080  0.0801
  759MPD2    H511219   3.188   2.116   9.651  2.7053 -0.3421 -1.5853
  759MPD2    N111220   2.799   2.213   9.924  0.2781  0.1110 -0.4897
  759MPD2    H711221   2.817   2.113   9.928 -0.2698  0.0468  0.1762
  760MPD2     C11222   2.634   4.066  11.994  0.1038 -0.1350  0.5078
  760MPD2    C111223   2.762   4.097  12.026  0.1340  0.3885 -0.2403
  760MPD2    C211224   2.850   3.991  12.054  0.0338 -0.1253  0.2779
  760MPD2    C311225   2.810   3.855  12.037  0.3196 -0.4059 -0.4737
  760MPD2    C411226   2.684   3.837  11.990 -0.2507 -0.5530  0.1977
  760MPD2    C511227   2.595   3.938  11.991  0.5081  0.0622 -0.0358
  760MPD2     H11228   2.946   4.020  12.093 -1.0195  1.4453  1.7333
  760MPD2    H111229   2.628   3.747  11.969  0.2678 -0.5947 -0.9992
  760MPD2    H211230   2.560   4.145  11.988 -1.6192 -1.8429 -0.6374
  760MPD2    H311231   2.494   3.913  11.961 -0.7329  1.3602  3.0346
  760MPD2     N11232   2.891   3.737  12.051  0.2443  0.3521  0.3810
  760MPD2    H511233   2.853   3.649  12.017  1.7682 -0.2997  0.3952
  760MPD2    N111234   2.816   4.230  12.021 -1.2042 -0.1363  0.1019
  760MPD2    H711235   2.916   4.237  12.039 -1.4444  0.6548  1.1529
  761MPD2     C11236   3.654   3.433  11.216 -0.2773  0.1322 -0.0593
  761MPD2    C111237   3.728   3.398  11.101 -0.3746 -0.3085  0.4147
  761MPD2    C211238   3.834   3.480  11.061  0.2765 -0.0403 -0.5130
  761MPD2    C311239   3.873   3.591  11.141 -0.4512 -0.3057  0.6700
  761MPD2    C411240   3.797   3.618  11.257 -0.5195 -0.2347 -0.2166
  761MPD2    C511241   3.689   3.535  11.291 -0.1201 -0.6313  0.1056
  761MPD2     H11242   3.894   3.449  10.975 -0.5626 -0.7654 -0.8365
  761MPD2    H111243   3.824   3.700  11.322 -2.0267  0.1576 -0.1027
  761MPD2    H211244   3.566   3.373  11.234 -0.0315  0.1508  1.2690
  761MPD2    H311245   3.626   3.552  11.378 -0.2382  0.6788 -0.2484
  761MPD2     N11246   3.979   3.683  11.114  0.4077 -0.1910 -0.2868
  761MPD2    H511247   4.018   3.740  11.188  0.8350 -0.6531 -0.1534
  761MPD2    N111248   3.691   3.287  11.031  0.7795  0.1433  0.3466
  761MPD2    H711249   3.612   3.232  11.065  1.0326 -0.7982 -0.5666
  762MPD2     C11250   4.123   3.323  10.683 -0.0583 -0.6468  0.9645
  762MPD2    C111251   4.098   3.197  10.630 -0.6464 -0.4012 -0.2980
  762MPD2    C211252   4.175   3.143  10.527  0.0310 -0.7648 -0.1642
  762MPD2    C311253   4.299   3.200  10.500  0.3302  1.2963 -0.3363
  762MPD2    C411254   4.335   3.316  10.571  0.0321 -0.5027  0.0312
  762MPD2    C511255   4.249   3.376  10.656 -0.5603  0.5792 -0.0761
  762MPD2     H11256   4.157   3.053  10.470  0.3134  0.2672 -1.8754
  762MPD2    H111257   4.431   3.361  10.551 -1.6253  2.8084 -0.4519
  762MPD2    H211258   4.053   3.369  10.751 -0.7773  0.0708 -0.2677
  762MPD2    H311259   4.276   3.476  10.690 -0.4430  0.9810 -1.3404
  762MPD2     N11260   4.387   3.138  10.406  0.2130  0.0806  0.0399
  762MPD2    H511261   4.356   3.048  10.372 -0.7519 -0.5125  2.5675
  762MPD2    N111262   3.981   3.136  10.681 -0.2050 -0.4211  0.1129
  762MPD2    H711263   3.916   3.194  10.733 -0.1086 -1.9898  1.9912
  763MPD2     C11264   1.282   3.421  16.084 -0.1846  0.1657 -0.4371
  763MPD2    C111265   1.331   3.505  15.996 -0.4443  0.0809  0.2935
  763MPD2    C211266   1.348   3.641  16.028 -0.5066  0.0128 -0.0090
  763MPD2    C311267   1.327   3.684  16.160 -0.3218  0.2011  0.4095
  763MPD2    C411268   1.275   3.598  16.251  0.7593 -0.7118 -0.1519
  763MPD2    C511269   1.244   3.472  16.209 -0.4285  0.5425  0.2596
  763MPD2     H11270   1.374   3.707  15.946  0.7087 -1.1239 -0.5230
  763MPD2    H111271   1.253   3.631  16.351  0.8601 -0.7016 -0.1329
  763MPD2    H211272   1.272   3.316  16.060 -0.2242  0.0187  0.2420
  763MPD2    H311273   1.229   3.396  16.285  1.3585  0.1737  0.2536
  763MPD2     N11274   1.351   3.821  16.194 -0.2077  0.5600 -0.1138
  763MPD2    H511275   1.410   3.874  16.131 -1.1623 -0.8175 -2.1367
  763MPD2    N111276   1.351   3.448  15.868 -0.3265  0.3277 -0.0900
  763MPD2    H711277   1.334   3.348  15.869 -0.4938  0.3556 -0.1268
  764MPD2     C11278   0.166   0.772   0.458 -0.3098 -0.3989 -0.6504
  764MPD2    C111279   0.096   0.733   0.351 -0.3027 -0.1489 -0.1839
  764MPD2    C211280   0.076   0.600   0.328 -0.0507  0.8544  0.4494
  764MPD2    C311281   0.141   0.505   0.408 -0.3308  0.1580 -0.1533
  764MPD2    C411282   0.230   0.543   0.511  0.2141  0.6852  1.0260
  764MPD2    C511283   0.233   0.676   0.533 -0.3058  0.6652  0.3216
  764MPD2     H11284   0.015   0.574   0.243  0.4654  1.4805 -0.1110
  764MPD2    H111285   0.280   0.471   0.575 -2.2067 -1.7225  0.1876
  764MPD2    H211286   0.179   0.875   0.487 -0.6478 -0.6514  0.3936
  764MPD2    H311287   0.298   0.707   0.614 -1.8119  2.8542  0.6883
  764MPD2     N11288   0.126   0.367   0.367  0.0997 -0.4550  0.1283
  764MPD2    H511289   0.046   0.347   0.308  0.4723  0.3687 -0.6483
  764MPD2    N111290   0.039   0.816   0.253 -0.2624 -0.6609 -0.2114
  764MPD2    H711291   4.710   0.771   0.178 -0.9788 -0.7358  0.3201
  765MPD2     C11292   4.514   3.144  15.210 -0.3785  0.3596  0.9338
  765MPD2    C111293   4.504   3.138  15.342 -0.0869  0.1328 -0.3248
  765MPD2    C211294   4.622   3.099  15.406 -0.1623  0.5624 -0.1191
  765MPD2    C311295   0.014   3.066  15.343 -0.4200 -0.4692 -0.6649
  765MPD2    C411296   0.021   3.076  15.211  0.4190 -0.3171  0.4486
  765MPD2    C511297   4.634   3.114  15.143  0.4726  0.0933 -0.2101
  765MPD2     H11298   4.619   3.087  15.513  0.8782  0.3023 -0.1129
  765MPD2    H111299   0.107   3.060  15.147 -0.9976  0.4241 -1.6239
  765MPD2    H211300   4.433   3.186  15.151  0.1740 -2.8270 -2.0947
  765MPD2    H311301   4.637   3.112  15.035  1.2465  1.5664 -0.2273
  765MPD2     N11302   0.124   3.024  15.415 -0.2122 -0.4199  0.1396
  765MPD2    H511303   0.118   3.021  15.516 -0.1416  3.8467  0.2796
  765MPD2    N111304   4.379   3.174  15.406 -0.7148 -0.2086 -0.6333
  765MPD2    H711305   4.304   3.200  15.343  0.9516  0.7811 -2.1977
  766MPD2     C11306   3.666   3.245  15.309 -0.4408  0.2014 -0.0610
  766MPD2    C111307   3.805   3.243  15.278  0.3408  0.5468 -0.2517
  766MPD2    C211308   3.848   3.243  15.147  0.0110 -0.3562  0.5146
  766MPD2    C311309   3.752   3.251  15.048 -0.4066  0.0970  0.0431
  766MPD2    C411310   3.619   3.253  15.078  0.5073 -0.1656  0.7725
  766MPD2    C511311   3.578   3.248  15.205 -0.0892  0.3413  0.2666
  766MPD2     H11312   3.951   3.246  15.116  0.2814 -0.5265  1.3874
  766MPD2    H111313   3.542   3.242  15.002  1.6030  1.6284 -0.6327
  766MPD2    H211314   3.631   3.235  15.411  0.7283  1.5593  0.4816
  766MPD2    H311315   3.471   3.244  15.224  0.1552  0.1334  1.6134
  766MPD2     N11316   3.795   3.265  14.915 -0.1413  0.5508 -0.4970
  766MPD2    H511317   3.716   3.271  14.852 -0.5558 -2.0442 -0.2087
  766MPD2    N111318   3.906   3.248  15.375  0.0552  0.0967  0.2207
  766MPD2    H711319   3.999   3.253  15.334  0.0867  0.3783  0.3284
  767MPD2     C11320   3.028   3.439  14.793 -0.9937 -0.3228 -0.0262
  767MPD2    C111321   3.154   3.421  14.734  0.3066 -0.5516  0.6393
  767MPD2    C211322   3.170   3.340  14.624  0.1097 -0.1184 -0.1574
  767MPD2    C311323   3.057   3.292  14.556 -0.9315 -0.5181  0.0775
  767MPD2    C411324   2.933   3.326  14.601 -0.3052  0.5146  0.2888
  767MPD2    C511325   2.920   3.388  14.720  0.3178  0.2898  0.0183
  767MPD2     H11326   3.261   3.334  14.564  1.3593 -1.2806  1.8758
  767MPD2    H111327   2.840   3.312  14.546 -0.8967  0.5449  1.2820
  767MPD2    H211328   3.017   3.496  14.884 -3.4728 -0.5699 -0.1559
  767MPD2    H311329   2.820   3.412  14.756 -0.1578 -0.7955 -0.5760
  767MPD2     N11330   3.078   3.221  14.435  0.0187  0.6500  0.2699
  767MPD2    H511331   3.176   3.208  14.413 -1.0656 -2.1599 -3.0215
  767MPD2    N111332   3.252   3.504  14.780  0.5691 -0.0964  0.2566
  767MPD2    H711333   3.230   3.568  14.855  0.1572 -0.3585  0.3577
  768MPD2     C11334   4.014   1.493  10.509 -0.0078  0.0657 -0.2123
  768MPD2    C111335   4.078   1.618  10.482 -0.3570  0.1653  0.3359
  768MPD2    C211336   4.159   1.669  10.583  0.0375 -0.7151  0.3698
  768MPD2    C311337   4.172   1.598  10.705  0.4295 -0.2740 -0.0543
  768MPD2    C411338   4.107   1.480  10.728  0.8227  0.1171  0.3477
  768MPD2    C511339   4.032   1.422  10.627 -0.3035 -0.0489 -0.1732
  768MPD2     H11340   4.202   1.768  10.569 -0.9357 -0.3569 -0.0743
  768MPD2    H111341   4.115   1.415  10.814  0.3772  0.9787  1.0410
  768MPD2    H211342   3.940   1.454  10.440 -1.3304 -0.5524  1.5495
  768MPD2    H311343   3.986   1.324  10.637 -1.4235  0.3869 -0.9765
  768MPD2     N11344   4.264   1.638  10.804 -0.8526 -0.2440  0.4770
  768MPD2    H511345   4.253   1.584  10.889 -1.8971 -1.1781 -0.2690
  768MPD2    N111346   4.056   1.699  10.367 -0.4829  0.0636  0.6810
  768MPD2    H711347   4.093   1.793  10.364  0.0422 -0.1699 -0.3114
  769MPD2     C11348   4.435   4.716  14.689 -0.6621  0.1247  0.1113
  769MPD2    C111349   4.518   4.618  14.722  0.3533 -0.2448 -0.0999
  769MPD2    C211350   4.615   4.634  14.822 -0.6145 -0.3297 -0.0017
  769MPD2    C311351   4.631   0.039  14.877 -0.2185 -0.3310  0.1635
  769MPD2    C411352   4.531   0.133  14.851 -0.5343 -0.3143  0.4830
  769MPD2    C511353   4.437   0.110  14.749 -0.9822 -0.0497 -0.2493
  769MPD2     H11354   4.691   4.558  14.834 -0.3049  0.5013  3.2073
  769MPD2    H111355   4.522   0.224  14.909 -1.0032 -0.4542  0.6303
  769MPD2    H211356   4.371   4.701  14.602  1.0756  0.7469 -1.2691
  769MPD2    H311357   4.364   0.188  14.732 -1.0594 -0.2251 -0.7221
  769MPD2     N11358   0.004   0.051  14.974 -0.0615  0.4512 -0.3271
  769MPD2    H511359   0.041   4.688  15.012 -1.0102 -0.2759 -1.0474
  769MPD2    N111360   4.509   4.505  14.636 -0.4804 -0.5244 -0.1940
  769MPD2    H711361   4.435   4.516  14.567  0.8898  0.6428 -1.5090
  770MPD2     C11362   0.099   3.595  14.689  0.8240  0.5395 -0.6176
  770MPD2    C111363   4.722   3.663  14.754  0.4782  0.0031 -0.5993
  770MPD2    C211364   4.679   3.781  14.699  0.0560 -0.0563  0.0862
  770MPD2    C311365   4.714   3.825  14.574  0.2675  0.4142 -0.1603
  770MPD2    C411366   0.073   3.743  14.506  0.7298  0.1941  1.1265
  770MPD2    C511367   0.130   3.628  14.560  0.0552  0.1605 -0.7137
  770MPD2     H11368   4.609   3.840  14.757  1.5178  2.0523 -0.3031
  770MPD2    H111369   0.104   3.757  14.403 -1.2306 -0.9566  0.3699
  770MPD2    H211370   0.141   3.507  14.736  1.1205  0.8206 -0.3502
  770MPD2    H311371   0.191   3.565  14.497 -2.6575 -1.5893 -1.5805
  770MPD2     N11372   4.672   3.949  14.533  0.0045  0.4178  0.0792
  770MPD2    H511373   4.619   3.996  14.606  0.8039  2.1318 -0.4209
  770MPD2    N111374   4.671   3.615  14.876  0.7532  0.3369  0.6046
  770MPD2    H711375   4.707   3.529  14.917  0.8178 -0.0219 -0.1956
  771MPD2     C11376   1.373   2.189  13.722 -0.9296 -0.6237 -0.0303
  771MPD2    C111377   1.349   2.317  13.672 -0.4148 -0.0437  0.6279
  771MPD2    C211378   1.300   2.329  13.545  0.3541  0.6481  0.5373
  771MPD2    C311379   1.267   2.215  13.471 -0.4882 -0.8333 -0.3652
  771MPD2    C411380   1.294   2.090  13.521 -0.5320 -0.0326 -0.6167
  771MPD2    C511381   1.347   2.076  13.646 -0.2929  0.1813  0.0566
  771MPD2     H11382   1.287   2.427  13.500  2.6091  0.4876 -0.4687
  771MPD2    H111383   1.267   1.995  13.476 -0.8265 -0.4256  0.3882
  771MPD2    H211384   1.408   2.168  13.823 -0.2298 -1.8326 -0.5219
  771MPD2    H311385   1.360   1.981  13.698 -1.8638 -1.2246 -2.1257
  771MPD2     N11386   1.202   2.236  13.341  0.8452 -0.2658 -0.4581
  771MPD2    H511387   1.178   2.331  13.312  1.5077  0.1179  0.2296
  771MPD2    N111388   1.397   2.432  13.738  0.9660 -0.3831  0.6762
  771MPD2    H711389   1.415   2.516  13.684 -0.0421 -0.7826 -0.2779
  772MPD2     C11390   1.369   3.091  14.236  0.0933 -0.2235 -0.1206
  772MPD2    C111391   1.311   2.988  14.169 -0.4293 -0.4603  0.0008
  772MPD2    C211392   1.174   2.994  14.140 -0.0138  0.8885 -0.5375
  772MPD2    C311393   1.100   3.107  14.175 -0.1491  0.4693  0.6754
  772MPD2    C411394   1.164   3.208  14.240  0.5185 -0.7178 -0.4393
  772MPD2    C511395   1.298   3.196  14.278 -0.4343 -0.1121  0.1441
  772MPD2     H11396   1.135   2.912  14.081 -1.5000 -0.2373  2.0376
  772MPD2    H111397   1.109   3.302  14.245  0.8185 -0.6318  1.3128
  772MPD2    H211398   1.472   3.108  14.265  0.2694 -1.4484 -0.0244
  772MPD2    H311399   1.349   3.279  14.327  1.3569 -2.0274  1.5651
  772MPD2     N11400   0.963   3.127  14.151  0.0922 -0.3783 -0.4195
  772MPD2    H511401   0.917   3.216  14.166 -0.7749 -0.6227 -1.6740
  772MPD2    N111402   1.383   2.875  14.117 -0.4893  0.0319 -0.1749
  772MPD2    H711403   1.329   2.799  14.075 -1.6230 -0.3628  1.9986
  773MPD2     C11404   0.784   4.049   0.672  0.6880  0.1005 -0.3734
  773MPD2    C111405   0.719   3.971   0.592 -0.4202  0.3654  0.2588
  773MPD2    C211406   0.751   3.838   0.604 -0.1427 -0.2976 -0.6524
  773MPD2    C311407   0.837   3.785   0.700  0.7454 -0.6022 -0.5284
  773MPD2    C411408   0.891   3.868   0.791 -0.3581  0.2618  0.1229
  773MPD2    C511409   0.868   3.997   0.772  0.3640  0.4371  0.0132
  773MPD2     H11410   0.702   3.774   0.532 -1.5229  0.8990 -0.7749
  773MPD2    H111411   0.961   3.841   0.870  1.7848 -0.5282 -2.0378
  773MPD2    H211412   0.771   4.156   0.657  0.7608  0.1407 -0.1537
  773MPD2    H311413   0.910   4.065   0.845 -2.2416  1.4085  0.5899
  773MPD2     N11414   0.860   3.643   0.705  0.0439  0.2880  0.3805
  773MPD2    H511415   0.801   3.583   0.648  0.5406 -1.4927  1.7276
  773MPD2    N111416   0.639   4.004   0.477  0.8295  0.4330 -0.3666
  773MPD2    H711417   0.599   3.921   0.435 -0.0318 -0.2749  1.8287
  774MPD2     C11418   4.714   3.449  13.218  1.4122  0.3129  0.4285
  774MPD2    C111419   4.582   3.457  13.251 -0.0568  0.3358  0.3651
  774MPD2    C211420   4.509   3.571  13.223 -0.0006 -0.2800  0.4905
  774MPD2    C311421   4.580   3.687  13.170  0.3626  0.2646  1.0180
  774MPD2    C411422   4.714   3.677  13.135 -0.1382  0.1638 -0.1251
  774MPD2    C511423   0.055   3.560  13.161 -0.8130  0.2360 -0.8743
  774MPD2     H11424   4.405   3.584  13.251  0.3892  0.8531  1.4440
  774MPD2    H111425   0.059   3.758  13.113 -1.0008  0.0430 -3.1490
  774MPD2    H211426   0.051   3.361  13.238  0.5051 -0.3641  0.1681
  774MPD2    H311427   0.161   3.561  13.138 -0.4602 -0.3395  0.7221
  774MPD2     N11428   4.503   3.808  13.161  0.3747  0.0481 -0.3395
  774MPD2    H511429   4.411   3.814  13.205  1.4914  3.2916  1.5331
  774MPD2    N111430   4.528   3.347  13.317 -0.1282  0.3848  0.1935
  774MPD2    H711431   4.593   3.273  13.343  0.7915  1.0959 -0.0938
  775MPD2     C11432   0.520   4.686  15.661 -0.7811  0.0792 -0.2195
  775MPD2    C111433   0.549   4.717  15.790  0.6577 -0.3312 -0.0151
  775MPD2    C211434   0.647   0.092  15.808  0.3248 -0.4951  0.2781
  775MPD2    C311435   0.727   0.136  15.706 -0.7862 -0.1309  0.5088
  775MPD2    C411436   0.686   0.105  15.577  0.8603 -0.0588  0.7782
  775MPD2    C511437   0.581   0.020  15.554 -0.3095 -0.2186  0.1924
  775MPD2     H11438   0.665   0.125  15.910  0.5822  1.4325 -0.3942
  775MPD2    H111439   0.738   0.142  15.489  0.6042  0.4542  0.8458
  775MPD2    H211440   0.440   4.619  15.634 -1.1727  0.0676  0.9566
  775MPD2    H311441   0.540   0.002  15.455  0.8733  0.1732 -0.3700
  775MPD2     N11442   0.837   0.224  15.713 -0.6004  0.5439 -0.5042
  775MPD2    H511443   0.871   0.251  15.621  2.2131 -1.3272 -0.0430
  775MPD2    N111444   0.481   4.652  15.900 -0.5950  0.5317  0.2811
  775MPD2    H711445   0.392   4.606  15.884 -0.3230  0.4630 -1.0308
  776MPD2     C11446   0.128   0.157  11.913 -0.1448  0.0161 -0.1880
  776MPD2    C111447   0.050   0.108  11.813 -0.2467  0.1014  0.0435
  776MPD2    C211448   0.041   0.185  11.694 -0.3333 -0.3246 -0.6562
  776MPD2    C311449   0.112   0.299  11.677 -0.4052  0.6950  0.7209
  776MPD2    C411450   0.202   0.337  11.769  0.3118  0.0872  0.5033
  776MPD2    C511451   0.199   0.273  11.889  0.2427  0.1061  0.1159
  776MPD2     H11452   4.685   0.149  11.629 -0.1908  0.4529 -1.2559
  776MPD2    H111453   0.240   0.438  11.761  0.4927  0.0490  0.9094
  776MPD2    H211454   0.144   0.103  12.006 -1.4906 -0.3063 -0.1524
  776MPD2    H311455   0.266   0.311  11.966  1.1228 -0.1672 -0.5191
  776MPD2     N11456   0.097   0.377  11.564 -0.6417  0.0896 -0.7202
  776MPD2    H511457   0.162   0.453  11.545  1.1670 -1.3616 -0.3189
  776MPD2    N111458   4.696   4.718  11.848  0.5891 -0.1166  0.3225
  776MPD2    H711459   4.686   4.705  11.948  0.4934 -3.2803 -0.0989
  777MPD2     C11460   0.343   2.997   0.982  0.3696  0.7242 -0.6602
  777MPD2    C111461   0.455   2.932   1.029  0.3713 -0.0172  0.5427
  777MPD2    C211462   0.484   2.810   0.977 -0.9378 -0.4122 -0.1383
  777MPD2    C311463   0.415   2.742   0.875 -0.6565  0.4079  0.5071
  777MPD2    C411464   0.301   2.804   0.826  0.2264  0.2557 -0.2693
  777MPD2    C511465   0.272   2.926   0.882  0.3160  0.7350 -0.3895
  777MPD2     H11466   0.571   2.758   1.017 -1.6081  0.6688  2.6490
  777MPD2    H111467   0.228   2.763   0.757 -0.3966 -1.7334  1.5638
  777MPD2    H211468   0.305   3.091   1.020  2.4688  0.6619  1.5698
  777MPD2    H311469   0.184   2.983   0.858 -0.7777 -0.4574  0.7593
  777MPD2     N11470   0.447   2.607   0.845 -0.4868 -0.2375 -0.2637
  777MPD2    H511471   0.510   2.556   0.906 -1.5308 -1.4293 -0.1779
  777MPD2    N111472   0.525   2.999   1.129  0.0291  0.0868 -0.9550
  777MPD2    H711473   0.471   3.077   1.166 -0.6247 -2.1395  2.7955
  778MPD2     C11474   0.720   2.306  15.392 -0.2668  0.3814  1.0585
  778MPD2    C111475   0.697   2.260  15.263 -0.3128  0.0679 -0.1174
  778MPD2    C211476   0.774   2.313  15.157 -0.1511  0.0482  0.1229
  778MPD2    C311477   0.868   2.411  15.184  0.4267 -0.4314 -0.0564
  778MPD2    C411478   0.895   2.450  15.315 -0.0493  0.2460  0.1242
  778MPD2    C511479   0.821   2.398  15.423  0.4941  0.6006  0.3663
  778MPD2     H11480   0.751   2.286  15.055 -0.2263 -0.8353  0.3661
  778MPD2    H111481   0.939   2.540  15.356  0.7857  0.6469 -1.6539
  778MPD2    H211482   0.655   2.279  15.475 -2.9262 -1.3208 -1.5988
  778MPD2    H311483   0.829   2.446  15.519  0.7233  0.6898  0.3034
  778MPD2     N11484   0.936   2.476  15.077  0.0041  0.6078  0.5329
  778MPD2    H511485   0.890   2.473  14.986  1.8311  0.3529 -0.3794
  778MPD2    N111486   0.608   2.161  15.223 -0.5510 -0.0909  0.0326
  778MPD2    H711487   0.613   2.144  15.123 -1.0220  0.7495 -0.1270
  779MPD2     C11488   0.703   1.357  14.705  0.4603 -0.0436 -0.3897
  779MPD2    C111489   0.791   1.328  14.604  1.0411 -0.0401  0.0034
  779MPD2    C211490   0.806   1.424  14.509 -0.6008  0.2427  0.1996
  779MPD2    C311491   0.748   1.546  14.513 -0.0091  0.3442 -0.6624
  779MPD2    C411492   0.649   1.562  14.603  0.2803  0.5849 -0.1765
  779MPD2    C511493   0.621   1.466  14.700  0.3316  0.2537 -0.5137
  779MPD2     H11494   0.877   1.410  14.428  0.6654 -0.2308  1.4096
  779MPD2    H111495   0.597   1.656  14.614 -1.1879 -0.2435 -0.1127
  779MPD2    H211496   0.687   1.286  14.786  0.7566 -1.6112 -1.7157
  779MPD2    H311497   0.547   1.473  14.779 -2.7638  3.4980 -3.7036
  779MPD2     N11498   0.795   1.640  14.421 -0.0184 -0.1558 -0.0840
  779MPD2    H511499   0.883   1.624  14.372  0.7062  0.9744  0.8593
  779MPD2    N111500   0.867   1.212  14.587  0.2414 -0.1731  0.2575
  779MPD2    H711501   0.931   1.206  14.508  1.0912 -0.9173  1.0039
  780MPD2     C11502   0.484   1.584   0.824 -0.0111 -0.3169  0.4203
  780MPD2    C111503   0.603   1.510   0.832  0.1008  0.1078  0.8299
  780MPD2    C211504   0.713   1.549   0.753  0.3526  1.0090 -0.4061
  780MPD2    C311505   0.702   1.659   0.667 -0.2143 -0.5445 -0.4921
  780MPD2    C411506   0.582   1.729   0.654 -0.0053 -0.2155 -0.2837
  780MPD2    C511507   0.478   1.688   0.738 -0.1912  0.5794  0.3584
  780MPD2     H11508   0.809   1.499   0.764 -0.0114  0.2564 -0.6421
  780MPD2    H111509   0.571   1.808   0.581 -3.4298  0.9343  1.4836
  780MPD2    H211510   0.401   1.559   0.889 -1.4196 -0.8909 -1.6295
  780MPD2    H311511   0.389   1.750   0.732 -2.2892 -2.5126 -0.2178
  780MPD2     N11512   0.813   1.681   0.580  0.4180 -0.4658  0.1486
  780MPD2    H511513   0.877   1.603   0.568  1.4914  0.7184 -1.6695
  780MPD2    N111514   0.602   1.394   0.920 -0.4386 -0.6279  0.2182
  780MPD2    H711515   0.513   1.364   0.957 -0.1075 -1.8358  0.0106
  781MPD2     C11516   2.216   3.254  11.581  0.7326  0.5295 -0.1188
  781MPD2    C111517   2.282   3.217  11.698  0.7186 -0.0946 -0.4416
  781MPD2    C211518   2.374   3.117  11.674 -0.0890  0.2193  0.8367
  781MPD2    C311519   2.393   3.056  11.551  0.5072 -0.3565 -0.2264
  781MPD2    C411520   2.331   3.102  11.438 -0.6250  0.0504  0.2867
  781MPD2    C511521   2.237   3.196  11.461  0.6563 -0.0940  0.0097
  781MPD2     H11522   2.414   3.063  11.759 -0.6812  1.1634  1.7030
  781MPD2    H111523   2.351   3.054  11.343  1.7030  2.1014 -0.2666
  781MPD2    H211524   2.130   3.320  11.589 -0.4608 -1.2396  1.9090
  781MPD2    H311525   2.188   3.225  11.369  0.1407  0.1170  0.3528
  781MPD2     N11526   2.477   2.948  11.530  0.1101 -0.4705 -0.6060
  781MPD2    H511527   2.482   2.904  11.438  0.5004 -2.0747  0.1832
  781MPD2    N111528   2.269   3.269  11.827 -0.2999 -0.6822 -0.8798
  781MPD2    H711529   2.340   3.240  11.894 -0.7178 -1.9140 -0.9723
  782MPD2     C11530   0.029   3.879  10.135 -0.1502 -0.4348  0.4688
  782MPD2    C111531   0.120   3.843  10.226  0.5737 -0.2530  0.1326
  782MPD2    C211532   0.185   3.937  10.306 -0.4583 -0.7141  0.0801
  782MPD2    C311533   0.141   4.067  10.307  0.3060 -0.5893  0.0985
  782MPD2    C411534   0.042   4.104  10.213  0.5072  0.0932  0.2724
  782MPD2    C511535   4.710   4.012  10.129  0.0575 -0.1308  0.5437
  782MPD2     H11536   0.262   3.907  10.377 -0.2747 -1.0732 -0.2709
  782MPD2    H111537   4.717   4.201  10.218 -0.0021 -0.1358 -0.2778
  782MPD2    H211538   4.707   3.809  10.065  1.9246 -0.5360 -0.7756
  782MPD2    H311539   4.630   4.036  10.060  2.0493 -1.0092 -2.0606
  782MPD2     N11540   0.199   4.155  10.396  0.7640  1.0218  0.2171
  782MPD2    H511541   0.270   4.118  10.458  0.5798  0.1179 -0.1213
  782MPD2    N111542   0.155   3.700  10.224  0.3526 -0.0923  0.0118
  782MPD2    H711543   0.097   3.632  10.176 -0.5968 -0.5505  1.7938
  783MPD2     C11544   4.510   3.296  10.898  0.2003  0.7432  0.1497
  783MPD2    C111545   4.531   3.420  10.841 -0.2661 -0.1168  0.0752
  783MPD2    C211546   4.625   3.429  10.740  0.4518  0.2911 -0.4062
  783MPD2    C311547   4.681   3.318  10.690  0.3928  0.1839 -0.0679
  783MPD2    C411548   4.664   3.198  10.742 -0.0757 -0.4063  0.5908
  783MPD2    C511549   4.578   3.188  10.849  0.2305  0.0648 -0.4542
  783MPD2     H11550   4.638   3.521  10.685  2.0682  0.0397 -0.4456
  783MPD2    H111551   4.700   3.101  10.709 -2.0911 -1.2779  0.9857
  783MPD2    H211552   4.425   3.284  10.965  0.6490  0.1487  0.6127
  783MPD2    H311553   4.550   3.092  10.891 -1.3332  0.9278  0.4457
  783MPD2     N11554   0.047   3.352  10.583 -0.1813 -0.1499  0.5751
  783MPD2    H511555   0.063   3.452  10.575  1.4094 -0.4045  0.5868
  783MPD2    N111556   4.457   3.530  10.883 -0.2558  0.4359 -0.4106
  783MPD2    H711557   4.389   3.519  10.957  0.2653 -2.4478 -0.3443
  784MPD2     C11558   3.545   4.592   0.853  0.3720  0.0014  0.6558
  784MPD2    C111559   3.439   4.621   0.936  0.6625 -0.3428  0.1403
  784MPD2    C211560   3.318   4.680   0.892  0.0111  0.1854 -0.5227
  784MPD2    C311561   3.304   0.003   0.763 -0.1254  0.1689  0.1628
  784MPD2    C411562   3.415   4.707   0.677  0.4321  1.3380  0.6727
  784MPD2    C511563   3.528   4.639   0.721 -0.5636  0.1209  0.6468
  784MPD2     H11564   3.234   4.701   0.957 -0.7963 -1.2797 -1.0881
  784MPD2    H111565   3.416   0.033   0.580 -1.8113  0.5979  0.2743
  784MPD2    H211566   3.637   4.542   0.882  1.6425  1.6953 -0.4471
  784MPD2    H311567   3.617   4.627   0.660 -0.4490 -0.4041  0.9239
  784MPD2     N11568   3.187   0.074   0.731 -0.0900 -0.1768 -0.3195
  784MPD2    H511569   3.112   0.073   0.799 -0.4044  1.8855 -0.6305
  784MPD2    N111570   3.435   4.580   1.071  0.0037  0.4171 -0.0475
  784MPD2    H711571   3.358   4.622   1.121  0.8523  2.1020 -0.1637
  785MPD2     C11572   2.310   2.650   9.613  0.3903 -0.3906  0.1921
  785MPD2    C111573   2.317   2.698   9.741 -0.2782 -0.4018  0.1716
  785MPD2    C211574   2.216   2.770   9.800  0.5399  0.3323 -0.0401
  785MPD2    C311575   2.099   2.785   9.723  0.0694 -0.0292  0.5200
  785MPD2    C411576   2.086   2.724   9.602 -0.1728 -0.6078 -0.1459
  785MPD2    C511577   2.185   2.660   9.545  0.2776 -0.1451  0.0799
  785MPD2     H11578   2.219   2.815   9.899  0.7950  0.4924 -0.1237
  785MPD2    H111579   1.999   2.728   9.537 -0.6537 -0.4214  0.5090
  785MPD2    H211580   2.397   2.601   9.570 -1.0205 -0.5067 -2.5811
  785MPD2    H311581   2.166   2.602   9.455 -2.1451 -0.1994  0.6077
  785MPD2     N11582   2.004   2.874   9.781  0.3237 -0.1328  0.0957
  785MPD2    H511583   2.025   2.896   9.877 -0.0506  0.8305 -0.0445
  785MPD2    N111584   2.436   2.683   9.819  0.3313 -0.4096  0.3796
  785MPD2    H711585   2.427   2.701   9.918 -2.8066  0.9201 -0.1287
  786MPD2     C11586   1.299   0.683  14.672 -0.6576 -0.3771 -0.0020
  786MPD2    C111587   1.426   0.638  14.639 -0.5484  0.5448 -0.1177
  786MPD2    C211588   1.534   0.646  14.724  0.0891 -0.9127 -0.4455
  786MPD2    C311589   1.520   0.713  14.843  0.0518 -1.1902 -0.1243
  786MPD2    C411590   1.396   0.769  14.878 -0.6984  0.0201 -0.1014
  786MPD2    C511591   1.285   0.742  14.795 -0.0159  0.2009 -0.0225
  786MPD2     H11592   1.630   0.614  14.685  0.9909  0.2354  0.8281
  786MPD2    H111593   1.391   0.837  14.963 -1.6206  2.5265 -2.1347
  786MPD2    H211594   1.209   0.659  14.618  1.3834  0.7781 -3.8666
  786MPD2    H311595   1.184   0.765  14.826  0.1156  1.3044 -0.3888
  786MPD2     N11596   1.619   0.737  14.937  0.1051 -0.5361  0.4023
  786MPD2    H511597   1.593   0.788  15.021  1.9192  0.2118  0.4929
  786MPD2    N111598   1.460   0.565  14.523  0.0428 -0.2640  0.0348
  786MPD2    H711599   1.556   0.532  14.518 -0.2698 -1.0462 -0.7483
  787MPD2     C11600   2.138   0.580  14.082 -0.0209  0.5734  0.7980
  787MPD2    C111601   2.052   0.507  14.154  0.0616 -0.2101 -0.1048
  787MPD2    C211602   2.113   0.404  14.222  0.0036  0.4665  0.4792
  787MPD2    C311603   2.247   0.373  14.223 -0.0234  0.3461  0.3928
  787MPD2    C411604   2.326   0.449  14.143 -0.4184 -0.9885  0.5576
  787MPD2    C511605   2.269   0.549  14.078 -0.1431 -0.0345 -0.0625
  787MPD2     H11606   2.052   0.337  14.281 -0.9220  0.7827 -0.1088
  787MPD2    H111607   2.429   0.425  14.118  0.2254  1.1200  1.2076
  787MPD2    H211608   2.114   0.662  14.016  0.1760  1.5464  1.9345
  787MPD2    H311609   2.320   0.619  14.012 -1.3220 -1.4272 -2.4305
  787MPD2     N11610   2.302   0.265  14.294 -0.1484  0.3691 -0.0139
  787MPD2    H511611   2.242   0.205  14.351  0.0907  1.2185  1.1333
  787MPD2    N111612   1.915   0.528  14.147  0.7787  0.0857  0.6462
  787MPD2    H711613   1.896   0.598  14.076  2.8554 -0.5881 -0.5462
  788MPD2     C11614   3.076   2.679   1.292  0.5599  0.2032  0.2366
  788MPD2    C111615   3.062   2.685   1.159 -0.5483 -0.0751  0.4982
  788MPD2    C211616   3.121   2.794   1.091  0.0840 -0.5570  0.6731
  788MPD2    C311617   3.203   2.880   1.160  0.2511  0.4989 -0.1822
  788MPD2    C411618   3.213   2.875   1.303  0.1365 -0.6112 -0.2890
  788MPD2    C511619   3.145   2.775   1.363 -0.6613 -0.7974 -0.2032
  788MPD2     H11620   3.115   2.799   0.982  0.8319  0.8051  0.6934
  788MPD2    H111621   3.265   2.949   1.363 -0.3432  0.7286 -1.5278
  788MPD2    H211622   3.014   2.609   1.347 -0.0987 -0.3294 -1.1815
  788MPD2    H311623   3.141   2.775   1.471  2.7516 -4.0987 -0.0843
  788MPD2     N11624   3.272   2.984   1.095  0.3180  0.9192  0.7467
  788MPD2    H511625   3.320   3.048   1.157  0.7698  2.2122 -0.9359
  788MPD2    N111626   2.996   2.591   1.080 -0.1814  0.2417  0.4120
  788MPD2    H711627   2.986   2.614   0.982  0.9044 -2.1710 -0.2712
  789MPD2     C11628   4.112   3.039  16.289 -0.1043 -0.7148 -0.4232
  789MPD2    C111629   4.008   3.001  16.373  0.5467  0.6175 -0.4176
  789MPD2    C211630   3.902   3.086  16.382 -0.4534 -0.1283  0.0303
  789MPD2    C311631   3.908   3.210  16.327  0.1485  0.0360 -0.8384
  789MPD2    C411632   4.012   3.241  16.235 -0.0181 -0.2580  0.2540
  789MPD2    C511633   4.117   3.153  16.217 -0.4888 -0.0870 -0.2406
  789MPD2     H11634   3.818   3.067  16.448 -1.3311  2.8365 -0.2700
  789MPD2    H111635   4.023   3.334  16.182  0.1429  0.8433  2.2149
  789MPD2    H211636   4.188   2.961  16.286  1.2875  0.6470 -0.2872
  789MPD2    H311637   4.204   3.179  16.158 -0.4997  0.2852 -0.0940
  789MPD2     N11638   3.823   3.318  16.368  0.1827 -0.1687  0.4030
  789MPD2    H511639   3.826   3.402  16.311 -0.4810  0.7363  1.7219
  789MPD2    N111640   4.002   2.883  16.453  0.1377 -0.3143  0.1879
  789MPD2    H711641   3.912   2.870  16.499 -0.7430 -0.3326 -1.5422
  790MPD2     C11642   0.156   0.409  13.413 -0.4122  0.3119  0.4598
  790MPD2    C111643   0.156   0.268  13.408  0.2763  0.0205 -0.1206
  790MPD2    C211644   0.086   0.199  13.308 -0.5794 -0.2742 -0.0462
  790MPD2    C311645   0.015   0.270  13.216  0.2254 -0.3431  0.1867
  790MPD2    C411646   0.015   0.413  13.220 -0.5107 -0.6165  0.0388
  790MPD2    C511647   0.086   0.479  13.322 -0.0837 -0.0803  0.7876
  790MPD2     H11648   0.095   0.091  13.300 -0.3938 -0.2676  0.0617
  790MPD2    H111649   4.689   0.470  13.143 -1.7760 -1.2421  0.3812
  790MPD2    H211650   0.210   0.474  13.481  0.4206  1.2217 -1.0548
  790MPD2    H311651   0.077   0.587  13.323  2.1640  0.1173 -0.2568
  790MPD2     N11652   4.675   0.200  13.114 -0.3911  0.5396  0.4300
  790MPD2    H511653   4.695   0.101  13.108 -0.6183  0.5729 -1.0941
  790MPD2    N111654   0.229   0.196  13.505  0.4555 -0.2983  0.6950
  790MPD2    H711655   0.236   0.095  13.498 -0.3487 -0.3889  1.2492
  791MPD2     C11656   3.942   0.177  12.879 -0.4941  0.2303  0.1841
  791MPD2    C111657   4.001   0.061  12.840  0.3133 -0.4557 -0.0852
  791MPD2    C211658   3.926   4.679  12.807 -0.4308 -0.2642  0.2488
  791MPD2    C311659   3.785   4.687  12.808 -0.1146 -0.3018 -0.2108
  791MPD2    C411660   3.729   0.077  12.850 -0.7799 -0.2246  0.5590
  791MPD2    C511661   3.807   0.188  12.886 -0.0432  0.2222  0.6414
  791MPD2     H11662   3.977   4.589  12.774 -0.0399 -0.3169  0.9892
  791MPD2    H111663   3.623   0.079  12.868 -0.4728  1.1352  2.2028
  791MPD2    H211664   4.005   0.258  12.915  2.5004 -0.9601 -2.3809
  791MPD2    H311665   3.765   0.278  12.929  2.0598  1.0510  0.9825
  791MPD2     N11666   3.700   4.575  12.766  0.6888  0.3220  0.6321
  791MPD2    H511667   3.749   4.494  12.728 -2.2104 -1.5320  0.8696
  791MPD2    N111668   4.140   0.066  12.831  0.4159  0.2369  0.4355
  791MPD2    H711669   4.181   0.158  12.847  0.7154  0.3164 -0.7349
  792MPD2     C11670   4.380   0.114  11.442 -0.1732 -0.0087  0.7399
  792MPD2    C111671   4.421   0.047  11.328 -0.5584  0.2384  0.0694
  792MPD2    C211672   4.356   4.659  11.277 -0.2486  0.6342  0.5694
  792MPD2    C311673   4.228   4.631  11.330  0.4247  0.5626 -0.2243
  792MPD2    C411674   4.191   4.693  11.450 -0.9140 -0.3270 -0.7379
  792MPD2    C511675   4.267   0.074  11.506 -0.0970  0.0300  0.2164
  792MPD2     H11676   4.391   4.596  11.196 -2.0059  0.6535 -0.2130
  792MPD2    H111677   4.103   4.663  11.505  1.1995 -3.1044  1.1115
  792MPD2    H211678   4.433   0.201  11.477 -0.8595  0.7584 -0.1091
  792MPD2    H311679   4.237   0.121  11.599 -0.5930  0.1549 -0.0027
  792MPD2     N11680   4.162   4.516  11.285  0.3105  0.1403 -1.0365
  792MPD2    H511681   4.201   4.453  11.215  1.3179 -0.9445  0.4919
  792MPD2    N111682   4.536   0.097  11.273 -0.2887  0.2425 -0.3955
  792MPD2    H711683   4.579   0.172  11.326  2.7065 -2.0103  0.3926
  793MPD2     C11684   3.751   0.013  10.538 -0.3630 -0.0814  0.2641
  793MPD2    C111685   3.883   4.696  10.560  0.2732  0.4946 -0.6857
  793MPD2    C211686   3.899   4.605  10.663  0.2577 -0.2272  0.0946
  793MPD2    C311687   3.800   4.554  10.746  0.0863  0.4362 -0.1295
  793MPD2    C411688   3.672   4.599  10.726 -0.1700  0.6139  0.1277
  793MPD2    C511689   3.652   4.687  10.625 -0.3095  0.4202 -0.3132
  793MPD2     H11690   4.002   4.572  10.679  0.1495 -1.0197 -0.8386
  793MPD2    H111691   3.589   4.565  10.787 -0.2487 -1.3036 -1.0257
  793MPD2    H211692   3.715   0.076  10.458 -0.2709 -0.9753 -0.4865
  793MPD2    H311693   3.549   4.716  10.608  0.6182  3.4911 -0.5523
  793MPD2     N11694   3.842   4.463  10.847 -0.2767  0.2508  0.4059
  793MPD2    H511695   3.940   4.436  10.844  0.0332  1.2336  1.5685
  793MPD2    N111696   3.989   0.011  10.478  0.3351 -0.3857  0.8981
  793MPD2    H711697   4.077   4.685  10.493  1.3049  1.0241 -0.1780
  794MPD2     C11698   0.411   4.714   0.040  0.9389  0.3227  0.0306
  794MPD2    C111699   0.351   4.605  17.683 -0.4296  0.3632  0.1620
  794MPD2    C211700   0.259   4.613  17.580 -0.0330  0.2265  0.2436
  794MPD2    C311701   0.225   0.012  17.522 -0.2018  0.1396 -0.5433
  794MPD2    C411702   0.290   0.120  17.572  0.0218 -0.0155  0.4810
  794MPD2    C511703   0.376   0.114  17.677  1.1866 -0.5190  0.7306
  794MPD2     H11704   0.213   4.523  17.540 -1.2545  1.3817 -0.9715
  794MPD2    H111705   0.271   0.220  17.534  3.2943  1.2873  2.3348
  794MPD2    H211706   0.471   0.003   0.130  0.8753 -1.2871  0.2940
  794MPD2    H311707   0.430   0.205   0.007 -0.1582 -0.0526  2.0007
  794MPD2     N11708   0.130   0.034  17.423 -0.3611  0.2697 -0.3482
  794MPD2    H511709   0.117   0.133  17.404  0.1497  0.2244 -0.9483
  794MPD2    N111710   0.368   4.476   0.038  0.6202  0.1293 -0.3732
  794MPD2    H711711   0.324   4.407  17.671 -0.8402 -0.6306  1.5469
  795MPD2     C11712   2.108   1.690  13.861 -0.2513 -0.2636 -0.1673
  795MPD2    C111713   2.031   1.577  13.841 -0.2782 -1.0151  0.6800
  795MPD2    C211714   2.103   1.454  13.848  0.3624 -0.7173  0.0093
  795MPD2    C311715   2.243   1.447  13.881  0.2593 -0.4242  0.3770
  795MPD2    C411716   2.316   1.564  13.897 -0.1128  0.1765  1.1395
  795MPD2    C511717   2.247   1.683  13.884  0.0667  0.1432  0.4303
  795MPD2     H11718   2.052   1.362  13.823 -1.7012  1.0298 -2.1860
  795MPD2    H111719   2.423   1.559  13.913  0.1211 -2.4200 -1.2750
  795MPD2    H211720   2.063   1.788  13.848  3.6960  1.2807 -1.9314
  795MPD2    H311721   2.299   1.779  13.885  2.9796 -1.3766 -2.6964
  795MPD2     N11722   2.321   1.330  13.892 -0.4427 -0.2299 -0.3818
  795MPD2    H511723   2.419   1.341  13.916  0.6389 -1.8668 -4.0286
  795MPD2    N111724   1.903   1.599  13.785 -0.3266 -0.3982  0.6971
  795MPD2    H711725   1.869   1.695  13.786  0.0630 -0.2389 -0.8072
  796MPD2     C11726   1.758   3.210  15.273 -0.5246 -0.4883  0.1212
  796MPD2    C111727   1.781   3.238  15.406  0.7275 -0.0290 -1.1462
  796MPD2    C211728   1.738   3.364  15.459  0.1837  0.5888 -0.2242
  796MPD2    C311729   1.665   3.454  15.380 -0.3034  0.1160 -0.2351
  796MPD2    C411730   1.640   3.423  15.247 -0.0324 -0.8748 -0.1447
  796MPD2    C511731   1.704   3.311  15.190  0.1224 -0.5484 -0.4060
  796MPD2     H11732   1.747   3.389  15.564 -1.7837  0.4176 -0.0142
  796MPD2    H111733   1.581   3.492  15.189 -0.7870 -0.7006  0.8258
  796MPD2    H211734   1.800   3.119  15.233  0.6139 -0.5234  1.3829
  796MPD2    H311735   1.693   3.294  15.083  1.2017 -0.1528 -0.5858
  796MPD2     N11736   1.630   3.577  15.444  0.1872 -0.6143 -0.7427
  796MPD2    H511737   1.669   3.589  15.537 -2.4112 -0.4200  0.3238
  796MPD2    N111738   1.844   3.138  15.484  0.0057 -0.4210  1.0546
  796MPD2    H711739   1.886   3.061  15.434 -0.1799  0.0631  0.1329
  797MPD2     C11740   2.184   2.739  16.894 -0.0461  0.8705  0.5737
  797MPD2    C111741   2.209   2.856  16.965  0.2134 -0.6507 -0.0589
  797MPD2    C211742   2.200   2.981  16.915 -0.6225  0.5151 -0.6822
  797MPD2    C311743   2.180   2.997  16.778 -0.3207  0.2697 -0.1762
  797MPD2    C411744   2.175   2.882  16.703 -0.2890 -0.6250 -0.2218
  797MPD2    C511745   2.171   2.752  16.755 -0.4703  0.3181  0.1182
  797MPD2     H11746   2.213   3.068  16.977  1.1661 -0.9849  1.0443
  797MPD2    H111747   2.168   2.886  16.595  1.6577  2.2469 -0.2619
  797MPD2    H211748   2.185   2.640  16.936 -2.5941  1.1062  1.1759
  797MPD2    H311749   2.156   2.666  16.692 -0.9763  0.3212  0.2384
  797MPD2     N11750   2.168   3.126  16.715 -0.3744  0.0963 -0.2641
  797MPD2    H511751   2.176   3.127  16.614  1.4998 -0.7911 -0.1329
  797MPD2    N111752   2.235   2.851  17.106  0.3137 -0.5694  0.3784
  797MPD2    H711753   2.241   2.939  17.156  2.6486  0.1860 -1.2353
  798MPD2     C11754   2.379   3.619  17.154 -0.0407 -0.4258  0.4114
  798MPD2    C111755   2.319   3.517  17.093  1.2894 -0.0086  0.7428
  798MPD2    C211756   2.316   3.393  17.158 -0.2457  0.8933  0.2437
  798MPD2    C311757   2.376   3.379  17.282  0.4843  0.7163  0.4480
  798MPD2    C411758   2.437   3.486  17.348 -0.1997 -0.4445  0.3498
  798MPD2    C511759   2.436   3.604  17.282  0.0024  0.2341  0.6119
  798MPD2     H11760   2.259   3.315  17.107 -1.1369  1.2608  0.6696
  798MPD2    H111761   2.480   3.484  17.447  0.1755  0.2979  0.2001
  798MPD2    H211762   2.373   3.723  17.124  2.1513 -0.2487  0.5645
  798MPD2    H311763   2.486   3.687  17.329  2.5426 -1.1768  0.3904
  798MPD2     N11764   2.379   3.257  17.353  0.2197 -0.3343  0.0082
  798MPD2    H511765   2.457   3.245  17.418  0.4740 -1.4415 -0.4939
  798MPD2    N111766   2.255   3.519  16.969 -0.5527 -0.0023  0.3408
  798MPD2    H711767   2.213   3.434  16.934  0.5850 -0.6956  0.6343
  799MPD2     C11768   2.030   4.191  14.851  0.1059 -0.0594  0.0380
  799MPD2    C111769   1.906   4.184  14.788  0.4430  0.1439  0.2875
  799MPD2    C211770   1.852   4.298  14.727  0.2219 -0.3766 -0.7417
  799MPD2    C311771   1.916   4.421  14.737 -0.1770 -1.0884 -0.1676
  799MPD2    C411772   2.036   4.429  14.805 -0.3283  0.7588 -0.4013
  799MPD2    C511773   2.098   4.314  14.850  0.1738  0.0795  0.5963
  799MPD2     H11774   1.767   4.281  14.662 -0.1501  0.9614 -0.6060
  799MPD2    H111775   2.091   4.521  14.823  1.0873  0.2928 -2.3693
  799MPD2    H211776   2.091   4.108  14.886 -0.3798  0.3104  1.7713
  799MPD2    H311777   2.200   4.313  14.887  1.0116  1.4027 -1.6499
  799MPD2     N11778   1.879   4.532  14.650 -0.1075  0.0507  0.1256
  799MPD2    H511779   1.944   4.609  14.642 -0.6189  0.8284  3.4594
  799MPD2    N111780   1.839   4.057  14.769  0.1131  0.3485  0.3050
  799MPD2    H711781   1.755   4.059  14.713 -0.1507 -2.1392  0.6043
  800MPD2     C11782   1.429   0.905  13.989 -0.3657  0.3190  0.1687
  800MPD2    C111783   1.557   0.876  13.964  0.3763 -0.5771 -0.0665
  800MPD2    C211784   1.587   0.802  13.855  0.3964 -0.5970  0.5468
  800MPD2    C311785   1.495   0.766  13.763  0.6917 -0.1581 -0.1277
  800MPD2    C411786   1.362   0.798  13.789  0.5956  0.2336 -0.2956
  800MPD2    C511787   1.330   0.861  13.903  0.4782  0.0304  0.0111
  800MPD2     H11788   1.689   0.786  13.819  1.0612  1.3437  1.5774
  800MPD2    H111789   1.284   0.770  13.719  0.0295 -1.0802  0.8553
  800MPD2    H211790   1.390   0.962  14.072  0.7584  0.7689  0.3840
  800MPD2    H311791   1.226   0.893  13.902 -0.1225 -1.9636  0.6487
  800MPD2     N11792   1.551   0.701  13.645 -0.3736 -0.4526  0.0804
  800MPD2    H511793   1.652   0.695  13.634 -0.6607  0.9101 -3.4340
  800MPD2    N111794   1.659   0.922  14.054  0.2363  0.8471  0.0743
  800MPD2    H711795   1.638   0.989  14.128 -1.8836  1.9826 -1.5304
  801MPD2     C11796   1.858   1.609  14.195  0.8491  0.1862  0.6283
  801MPD2    C111797   1.935   1.524  14.266 -0.3222  0.3302 -0.8626
  801MPD2    C211798   1.958   1.564  14.396  0.8190  0.2536  0.6241
  801MPD2    C311799   1.896   1.670  14.459 -0.6190 -0.4822 -0.3743
  801MPD2    C411800   1.826   1.756  14.373  0.3924 -0.1822  0.0031
  801MPD2    C511801   1.812   1.725  14.242  0.8362 -0.0827 -0.1638
  801MPD2     H11802   2.010   1.491  14.457 -0.8223 -0.5592  1.0383
  801MPD2    H111803   1.761   1.835  14.410 -0.3844 -0.6564 -0.3336
  801MPD2    H211804   1.844   1.578  14.092 -0.3803  2.4448  0.1267
  801MPD2    H311805   1.762   1.798  14.179 -1.7955 -2.2469 -0.5727
  801MPD2     N11806   1.901   1.695  14.596 -0.1189 -0.4772 -0.0218
  801MPD2    H511807   1.868   1.783  14.634 -1.8742 -0.0576 -2.5462
  801MPD2    N111808   1.983   1.395  14.219  0.0772  0.0586 -0.1308
  801MPD2    H711809   2.053   1.346  14.274 -0.0318 -1.6136 -1.4981
  802MPD2     C11810   0.924   1.304  16.919 -0.6625  0.3227  0.0363
  802MPD2    C111811   1.037   1.378  16.940  0.7175  0.1769 -0.6954
  802MPD2    C211812   1.158   1.330  16.902  0.0553 -0.1844 -0.3792
  802MPD2    C311813   1.176   1.203  16.840  0.0711  0.2267 -0.5846
  802MPD2    C411814   1.058   1.130  16.822 -0.2714 -0.0600 -0.3239
  802MPD2    C511815   0.938   1.177  16.861 -0.6873  0.2729  0.2542
  802MPD2     H11816   1.250   1.385  16.919 -0.5268  0.8117 -0.4518
  802MPD2    H111817   1.051   1.028  16.787 -2.6534  0.3651 -1.1249
  802MPD2    H211818   0.828   1.324  16.963  0.0105  0.9659  1.2155
  802MPD2    H311819   0.854   1.110  16.851 -0.4631  0.1920 -1.1425
  802MPD2     N11820   1.307   1.145  16.835  0.0674 -0.1732  0.5814
  802MPD2    H511821   1.378   1.209  16.869  1.1089 -2.0722  2.0032
  802MPD2    N111822   1.030   1.508  17.001 -0.2355 -0.4879 -0.5971
  802MPD2    H711823   1.122   1.552  17.006 -1.2574  1.3293  1.7517
  803MPD2     C11824   2.648   0.206  11.863 -0.5335 -0.0176 -0.1871
  803MPD2    C111825   2.724   0.161  11.971  0.2148 -0.2727 -0.4652
  803MPD2    C211826   2.671   0.065  12.056 -0.1518  0.1551  0.2941
  803MPD2    C311827   2.542   0.012  12.042 -0.0212  0.1717 -0.2596
  803MPD2    C411828   2.463   0.066  11.937  0.3579  0.0245 -0.0094
  803MPD2    C511829   2.521   0.159  11.854 -0.7994 -0.6861  0.4520
  803MPD2     H11830   2.722   0.027  12.143 -3.1579  0.6807  2.2916
  803MPD2    H111831   2.358   0.040  11.927 -0.1598  1.4049  1.8866
  803MPD2    H211832   2.680   0.282  11.793 -1.0481  2.7068  2.5630
  803MPD2    H311833   2.463   0.199  11.771  0.5095 -1.1198 -0.6565
  803MPD2     N11834   2.485   4.640  12.133  0.4165 -0.3273 -0.2773
  803MPD2    H511835   2.384   4.631  12.133  0.4454 -0.7523  3.1378
  803MPD2    N111836   2.853   0.210  12.010 -0.5266  0.1928 -0.1643
  803MPD2    H711837   2.901   0.169  12.090  1.2469 -0.8031 -1.7306
  804MPD2     C11838   2.024   1.187  16.793 -0.0656 -0.5818  0.0239
  804MPD2    C111839   2.039   1.198  16.932 -0.1414  0.1293 -0.0768
  804MPD2    C211840   2.067   1.314  17.000  0.1753 -0.1067  0.6360
  804MPD2    C311841   2.081   1.429  16.928 -0.3957  0.7444  0.3127
  804MPD2    C411842   2.068   1.427  16.792  0.1479  0.6077  0.4419
  804MPD2    C511843   2.023   1.307  16.728  0.0953 -0.0775 -0.2832
  804MPD2     H11844   2.082   1.303  17.107  1.5814  3.2043  0.7981
  804MPD2    H111845   2.073   1.516  16.731 -1.7939  1.2396  1.1915
  804MPD2    H211846   2.007   1.090  16.747  0.7483  0.2012 -1.9168
  804MPD2    H311847   2.006   1.305  16.621 -1.4428 -0.8892 -0.0209
  804MPD2     N11848   2.109   1.548  17.004  0.1295 -0.2718  0.3934
  804MPD2    H511849   2.141   1.527  17.098  1.5982  0.8828  0.1614
  804MPD2    N111850   2.038   1.087  17.014  0.7568 -0.0930 -0.6330
  804MPD2    H711851   2.048   1.097  17.115  2.7077 -0.9997 -0.7348
  805MPD2     C11852   1.313   0.117  15.647 -0.2804 -0.0130  0.5763
  805MPD2    C111853   1.431   0.097  15.579  0.6747 -0.5101 -0.4622
  805MPD2    C211854   1.549   0.106  15.644  0.1424  0.3643 -0.5010
  805MPD2    C311855   1.561   0.122  15.781  0.0268  0.1661 -0.1468
  805MPD2    C411856   1.441   0.141  15.845 -0.5627 -1.0129  0.1206
  805MPD2    C511857   1.317   0.135  15.783 -0.3270  0.1731 -0.0468
  805MPD2     H11858   1.642   0.094  15.590 -0.2598  0.9664 -1.3246
  805MPD2    H111859   1.437   0.146  15.953 -0.3029  1.7745 -0.0105
  805MPD2    H211860   1.219   0.102  15.594  0.1890 -0.8704 -0.0155
  805MPD2    H311861   1.228   0.147  15.844 -0.6609 -0.2400 -0.4608
  805MPD2     N11862   1.690   0.121  15.848  0.3811  0.2468  0.3307
  805MPD2    H511863   1.765   0.086  15.790  0.0104 -1.4029  0.8439
  805MPD2    N111864   1.433   0.058  15.439  0.4042 -0.3447 -0.0491
  805MPD2    H711865   1.520   0.042  15.389  2.5179 -0.1686  3.5256
  806MPD2     C11866   3.333   4.394   0.313 -0.3755 -0.6983 -0.0826
  806MPD2    C111867   3.258   4.459   0.407 -0.2548  0.4449  0.1766
  806MPD2    C211868   3.244   4.598   0.389 -0.4362 -0.3843 -0.0580
  806MPD2    C311869   3.289   4.666   0.279  0.4906  0.0184  1.1746
  806MPD2    C411870   3.359   4.587   0.184 -0.2658  0.4968  0.0669
  806MPD2    C511871   3.380   4.457   0.199  0.3182  0.1926  0.6729
  806MPD2     H11872   3.192   4.654   0.466  1.3097  0.7739  0.2739
  806MPD2    H111873   3.389   4.634   0.091 -1.9248 -1.5906 -1.5190
  806MPD2    H211874   3.354   4.289   0.324  2.3603 -0.1028  0.2892
  806MPD2    H311875   3.424   4.399   0.119  1.7475  3.2456 -0.7748
  806MPD2     N11876   3.264   0.084   0.265  0.0090  0.1836 -0.1779
  806MPD2    H511877   3.233   0.131   0.350  1.3465 -0.1242  0.4859
  806MPD2    N111878   3.215   4.376   0.516 -0.1970 -0.4903  0.3932
  806MPD2    H711879   3.243   4.279   0.513  0.6795 -0.1953 -1.2622
  807MPD2     C11880   3.001   4.342   1.373 -0.0084 -0.7040 -0.6833
  807MPD2    C111881   2.902   4.292   1.294  0.4673  0.6392  0.2353
  807MPD2    C211882   2.790   4.237   1.354  0.7695 -0.0618 -0.2361
  807MPD2    C311883   2.764   4.231   1.484 -0.2127 -0.2423  0.5452
  807MPD2    C411884   2.862   4.296   1.572 -0.0177 -0.6335  0.3007
  807MPD2    C511885   2.976   4.340   1.510  0.2781 -1.0916 -0.3476
  807MPD2     H11886   2.712   4.192   1.294 -0.4930 -0.4395  1.6795
  807MPD2    H111887   2.846   4.302   1.679  0.3477  0.0522  0.3130
  807MPD2    H211888   3.100   4.371   1.342 -0.8605  0.7136 -2.0602
  807MPD2    H311889   3.049   4.374   1.582 -0.0228  2.1421 -1.5626
  807MPD2     N11890   2.644   4.171   1.526  0.4811 -0.1841  0.2515
  807MPD2    H511891   2.591   4.120   1.456  0.8808 -0.2651  0.0069
  807MPD2    N111892   2.916   4.273   1.154 -0.0101 -0.0594  0.6781
  807MPD2    H711893   2.854   4.203   1.115  0.2498  1.1812 -1.9920
  808MPD2     C11894   1.431   1.827   8.878 -0.0681 -0.0895 -0.2101
  808MPD2    C111895   1.490   1.782   8.995  0.5868  0.4304  0.2391
  808MPD2    C211896   1.550   1.872   9.075 -0.6604  0.5417  0.7079
  808MPD2    C311897   1.533   2.005   9.056  0.8229 -0.5351 -0.4613
  808MPD2    C411898   1.472   2.048   8.942 -0.1983 -0.3895 -0.1027
  808MPD2    C511899   1.434   1.955   8.846  0.0976  0.4070  0.4694
  808MPD2     H11900   1.610   1.835   9.157  0.8488  2.6037  0.5378
  808MPD2    H111901   1.456   2.153   8.922  0.6622 -0.2499 -0.0741
  808MPD2    H211902   1.391   1.757   8.805 -1.9937 -1.5944  2.3136
  808MPD2    H311903   1.390   1.975   8.749  2.1778 -1.2352 -0.8111
  808MPD2     N11904   1.585   2.106   9.146  0.0012  0.4394  0.3914
  808MPD2    H511905   1.546   2.198   9.133 -2.8229 -0.8925 -0.4327
  808MPD2    N111906   1.505   1.642   9.020 -0.4218 -0.7998 -0.3577
  808MPD2    H711907   1.554   1.607   9.102 -1.7432 -0.0006  0.7615
  809MPD2     C11908   2.105   2.584   8.756 -0.8265 -0.0133  0.8440
  809MPD2    C111909   2.158   2.544   8.878  0.1868  0.7299  0.4014
  809MPD2    C211910   2.085   2.517   8.986 -0.1174 -0.4704 -0.2818
  809MPD2    C311911   1.945   2.527   8.981  0.2219  0.7855 -0.3753
  809MPD2    C411912   1.887   2.556   8.860  0.2393 -0.0193 -0.7464
  809MPD2    C511913   1.972   2.583   8.750 -0.5001 -0.0626  0.4774
  809MPD2     H11914   2.135   2.481   9.075  1.2344  2.0053 -0.0359
  809MPD2    H111915   1.779   2.554   8.847  0.4443 -0.1464 -2.4022
  809MPD2    H211916   2.159   2.610   8.666  1.4570 -1.4629  1.8075
  809MPD2    H311917   1.935   2.602   8.649  0.8578 -0.5422 -0.1086
  809MPD2     N11918   1.859   2.504   9.089 -0.1921 -0.3095  0.1372
  809MPD2    H511919   1.758   2.509   9.077 -0.0949 -1.0556 -0.9246
  809MPD2    N111920   2.297   2.542   8.899 -0.1604 -0.1404 -0.1769
  809MPD2    H711921   2.342   2.495   8.976 -0.4760  0.2331  0.2355
  810MPD2     C11922   2.013   4.294  10.470  0.1849 -0.4894  0.0757
  810MPD2    C111923   1.943   4.300  10.345 -0.1700 -0.7096 -0.1458
  810MPD2    C211924   2.012   4.330  10.231  0.3527 -0.4223 -0.3755
  810MPD2    C311925   2.137   4.371  10.233 -0.3098 -0.3192 -0.0518
  810MPD2    C411926   2.207   4.367  10.352 -0.1848 -0.2691 -0.1134
  810MPD2    C511927   2.143   4.327  10.466 -0.5242 -0.8377 -0.5704
  810MPD2     H11928   1.968   4.319  10.132  1.2290 -0.9919 -0.7019
  810MPD2    H111929   2.303   4.418  10.355 -0.9275  0.9117  3.5512
  810MPD2    H211930   1.966   4.269  10.564  2.7999 -1.7799  1.0427
  810MPD2    H311931   2.202   4.327  10.557 -0.5732 -1.8692 -0.5376
  810MPD2     N11932   2.200   4.441  10.124 -0.0363  0.8300  0.2388
  810MPD2    H511933   2.294   4.478  10.133 -0.6064  2.4337 -0.3884
  810MPD2    N111934   1.804   4.270  10.351  0.1647 -0.1813  0.0525
  810MPD2    H711935   1.771   4.251  10.445  1.5939  1.4308  0.8877
  811MPD2     C11936   0.918   4.438  10.199  0.0695  0.0484 -0.5213
  811MPD2    C111937   1.047   4.454  10.164  0.5559  0.2817 -0.2626
  811MPD2    C211938   1.085   4.583  10.118 -1.1100 -0.0812  0.3630
  811MPD2    C311939   0.995   4.682  10.105  0.7404  0.4772  0.1266
  811MPD2    C411940   0.872   4.668  10.157 -0.4804  0.1989  0.1071
  811MPD2    C511941   0.834   4.548  10.202  0.0455 -0.0178  0.1394
  811MPD2     H11942   1.186   4.611  10.092 -0.3554 -1.5465  1.7331
  811MPD2    H111943   0.791   0.016  10.164  0.4601  1.4623 -1.6611
  811MPD2    H211944   0.888   4.346  10.247 -1.2392 -0.1811 -1.8014
  811MPD2    H311945   0.732   4.533  10.236  0.2831 -0.3404  0.6980
  811MPD2     N11946   1.031   0.077  10.030  0.4329 -0.6384  0.7775
  811MPD2    H511947   1.119   0.077   9.979  0.5809  2.1760  1.0385
  811MPD2    N111948   1.145   4.355  10.195 -0.4151  0.1536 -1.1016
  811MPD2    H711949   1.117   4.273  10.248  1.0454 -0.2816 -0.9905
  812MPD2     C11950   0.705   0.096  11.770 -0.3896  0.1245 -0.4784
  812MPD2    C111951   0.670   0.139  11.901  0.0027 -0.2889 -0.0982
  812MPD2    C211952   0.680   0.053  11.999 -0.7771 -0.6328 -0.9908
  812MPD2    C311953   0.730   4.643  11.985 -0.3158  0.0472 -0.3618
  812MPD2    C411954   0.765   4.606  11.858 -0.4854 -0.3737 -0.2098
  812MPD2    C511955   0.744   4.689  11.752 -0.3749  0.5316 -0.7350
  812MPD2     H11956   0.654   0.086  12.099  0.3540  2.1221 -1.6282
  812MPD2    H111957   0.806   4.507  11.839  0.6256 -0.1402  0.9309
  812MPD2    H211958   0.696   0.154  11.679 -1.9617  2.0469  0.9172
  812MPD2    H311959   0.787   4.650  11.661 -0.5498  0.2878 -0.7108
  812MPD2     N11960   0.759   4.577  12.103 -0.4272 -1.1547 -0.1437
  812MPD2    H511961   0.729   4.622  12.189 -1.7435  2.1158 -2.2896
  812MPD2    N111962   0.645   0.280  11.919  0.9947  0.2396  0.2094
  812MPD2    H711963   0.663   0.342  11.840  0.7659  0.7552  0.5632
  813MPD2     C11964   0.045   1.851  12.700 -0.1063  0.1705 -0.3919
  813MPD2    C111965   0.054   1.963  12.776 -0.3022  0.2350  0.7305
  813MPD2    C211966   4.676   1.984  12.865  0.8026 -0.0812  0.6919
  813MPD2    C311967   4.572   1.897  12.882 -0.5642 -1.3040  0.1469
  813MPD2    C411968   4.575   1.774  12.815  0.1079 -0.0440  0.2180
  813MPD2    C511969   4.676   1.756  12.719  0.0787  0.6394  0.0326
  813MPD2     H11970   4.678   2.070  12.931 -1.6006 -0.1757  0.8864
  813MPD2    H111971   4.502   1.698  12.841  0.8871 -1.4309 -1.6640
  813MPD2    H211972   0.120   1.827  12.626 -1.6275 -0.9715 -1.5607
  813MPD2    H311973   4.681   1.664  12.662 -1.7185  1.0972 -0.8438
  813MPD2     N11974   4.473   1.941  12.972 -0.1282  0.3780 -0.4925
  813MPD2    H511975   4.480   2.037  13.004  2.2676  0.5230 -1.4919
  813MPD2    N111976   0.161   2.053  12.757  0.2681 -0.0348 -0.2665
  813MPD2    H711977   0.154   2.135  12.818 -1.7180 -0.7686  0.4847
  814MPD2     C11978   4.672   2.770  12.192 -0.0214 -0.2725  0.0454
  814MPD2    C111979   4.681   2.904  12.141  0.2125  0.2443 -1.1890
  814MPD2    C211980   0.012   2.999  12.229  0.0507  0.0275  0.3235
  814MPD2    C311981   0.068   2.966  12.346 -0.2232  0.0970 -0.0147
  814MPD2    C411982   0.066   2.838  12.392 -0.3814  0.2727  0.6780
  814MPD2    C511983   0.003   2.735  12.319 -0.1313 -1.0804  0.7369
  814MPD2     H11984   0.011   3.104  12.203  1.6510  0.1217  0.6469
  814MPD2    H111985   0.096   2.818  12.494  0.6006 -0.5830  0.2215
  814MPD2    H211986   4.638   2.684  12.136 -0.3963  1.5307 -2.4783
  814MPD2    H311987   4.712   2.633  12.354  1.6305 -1.9004 -0.9615
  814MPD2     N11988   0.108   3.061  12.448  0.3190 -0.0905 -0.6136
  814MPD2    H511989   0.161   3.036  12.531 -0.2514 -1.5278 -0.6830
  814MPD2    N111990   4.624   2.953  12.018 -0.0308 -0.2053 -0.2317
  814MPD2    H711991   4.659   3.041  11.982  1.2085 -0.8084 -0.4752
  815MPD2     C11992   0.680   1.465  11.897  0.1899  0.6718 -0.7809
  815MPD2    C111993   0.663   1.331  11.858 -0.0745  0.5262 -0.8625
  815MPD2    C211994   0.542   1.262  11.879  0.0365 -0.5079  0.3260
  815MPD2    C311995   0.439   1.339  11.925  0.2233  0.2154 -0.2653
  815MPD2    C411996   0.460   1.464  11.981  0.4165  0.5723  0.2281
  815MPD2    C511997   0.582   1.526  11.974 -1.2674 -0.4403  0.0449
  815MPD2     H11998   0.529   1.162  11.839 -2.4230  0.3982 -1.1528
  815MPD2    H111999   0.386   1.521  12.035  0.8443 -1.2806  2.7998
  815MPD2    H212000   0.772   1.519  11.879  1.5290 -1.1991  0.5199
  815MPD2    H312001   0.585   1.633  11.993 -1.6332 -0.2621 -0.8854
  815MPD2     N12002   0.302   1.297  11.927 -0.1994 -0.0920 -0.1866
  815MPD2    H512003   0.226   1.345  11.975  1.1932  1.5654  0.3649
  815MPD2    N112004   0.779   1.262  11.804  0.2324  0.0385  0.1313
  815MPD2    H712005   0.861   1.319  11.788  0.6964 -1.0270 -1.2844
  816MPD2     C12006   1.210   1.198  17.323  0.1766  0.9540  0.2293
  816MPD2    C112007   1.083   1.174  17.266  0.7376 -0.6848 -0.1632
  816MPD2    C212008   1.071   1.064  17.183 -0.1019  0.3488  0.1566
  816MPD2    C312009   1.176   0.983  17.153  0.3975 -0.9978 -0.2940
  816MPD2    C412010   1.300   1.009  17.215 -0.3312  0.1073 -0.7319
  816MPD2    C512011   1.315   1.120  17.297 -0.0617 -0.2464  0.1243
  816MPD2     H12012   0.970   1.046  17.148  0.4394 -1.8429 -0.3069
  816MPD2    H112013   1.392   0.956  17.196 -0.8953 -0.7973 -0.9591
  816MPD2    H212014   1.226   1.277  17.396 -1.5341  1.2053  0.3356
  816MPD2    H312015   1.407   1.148  17.347  0.3402 -1.0431 -0.1710
  816MPD2     N12016   1.155   0.878  17.058 -0.2097 -0.1875  0.2453
  816MPD2    H512017   1.063   0.879  17.016 -0.6777 -2.1019  1.2748
  816MPD2    N112018   0.984   1.267  17.306 -0.0498  0.8172 -0.0827
  816MPD2    H712019   1.011   1.354  17.351  1.0358 -0.0652  0.9865
  817MPD2     C12020   0.408   2.718   9.828  1.1632 -0.1915 -0.3722
  817MPD2    C112021   0.369   2.657   9.710 -0.1000 -0.9089  0.2424
  817MPD2    C212022   0.267   2.717   9.639  0.0514 -0.4201 -0.0273
  817MPD2    C312023   0.203   2.830   9.681  0.2606  0.2827 -1.1278
  817MPD2    C412024   0.235   2.882   9.805  0.7545 -0.0093  0.3592
  817MPD2    C512025   0.341   2.827   9.871  0.4424  0.7599 -0.4035
  817MPD2     H12026   0.235   2.680   9.542 -0.7486  1.2327 -0.3929
  817MPD2    H112027   0.172   2.951   9.861  1.3916  2.6172 -2.1249
  817MPD2    H212028   0.488   2.689   9.895  0.9684  1.6753  0.6722
  817MPD2    H312029   0.365   2.875   9.965  2.6348  0.5875 -0.8778
  817MPD2     N12030   0.119   2.898   9.589  0.4076 -0.6473 -0.0537
  817MPD2    H512031   0.118   2.854   9.498 -0.7141 -0.0952 -0.2999
  817MPD2    N112032   0.434   2.540   9.653 -0.1691  0.5280 -0.2041
  817MPD2    H712033   0.387   2.500   9.572  0.0278 -0.5448  0.2067
  818MPD2     C12034   3.721   2.352   9.545 -0.3032 -0.2085  0.2035
  818MPD2    C112035   3.642   2.291   9.637  0.4409  0.0013 -0.5366
  818MPD2    C212036   3.660   2.161   9.670  0.3791  0.0003  0.2386
  818MPD2    C312037   3.758   2.086   9.612 -0.2936  0.6926 -0.6951
  818MPD2    C412038   3.842   2.153   9.525  0.5435  0.2795 -0.3423
  818MPD2    C512039   3.820   2.281   9.486 -0.1535  0.3875  0.4596
  818MPD2     H12040   3.583   2.115   9.730  1.3485 -2.6721 -0.5998
  818MPD2    H112041   3.928   2.102   9.484  0.1855 -1.9688  1.7187
  818MPD2    H212042   3.718   2.453   9.505  0.3999 -0.2313  0.0979
  818MPD2    H312043   3.889   2.333   9.421 -1.1407  1.2893  0.1412
  818MPD2     N12044   3.759   1.946   9.646  0.0830  0.5321  0.3226
  818MPD2    H512045   3.688   1.925   9.716  0.9407  1.3010  1.4326
  818MPD2    N112046   3.532   2.360   9.690 -0.1485  0.6930  0.7474
  818MPD2    H712047   3.472   2.303   9.749  1.0336 -2.0038 -0.6229
  819MPD2     C12048   2.283   4.104  15.553  0.0034  0.2616  0.4707
  819MPD2    C112049   2.330   4.008  15.471  0.2468  0.6326 -0.3835
  819MPD2    C212050   2.462   3.964  15.477  0.2185 -0.1529 -0.1322
  819MPD2    C312051   2.545   4.017  15.577  0.0317  0.2124 -0.1824
  819MPD2    C412052   2.490   4.107  15.664  0.2802 -0.0731  0.2474
  819MPD2    C512053   2.360   4.154  15.646 -0.3571  0.0378 -0.0367
  819MPD2     H12054   2.504   3.902  15.399  0.9443  1.0425 -0.6880
  819MPD2    H112055   2.545   4.148  15.748 -2.4415  2.9716  0.5786
  819MPD2    H212056   2.179   4.135  15.542  0.7508  3.1353  1.5526
  819MPD2    H312057   2.330   4.234  15.713  0.3368 -0.7777  1.2562
  819MPD2     N12058   2.677   3.975  15.593  0.9816  0.1599  0.4530
  819MPD2    H512059   2.705   3.904  15.526  0.1667  1.6329 -1.4506
  819MPD2    N112060   2.241   3.964  15.372 -0.1617  0.9291 -0.1247
  819MPD2    H712061   2.152   4.012  15.361 -0.5070  0.2983 -0.0706
  820MPD2     C12062   1.358   4.110  14.970 -0.5290  0.6061  0.2024
  820MPD2    C112063   1.439   4.178  15.051 -0.2888 -0.5913 -0.4179
  820MPD2    C212064   1.558   4.116  15.098 -0.1781  0.4203  0.4845
  820MPD2    C312065   1.584   3.980  15.071  0.1351 -0.1242 -0.3985
  820MPD2    C412066   1.485   3.907  15.001  0.3987 -0.8956 -0.0578
  820MPD2    C512067   1.378   3.974  14.949  0.7754 -0.0356  0.1632
  820MPD2     H12068   1.622   4.168  15.169  0.0027 -0.2097  0.7814
  820MPD2    H112069   1.497   3.801  14.982 -4.5724 -1.4308 -0.0870
  820MPD2    H212070   1.279   4.152  14.909 -0.6837  1.6036  1.0906
  820MPD2    H312071   1.310   3.918  14.885 -2.3485  0.5790  2.9345
  820MPD2     N12072   1.697   3.909  15.122 -0.2165  0.8005 -0.5765
  820MPD2    H512073   1.708   3.814  15.088 -1.7797  0.0100  1.1737
  820MPD2    N112074   1.410   4.316  15.075 -0.2045 -0.7229 -0.0253
  820MPD2    H712075   1.321   4.358  15.047  0.0214  0.1046  0.5037
  821MPD2     C12076   1.488   0.851  12.902 -1.1714  0.4721 -0.9362
  821MPD2    C112077   1.611   0.813  12.961  0.5581  0.5545 -0.0861
  821MPD2    C212078   1.728   0.870  12.913  0.8363  0.0672 -0.4910
  821MPD2    C312079   1.731   0.951  12.799 -0.5071  1.4978 -0.2844
  821MPD2    C412080   1.609   0.985  12.738  0.4877 -0.5238  0.6835
  821MPD2    C512081   1.493   0.930  12.789 -0.3006 -0.5648 -0.3847
  821MPD2     H12082   1.815   0.878  12.978 -0.4961 -0.2252  1.3172
  821MPD2    H112083   1.603   1.042  12.646  0.2672  0.3651  1.2541
  821MPD2    H212084   1.393   0.807  12.933 -0.6587 -0.4045 -0.6054
  821MPD2    H312085   1.401   0.966  12.744 -0.1994  0.6459  0.3761
  821MPD2     N12086   1.846   1.024  12.751  0.1036 -0.0283 -0.0806
  821MPD2    H512087   1.823   1.097  12.685 -0.9634  1.8352  2.3440
  821MPD2    N112088   1.608   0.735  13.079  0.1735 -0.0793  0.0054
  821MPD2    H712089   1.519   0.698  13.111  0.0551 -1.3986 -1.9136
  822MPD2     C12090   2.934   0.620  15.695  0.6218 -0.5880 -0.0327
  822MPD2    C112091   2.913   0.594  15.830  1.0580  0.4132 -0.0640
  822MPD2    C212092   2.822   0.662  15.909 -0.0203 -0.1618  0.3763
  822MPD2    C312093   2.750   0.769  15.853  0.0550  0.1540 -0.0992
  822MPD2    C412094   2.766   0.795  15.720  0.1504 -0.6482 -0.1051
  822MPD2    C512095   2.858   0.726  15.650  0.8738  0.3050  0.7906
  822MPD2     H12096   2.812   0.634  16.013  1.4712  1.7435  1.0236
  822MPD2    H112097   2.694   0.859  15.670 -0.7078 -0.6769  1.1084
  822MPD2    H212098   3.003   0.563  15.634  0.5223  0.1908 -0.8587
  822MPD2    H312099   2.863   0.757  15.546  0.2045  1.3540  1.0712
  822MPD2     N12100   2.676   0.851  15.942  0.7008  0.3552 -0.3460
  822MPD2    H512101   2.652   0.815  16.034  2.2589 -1.2785 -0.5774
  822MPD2    N112102   2.982   0.493  15.899  0.3067  0.8076 -0.6249
  822MPD2    H712103   2.962   0.490  15.998  0.4912  1.1089 -0.5776
  823MPD2     C12104   2.354   1.065  16.695  0.2321  0.3984  0.3927
  823MPD2    C112105   2.415   0.985  16.604  0.3991 -1.1933  0.6029
  823MPD2    C212106   2.457   0.854  16.645 -0.2042  0.2032  0.2127
  823MPD2    C312107   2.451   0.819  16.779  0.7383 -0.2964  0.1618
  823MPD2    C412108   2.383   0.900  16.874  0.0364  0.2679 -0.1891
  823MPD2    C512109   2.323   1.016  16.823  0.6385  0.4314  0.4966
  823MPD2     H12110   2.512   0.791  16.575 -1.2299  0.9549 -1.2460
  823MPD2    H112111   2.369   0.881  16.980 -0.4634 -0.3829 -0.3722
  823MPD2    H212112   2.320   1.166  16.676  2.1478  1.0061  0.2133
  823MPD2    H312113   2.274   1.095  16.880  1.5767 -0.1832  2.1737
  823MPD2     N12114   2.517   0.707  16.829 -0.0737 -0.2208  0.0506
  823MPD2    H512115   2.496   0.671  16.921  0.3224 -0.0884  0.1928
  823MPD2    N112116   2.442   1.039  16.474 -0.5189  0.7913 -0.3958
  823MPD2    H712117   2.439   1.139  16.459  2.0920  0.7528 -1.2428
  824MPD2     C12118   3.293   4.416  15.954 -0.2012  0.4183 -0.0401
  824MPD2    C112119   3.340   4.511  15.869  0.3118  0.6640  0.1397
  824MPD2    C212120   3.420   4.479  15.765 -1.0595 -0.2037 -0.8673
  824MPD2    C312121   3.473   4.346  15.756 -0.4268  0.0349 -0.3383
  824MPD2    C412122   3.424   4.245  15.836  0.1727  0.2110  0.1832
  824MPD2    C512123   3.334   4.288  15.932 -0.4192 -0.4281  0.3604
  824MPD2     H12124   3.460   4.557  15.701  0.9184  0.1268  0.7379
  824MPD2    H112125   3.429   4.138  15.822 -1.4359 -0.1327  2.1190
  824MPD2    H212126   3.212   4.431  16.024  0.0338  2.5465 -0.2254
  824MPD2    H312127   3.275   4.210  15.978 -0.4129 -0.0772  0.9537
  824MPD2     N12128   3.565   4.325  15.652 -0.0742 -0.1052  0.1679
  824MPD2    H512129   3.581   4.403  15.590 -0.7116  0.1044  0.2701
  824MPD2    N112130   3.309   4.643  15.900  0.2375 -0.4290  0.2491
  824MPD2    H712131   3.337   4.713  15.832 -1.2323  0.3184  0.4154
  825MPD2     C12132   3.809   4.280  14.826  0.9008  0.4149  0.6801
  825MPD2    C112133   3.783   4.355  14.945 -0.0786 -0.1268 -0.0005
  825MPD2    C212134   3.758   4.486  14.932  0.3749  0.0379  0.0892
  825MPD2    C312135   3.790   4.551  14.811 -0.7637 -0.3754 -0.2867
  825MPD2    C412136   3.803   4.475  14.692 -0.2132 -0.2483 -0.1508
  825MPD2    C512137   3.815   4.338  14.701  0.2375  0.1296 -0.0142
  825MPD2     H12138   3.736   4.551  15.016  2.1130 -0.1549  0.6932
  825MPD2    H112139   3.811   4.526  14.597 -0.2946  1.8683  0.9590
  825MPD2    H212140   3.843   4.177  14.829  0.2340  0.1133 -2.3350
  825MPD2    H312141   3.849   4.281  14.615  1.7437  1.0404 -0.0291
  825MPD2     N12142   3.808   4.695  14.800 -0.1536 -0.0191  1.2605
  825MPD2    H512143   3.835   0.008  14.709  0.3638  1.4153  1.9842
  825MPD2    N112144   3.775   4.283  15.068 -0.1703 -0.3541  0.9640
  825MPD2    H712145   3.813   4.189  15.073  1.3344  0.1724 -0.6064
  826MPD2     C12146   3.527   0.211  14.036 -0.1869  0.1401 -0.2448
  826MPD2    C112147   3.573   0.280  13.932  0.0495 -0.2172  0.2282
  826MPD2    C212148   3.488   0.345  13.850 -0.3964  0.3549 -0.7968
  826MPD2    C312149   3.353   0.345  13.883 -0.6787 -0.4696 -0.2989
  826MPD2    C412150   3.310   0.279  13.994 -0.6277  0.3661 -0.0475
  826MPD2    C512151   3.400   0.211  14.071  0.6797  0.1435 -0.5334
  826MPD2     H12152   3.524   0.403  13.765  0.2495 -0.3844 -1.0262
  826MPD2    H112153   3.206   0.279  14.023 -0.8197  2.5297 -0.7835
  826MPD2    H212154   3.599   0.163  14.101 -0.7650 -1.3571 -0.7171
  826MPD2    H312155   3.372   0.157  14.161 -1.4261  0.7528 -0.8229
  826MPD2     N12156   3.250   0.410  13.812  0.1872  0.7604 -0.0503
  826MPD2    H512157   3.158   0.414  13.855 -0.0718 -1.1358 -0.4209
  826MPD2    N112158   3.716   0.283  13.915 -0.2440  0.2087  0.2484
  826MPD2    H712159   3.774   0.242  13.988 -1.4339  0.2180  1.1957
  827MPD2     C12160   4.317   1.475   9.587 -0.7470  0.3727 -0.2100
  827MPD2    C112161   4.294   1.372   9.675 -0.2357 -0.0576  0.1927
  827MPD2    C212162   4.174   1.306   9.659  0.6953  1.0072 -0.8486
  827MPD2    C312163   4.079   1.337   9.567 -0.0362  0.1782  0.0488
  827MPD2    C412164   4.103   1.445   9.482 -0.1022 -0.3409 -0.1468
  827MPD2    C512165   4.215   1.517   9.507 -0.8011 -0.4393  1.0695
  827MPD2     H12166   4.147   1.221   9.720 -1.8389 -0.4441 -4.0239
  827MPD2    H112167   4.030   1.478   9.409  0.0435  0.3453  0.0144
  827MPD2    H212168   4.402   1.541   9.594 -0.6103 -0.0680  2.2706
  827MPD2    H312169   4.232   1.606   9.448 -4.0024 -0.1958  0.5051
  827MPD2     N12170   3.959   1.265   9.578  0.8239  0.5479  0.0891
  827MPD2    H512171   3.968   1.187   9.643  2.1459 -0.3094 -1.1221
  827MPD2    N112172   4.393   1.337   9.774 -0.1111 -0.1648 -0.5673
  827MPD2    H712173   4.472   1.399   9.787 -0.5931  0.8243 -2.3950
  828MPD2     C12174   2.958   0.909  12.407  0.6300 -0.3595 -0.3231
  828MPD2    C112175   2.861   0.912  12.304  0.0148  0.1817 -0.5039
  828MPD2    C212176   2.888   0.839  12.191  0.5689 -0.4019  0.1314
  828MPD2    C312177   3.014   0.788  12.158 -0.2596 -0.0196  0.0357
  828MPD2    C412178   3.099   0.780  12.267  0.2360  0.0046 -0.2338
  828MPD2    C512179   3.075   0.834  12.389  0.3887 -0.1144  0.2978
  828MPD2     H12180   2.812   0.831  12.115  0.2890  0.6973  0.2933
  828MPD2    H112181   3.190   0.721  12.264 -1.3686 -2.3885 -1.5104
  828MPD2    H212182   2.946   0.972  12.494 -0.3170  1.5751 -1.8576
  828MPD2    H312183   3.156   0.834  12.461 -2.0910 -0.1520  3.0868
  828MPD2     N12184   3.053   0.731  12.029  0.9576  0.3106 -0.0052
  828MPD2    H512185   3.139   0.678  12.027  0.5418 -0.3750  0.1576
  828MPD2    N112186   2.746   0.990  12.300  0.3427 -0.2231  0.2298
  828MPD2    H712187   2.697   0.995  12.211  0.1548  0.2354  0.3588
  829MPD2     C12188   2.777   1.202  11.574 -0.0411  0.1634 -0.8409
  829MPD2    C112189   2.666   1.276  11.600  0.4228 -0.5117  0.2686
  829MPD2    C212190   2.613   1.273  11.730 -0.4307  0.0922 -0.0266
  829MPD2    C312191   2.670   1.195  11.831  0.3055  0.1273  0.3886
  829MPD2    C412192   2.782   1.121  11.797 -0.4520  0.8732 -0.7002
  829MPD2    C512193   2.828   1.118  11.672 -0.1927 -0.1813 -0.1470
  829MPD2     H12194   2.531   1.340  11.750  0.5085  0.9896  0.8362
  829MPD2    H112195   2.836   1.064  11.871 -0.5503 -0.0723 -1.3550
  829MPD2    H212196   2.822   1.192  11.476  0.6839  0.2201 -0.5208
  829MPD2    H312197   2.912   1.055  11.642  2.2023  3.0549 -0.2989
  829MPD2     N12198   2.629   1.192  11.970  0.4621 -0.6591 -0.5231
  829MPD2    H512199   2.690   1.137  12.030 -0.0274  0.1947  0.7445
  829MPD2    N112200   2.611   1.363  11.505  0.1548  0.1598 -0.3997
  829MPD2    H712201   2.680   1.383  11.434 -1.5677 -0.4559 -2.2410
  830MPD2     C12202   3.505   3.916  15.367 -0.2275  0.8844 -0.1282
  830MPD2    C112203   3.370   3.917  15.336  0.1769 -0.4041  0.1584
  830MPD2    C212204   3.327   3.956  15.209 -0.0713  0.0778 -0.0943
  830MPD2    C312205   3.416   4.008  15.121  0.1447 -0.4615  0.2432
  830MPD2    C412206   3.549   3.999  15.151 -0.7169 -0.5818  0.1323
  830MPD2    C512207   3.596   3.955  15.270  0.3568 -0.1627 -0.0037
  830MPD2     H12208   3.224   3.961  15.176  0.3915 -1.4283 -1.7481
  830MPD2    H112209   3.619   4.042  15.080  0.2081 -1.3897  0.5544
  830MPD2    H212210   3.533   3.884  15.467  0.8241  1.4063 -0.2592
  830MPD2    H312211   3.704   3.961  15.281  0.6255 -1.8162 -1.7780
  830MPD2     N12212   3.378   4.075  15.003 -0.1534 -0.2098 -0.0555
  830MPD2    H512213   3.448   4.112  14.940  0.7223 -1.4020  0.2083
  830MPD2    N112214   3.281   3.886  15.442  0.4536 -0.0469  0.1618
  830MPD2    H712215   3.319   3.877  15.536 -1.5149 -0.1084  0.9438
  831MPD2     C12216   2.993   0.974  16.225 -0.7433  0.0339 -0.9417
  831MPD2    C112217   3.046   0.860  16.173  0.7010 -0.1150  0.1171
  831MPD2    C212218   2.979   0.739  16.215  0.4706 -0.5365 -0.2967
  831MPD2    C312219   2.858   0.737  16.284  0.0839 -0.1752 -0.2223
  831MPD2    C412220   2.821   0.851  16.352  0.4536  0.1134  0.0720
  831MPD2    C512221   2.894   0.965  16.318  0.0533 -0.3405 -0.5882
  831MPD2     H12222   3.008   0.645  16.170  1.2534  0.4179 -1.7849
  831MPD2    H112223   2.740   0.855  16.424 -0.1839  2.7216 -0.7967
  831MPD2    H212224   3.015   1.077  16.200  0.1913 -0.5435 -2.4876
  831MPD2    H312225   2.860   1.059  16.361  1.0735 -0.4283  0.4031
  831MPD2     N12226   2.762   0.630  16.291 -0.7255 -0.0113 -0.2105
  831MPD2    H512227   2.676   0.649  16.342 -0.4536 -1.7270  0.9165
  831MPD2    N112228   3.148   0.873  16.081 -0.0639  0.1296  0.1933
  831MPD2    H712229   3.173   0.964  16.044  1.3318 -0.7163 -0.9447
  832MPD2     C12230   1.471   1.996  16.940  0.5062  0.1545 -0.1625
  832MPD2    C112231   1.424   2.116  16.895 -0.3429 -0.7455 -0.0174
  832MPD2    C212232   1.309   2.113  16.809  0.0120  0.1287 -0.2192
  832MPD2    C312233   1.249   1.992  16.778  0.0987 -0.2198 -0.7731
  832MPD2    C412234   1.295   1.874  16.837  0.0078  0.0576 -0.0614
  832MPD2    C512235   1.407   1.878  16.912 -0.7411 -0.0847 -0.0921
  832MPD2     H12236   1.275   2.203  16.759  1.2016  0.4756 -0.4255
  832MPD2    H112237   1.241   1.783  16.816  1.1247 -0.3569 -1.1277
  832MPD2    H212238   1.553   1.989  17.011 -0.0559 -0.3165  0.4432
  832MPD2    H312239   1.439   1.786  16.959  1.3693 -1.0918 -3.4605
  832MPD2     N12240   1.125   1.981  16.707  0.1534 -0.0363  0.3186
  832MPD2    H512241   1.081   1.890  16.699  1.2889 -0.8518  3.5126
  832MPD2    N112242   1.476   2.236  16.948  0.0576 -0.1086 -0.5960
  832MPD2    H712243   1.545   2.228  17.022  0.6390 -0.2513 -1.1545
  833MPD2     C12244   3.315   3.465  12.522 -0.0189 -0.6163 -0.3150
  833MPD2    C112245   3.340   3.563  12.433 -0.0357 -0.2239 -0.2146
  833MPD2    C212246   3.380   3.529  12.303  0.0502  0.2335 -0.3612
  833MPD2    C312247   3.412   3.398  12.272 -0.5711 -0.3204 -0.4818
  833MPD2    C412248   3.376   3.299  12.360 -0.4270 -0.1087  0.4281
  833MPD2    C512249   3.339   3.332  12.485 -0.0215 -0.0172 -0.1466
  833MPD2     H12250   3.389   3.609  12.230  0.0594  0.4608 -0.1119
  833MPD2    H112251   3.370   3.193  12.338  0.0430 -0.1375  0.4425
  833MPD2    H212252   3.303   3.485  12.628  0.7135  1.2086 -0.5717
  833MPD2    H312253   3.321   3.250  12.554 -0.6527  0.5139  0.3205
  833MPD2     N12254   3.462   3.356  12.147 -0.0699 -0.4985  0.2610
  833MPD2    H512255   3.477   3.256  12.140  1.5338 -0.3383  1.1076
  833MPD2    N112256   3.307   3.693  12.475  0.2567  0.2168  0.0114
  833MPD2    H712257   3.261   3.707  12.564  0.5804  0.3162  0.1653
  834MPD2     C12258   3.084   2.776  11.473  0.0977  0.7420  0.3021
  834MPD2    C112259   3.160   2.842  11.381  0.6619  0.5724  0.8183
  834MPD2    C212260   3.238   2.952  11.417  0.0645 -0.1492  1.0645
  834MPD2    C312261   3.249   2.989  11.550  0.0775  0.3121 -0.2210
  834MPD2    C412262   3.164   2.930  11.637  0.4088  0.9908  0.2980
  834MPD2    C512263   3.082   2.828  11.601  0.3252 -0.3876 -0.4154
  834MPD2     H12264   3.299   3.002  11.342 -2.8101  1.0908 -0.4367
  834MPD2    H112265   3.156   2.967  11.738 -2.3374  1.6325 -0.1582
  834MPD2    H212266   3.015   2.694  11.455 -0.8183  1.0345  2.5472
  834MPD2    H312267   3.016   2.784  11.676 -2.0136  0.0496 -2.2024
  834MPD2     N12268   3.336   3.090  11.598 -0.2956  0.4247 -0.1648
  834MPD2    H512269   3.374   3.151  11.526 -1.6093 -0.4915 -1.6364
  834MPD2    N112270   3.147   2.792  11.247 -0.3333 -0.4643  0.6395
  834MPD2    H712271   3.101   2.702  11.239 -1.4486  0.0574  1.2364
  835MPD2     C12272   3.230   1.210  10.929 -0.0965  0.4469  0.1958
  835MPD2    C112273   3.144   1.310  10.928 -0.2056 -0.3369  0.0442
  835MPD2    C212274   3.125   1.383  11.051  0.4149 -0.7509  0.2450
  835MPD2    C312275   3.188   1.339  11.164 -0.0054 -0.4225  0.1563
  835MPD2    C412276   3.284   1.241  11.155 -0.9520 -0.6187 -0.2449
  835MPD2    C512277   3.305   1.178  11.037 -0.2189  0.2683  0.9202
  835MPD2     H12278   3.057   1.467  11.055 -0.6350 -1.5718 -0.1656
  835MPD2    H112279   3.346   1.209  11.238  0.0725  0.4510 -0.6017
  835MPD2    H212280   3.263   1.161  10.838 -1.1596  0.6660 -0.3103
  835MPD2    H312281   3.388   1.109  11.028 -0.3962  0.0203  1.2130
  835MPD2     N12282   3.167   1.396  11.298 -0.2304 -0.0094 -0.2078
  835MPD2    H512283   3.191   1.335  11.375 -2.6312 -1.7529 -0.8545
  835MPD2    N112284   3.085   1.345  10.807  0.5830 -0.0853 -0.0497
  835MPD2    H712285   3.107   1.293  10.723 -1.0636 -0.5068 -0.2313
  836MPD2     C12286   2.579   1.855  11.285 -0.1073 -0.2345 -0.4638
  836MPD2    C112287   2.599   1.805  11.414 -0.3421  0.3433  0.2572
  836MPD2    C212288   2.491   1.804  11.497  0.1224  0.1576 -0.0529
  836MPD2    C312289   2.372   1.871  11.466 -0.5789  0.2093 -0.0916
  836MPD2    C412290   2.355   1.920  11.342 -0.1510  0.1919 -0.5205
  836MPD2    C512291   2.459   1.907  11.248  0.1591 -0.0191 -0.5960
  836MPD2     H12292   2.506   1.755  11.593  1.2337  1.0545  0.2359
  836MPD2    H112293   2.267   1.975  11.311 -0.2245 -0.2873 -1.1545
  836MPD2    H212294   2.651   1.849  11.205 -0.3783 -0.2293 -0.7102
  836MPD2    H312295   2.436   1.948  11.150  0.0254 -4.0439 -2.2651
  836MPD2     N12296   2.264   1.872  11.559  0.4204  0.2959  0.3889
  836MPD2    H512297   2.175   1.907  11.524 -0.5847 -1.3868  1.2415
  836MPD2    N112298   2.729   1.761  11.454  0.1435  0.7117 -0.0641
  836MPD2    H712299   2.807   1.756  11.390  0.3844 -0.3962  0.3049
  837MPD2     C12300   1.497   0.653  10.098  0.2438  0.0589 -0.9334
  837MPD2    C112301   1.424   0.684   9.986 -0.6068 -0.2799  0.3258
  837MPD2    C212302   1.419   0.811   9.943  0.7327  0.4763 -0.4210
  837MPD2    C312303   1.477   0.914  10.016 -0.4857 -0.6832  0.5675
  837MPD2    C412304   1.548   0.887  10.131 -0.5443 -0.6840  0.3209
  837MPD2    C512305   1.553   0.753  10.175 -0.0606 -0.5805 -0.0720
  837MPD2     H12306   1.363   0.823   9.852 -2.4543 -0.2742  1.4346
  837MPD2    H112307   1.576   0.967  10.199 -4.2250  0.8726  0.0101
  837MPD2    H212308   1.515   0.550  10.124 -3.8985 -0.9745 -2.1277
  837MPD2    H312309   1.606   0.719  10.264  1.2223 -1.1185 -1.0562
  837MPD2     N12310   1.449   1.045   9.968  0.1135 -0.2573  0.0336
  837MPD2    H512311   1.384   1.041   9.890  1.0876  0.9315 -0.8406
  837MPD2    N112312   1.343   0.592   9.912 -0.0163  0.1934 -0.0541
  837MPD2    H712313   1.296   0.633   9.833 -0.3570  1.1947  0.6709
  838MPD2     C12314   4.406   3.916  11.610  0.3584 -0.4007 -0.1250
  838MPD2    C112315   4.420   3.914  11.747  0.7480 -0.5314  1.4718
  838MPD2    C212316   4.343   3.833  11.819 -0.0574  0.1505 -0.4067
  838MPD2    C312317   4.245   3.747  11.760 -0.4100 -0.2136  0.4244
  838MPD2    C412318   4.230   3.745  11.621  0.5845 -0.0211 -1.1720
  838MPD2    C512319   4.321   3.821  11.556  0.9867  0.1986  0.1393
  838MPD2     H12320   4.344   3.838  11.927 -0.7187 -1.0744 -0.3453
  838MPD2    H112321   4.171   3.681  11.558 -0.5598  0.3578 -0.4925
  838MPD2    H212322   4.470   3.960  11.533 -0.7339  0.5925 -0.4606
  838MPD2    H312323   4.333   3.811  11.448  0.3610  1.3381 -0.0224
  838MPD2     N12324   4.170   3.662  11.844  0.1863 -0.0225 -0.0648
  838MPD2    H512325   4.183   3.658  11.944  0.5897 -0.9971 -0.1549
  838MPD2    N112326   4.513   4.002  11.809  0.4873 -0.6065  0.0794
  838MPD2    H712327   4.497   4.034  11.904  1.2165  1.2170 -0.4064
  839MPD2     C12328   4.295   3.345  11.782  0.5960 -0.2071 -0.4423
  839MPD2    C112329   4.296   3.389  11.655 -0.1111  0.6333  0.3155
  839MPD2    C212330   4.405   3.466  11.613 -0.5206  0.2518  0.3154
  839MPD2    C312331   4.507   3.506  11.705 -0.3345 -0.3925  0.7452
  839MPD2    C412332   4.494   3.460  11.830 -0.1262  0.5730  0.5914
  839MPD2    C512333   4.390   3.384  11.873 -0.2043 -1.4232 -0.0313
  839MPD2     H12334   4.403   3.499  11.510 -1.4135 -2.0330 -0.4041
  839MPD2    H112335   4.568   3.481  11.907 -1.2856 -1.8300  2.3413
  839MPD2    H212336   4.214   3.288  11.825  1.1404  1.0820  2.3607
  839MPD2    H312337   4.381   3.351  11.976  1.0051 -0.4637  0.3768
  839MPD2     N12338   4.601   3.610  11.682  0.3059 -0.2155 -0.0915
  839MPD2    H512339   4.662   3.645  11.754  0.1398 -0.8400  0.3547
  839MPD2    N112340   4.195   3.362  11.562 -0.1473  0.4828  0.2617
  839MPD2    H712341   4.192   3.411  11.473 -0.8389  2.2510  1.2595
  840MPD2     C12342   0.032   1.804  10.014  0.0015  0.0223  0.5046
  840MPD2    C112343   0.044   1.694  10.102  0.0119 -0.1847 -0.4434
  840MPD2    C212344   0.128   1.713  10.216 -0.0910 -0.1728 -0.4775
  840MPD2    C312345   0.190   1.834  10.243 -0.1285  0.1865  0.0109
  840MPD2    C412346   0.162   1.942  10.161 -0.0004 -0.2443 -0.5112
  840MPD2    C512347   0.090   1.922  10.046 -0.0300  0.5145  0.2130
  840MPD2     H12348   0.145   1.631  10.285 -1.5023 -1.2100 -1.3535
  840MPD2    H112349   0.194   2.045  10.172  1.7407 -0.9445  1.1506
  840MPD2    H212350   4.688   1.796   9.929  0.0565 -1.5775  0.6103
  840MPD2    H312351   0.076   2.008   9.981 -1.2312  0.7171  0.7319
  840MPD2     N12352   0.270   1.854  10.356 -0.0264 -0.2902 -0.1403
  840MPD2    H512353   0.285   1.953  10.375  0.9346 -0.5256  0.3435
  840MPD2    N112354   4.702   1.570  10.073  0.0823  0.2023 -0.4768
  840MPD2    H712355   4.632   1.578  10.000 -2.2260  1.6853  1.9328
  841MPD2     C12356   3.802   1.709  14.460 -0.0971 -0.1927 -0.7062
  841MPD2    C112357   3.896   1.608  14.436  0.4287  0.0518 -0.1820
  841MPD2    C212358   4.021   1.636  14.396  0.3343 -0.5485 -0.3760
  841MPD2    C312359   4.053   1.756  14.352  0.4716 -0.1094 -0.3859
  841MPD2    C412360   3.957   1.852  14.351 -0.6192 -0.0549  0.0329
  841MPD2    C512361   3.831   1.835  14.408 -0.0438 -0.0112  0.3168
  841MPD2     H12362   4.098   1.562  14.376 -0.1572 -1.2919  0.4567
  841MPD2    H112363   3.964   1.952  14.307 -1.9589 -0.1096 -0.3002
  841MPD2    H212364   3.706   1.699  14.510 -1.0016  0.4543 -2.3150
  841MPD2    H312365   3.764   1.920  14.412  0.5992  0.5599 -0.6834
  841MPD2     N12366   4.188   1.780  14.321 -0.0168  0.2028 -0.0367
  841MPD2    H512367   4.253   1.703  14.327  0.0531  0.0720 -2.8699
  841MPD2    N112368   3.870   1.471  14.469  0.1181  0.5360 -0.5861
  841MPD2    H712369   3.943   1.401  14.457 -1.4273 -1.4226  1.3545
  842MPD2     C12370   4.577   1.888  16.741 -0.2263 -0.1691 -0.2808
  842MPD2    C112371   4.584   2.026  16.749  0.5709 -0.7923  0.2702
  842MPD2    C212372   4.656   2.080  16.853  0.9348  0.3854  0.1046
  842MPD2    C312373   4.711   1.995  16.947  0.0711  0.3923 -0.0451
  842MPD2    C412374   4.707   1.857  16.932  0.4928 -0.0755 -0.2522
  842MPD2    C512375   4.629   1.802  16.835 -0.7208  0.1837  0.5847
  842MPD2     H12376   4.645   2.183  16.887  4.5176  2.0000 -3.6695
  842MPD2    H112377   0.038   1.797  17.005 -1.6790  1.1449  2.3323
  842MPD2    H212378   4.516   1.842  16.664 -0.8116  1.8461 -1.0278
  842MPD2    H312379   4.623   1.695  16.822  1.2707  0.1565 -0.0803
  842MPD2     N12380   0.059   2.047  17.058  0.2747 -0.2868 -0.0463
  842MPD2    H512381   0.082   1.971  17.122  1.8756 -0.3258 -0.6757
  842MPD2    N112382   4.516   2.101  16.653 -0.1461  0.1383 -0.1138
  842MPD2    H712383   4.472   2.048  16.579  0.1172 -0.1778 -0.0423
  843MPD2     C12384   2.087   3.072   0.007 -0.1846  0.9847  0.2895
  843MPD2    C112385   2.122   2.943  17.686 -0.0228  0.2142 -0.5124
  843MPD2    C212386   2.261   2.916  17.688 -0.2943  0.2949  0.2110
  843MPD2    C312387   2.357   3.019  17.687 -0.6472 -0.0788  0.4070
  843MPD2    C412388   2.305   3.143  17.684  0.5267  0.3400 -0.3869
  843MPD2    C512389   2.173   3.170  17.689 -0.1539  0.0709 -0.0145
  843MPD2     H12390   2.291   2.812  17.683 -2.8449 -0.3727 -0.9087
  843MPD2    H112391   2.374   3.227  17.684  0.9787 -0.0195 -3.7967
  843MPD2    H212392   1.983   3.098   0.023 -0.2932  0.7428 -0.0224
  843MPD2    H312393   2.147   3.275  17.685 -0.2637  0.1490  2.2872
  843MPD2     N12394   2.496   3.002  17.687  0.2957  0.0491 -0.2173
  843MPD2    H512395   2.549   3.088  17.687  0.6850 -0.1837  0.8673
  843MPD2    N112396   2.027   2.839  17.678 -0.4134  0.4594 -0.1229
  843MPD2    H712397   1.932   2.859   0.017  0.1325  0.6351  1.4172
  844MPD2     C12398   0.830   1.652  16.257  0.1358 -0.7360 -0.0229
  844MPD2    C112399   0.951   1.587  16.264 -0.4044 -0.1813  0.4657
  844MPD2    C212400   1.064   1.658  16.297 -0.0030 -0.1631 -0.2091
  844MPD2    C312401   1.059   1.799  16.304 -1.0019 -0.6721 -0.6551
  844MPD2    C412402   0.936   1.863  16.295 -0.2464  0.5381 -0.2457
  844MPD2    C512403   0.828   1.786  16.268 -0.4913  0.0834 -0.2977
  844MPD2     H12404   1.167   1.623  16.300  0.1950  0.8202  3.8175
  844MPD2    H112405   0.923   1.969  16.314 -1.8477 -0.0072  1.7427
  844MPD2    H212406   0.732   1.611  16.235  1.0823 -1.7209 -2.4646
  844MPD2    H312407   0.736   1.839  16.245 -0.1700  0.4459 -0.7568
  844MPD2     N12408   1.172   1.869  16.348  0.2863  0.1783 -0.0401
  844MPD2    H512409   1.251   1.806  16.354  0.7370  0.8342  0.8466
  844MPD2    N112410   0.967   1.448  16.241  0.1348  0.0110  0.8677
  844MPD2    H712411   1.062   1.413  16.243 -0.5613 -1.9877 -0.8685
  845MPD2     C12412   1.587   2.790  16.337 -0.2226 -0.0673  0.5028
  845MPD2    C112413   1.489   2.777  16.437  0.2880  0.4305 -0.2265
  845MPD2    C212414   1.444   2.647  16.474  0.3843 -0.0323  0.0720
  845MPD2    C312415   1.502   2.538  16.416  0.3002 -0.1506 -0.2494
  845MPD2    C412416   1.605   2.551  16.324  0.4711 -0.1892 -0.2388
  845MPD2    C512417   1.641   2.677  16.280  0.9419 -0.4209 -0.1882
  845MPD2     H12418   1.364   2.635  16.547  0.1884  1.2815  0.0823
  845MPD2    H112419   1.659   2.470  16.277 -2.3422 -2.1445 -0.1156
  845MPD2    H212420   1.613   2.888  16.301 -1.0001  0.0107  0.1450
  845MPD2    H312421   1.724   2.691  16.211 -0.9083 -0.1568 -2.3918
  845MPD2     N12422   1.469   2.416  16.463  0.4479  0.5578 -0.1523
  845MPD2    H512423   1.386   2.406  16.521  0.7622 -0.0956  0.1843
  845MPD2    N112424   1.433   2.893  16.495  0.1881  0.3534  0.5460
  845MPD2    H712425   1.458   2.980  16.449  0.5051 -0.0841 -0.1079
  846MPD2     C12426   2.325   3.223  13.289 -0.4856  0.5524  0.4832
  846MPD2    C112427   2.456   3.183  13.307 -0.9735  0.2878  0.4542
  846MPD2    C212428   2.483   3.096  13.416  0.1106 -0.2897 -0.2398
  846MPD2    C312429   2.381   3.035  13.487 -0.5841 -0.2566 -0.4551
  846MPD2    C412430   2.252   3.072  13.454 -0.6993  0.1791  0.3453
  846MPD2    C512431   2.224   3.166  13.357  0.7846  0.2833  0.2587
  846MPD2     H12432   2.588   3.084  13.438  0.4970 -0.5894 -2.2083
  846MPD2    H112433   2.168   3.012  13.486 -0.7668  0.7790  1.2769
  846MPD2    H212434   2.297   3.281  13.202  0.9719  4.1565  2.4408
  846MPD2    H312435   2.120   3.193  13.340  0.2683 -1.0656  1.2467
  846MPD2     N12436   2.404   2.933  13.578 -0.5180  0.5939  0.5367
  846MPD2    H512437   2.499   2.919  13.612  0.2977 -0.0531 -1.9596
  846MPD2    N112438   2.565   3.230  13.229 -0.3658  0.5766  0.2580
  846MPD2    H712439   2.657   3.204  13.263  0.2548  0.6068 -1.4123
  847MPD2     C12440   2.952   3.707  13.949  0.2033 -0.1323  0.6079
  847MPD2    C112441   2.968   3.710  14.084  0.3299 -0.0014  0.4629
  847MPD2    C212442   2.860   3.660  14.149 -0.8296 -0.6724 -0.9517
  847MPD2    C312443   2.744   3.610  14.097  0.2553 -0.3439 -0.1479
  847MPD2    C412444   2.738   3.590  13.960 -0.0287 -0.2395  0.2183
  847MPD2    C512445   2.843   3.640  13.890  0.6079  0.1008  0.2452
  847MPD2     H12446   2.870   3.660  14.257 -0.0311  1.1701 -1.0251
  847MPD2    H112447   2.643   3.559  13.920  0.9566 -1.1084 -1.4794
  847MPD2    H212448   3.027   3.746  13.881 -0.3089 -1.1430 -0.5245
  847MPD2    H312449   2.845   3.634  13.782  1.7889  0.4348  0.2428
  847MPD2     N12450   2.646   3.558  14.186  0.2697 -0.0207 -0.2166
  847MPD2    H512451   2.676   3.548  14.283  2.4234 -2.9235 -1.1761
  847MPD2    N112452   3.077   3.763  14.153 -1.2108 -0.6820  0.3908
  847MPD2    H712453   3.066   3.769  14.254 -2.3660 -0.5187  0.2551
  848MPD2     C12454   0.603   2.293  16.119  0.3805  0.6578 -0.0580
  848MPD2    C112455   0.613   2.354  16.246  0.3183 -0.0252  0.2586
  848MPD2    C212456   0.575   2.487  16.264 -0.2023 -0.3209  0.4855
  848MPD2    C312457   0.527   2.565  16.163 -0.0255 -0.4389  0.0459
  848MPD2    C412458   0.514   2.506  16.040 -0.1141 -0.1165 -0.2257
  848MPD2    C512459   0.549   2.371  16.020 -0.4773 -0.3620 -0.2724
  848MPD2     H12460   0.583   2.529  16.363 -0.6046  0.1053  0.3339
  848MPD2    H112461   0.462   2.553  15.958 -0.4149 -0.4992 -0.2554
  848MPD2    H212462   0.634   2.192  16.098 -2.0629 -0.1803  0.4277
  848MPD2    H312463   0.529   2.324  15.924 -1.7705  0.5439 -0.4427
  848MPD2     N12464   0.476   2.699  16.172 -0.3331 -0.4758 -0.1557
  848MPD2    H512465   0.426   2.734  16.091  2.4678  0.0494 -1.6509
  848MPD2    N112466   0.674   2.282  16.357 -0.3301  0.4217 -0.3229
  848MPD2    H712467   0.677   2.319  16.452 -0.7607  0.8768 -0.4854
  849MPD2     C12468   0.653   2.390  13.795  0.4924  0.0052 -0.1745
  849MPD2    C112469   0.680   2.260  13.832  0.0005 -0.1098 -0.0496
  849MPD2    C212470   0.586   2.178  13.894  0.3348 -0.4175 -0.4077
  849MPD2    C312471   0.463   2.238  13.927  1.0471 -0.1328  0.2394
  849MPD2    C412472   0.438   2.368  13.899  0.4465  0.1130  0.6611
  849MPD2    C512473   0.532   2.438  13.827 -1.3136  0.3082 -0.4928
  849MPD2     H12474   0.613   2.076  13.921  1.1714 -0.1092 -0.0811
  849MPD2    H112475   0.344   2.418  13.919 -0.4457 -2.0466  1.9521
  849MPD2    H212476   0.725   2.454  13.745  2.2533 -1.9405 -0.1241
  849MPD2    H312477   0.510   2.540  13.797 -2.4754 -0.2209 -1.4782
  849MPD2     N12478   0.371   2.148  13.997  0.5361  0.3573 -0.6998
  849MPD2    H512479   0.414   2.061  14.027 -2.3583  0.0929  2.6622
  849MPD2    N112480   0.794   2.189  13.793  0.4969  0.4966  0.5682
  849MPD2    H712481   0.805   2.098  13.837 -1.1618  0.4923  0.9496
  850MPD2     C12482   2.384   4.588  14.949  0.2939  0.3131  0.8317
  850MPD2    C112483   2.404   4.693  15.034 -0.2540 -0.5055 -0.3149
  850MPD2    C212484   2.521   0.045  15.014 -0.0302 -0.1168 -0.2456
  850MPD2    C312485   2.611   4.720  14.915 -0.1981  0.4591 -0.1334
  850MPD2    C412486   2.583   4.613  14.829  0.5132  0.0350 -0.1286
  850MPD2    C512487   2.465   4.562  14.835  0.5962  0.0372  0.4032
  850MPD2     H12488   2.536   0.136  15.071 -0.8352 -0.2422  0.1580
  850MPD2    H112489   2.663   4.586  14.761  0.6695 -3.1576  1.3311
  850MPD2    H212490   2.296   4.525  14.958  0.4739 -0.1607 -0.6850
  850MPD2    H312491   2.444   4.475  14.773 -0.4163 -0.3288  1.2554
  850MPD2     N12492   2.739   0.045  14.897  0.0237 -0.2724 -0.5496
  850MPD2    H512493   2.794   4.716  14.829  1.5670 -1.5617  1.6498
  850MPD2    N112494   2.318   4.704  15.148 -0.5706 -0.3527 -0.5814
  850MPD2    H712495   2.227   4.665  15.126 -1.7022  0.1981  3.1198
  851MPD2     C12496   3.163   4.677  15.362  0.5676 -0.9512  0.6764
  851MPD2    C112497   3.050   4.654  15.286  0.5528 -0.0693  0.2646
  851MPD2    C212498   3.062   4.602  15.161  0.2390  0.3234 -0.4687
  851MPD2    C312499   3.188   4.574  15.111 -0.1283 -0.5573 -0.8844
  851MPD2    C412500   3.299   4.602  15.185 -0.4196  0.0274  0.1770
  851MPD2    C512501   3.287   4.642  15.313 -0.0448 -0.4121 -0.0878
  851MPD2     H12502   2.973   4.581  15.103 -1.3420  1.8734  1.4157
  851MPD2    H112503   3.403   4.587  15.157 -0.2712 -1.7767  1.6507
  851MPD2    H212504   3.150   4.719  15.461 -0.9775 -1.2337  0.5899
  851MPD2    H312505   3.379   4.661  15.366 -1.2658  0.1406  1.8178
  851MPD2     N12506   3.198   4.509  14.990 -0.5520 -0.0565 -1.1392
  851MPD2    H512507   3.114   4.464  14.956  0.8040 -0.9061 -3.4380
  851MPD2    N112508   2.923   4.698  15.335 -0.1903  0.5166 -1.0284
  851MPD2    H712509   2.929   0.050  15.404  1.7833 -1.0343  0.4637
  852MPD2     C12510   1.932   3.663   9.752  0.2347 -0.3617  0.2062
  852MPD2    C112511   2.016   3.581   9.825  0.2159 -0.1203 -0.1496
  852MPD2    C212512   2.134   3.623   9.873  0.1151 -0.1617 -0.0610
  852MPD2    C312513   2.178   3.747   9.839  0.2215 -0.4518  0.2277
  852MPD2    C412514   2.102   3.829   9.760 -0.3685  0.7978 -0.6920
  852MPD2    C512515   1.981   3.788   9.720 -0.0638 -0.6631 -0.1300
  852MPD2     H12516   2.190   3.557   9.937  2.3120  0.4817 -1.3335
  852MPD2    H112517   2.128   3.929   9.727  2.6225 -0.0333 -0.8079
  852MPD2    H212518   1.836   3.630   9.714 -0.7449 -0.2200  2.5534
  852MPD2    H312519   1.918   3.848   9.656 -0.6092 -1.0580  0.0298
  852MPD2     N12520   2.314   3.772   9.876  0.6768 -0.9618 -0.2176
  852MPD2    H512521   2.353   3.698   9.934  2.1387 -0.9882 -1.2205
  852MPD2    N112522   1.982   3.446   9.852  0.3150 -0.1868 -0.0739
  852MPD2    H712523   2.059   3.402   9.902  2.2164  2.5186 -0.5884
  853MPD2     C12524   4.319   2.490  12.342 -0.6660  0.2065  0.3491
  853MPD2    C112525   4.199   2.543  12.297  0.1848  0.1818  0.0018
  853MPD2    C212526   4.157   2.505  12.176 -0.2046 -0.4120  1.0893
  853MPD2    C312527   4.221   2.407  12.101 -0.9264  0.7465  0.7286
  853MPD2    C412528   4.329   2.342  12.160  0.1196  0.1926 -0.5317
  853MPD2    C512529   4.380   2.387  12.276  0.1480  0.4803 -0.1300
  853MPD2     H12530   4.068   2.554  12.137  2.7703  3.4147 -0.9676
  853MPD2    H112531   4.387   2.271  12.102 -0.9188 -2.3597  1.5086
  853MPD2    H212532   4.370   2.528  12.429 -2.0281  1.7422  0.4791
  853MPD2    H312533   4.473   2.340  12.304 -0.2283 -1.2456 -1.7525
  853MPD2     N12534   4.191   2.365  11.970 -0.2872  0.3492  0.4477
  853MPD2    H512535   4.247   2.292  11.927  0.5526 -0.2678  2.5915
  853MPD2    N112536   4.130   2.633  12.384  0.1087 -0.2789  0.2164
  853MPD2    H712537   4.169   2.643  12.477  1.4848 -0.6752 -0.3299
  854MPD2     C12538   1.648   2.938  12.741  0.8329 -0.0422  0.6969
  854MPD2    C112539   1.551   2.865  12.804  1.0708  0.8728 -0.4092
  854MPD2    C212540   1.581   2.745  12.864  0.1604  0.8895  0.1286
  854MPD2    C312541   1.710   2.704  12.863  0.1258  0.2940  0.6487
  854MPD2    C412542   1.809   2.785  12.813 -0.0035 -0.0017 -0.3740
  854MPD2    C512543   1.777   2.901  12.757 -0.2903 -0.6670  0.3523
  854MPD2     H12544   1.505   2.681  12.909  0.8764  1.1870  1.7644
  854MPD2    H112545   1.915   2.762  12.806  0.7299  2.1962  3.6289
  854MPD2    H212546   1.629   3.031  12.688  1.4316 -0.2656  0.0900
  854MPD2    H312547   1.852   2.970  12.721 -0.0613 -0.5461  1.0628
  854MPD2     N12548   1.747   2.577  12.914  0.4390  0.3414  0.3603
  854MPD2    H512549   1.673   2.511  12.934  0.4418  0.6951  1.5520
  854MPD2    N112550   1.421   2.918  12.818  0.5541 -0.1421  0.5840
  854MPD2    H712551   1.363   2.854  12.873  0.5240 -0.5465  0.0895
  855MPD2     C12552   2.362   2.271  13.572 -0.3861  0.5539 -0.5543
  855MPD2    C112553   2.261   2.179  13.562 -0.1982  0.1063  0.4574
  855MPD2    C212554   2.206   2.164  13.436  0.0754  0.3142  0.6761
  855MPD2    C312555   2.235   2.238  13.328  0.0257 -0.0148 -0.2888
  855MPD2    C412556   2.336   2.332  13.342  0.1510  0.0531  0.5885
  855MPD2    C512557   2.396   2.351  13.464  0.0732 -0.7551 -0.5525
  855MPD2     H12558   2.128   2.090  13.424  0.7873 -0.2979 -0.1654
  855MPD2    H112559   2.367   2.391  13.257 -0.0074  0.1169  0.5743
  855MPD2    H212560   2.413   2.285  13.666 -1.0208  1.0357 -0.2810
  855MPD2    H312561   2.468   2.431  13.479 -1.2466  0.1152  1.0946
  855MPD2     N12562   2.170   2.238  13.208  0.1659  0.6635  0.7790
  855MPD2    H512563   2.181   2.305  13.133  0.5006 -1.3294 -0.9812
  855MPD2    N112564   2.199   2.121  13.670 -0.3694  0.2386 -0.4566
  855MPD2    H712565   2.113   2.076  13.642  0.2461 -2.6015  2.1595
  856MPD2     C12566   3.906   3.341  13.617  0.2099  1.1675 -0.6475
  856MPD2    C112567   3.982   3.457  13.607 -0.3632  0.1432 -0.1828
  856MPD2    C212568   3.912   3.569  13.560  0.4038 -0.4454 -0.0859
  856MPD2    C312569   3.774   3.572  13.542  0.3795  0.3641 -0.0739
  856MPD2    C412570   3.699   3.458  13.566  0.1294 -0.0098 -0.6292
  856MPD2    C512571   3.771   3.341  13.595 -0.4059 -0.0607 -0.6514
  856MPD2     H12572   3.975   3.656  13.550  1.0099 -1.0722 -1.7892
  856MPD2    H112573   3.593   3.452  13.544  0.0178  1.1078 -0.3668
  856MPD2    H212574   3.955   3.252  13.655 -1.0069 -0.5114 -3.0384
  856MPD2    H312575   3.715   3.249  13.604 -0.0810 -0.2751 -0.8137
  856MPD2     N12576   3.696   3.681  13.499 -0.2960 -0.4803 -0.1530
  856MPD2    H512577   3.596   3.665  13.504 -0.6217  1.3669 -0.8272
  856MPD2    N112578   4.114   3.471  13.637 -0.1604 -0.0008  0.1544
  856MPD2    H712579   4.156   3.561  13.616 -2.8004  0.9162 -1.2198
  857MPD2     C12580   0.403   0.681  12.659  0.0120 -0.0418 -0.4375
  857MPD2    C112581   0.524   0.685  12.590  0.2505  0.2614 -0.1971
  857MPD2    C212582   0.608   0.796  12.609 -0.2661  0.0087 -0.6741
  857MPD2    C312583   0.558   0.910  12.671  0.0187  0.1136 -0.3870
  857MPD2    C412584   0.433   0.903  12.730  0.0715  0.0815  0.5778
  857MPD2    C512585   0.361   0.786  12.731  0.1442  0.3309 -0.3167
  857MPD2     H12586   0.713   0.785  12.587 -0.1828  1.4515 -1.0045
  857MPD2    H112587   0.403   0.990  12.788  1.9265  2.1107 -1.4877
  857MPD2    H212588   0.345   0.589  12.658 -0.7012  0.3946  2.9175
  857MPD2    H312589   0.265   0.784  12.781  1.1045  1.7271  1.5536
  857MPD2     N12590   0.627   1.027  12.696 -0.1528 -0.0384 -0.1577
  857MPD2    H512591   0.593   1.093  12.765 -0.4302  1.3121 -1.5902
  857MPD2    N112592   0.564   0.560  12.524 -0.0370 -0.8362  0.1160
  857MPD2    H712593   0.499   0.482  12.529  1.2574 -1.9519 -0.4663
  858MPD2     C12594   1.252   4.507  16.746  0.3110 -0.4819 -0.1376
  858MPD2    C112595   1.378   4.449  16.752 -0.1037 -0.6401  0.3222
  858MPD2    C212596   1.470   4.486  16.848  0.1421  0.3377  0.0097
  858MPD2    C312597   1.435   4.574  16.940  0.4514 -0.1364  0.2506
  858MPD2    C412598   1.314   4.634  16.942  0.0083  0.2454  0.1531
  858MPD2    C512599   1.224   4.599  16.848 -0.1297  0.2286 -0.6893
  858MPD2     H12600   1.565   4.435  16.852  0.6083  1.1681 -0.5267
  858MPD2    H112601   1.290   4.719  17.006  1.1280  0.1707  0.6705
  858MPD2    H212602   1.181   4.469  16.673  3.2520 -2.7394 -1.8425
  858MPD2    H312603   1.135   4.660  16.831 -0.9255 -1.3411 -2.1702
  858MPD2     N12604   1.527   4.628  17.039  0.0017 -0.0132  0.3924
  858MPD2    H512605   1.489   4.672  17.123 -1.2996 -1.6665  0.6780
  858MPD2    N112606   1.418   4.352  16.661 -0.1551  0.4773 -0.2849
  858MPD2    H712607   1.514   4.318  16.657 -0.0320  0.7586  0.2790
  859MPD2     C12608   4.045   1.569  14.849 -0.5801 -0.0671 -0.6165
  859MPD2    C112609   4.160   1.570  14.773 -0.5428 -0.0810  0.4171
  859MPD2    C212610   4.195   1.459  14.699  0.0514  0.3080  0.2302
  859MPD2    C312611   4.118   1.345  14.707  0.5343 -0.5458 -0.3184
  859MPD2    C412612   4.011   1.337  14.797  0.3355  0.1540 -0.3570
  859MPD2    C512613   3.966   1.455  14.853  0.1077 -0.8613  0.1305
  859MPD2     H12614   4.275   1.466  14.626 -1.1078  2.5855 -0.8071
  859MPD2    H112615   3.953   1.245  14.799  0.0682  0.3173 -0.6799
  859MPD2    H212616   4.010   1.650  14.911  1.3567  0.7443 -0.5879
  859MPD2    H312617   3.878   1.450  14.916 -1.4520  1.5946 -1.8353
  859MPD2     N12618   4.161   1.228  14.639  0.9482 -0.0816  0.1949
  859MPD2    H512619   4.128   1.140  14.675 -0.6373 -0.4510 -2.1714
  859MPD2    N112620   4.237   1.687  14.781  0.3232  0.7560 -0.1441
  859MPD2    H712621   4.195   1.776  14.808 -0.0748 -0.3278  2.8749
  860MPD2     C12622   2.488   2.215  11.458 -0.3712  0.6784  0.4674
  860MPD2    C112623   2.491   2.177  11.590 -0.2495 -0.1021  0.2555
  860MPD2    C212624   2.371   2.186  11.653  0.0528  0.4962  0.1045
  860MPD2    C312625   2.259   2.223  11.598  0.1349  0.4301 -0.1935
  860MPD2    C412626   2.259   2.262  11.464  0.3489  0.2350  0.8679
  860MPD2    C512627   2.375   2.242  11.395  0.7682 -0.3924 -0.4174
  860MPD2     H12628   2.373   2.164  11.759 -0.6425 -1.4739 -0.3073
  860MPD2    H112629   2.178   2.311  11.412  1.1835 -1.7702 -2.3389
  860MPD2    H212630   2.579   2.207  11.399  1.0519 -1.1892  2.8842
  860MPD2    H312631   2.386   2.276  11.292 -2.0457 -0.3189 -0.7051
  860MPD2     N12632   2.150   2.241  11.686 -0.3413  0.0284  0.0117
  860MPD2    H512633   2.160   2.238  11.787  0.0547  0.6720 -0.0061
  860MPD2    N112634   2.609   2.139  11.663  0.6943 -0.9857 -0.4856
  860MPD2    H712635   2.595   2.100  11.756 -2.9252  2.7881  0.5398
  861MPD2     C12636   1.418   0.488  10.823  0.2798 -0.3208 -0.2133
  861MPD2    C112637   1.309   0.447  10.897  0.6175  1.1995  0.4257
  861MPD2    C212638   1.182   0.460  10.838  0.0323  0.3654  0.0547
  861MPD2    C312639   1.166   0.531  10.718 -0.2558 -0.8365 -0.7937
  861MPD2    C412640   1.272   0.577  10.646 -0.3010  0.4751 -0.2648
  861MPD2    C512641   1.395   0.558  10.706  0.0480 -0.5120 -0.0418
  861MPD2     H12642   1.094   0.422  10.889  0.3928 -1.6436 -0.8546
  861MPD2    H112643   1.265   0.630  10.552  1.9180 -0.1816 -0.7867
  861MPD2    H212644   1.518   0.490  10.865 -1.1397 -1.3446  3.2228
  861MPD2    H312645   1.483   0.609  10.670  1.3375 -2.1384  0.8009
  861MPD2     N12646   1.040   0.561  10.658  0.4437  0.6881 -0.1330
  861MPD2    H512647   1.045   0.629  10.583 -1.1361  1.0540  0.1054
  861MPD2    N112648   1.312   0.374  11.019 -0.6173 -0.7379  0.8062
  861MPD2    H712649   1.220   0.348  11.054 -0.7166 -0.1441  0.9885
  862MPD2     C12650   0.326   0.818  10.433 -1.3872  0.1154  0.5921
  862MPD2    C112651   0.451   0.762  10.427 -0.3391  0.1681  0.2632
  862MPD2    C212652   0.467   0.628  10.451  0.4659 -0.1537  0.0336
  862MPD2    C312653   0.366   0.554  10.514 -0.3110  0.1018  0.2557
  862MPD2    C412654   0.241   0.614  10.525  0.0428 -0.0598  0.1079
  862MPD2    C512655   0.226   0.746  10.481 -0.1752  0.4791  0.2274
  862MPD2     H12656   0.569   0.594  10.436  0.6279  0.6504 -0.6810
  862MPD2    H112657   0.156   0.558  10.561 -1.0190  0.6029 -1.3725
  862MPD2    H212658   0.304   0.919  10.399  2.2602  0.8697  0.4415
  862MPD2    H312659   0.132   0.797  10.501  0.8270  1.2625  2.9022
  862MPD2     N12660   0.384   0.416  10.567  0.4050  0.1844  0.1913
  862MPD2    H512661   0.311   0.364  10.616  0.2470 -0.5689 -0.8378
  862MPD2    N112662   0.560   0.839  10.382 -0.3127  0.2475  1.1081
  862MPD2    H712663   0.531   0.933  10.356 -1.4139 -0.7282 -1.1887
  863MPD2     C12664   4.460   4.252  17.455 -0.2392 -0.2047 -0.2038
  863MPD2    C112665   4.459   4.115  17.423  0.4391 -0.2840 -0.0132
  863MPD2    C212666   4.563   4.032  17.457 -0.3467 -0.1723  0.5149
  863MPD2    C312667   4.673   4.080  17.522 -0.8782 -0.4225  0.2471
  863MPD2    C412668   4.676   4.217  17.553  0.8771 -0.1728 -0.2502
  863MPD2    C512669   4.570   4.302  17.518  0.2871 -0.2837 -0.4659
  863MPD2     H12670   4.565   3.926  17.437  0.4838 -0.9169  4.4844
  863MPD2    H112671   0.044   4.258  17.596  1.4363 -1.8195  0.1310
  863MPD2    H212672   4.375   4.319  17.443 -0.8111 -0.6033  1.5989
  863MPD2    H312673   4.583   4.407  17.541 -2.0728  0.0122 -0.4962
  863MPD2     N12674   0.065   4.000  17.554  0.7852 -0.2301 -0.0677
  863MPD2    H512675   0.129   4.060  17.607  0.9104 -1.1570  0.8435
  863MPD2    N112676   4.344   4.063  17.352  0.5428 -0.4797  0.4219
  863MPD2    H712677   4.272   4.133  17.339 -1.1369 -1.9869  1.6827
  864MPD2     C12678   0.467   0.575  17.248 -0.2541  0.0536 -0.1224
  864MPD2    C112679   0.440   0.463  17.180 -0.1022  0.2700  0.4046
  864MPD2    C212680   0.418   0.471  17.039 -0.0609  0.7898 -0.8893
  864MPD2    C312681   0.428   0.596  16.973  0.4328 -0.1841  0.3919
  864MPD2    C412682   0.460   0.705  17.055  0.6106  0.2232  0.2882
  864MPD2    C512683   0.471   0.696  17.192 -0.4674  0.0393 -1.1540
  864MPD2     H12684   0.400   0.376  16.989  0.9218 -0.3189  0.8655
  864MPD2    H112685   0.456   0.804  17.010 -0.3846 -0.6815 -1.6028
  864MPD2    H212686   0.494   0.577  17.353 -1.4050 -0.9422  0.1826
  864MPD2    H312687   0.508   0.783  17.246 -1.0857 -0.0473 -0.5763
  864MPD2     N12688   0.436   0.605  16.828  0.5026  0.2929 -0.0594
  864MPD2    H512689   0.488   0.687  16.799 -0.6257  1.5282  1.4590
  864MPD2    N112690   0.435   0.343  17.253  0.5025 -0.1423 -0.3114
  864MPD2    H712691   0.458   0.346  17.352  0.6517  0.9098 -0.3828
  865MPD2     C12692   4.648   0.179  16.084 -0.2965  0.1338  0.0611
  865MPD2    C112693   0.009   0.089  16.158  0.8065 -0.2911  0.6449
  865MPD2    C212694   0.095   0.143  16.258 -0.7569 -0.1400  0.0550
  865MPD2    C312695   0.105   0.281  16.269  0.4479 -0.1274  0.6691
  865MPD2    C412696   0.019   0.361  16.207  0.1848 -0.0669 -0.1536
  865MPD2    C512697   4.653   0.314  16.116  0.0843  0.4170 -0.2900
  865MPD2     H12698   0.149   0.091  16.335  3.7241  2.5377 -1.3037
  865MPD2    H112699   0.016   0.469  16.219 -1.8982 -0.1575  0.1543
  865MPD2    H212700   4.584   0.150  16.002 -0.8094 -0.2728  0.5986
  865MPD2    H312701   4.605   0.392  16.058  1.8709  0.7535 -1.3105
  865MPD2     N12702   0.205   0.338  16.348  0.3653  0.2136  0.4481
  865MPD2    H512703   0.196   0.437  16.370 -0.6480  0.8244 -2.8499
  865MPD2    N112704   4.717   4.673  16.133 -0.4473 -0.0060 -0.1851
  865MPD2    H712705   4.644   4.656  16.065  0.8438 -3.1765 -0.7788
  866MPD2     C12706   1.850   0.719  11.205 -0.4302 -0.1930  0.6685
  866MPD2    C112707   1.791   0.678  11.090 -0.3329 -0.2492 -0.2283
  866MPD2    C212708   1.648   0.697  11.073 -0.1387  0.5486  0.3086
  866MPD2    C312709   1.579   0.760  11.175 -0.4390 -0.1223  0.6090
  866MPD2    C412710   1.640   0.783  11.292  1.0011 -0.1927  0.3999
  866MPD2    C512711   1.772   0.764  11.306 -0.2916 -0.3723  0.4682
  866MPD2     H12712   1.591   0.667  10.987  1.4142 -0.0501 -0.4994
  866MPD2    H112713   1.575   0.814  11.373  0.8199 -0.9843  0.5558
  866MPD2    H212714   1.949   0.683  11.232 -0.0561  0.9477  0.8053
  866MPD2    H312715   1.812   0.766  11.407  0.5308 -0.8891  0.1505
  866MPD2     N12716   1.434   0.773  11.180 -0.4589  0.4755  0.1420
  866MPD2    H512717   1.385   0.786  11.268 -0.0454 -0.1163  0.4652
  866MPD2    N112718   1.874   0.630  10.988  0.6398  0.0257  0.2203
  866MPD2    H712719   1.969   0.601  11.008  0.6630 -0.4658 -0.6047
  867MPD2     C12720   4.388   0.599  17.115  0.1325  0.3618 -0.6183
  867MPD2    C112721   4.437   0.542  17.227  0.1133 -0.4664 -0.2052
  867MPD2    C212722   4.476   0.632  17.325  0.0862  0.5482 -0.4671
  867MPD2    C312723   4.469   0.772  17.314  0.0854 -0.7272 -0.7142
  867MPD2    C412724   4.419   0.826  17.199 -0.8177 -0.6498 -0.7423
  867MPD2    C512725   4.382   0.738  17.100  0.4090 -0.0443  0.5722
  867MPD2     H12726   4.498   0.589  17.422  0.0951  1.9010  0.1461
  867MPD2    H112727   4.416   0.931  17.172  1.1738 -0.2661  0.5395
  867MPD2    H212728   4.361   0.532  17.034  0.0957 -2.1896  1.5287
  867MPD2    H312729   4.361   0.780  17.002  0.3804  0.6286  0.8691
  867MPD2     N12730   4.509   0.871  17.414  0.2667  0.3950  0.2705
  867MPD2    H512731   4.484   0.968  17.405 -0.9606  0.0826  0.3678
  867MPD2    N112732   4.430   0.400  17.242  0.3542 -0.6273  0.3796
  867MPD2    H712733   4.377   0.352  17.170 -0.5380 -0.5822  1.0030
  868MPD2     C12734   1.371   3.729  13.974 -0.4446  0.1257  0.5810
  868MPD2    C112735   1.285   3.740  13.869  0.6707 -0.0806 -0.3187
  868MPD2    C212736   1.151   3.795  13.878  0.3296 -0.3041 -0.1813
  868MPD2    C312737   1.108   3.839  14.001  0.0508  0.4972  0.3698
  868MPD2    C412738   1.191   3.821  14.106 -0.4028  0.1575  0.3550
  868MPD2    C512739   1.321   3.774  14.096  0.0789 -0.3785 -0.3375
  868MPD2     H12740   1.085   3.800  13.792  2.7233  1.7212 -1.9283
  868MPD2    H112741   1.161   3.859  14.203 -1.2289  1.2571 -0.3270
  868MPD2    H212742   1.472   3.691  13.971 -0.9888 -1.2917 -0.0135
  868MPD2    H312743   1.383   3.779  14.185  0.2809 -1.6222 -0.4118
  868MPD2     N12744   0.971   3.889  14.018 -0.5920  0.6001  0.1312
  868MPD2    H512745   0.913   3.894  13.934  2.0749  0.2865 -1.7253
  868MPD2    N112746   1.335   3.706  13.748  0.1992  0.1933 -0.3202
  868MPD2    H712747   1.431   3.673  13.752  0.7536  1.8679  0.0204
  869MPD2     C12748   1.721   2.086   1.489  0.1639 -0.2628  0.2676
  869MPD2    C112749   1.840   2.148   1.528  0.2838 -0.3207 -0.1398
  869MPD2    C212750   1.916   2.223   1.443  0.1185 -0.0566 -0.1202
  869MPD2    C312751   1.858   2.257   1.325  0.5287  0.5176  0.4772
  869MPD2    C412752   1.743   2.205   1.289 -0.3988  1.5402 -0.5187
  869MPD2    C512753   1.672   2.116   1.363  0.5362  0.2248 -0.0556
  869MPD2     H12754   2.001   2.280   1.479  0.1871 -0.2798  0.0701
  869MPD2    H112755   1.695   2.252   1.204 -0.1223  2.3389 -0.2291
  869MPD2    H212756   1.666   2.017   1.551 -0.3908 -1.6581 -1.7820
  869MPD2    H312757   1.578   2.081   1.323 -0.6331  2.2096  0.9413
  869MPD2     N12758   1.913   2.346   1.240  0.3846 -0.1031  0.5048
  869MPD2    H512759   1.861   2.368   1.156  0.3238 -0.1668  0.5261
  869MPD2    N112760   1.877   2.121   1.665 -0.3490 -0.0596 -0.5835
  869MPD2    H712761   1.811   2.063   1.715  2.0952 -5.0636 -3.1289
  870MPD2     C12762   1.778   1.244   2.065  0.3465 -0.0310 -0.6062
  870MPD2    C112763   1.817   1.136   1.995  0.6856 -0.0060 -0.0960
  870MPD2    C212764   1.743   1.090   1.892 -0.9429 -0.2514 -0.7058
  870MPD2    C312765   1.627   1.162   1.850 -0.3347  0.1004 -0.0291
  870MPD2    C412766   1.596   1.281   1.911 -0.1158 -0.2630  0.2124
  870MPD2    C512767   1.674   1.316   2.024  0.2176  0.1107 -0.1739
  870MPD2     H12768   1.780   1.010   1.828  3.4032  0.9194  0.3356
  870MPD2    H112769   1.512   1.343   1.882  1.1137  0.8411 -0.9872
  870MPD2    H212770   1.838   1.278   2.148  1.7330  0.4880 -1.8182
  870MPD2    H312771   1.645   1.404   2.081  2.4548  1.3022 -0.8603
  870MPD2     N12772   1.552   1.107   1.744  0.4984  0.3902  0.1830
  870MPD2    H512773   1.584   1.017   1.711  0.0648 -0.8830  3.2122
  870MPD2    N112774   1.942   1.075   2.031  0.1940 -0.3623 -0.2695
  870MPD2    H712775   2.001   1.112   2.104 -0.5419 -1.6012  0.9574
  871MPD2     C12776   2.886   0.189  16.426 -0.1796  0.6057  0.8234
  871MPD2    C112777   2.855   0.140  16.544 -0.2919 -0.1621  0.0194
  871MPD2    C212778   2.824   0.008  16.559 -1.3649  0.6584 -0.9093
  871MPD2    C312779   2.833   4.642  16.459 -0.2309 -0.4668  0.1652
  871MPD2    C412780   2.864   4.689  16.332  0.2154 -0.8722  0.0437
  871MPD2    C512781   2.908   0.101  16.321  0.5157  0.2913  0.2843
  871MPD2     H12782   2.811   4.694  16.661 -0.6478  3.2603  0.1140
  871MPD2    H112783   2.881   4.613  16.257  0.6672 -0.0247 -0.7183
  871MPD2    H212784   2.910   0.293  16.403  3.8067 -0.4454  0.0986
  871MPD2    H312785   2.945   0.145  16.229  0.9437 -0.2309  0.2102
  871MPD2     N12786   2.800   4.508  16.495 -0.3516 -0.0513 -0.4105
  871MPD2    H512787   2.778   4.491  16.593  2.2428  1.0720  0.3395
  871MPD2    N112788   2.856   0.231  16.648 -0.3560  0.8012  0.6359
  871MPD2    H712789   2.873   0.329  16.628 -0.0183  1.2125  2.8445
  872MPD2     C12790   3.826   2.860  13.462 -0.1213  0.1984 -0.3549
  872MPD2    C112791   3.913   2.865  13.568 -0.2231  0.1208 -0.6082
  872MPD2    C212792   3.863   2.830  13.694 -0.8875  1.1170  0.1034
  872MPD2    C312793   3.726   2.804  13.706 -0.2266 -0.5332 -0.3038
  872MPD2    C412794   3.644   2.806  13.598 -0.1131  0.4499 -0.3791
  872MPD2    C512795   3.698   2.830  13.473 -0.2625 -0.0168 -0.1681
  872MPD2     H12796   3.922   2.841  13.784 -0.2853  1.8597 -0.3715
  872MPD2    H112797   3.541   2.780  13.616 -0.5196  1.6636 -0.9301
  872MPD2    H212798   3.871   2.862  13.364 -0.1151  3.8508 -0.2790
  872MPD2    H312799   3.642   2.826  13.380 -1.0038 -0.1260  0.2854
  872MPD2     N12800   3.659   2.767  13.821  0.1903 -0.4524  0.1773
  872MPD2    H512801   3.559   2.782  13.820  0.5314  1.8155  0.3093
  872MPD2    N112802   4.043   2.916  13.549 -0.2581 -0.2293 -0.3886
  872MPD2    H712803   4.098   2.914  13.635  0.4735 -1.5907 -0.8854
  873MPD2     C12804   1.120   3.183   1.415 -0.3433 -0.7973 -0.6719
  873MPD2    C112805   1.253   3.208   1.453  0.1179 -0.1502 -0.1334
  873MPD2    C212806   1.347   3.116   1.412 -0.8378 -0.1162  0.7559
  873MPD2    C312807   1.316   3.012   1.325 -0.0291  0.3320 -0.2658
  873MPD2    C412808   1.191   3.005   1.274  0.3517 -0.7086  0.0007
  873MPD2    C512809   1.097   3.091   1.324 -0.3783  0.0700  0.0168
  873MPD2     H12810   1.452   3.122   1.437 -1.3436  0.2545  2.7507
  873MPD2    H112811   1.158   2.922   1.213  2.8485 -1.8375  0.1950
  873MPD2    H212812   1.042   3.248   1.451 -0.8735 -2.0159  0.3857
  873MPD2    H312813   0.994   3.071   1.296 -1.1388  0.0230  2.8905
  873MPD2     N12814   1.409   2.904   1.299 -0.0908 -0.2290  0.4498
  873MPD2    H512815   1.374   2.841   1.228 -0.2568  0.5912 -0.2036
  873MPD2    N112816   1.282   3.323   1.538  1.1007 -0.1377 -0.4086
  873MPD2    H712817   1.204   3.370   1.583  1.0064  0.2621 -0.9908
  874MPD2     C12818   4.363   2.865  16.101 -0.6130  0.0401 -0.2735
  874MPD2    C112819   4.445   2.770  16.163 -0.6529  0.3175 -0.0557
  874MPD2    C212820   4.581   2.794  16.169 -0.7173 -0.1605  1.3374
  874MPD2    C312821   4.639   2.911  16.131 -0.1061 -0.5362 -0.5382
  874MPD2    C412822   4.556   3.010  16.073  0.4389  0.3807 -0.3493
  874MPD2    C512823   4.419   2.985  16.061  0.2510  0.4054 -0.1466
  874MPD2     H12824   4.654   2.728  16.215  0.2078 -0.0982 -0.0542
  874MPD2    H112825   4.599   3.100  16.030  0.0160  0.6038 -0.3082
  874MPD2    H212826   4.256   2.846  16.099 -0.8969  1.5311  1.6583
  874MPD2    H312827   4.356   3.056  16.009  1.9324  1.9909 -0.0356
  874MPD2     N12828   0.049   2.933  16.163 -0.3503  0.1139  0.0184
  874MPD2    H512829   0.102   2.858  16.208 -2.4100 -0.7276  1.0068
  874MPD2    N112830   4.389   2.658  16.229 -0.2252 -0.0465  0.0196
  874MPD2    H712831   4.291   2.638  16.213 -0.4233  1.0355 -0.0702
  875MPD2     C12832   1.610   1.089  14.744 -0.0294 -0.5946  0.3997
  875MPD2    C112833   1.494   1.089  14.820  1.1482 -0.1178  0.1507
  875MPD2    C212834   1.516   1.118  14.957 -0.1111  0.5596 -0.3834
  875MPD2    C312835   1.632   1.164  15.013 -0.2483 -0.1496  0.4607
  875MPD2    C412836   1.747   1.151  14.936  0.4025 -0.0662  0.1910
  875MPD2    C512837   1.732   1.108  14.807  0.2591 -0.1396  0.1737
  875MPD2     H12838   1.431   1.110  15.024 -1.4294  0.9639 -2.0037
  875MPD2    H112839   1.842   1.183  14.978  1.4175 -0.4536 -1.8112
  875MPD2    H212840   1.602   1.068  14.638 -1.7795 -1.5708  0.7359
  875MPD2    H312841   1.818   1.097  14.742 -0.8319  0.2277 -1.3262
  875MPD2     N12842   1.645   1.200  15.151  0.1892  0.1582 -0.2386
  875MPD2    H512843   1.738   1.227  15.182  0.7256 -1.0729 -0.7789
  875MPD2    N112844   1.369   1.061  14.765 -0.1078 -0.4092  0.0698
  875MPD2    H712845   1.293   1.060  14.831 -0.2238  0.9165 -0.0500
  876MPD2     C12846   0.269   2.313  16.175 -0.2096 -0.4811  0.4453
  876MPD2    C112847   0.235   2.228  16.065 -0.6181  0.7747 -0.1082
  876MPD2    C212848   0.230   2.092  16.072  0.7362 -0.1432  0.8215
  876MPD2    C312849   0.268   2.035  16.192  0.3799  0.1364 -0.3671
  876MPD2    C412850   0.295   2.115  16.301  0.2423  0.1933  0.0381
  876MPD2    C512851   0.297   2.256  16.296 -0.7329  0.7318  0.0182
  876MPD2     H12852   0.213   2.030  15.985 -0.7932  0.2551  0.8409
  876MPD2    H112853   0.322   2.070  16.395  0.4903  0.0124 -0.1209
  876MPD2    H212854   0.275   2.421  16.167  2.0619 -0.6003  0.4311
  876MPD2    H312855   0.338   2.322  16.371  1.0489  2.5775 -2.5698
  876MPD2     N12856   0.269   1.896  16.206  0.3201  0.2586  0.1983
  876MPD2    H512857   0.239   1.841  16.126  3.0024 -1.8702  0.6702
  876MPD2    N112858   0.229   2.291  15.937 -0.5619 -0.5763  0.4721
  876MPD2    H712859   0.239   2.391  15.922 -0.7540 -0.6492 -0.1606
  877MPD2     C12860   0.715   2.696  15.568  0.5823  0.2790 -0.1251
  877MPD2    C112861   0.610   2.683  15.475  0.2125 -1.0632  0.0240
  877MPD2    C212862   0.610   2.748  15.351  0.4429  1.0198  0.8566
  877MPD2    C312863   0.724   2.810  15.312  0.4111  0.5418  0.1572
  877MPD2    C412864   0.837   2.813  15.391  0.0997 -0.3841 -0.1194
  877MPD2    C512865   0.831   2.757  15.521  0.1786 -0.5500  0.3806
  877MPD2     H12866   0.528   2.747  15.280  0.2598 -0.6872  1.0796
  877MPD2    H112867   0.933   2.854  15.362  0.1935 -0.3585  0.2278
  877MPD2    H212868   0.709   2.664  15.671 -1.0343  2.5785  0.4984
  877MPD2    H312869   0.908   2.759  15.598  0.6261  0.9666 -0.1104
  877MPD2     N12870   0.741   2.847  15.178  1.0223 -0.1364  0.5583
  877MPD2    H512871   0.836   2.856  15.142  0.6370  2.1400  0.1329
  877MPD2    N112872   0.496   2.605  15.509  0.1432  0.3504  0.0450
  877MPD2    H712873   0.424   2.614  15.438 -1.3310 -0.3275  1.4697
  878MPD2     C12874   0.785   1.822  12.947  0.4392 -0.0978  0.7373
  878MPD2    C112875   0.742   1.944  12.991 -0.6829  0.5383 -0.1955
  878MPD2    C212876   0.784   1.987  13.125 -0.4119  0.1506 -0.0063
  878MPD2    C312877   0.854   1.896  13.204 -1.0080 -0.0935  0.2894
  878MPD2    C412878   0.891   1.772  13.149  0.2657  0.2491  0.4933
  878MPD2    C512879   0.854   1.736  13.028 -0.3450  0.1871  0.4540
  878MPD2     H12880   0.759   2.085  13.163 -2.7141 -1.5747  2.9592
  878MPD2    H112881   0.939   1.691  13.203 -1.2519 -1.2756 -0.4366
  878MPD2    H212882   0.748   1.786  12.852  3.1877  0.5573 -0.5815
  878MPD2    H312883   0.901   1.648  12.984 -0.9801 -1.9074  3.9577
  878MPD2     N12884   0.875   1.928  13.338 -0.1490 -0.0979 -0.0826
  878MPD2    H512885   0.819   2.007  13.369 -1.1270 -0.9955  0.4327
  878MPD2    N112886   0.674   2.030  12.902  0.0350 -0.0556  0.3949
  878MPD2    H712887   0.655   1.989  12.812  1.2210  0.7716 -0.2416
  879MPD2     C12888   0.579   4.010  17.245 -0.4354  0.2270  0.3261
  879MPD2    C112889   0.598   3.902  17.332  0.3378 -0.5310 -0.1404
  879MPD2    C212890   0.500   3.804  17.330  0.0010 -0.2824 -0.0616
  879MPD2    C312891   0.383   3.816  17.257 -0.7851 -0.2819 -0.6842
  879MPD2    C412892   0.358   3.939  17.196 -0.6014 -0.0353 -0.1976
  879MPD2    C512893   0.459   4.031  17.183  0.5136 -0.3843  0.6580
  879MPD2     H12894   0.522   3.706  17.370  0.4808  0.3305  1.1843
  879MPD2    H112895   0.271   3.956  17.133  0.7079 -0.1263 -2.0143
  879MPD2    H212896   0.646   4.095  17.235 -2.5825  1.8581 -0.1116
  879MPD2    H312897   0.435   4.122  17.128  2.4651 -1.7754 -2.4845
  879MPD2     N12898   0.291   3.711  17.241 -0.6241  0.0171 -0.1583
  879MPD2    H512899   0.223   3.716  17.166  1.2487 -1.0200 -1.8856
  879MPD2    N112900   0.722   3.885  17.394  0.0096  0.6062 -0.2021
  879MPD2    H712901   0.788   3.955  17.362 -0.1262  1.0288  0.4577
  880MPD2     C12902   2.490   0.864   0.561  0.3890 -0.0959 -0.5103
  880MPD2    C112903   2.423   0.749   0.584 -0.6139  0.3025  0.0028
  880MPD2    C212904   2.497   0.634   0.606  0.4065  0.5859 -0.1543
  880MPD2    C312905   2.634   0.642   0.611  0.1392 -0.5138  0.0249
  880MPD2    C412906   2.703   0.764   0.598  0.3798 -1.3672 -0.4261
  880MPD2    C512907   2.629   0.873   0.560 -0.2235 -0.4552 -0.1754
  880MPD2     H12908   2.448   0.537   0.610  0.0044  0.6800 -2.3367
  880MPD2    H112909   2.811   0.767   0.603  0.3938 -1.2844 -0.7723
  880MPD2    H212910   2.441   0.953   0.523  1.4678  0.8266  0.2910
  880MPD2    H312911   2.682   0.964   0.532 -0.9964 -0.1860 -0.7848
  880MPD2     N12912   2.704   0.519   0.623 -0.2029 -0.0016 -0.4129
  880MPD2    H512913   2.642   0.439   0.634  0.1234 -0.0867  0.9118
  880MPD2    N112914   2.281   0.747   0.569  0.0381  0.7130 -0.0276
  880MPD2    H712915   2.240   0.832   0.532  0.4693  0.5854 -0.7868
  881MPD2     C12916   1.879   1.115  17.616 -0.4935  0.8950 -0.2879
  881MPD2    C112917   1.915   0.982  17.607  0.1681  0.3079  0.8171
  881MPD2    C212918   1.948   0.915   0.037 -0.0798 -0.1266  0.0083
  881MPD2    C312919   1.906   0.971   0.158  0.4770  0.0340 -0.5010
  881MPD2    C412920   1.877   1.105   0.157  0.6594 -0.2978  0.6387
  881MPD2    C512921   1.853   1.170   0.039 -0.5779 -0.0603 -0.1057
  881MPD2     H12922   1.982   0.812   0.044  0.1899  0.0229  0.8917
  881MPD2    H112923   1.851   1.158   0.248 -1.1867 -0.7829  0.3762
  881MPD2    H212924   1.852   1.174  17.529 -0.0957 -0.4669 -1.3286
  881MPD2    H312925   1.814   1.271   0.039 -1.7819 -0.5163 -1.6151
  881MPD2     N12926   1.913   0.885   0.270  0.7003  0.1880 -0.2586
  881MPD2    H512927   1.940   0.789   0.254 -2.7907 -1.0686  1.5177
  881MPD2    N112928   1.965   0.944  17.477 -0.1308  0.4100 -0.2350
  881MPD2    H712929   1.943   1.006  17.400 -1.3952  1.3528  0.8828
  882MPD2     C12930   0.572   3.115  14.388  0.0180  0.3990  0.7372
  882MPD2    C112931   0.486   3.012  14.412  0.5255 -0.6177  0.0923
  882MPD2    C212932   0.398   2.969  14.319 -0.4010  0.3224  0.2865
  882MPD2    C312933   0.367   3.055  14.211  0.0407  0.5590  0.3076
  882MPD2    C412934   0.450   3.161  14.186  0.0588 -0.1851 -0.2535
  882MPD2    C512935   0.548   3.194  14.276  0.7476  0.0605  0.2742
  882MPD2     H12936   0.335   2.885  14.345 -1.8508  0.4446 -2.7732
  882MPD2    H112937   0.433   3.233  14.106 -0.3757  0.6927  0.6152
  882MPD2    H212938   0.645   3.155  14.457 -0.0627 -0.1754  1.1487
  882MPD2    H312939   0.615   3.277  14.260  2.1339 -1.2613 -0.7207
  882MPD2     N12940   0.264   3.031  14.116 -0.0520 -0.4979  0.4684
  882MPD2    H512941   0.244   3.108  14.052 -0.8137 -1.7485 -0.7758
  882MPD2    N112942   0.490   2.940  14.535  0.2234  0.0788 -0.3825
  882MPD2    H712943   0.419   2.870  14.549  1.7125 -0.9982  1.7621
  883MPD2     C12944   2.756   3.346  16.380  0.9614 -0.8299 -0.0358
  883MPD2    C112945   2.749   3.210  16.354  0.2597  0.5902  0.0176
  883MPD2    C212946   2.773   3.118  16.451 -0.2164  0.3583  0.1084
  883MPD2    C312947   2.812   3.150  16.578  0.0814 -0.0094  0.7063
  883MPD2    C412948   2.823   3.284  16.600  0.3844  0.0319  0.5082
  883MPD2    C512949   2.796   3.382  16.507  0.3804  0.4092  0.3317
  883MPD2     H12950   2.769   3.013  16.425 -1.0885  0.4863 -0.2747
  883MPD2    H112951   2.855   3.318  16.698  0.9855  0.6323  0.1043
  883MPD2    H212952   2.728   3.427  16.314  1.6483 -0.2126  0.4232
  883MPD2    H312953   2.804   3.486  16.538  0.0750  0.4921  0.1286
  883MPD2     N12954   2.847   3.038  16.659  0.0147  0.2498  0.1264
  883MPD2    H512955   2.827   2.945  16.625 -0.8120  0.6214 -0.4146
  883MPD2    N112956   2.708   3.163  16.227 -0.1364  0.2306 -0.3516
  883MPD2    H712957   2.705   3.061  16.226  0.0415  0.2223 -0.0719
  884MPD2     C12958   4.000   3.606  15.405  0.4583 -0.0183 -0.3479
  884MPD2    C112959   4.048   3.646  15.282  0.4027  0.3633 -0.1633
  884MPD2    C212960   3.962   3.685  15.183  0.1725 -0.4852 -0.0726
  884MPD2    C312961   3.827   3.675  15.200 -0.6410  0.3435 -0.0440
  884MPD2    C412962   3.778   3.637  15.323 -0.0938  0.0637 -0.3223
  884MPD2    C512963   3.866   3.600  15.420 -0.0391 -0.3282 -0.7755
  884MPD2     H12964   3.999   3.725  15.090  2.6967 -0.3815  0.9801
  884MPD2    H112965   3.672   3.635  15.345  0.0328  2.4871  0.4873
  884MPD2    H212966   4.061   3.577  15.489  0.4200  1.9657  0.3800
  884MPD2    H312967   3.830   3.565  15.516  0.4320  1.9730  0.2376
  884MPD2     N12968   3.743   3.696  15.081 -0.8058  0.3806 -0.5231
  884MPD2    H512969   3.785   3.721  14.992 -0.4733 -0.5942 -0.6418
  884MPD2    N112970   4.190   3.657  15.256 -0.1904  0.8500 -0.1620
  884MPD2    H712971   4.223   3.713  15.177  1.8784  1.0320  0.8402
  885MPD2     C12972   2.654   3.839   0.193  0.3243  0.3014  0.1405
  885MPD2    C112973   2.679   3.717   0.135 -0.5631 -0.3575 -0.0702
  885MPD2    C212974   2.689   3.717   0.000 -0.1479 -0.4442  0.6324
  885MPD2    C312975   2.669   3.839  17.613  0.6164 -0.3087 -0.2849
  885MPD2    C412976   2.635   3.956  17.680 -0.1742 -0.1038  0.4907
  885MPD2    C512977   2.625   3.956   0.124  0.1395  0.0726  0.1845
  885MPD2     H12978   2.709   3.625  17.639 -1.9063 -0.5775  0.2207
  885MPD2    H112979   2.611   4.050  17.632  1.9096  0.7616  1.1664
  885MPD2    H212980   2.637   3.833   0.299  2.8256  2.0490  0.6320
  885MPD2    H312981   2.609   4.052   0.171  0.0665 -0.7645  1.8480
  885MPD2     N12982   2.689   3.840  17.476  0.1152 -0.3077  0.2933
  885MPD2    H512983   2.723   3.753  17.435  1.9877  1.2596 -1.4748
  885MPD2    N112984   2.697   3.608   0.218  0.0946 -0.0004 -1.0488
  885MPD2    H712985   2.716   3.626   0.316  1.4239  1.2145 -1.5200
  886MPD2     C12986   3.801   2.851  15.540 -0.5547 -0.5252 -0.1429
  886MPD2    C112987   3.847   2.733  15.491 -0.6527  0.1952  1.0755
  886MPD2    C212988   3.814   2.700  15.356 -0.1355 -0.0463  0.3074
  886MPD2    C312989   3.748   2.793  15.277 -0.8429 -0.2287  0.8515
  886MPD2    C412990   3.708   2.914  15.333  0.2745  0.2481  0.0737
  886MPD2    C512991   3.724   2.933  15.460  0.4592 -0.4692  0.4100
  886MPD2     H12992   3.856   2.607  15.318  1.2962  0.4220  0.7516
  886MPD2    H112993   3.668   2.990  15.268 -0.1882 -0.6570 -0.6935
  886MPD2    H212994   3.815   2.880  15.643  1.4371 -2.6747  0.1862
  886MPD2    H312995   3.670   3.015  15.503  2.1022  0.2734  1.0735
  886MPD2     N12996   3.730   2.792  15.137 -0.4919  0.0765  0.4699
  886MPD2    H512997   3.661   2.857  15.099  0.9320  0.1860 -1.9720
  886MPD2    N112998   3.928   2.647  15.565 -0.6070 -0.4146 -0.4491
  886MPD2    H712999   3.946   2.555  15.527  2.0402 -0.2584  0.4310
  887MPD2     C13000   4.620   2.504  16.024  0.0326 -0.3631 -0.5193
  887MPD2    C113001   4.567   2.566  15.913  0.7116  0.1075 -0.2846
  887MPD2    C213002   4.645   2.655  15.838  0.5576 -0.9188 -0.2414
  887MPD2    C313003   0.062   2.681  15.872  0.0466  0.2014  0.4272
  887MPD2    C413004   0.116   2.610  15.980  0.3836  0.0734 -0.0177
  887MPD2    C513005   0.030   2.528  16.056  0.4804 -0.4136  0.3596
  887MPD2     H13006   4.606   2.717  15.757 -0.5395 -1.0209  0.2154
  887MPD2    H113007   0.221   2.618  16.007 -0.5195  0.7584  3.2859
  887MPD2    H213008   4.554   2.455  16.095  1.1120 -2.8846 -1.2708
  887MPD2    H313009   0.068   2.488  16.150  0.9709  2.1618  1.2580
  887MPD2     N13010   0.137   2.777  15.799 -0.0382 -0.4886 -0.5224
  887MPD2    H513011   0.084   2.817  15.723 -1.0942 -0.2996  0.3055
  887MPD2    N113012   4.428   2.552  15.879  0.3999 -0.4520  0.0006
  887MPD2    H713013   4.385   2.614  15.812  1.1464 -0.6057 -0.6254
  888MPD2     C13014   1.373   2.097  14.741  0.0741  1.0331  0.7225
  888MPD2    C113015   1.449   2.108  14.857  0.3626 -0.5877 -0.8378
  888MPD2    C213016   1.520   2.229  14.878 -0.0923 -0.4443  0.3061
  888MPD2    C313017   1.522   2.330  14.787 -0.5823  0.5012  0.2053
  888MPD2    C413018   1.444   2.319  14.669  0.3265 -0.1470  0.1546
  888MPD2    C513019   1.379   2.200  14.647 -0.0827 -0.0905  0.0488
  888MPD2     H13020   1.574   2.240  14.971  0.6535 -0.0688 -0.1691
  888MPD2    H113021   1.433   2.389  14.587  3.4606 -0.5801 -0.6359
  888MPD2    H213022   1.333   2.003  14.706  1.1583  0.5969  0.6289
  888MPD2    H313023   1.323   2.181  14.556 -1.6233  1.6900  0.6080
  888MPD2     N13024   1.603   2.441  14.818  0.0179  0.2928  0.5828
  888MPD2    H513025   1.646   2.443  14.910  1.0050 -0.3310  0.1424
  888MPD2    N113026   1.440   2.010  14.970  0.5351 -0.3088 -0.2233
  888MPD2    H713027   1.502   2.021  15.050  1.4285  0.4845 -1.0226
  889MPD2     C13028   1.046   1.717  12.482 -0.4951 -0.4675 -0.7362
  889MPD2    C113029   1.081   1.679  12.608  0.4715  0.0769  0.0393
  889MPD2    C213030   1.070   1.772  12.710  0.3670  0.1789 -0.3179
  889MPD2    C313031   1.053   1.903  12.683  0.2662  0.2226  0.2034
  889MPD2    C413032   1.024   1.941  12.551 -0.1461 -0.1820 -0.2196
  889MPD2    C513033   1.018   1.846  12.455 -0.3382 -0.4024 -0.7597
  889MPD2     H13034   1.063   1.738  12.813  0.2065 -0.5190 -0.5598
  889MPD2    H113035   0.998   2.044  12.528  0.5329  0.6156  2.6225
  889MPD2    H213036   1.026   1.643  12.405  0.0608 -0.8896 -0.4679
  889MPD2    H313037   0.987   1.870  12.354  2.6869 -0.9056 -1.8084
  889MPD2     N13038   1.054   1.991  12.794 -0.3715  0.6776  0.3304
  889MPD2    H513039   1.066   1.948  12.885 -0.0755  1.6108  0.7342
  889MPD2    N113040   1.063   1.543  12.651 -0.1214 -0.1850 -0.0358
  889MPD2    H713041   1.076   1.524  12.750 -3.1498 -1.4906  0.1027
  890MPD2     C13042   0.417   3.927  14.596 -0.1792  0.8809 -0.0606
  890MPD2    C113043   0.524   4.013  14.603 -0.6715  0.3329  0.6554
  890MPD2    C213044   0.623   3.988  14.693  0.5082 -0.2761  0.5550
  890MPD2    C313045   0.619   3.886  14.788 -0.5450  0.2420  0.0871
  890MPD2    C413046   0.511   3.799  14.783  0.0885  0.0084 -0.4461
  890MPD2    C513047   0.413   3.820  14.685  0.2106  0.3127 -0.2598
  890MPD2     H13048   0.715   4.045  14.695  0.0087  0.6571 -2.2035
  890MPD2    H113049   0.490   3.717  14.851  2.0891  0.8983  1.2624
  890MPD2    H213050   0.333   3.923  14.527 -1.3787 -1.9822  1.5634
  890MPD2    H313051   0.324   3.759  14.687  0.4440 -0.0440 -0.9154
  890MPD2     N13052   0.726   3.876  14.879  0.1562 -0.0796 -0.2199
  890MPD2    H513053   0.797   3.948  14.879  2.6873 -2.5700  0.9322
  890MPD2    N113054   0.517   4.127  14.517 -0.2919 -0.0767 -0.1542
  890MPD2    H713055   0.444   4.135  14.448 -0.7589 -1.2929  0.2031
  891MPD2     C13056   3.168   2.077  16.381  0.0029 -0.0324 -0.0517
  891MPD2    C113057   3.051   2.124  16.443 -0.9384  0.2237  0.6065
  891MPD2    C213058   3.040   2.105  16.581 -0.2433  0.3689  0.0282
  891MPD2    C313059   3.132   2.029  16.653 -0.6929  0.3390  0.6548
  891MPD2    C413060   3.234   1.966  16.586  0.6522  0.0701  0.8064
  891MPD2    C513061   3.259   2.010  16.460  0.3306  0.0506  0.1789
  891MPD2     H13062   2.956   2.149  16.633  0.2881  0.7827  0.5375
  891MPD2    H113063   3.316   1.923  16.641  0.5551 -0.7636  0.3082
  891MPD2    H213064   3.199   2.092  16.278  1.8176 -0.4508  0.4325
  891MPD2    H313065   3.354   1.973  16.422  0.2363 -1.0633  1.0223
  891MPD2     N13066   3.123   2.021  16.796 -0.4895  0.0693 -0.6001
  891MPD2    H513067   3.067   2.094  16.840  0.6268 -1.4092  3.3179
  891MPD2    N113068   2.954   2.185  16.363 -0.1914 -0.3444  0.1616
  891MPD2    H713069   2.964   2.174  16.263 -1.6339  1.0570 -0.1407
  892MPD2     C13070   4.231   3.448  14.169 -0.1272 -0.0068 -0.3042
  892MPD2    C113071   4.234   3.337  14.237 -0.0156 -0.1578  0.0515
  892MPD2    C213072   4.322   3.237  14.208 -0.1885  0.0262 -0.5361
  892MPD2    C313073   4.414   3.265  14.108  0.3279  0.2856  0.0364
  892MPD2    C413074   4.432   3.390  14.056  0.0163 -0.4363  0.5441
  892MPD2    C513075   4.334   3.482  14.084 -0.0852  0.0923 -0.4976
  892MPD2     H13076   4.316   3.139  14.254 -0.2128 -0.0440 -0.6897
  892MPD2    H113077   4.504   3.413  13.979 -1.9978  0.2303 -1.1388
  892MPD2    H213078   4.158   3.527  14.182 -0.5772 -0.3840 -0.5702
  892MPD2    H313079   4.330   3.574  14.027 -0.5897  0.6432  0.4213
  892MPD2     N13080   4.505   3.165  14.063 -0.3429  0.0228  0.1375
  892MPD2    H513081   4.585   3.181  14.003 -1.2955  2.6642 -0.4139
  892MPD2    N113082   4.135   3.323  14.333  0.3418  0.3661 -0.1498
  892MPD2    H713083   4.062   3.393  14.332  1.6567  1.7381 -0.6281
  893MPD2     C13084   0.679   1.209   1.432 -0.7360 -0.6008  0.3697
  893MPD2    C113085   0.723   1.327   1.483 -0.3252 -1.5031 -0.5132
  893MPD2    C213086   0.641   1.439   1.504 -0.3651 -0.1595 -0.1720
  893MPD2    C313087   0.505   1.431   1.467  0.2714 -0.1648 -0.0103
  893MPD2    C413088   0.462   1.315   1.407 -0.9403  0.0205 -0.7738
  893MPD2    C513089   0.546   1.207   1.393  0.2944  0.1337 -0.2465
  893MPD2     H13090   0.684   1.534   1.535  0.6714 -0.2285 -1.3900
  893MPD2    H113091   0.358   1.294   1.381 -1.5695  1.8795  0.2449
  893MPD2    H213092   0.743   1.122   1.432  1.4053  0.9668 -1.3213
  893MPD2    H313093   0.506   1.111   1.361 -0.4230 -0.1849  1.5844
  893MPD2     N13094   0.400   1.535   1.485  0.0155  1.0624 -0.3690
  893MPD2    H513095   0.309   1.514   1.445  0.7013 -1.4337 -0.6049
  893MPD2    N113096   0.860   1.321   1.516 -0.3906  0.2297 -1.0267
  893MPD2    H713097   0.898   1.227   1.510  0.0497  0.2817  0.8002
  894MPD2     C13098   4.349   0.096   1.079 -0.4797  0.7514  0.3357
  894MPD2    C113099   4.373   0.044   1.203  0.2732 -0.0811  0.1185
  894MPD2    C213100   4.403   4.634   1.211  0.0838 -0.3880  1.1754
  894MPD2    C313101   4.436   4.562   1.100  0.1434  0.4407  0.1995
  894MPD2    C413102   4.410   4.619   0.978 -0.3345 -0.0145  0.6731
  894MPD2    C513103   4.359   0.020   0.969 -0.3297  0.1565 -0.2346
  894MPD2     H13104   4.422   4.591   1.308 -2.7462  1.5504  2.5693
  894MPD2    H113105   4.417   4.570   0.881 -1.2522 -1.4985  1.3496
  894MPD2    H213106   4.310   0.197   1.068 -2.9415  0.0782  2.6234
  894MPD2    H313107   4.341   0.056   0.868  0.0586  0.3436 -0.2399
  894MPD2     N13108   4.487   4.426   1.116  0.6733  0.1676  0.3959
  894MPD2    H513109   4.487   4.400   1.214  1.0468  0.8499  0.5788
  894MPD2    N113110   4.387   0.123   1.321 -0.0625  0.2310 -0.4095
  894MPD2    H713111   4.425   0.070   1.399 -0.0714  1.4833  0.4572
  895MPD2     C13112   3.407   2.208  13.353  0.7792 -0.0009 -0.3168
  895MPD2    C113113   3.309   2.161  13.270  0.0522  1.3189 -0.3351
  895MPD2    C213114   3.297   2.026  13.252  0.1603 -0.3295 -1.1288
  895MPD2    C313115   3.389   1.934  13.301 -0.0286 -0.1184  0.5784
  895MPD2    C413116   3.492   1.985  13.376 -0.2626  0.6309  0.9391
  895MPD2    C513117   3.498   2.120  13.410  0.0106 -0.1402 -0.3287
  895MPD2     H13118   3.226   2.003  13.174 -2.4583 -0.6848  1.3624
  895MPD2    H113119   3.566   1.918  13.418  2.0883  2.8308  0.2734
  895MPD2    H213120   3.413   2.312  13.382 -0.9077 -0.3408  1.2817
  895MPD2    H313121   3.573   2.155  13.480 -0.9329  0.7902  0.2065
  895MPD2     N13122   3.381   1.795  13.254 -1.0304 -0.2476 -0.3396
  895MPD2    H513123   3.299   1.763  13.202  0.3944 -0.3247 -2.5166
  895MPD2    N113124   3.215   2.248  13.206 -0.1289  0.8189  0.0880
  895MPD2    H713125   3.138   2.203  13.156  0.9254 -0.2189 -0.5816
  896MPD2     C13126   1.295   0.194   1.796  0.2432 -0.6063  0.2917
  896MPD2    C113127   1.338   0.113   1.692  0.5143 -0.1869 -0.2234
  896MPD2    C213128   1.253   0.007   1.662 -0.4550  0.2978  0.0041
  896MPD2    C313129   1.130   4.711   1.729 -0.0255  0.4592  0.3077
  896MPD2    C413130   1.091   0.079   1.823  0.4159 -0.5902  0.6531
  896MPD2    C513131   1.179   0.174   1.862  0.4901 -0.1353  1.1765
  896MPD2     H13132   1.286   4.658   1.587  0.2376 -1.3350  1.8667
  896MPD2    H113133   0.999   0.060   1.877  0.5783 -1.7649  0.5122
  896MPD2    H213134   1.353   0.278   1.830 -0.2184 -0.7160  1.3537
  896MPD2    H313135   1.149   0.223   1.953  2.6171  0.6370  1.4816
  896MPD2     N13136   1.050   4.600   1.682  0.5246 -0.3648  0.3914
  896MPD2    H513137   1.095   4.535   1.619 -0.5387  0.1140 -0.8539
  896MPD2    N113138   1.466   0.130   1.646 -1.0144 -0.5350 -0.1965
  896MPD2    H713139   1.520   0.198   1.699  0.2942  0.4011 -2.7177
  897MPD2     C13140   1.863   1.805  10.175 -0.9567 -0.2916  0.2396
  897MPD2    C113141   1.789   1.920  10.215  0.3883 -0.1131 -0.4505
  897MPD2    C213142   1.712   1.901  10.331  0.4811  0.3655  0.4631
  897MPD2    C313143   1.725   1.788  10.407  0.3556 -0.3554  0.4548
  897MPD2    C413144   1.812   1.692  10.378 -0.0904 -0.2266  0.0454
  897MPD2    C513145   1.865   1.694  10.252  0.9039 -0.4350  1.1594
  897MPD2     H13146   1.622   1.960  10.325  0.7750  0.8785  1.0638
  897MPD2    H113147   1.824   1.602  10.437 -3.0884 -0.8046 -0.1818
  897MPD2    H213148   1.907   1.804  10.076 -0.2872 -0.9481  0.5406
  897MPD2    H313149   1.924   1.608  10.222  1.4048  1.0436 -2.0993
  897MPD2     N13150   1.641   1.791  10.519  0.3251 -0.6935  0.0581
  897MPD2    H513151   1.588   1.875  10.540  0.3065 -0.2414 -1.8402
  897MPD2    N113152   1.779   2.033  10.132 -0.1413 -0.4840  0.2284
  897MPD2    H713153   1.822   2.035  10.040  1.9755  0.4312  1.2525
  898MPD2     C13154   4.123   2.173   0.571 -1.6905  0.6823 -0.0830
  898MPD2    C113155   4.229   2.259   0.598 -0.8876 -0.5916  0.4415
  898MPD2    C213156   4.201   2.389   0.640 -0.0044 -0.1627  0.8265
  898MPD2    C313157   4.071   2.435   0.639 -0.9631 -0.4416  0.2361
  898MPD2    C413158   3.964   2.348   0.611  0.2462 -0.5345  0.4372
  898MPD2    C513159   3.993   2.218   0.581 -0.5392 -0.0836 -0.8067
  898MPD2     H13160   4.282   2.456   0.665 -1.2664  1.3968  0.7495
  898MPD2    H113161   3.862   2.381   0.627 -0.2035 -1.0072 -1.3666
  898MPD2    H213162   4.142   2.073   0.533 -1.7909  1.5661 -2.4729
  898MPD2    H313163   3.909   2.156   0.553 -1.4017  2.3066 -3.6116
  898MPD2     N13164   4.054   2.572   0.664  0.1288  0.5422  0.3435
  898MPD2    H513165   4.124   2.625   0.717  2.3537 -1.2230 -0.8317
  898MPD2    N113166   4.367   2.233   0.562 -0.1086 -0.2944 -0.5603
  898MPD2    H713167   4.447   2.292   0.584  1.6473 -2.2668 -1.7203
  899MPD2     C13168   0.329   3.231  17.612 -0.1218 -0.1723 -0.1361
  899MPD2    C113169   0.335   3.313   0.031 -0.1537 -0.0828 -0.3471
  899MPD2    C213170   0.317   3.254   0.161  0.2462 -0.1501  0.3209
  899MPD2    C313171   0.328   3.118   0.176  0.0508 -0.5331 -1.0777
  899MPD2    C413172   0.315   3.037   0.063 -0.1886 -0.1499  0.6297
  899MPD2    C513173   0.312   3.094  17.634  0.2869 -0.1826 -0.4178
  899MPD2     H13174   0.308   3.318   0.247  0.0860 -0.9376  0.8966
  899MPD2    H113175   0.320   2.929   0.067  0.4646 -0.1477 -0.1006
  899MPD2    H213176   0.340   3.257  17.507 -0.3028 -0.4323 -0.2223
  899MPD2    H313177   0.302   3.023  17.553  1.5755  0.7205 -1.3581
  899MPD2     N13178   0.314   3.063   0.305  0.0672 -0.0252 -0.1815
  899MPD2    H513179   0.274   2.970   0.314  3.3884 -1.2066  2.5128
  899MPD2    N113180   0.322   3.451   0.004  0.5946  0.1740  0.5636
  899MPD2    H713181   0.323   3.477  17.599 -0.7181  1.4514  0.8936
  900MPD2     C13182   4.520   4.680  12.450  0.5470  0.6469 -0.3500
  900MPD2    C113183   4.413   4.597  12.424 -0.5154 -0.4834  0.2942
  900MPD2    C213184   4.288   4.659  12.422 -0.2586 -0.4469 -0.3316
  900MPD2    C313185   4.268   0.075  12.442 -0.2173  0.3398 -0.1037
  900MPD2    C413186   4.378   0.150  12.474 -0.5453  0.2051  0.0064
  900MPD2    C513187   4.500   0.096  12.480 -0.0399  0.0099 -0.4113
  900MPD2     H13188   4.195   4.607  12.401 -1.8575  2.9644 -1.7395
  900MPD2    H113189   4.381   0.257  12.490 -1.8670  0.1445  0.6123
  900MPD2    H213190   4.624   4.650  12.447  0.6977  1.0688  0.7649
  900MPD2    H313191   4.589   0.154  12.502  0.6812 -0.4520 -2.1206
  900MPD2     N13192   4.136   0.117  12.431 -0.1537  0.1826 -0.2851
  900MPD2    H513193   4.062   0.055  12.398 -0.5633  2.2655 -3.2359
  900MPD2    N113194   4.433   4.461  12.438  0.3597 -0.4049 -0.0579
  900MPD2    H713195   4.530   4.438  12.455 -0.1235 -2.3295  0.1153
  901MPD2     C13196   4.225   3.533  12.971 -0.3797 -0.5402  0.5717
  901MPD2    C113197   4.345   3.551  12.920  1.0449 -0.8705 -0.0363
  901MPD2    C213198   4.376   3.669  12.855  0.2320 -0.0215  0.0892
  901MPD2    C313199   4.281   3.765  12.823 -0.3906 -0.4450 -1.0272
  901MPD2    C413200   4.158   3.754  12.885 -0.1416  0.4918  0.0204
  901MPD2    C513201   4.134   3.632  12.954 -0.2041 -0.3806  0.8643
  901MPD2     H13202   4.469   3.680  12.802  0.6495  1.5785  1.1597
  901MPD2    H113203   4.082   3.831  12.889  1.1624  1.7845  0.4183
  901MPD2    H213204   4.195   3.439  13.016 -1.1049 -0.8200 -0.5105
  901MPD2    H313205   4.036   3.612  12.995 -0.6694 -2.6626 -1.3280
  901MPD2     N13206   4.321   3.875  12.748  0.0084  0.2365  0.0219
  901MPD2    H513207   4.417   3.870  12.718  0.6010  0.1224  1.9340
  901MPD2    N113208   4.438   3.442  12.940  0.8002 -0.3838  0.7524
  901MPD2    H713209   4.396   3.365  12.991 -0.7978  1.1790  1.8066
  902MPD2     C13210   3.456   2.543  12.994 -0.2504 -0.1821  0.5336
  902MPD2    C113211   3.470   2.654  12.911 -0.0361  0.2458  0.0802
  902MPD2    C213212   3.513   2.633  12.777  0.4289 -0.1982 -0.1243
  902MPD2    C313213   3.541   2.503  12.727 -0.2880  0.0768 -0.2298
  902MPD2    C413214   3.528   2.395  12.812  0.1480 -0.9556  0.5298
  902MPD2    C513215   3.482   2.415  12.937 -0.1200  0.2204  0.9354
  902MPD2     H13216   3.536   2.726  12.726 -0.9737  0.7268  0.9211
  902MPD2    H113217   3.545   2.293  12.780  1.6123  0.2877 -2.6543
  902MPD2    H213218   3.415   2.552  13.094 -2.4637  1.0195 -0.4810
  902MPD2    H313219   3.480   2.334  13.008  0.8075  0.6949  1.5074
  902MPD2     N13220   3.609   2.476  12.609 -1.1818 -0.0958 -0.3024
  902MPD2    H513221   3.597   2.386  12.564 -1.3643 -1.4277  2.4261
  902MPD2    N113222   3.446   2.784  12.951  0.6159  0.1785  0.1817
  902MPD2    H713223   3.429   2.857  12.882  1.2598 -0.4095 -0.5886
  903MPD2     C13224   3.415   2.645  11.870  0.0060  0.5331  0.7992
  903MPD2    C113225   3.441   2.518  11.925  0.6941 -0.2333  0.4935
  903MPD2    C213226   3.364   2.407  11.886 -0.2509 -0.5966 -0.1364
  903MPD2    C313227   3.264   2.416  11.785 -0.2626 -0.1928 -0.7209
  903MPD2    C413228   3.264   2.535  11.717  0.8531  0.4100 -0.2691
  903MPD2    C513229   3.331   2.644  11.764 -0.8185  0.1753 -0.5808
  903MPD2     H13230   3.371   2.317  11.946 -1.3828  0.5910  1.7636
  903MPD2    H113231   3.197   2.554  11.634  1.0825  4.4292  0.4617
  903MPD2    H213232   3.453   2.741  11.904  0.8126  0.5894 -0.2522
  903MPD2    H313233   3.313   2.738  11.713 -1.0591  0.5116  0.1249
  903MPD2     N13234   3.165   2.317  11.762 -0.4528 -0.4773 -0.4834
  903MPD2    H513235   3.096   2.357  11.699 -1.8374 -0.7133  0.8925
  903MPD2    N113236   3.538   2.504  12.028  0.1870  0.2960  0.1855
  903MPD2    H713237   3.568   2.410  12.052 -2.0176 -0.2661  0.7293
  904MPD2     C13238   3.049   1.736  14.032 -0.7020  0.0478 -0.2228
  904MPD2    C113239   3.122   1.826  13.953  0.0388 -0.1459  0.4200
  904MPD2    C213240   3.257   1.802  13.936  0.1446 -0.4975 -0.2719
  904MPD2    C313241   3.321   1.693  13.989 -1.0020 -0.4243  0.0489
  904MPD2    C413242   3.250   1.606  14.067  0.0352 -0.6410 -0.2901
  904MPD2    C513243   3.113   1.633  14.087  0.7586  0.5214 -0.0057
  904MPD2     H13244   3.318   1.862  13.869 -0.5796 -1.0509 -1.4211
  904MPD2    H113245   3.300   1.523  14.116 -1.9388 -1.4802  0.2839
  904MPD2    H213246   2.942   1.743  14.046 -0.3873  0.0629  2.0932
  904MPD2    H313247   3.063   1.556  14.144  0.8234  1.1514  0.8933
  904MPD2     N13248   3.463   1.687  13.981 -0.4098 -0.3652 -0.5651
  904MPD2    H513249   3.509   1.768  13.940 -0.0428 -0.7670 -0.9396
  904MPD2    N113250   3.062   1.927  13.879  0.1694 -0.7491  0.2736
  904MPD2    H713251   3.121   1.959  13.803 -2.3855  1.6456 -0.7106
  905MPD2     C13252   2.654   1.701  13.379  0.0075 -0.4119 -0.6083
  905MPD2    C113253   2.767   1.771  13.356 -0.1382  0.1540  0.0581
  905MPD2    C213254   2.871   1.721  13.278 -0.7235  0.0854 -0.4206
  905MPD2    C313255   2.856   1.596  13.223 -0.2771  0.2700 -0.4764
  905MPD2    C413256   2.738   1.530  13.233  0.2715 -0.1366  1.3944
  905MPD2    C513257   2.637   1.582  13.314  0.1005 -0.6873 -0.1432
  905MPD2     H13258   2.960   1.778  13.257  0.3054 -1.7706 -1.0073
  905MPD2    H113259   2.724   1.430  13.194  0.7269 -0.2974  1.6406
  905MPD2    H213260   2.573   1.749  13.433  0.8028 -0.3213  0.5134
  905MPD2    H313261   2.548   1.523  13.329 -0.3134 -0.9811 -3.6923
  905MPD2     N13262   2.963   1.514  13.169  0.0220 -0.9979 -0.3223
  905MPD2    H513263   2.940   1.417  13.152  0.4937 -1.0482 -0.6624
  905MPD2    N113264   2.776   1.893  13.423  0.6549 -0.2099 -0.3932
  905MPD2    H713265   2.697   1.921  13.480 -0.4689 -0.3059 -1.9118
  906MPD2     C13266   0.232   1.744  11.197 -0.0791  0.1971 -0.1747
  906MPD2    C113267   0.240   1.670  11.081  0.0803 -0.2925  0.1458
  906MPD2    C213268   0.207   1.538  11.078 -0.0075  0.2397 -1.0339
  906MPD2    C313269   0.205   1.468  11.200  0.7502  0.0363  0.0078
  906MPD2    C413270   0.222   1.536  11.314 -0.6425  0.1387 -0.0840
  906MPD2    C513271   0.233   1.673  11.319 -0.6256 -0.5319  0.6594
  906MPD2     H13272   0.194   1.496  10.979 -0.2010 -0.8685 -0.5474
  906MPD2    H113273   0.217   1.483  11.408 -1.6117  1.7170  0.7487
  906MPD2    H213274   0.242   1.852  11.202 -0.2929  0.2093 -0.0304
  906MPD2    H313275   0.249   1.719  11.416 -0.0890  0.2975  0.1758
  906MPD2     N13276   0.197   1.329  11.208  0.4452  0.2749  0.5940
  906MPD2    H513277   0.180   1.288  11.299  0.9152  0.7031  0.8783
  906MPD2    N113278   0.264   1.731  10.959 -0.2219 -0.2839 -0.4005
  906MPD2    H713279   0.230   1.673  10.883 -1.7229 -1.1808  0.9480
  907MPD2     C13280   4.403   0.375  15.154  0.0033  0.3757 -0.7675
  907MPD2    C113281   4.340   0.260  15.118  0.0412 -0.4133 -0.0768
  907MPD2    C213282   4.365   0.142  15.192  0.9827  0.6189  0.1463
  907MPD2    C313283   4.440   0.153  15.310  0.4984  0.6358 -0.5355
  907MPD2    C413284   4.508   0.267  15.335 -0.2187  0.1161 -0.2666
  907MPD2    C513285   4.497   0.374  15.255  0.4691  0.2289 -0.7640
  907MPD2     H13286   4.323   0.043  15.176  2.7643 -0.1818  0.3833
  907MPD2    H113287   4.578   0.284  15.416  1.1498 -2.1822 -0.9604
  907MPD2    H213288   4.391   0.465  15.094  1.1229  1.5236  0.7380
  907MPD2    H313289   4.556   0.463  15.272  0.3676 -0.0400  0.9869
  907MPD2     N13290   4.462   0.041  15.389 -0.2333  0.4596 -0.1942
  907MPD2    H513291   4.431   4.675  15.351 -0.0431  0.6799 -0.8716
  907MPD2    N113292   4.240   0.253  15.024  0.0490 -0.2656 -0.1844
  907MPD2    H713293   4.223   0.157  14.997  4.2648 -0.5825 -1.6397
  908MPD2     C13294   1.350   2.303   9.370  0.1639 -0.2561 -0.1831
  908MPD2    C113295   1.358   2.177   9.433 -0.1042  0.5377 -0.0832
  908MPD2    C213296   1.406   2.176   9.563 -0.6406  0.3759 -0.4944
  908MPD2    C313297   1.458   2.295   9.621  0.0094 -0.2587  0.6810
  908MPD2    C413298   1.458   2.418   9.551 -0.2759  0.2172  0.5776
  908MPD2    C513299   1.400   2.413   9.426  0.0223 -1.0894  0.2983
  908MPD2     H13300   1.409   2.079   9.613  1.8602  0.3494 -0.6764
  908MPD2    H113301   1.494   2.511   9.593  1.5191 -0.0784 -0.2891
  908MPD2    H213302   1.296   2.313   9.276 -1.0211 -0.3944  0.4745
  908MPD2    H313303   1.404   2.506   9.370  0.6425 -0.9362  0.5967
  908MPD2     N13304   1.497   2.281   9.758 -0.3847  0.2546 -0.1154
  908MPD2    H513305   1.522   2.194   9.803 -1.9442 -0.3046 -0.3377
  908MPD2    N113306   1.311   2.051   9.380  0.1703 -0.3991  0.2874
  908MPD2    H713307   1.313   1.966   9.436 -0.1756 -0.1695  0.6470
  909MPD2     C13308   2.116   4.230  12.164 -0.3581 -0.0498  0.6704
  909MPD2    C113309   2.089   4.315  12.058 -0.0356 -0.0517 -0.0074
  909MPD2    C213310   1.975   4.401  12.064 -0.5231 -0.0786  0.5533
  909MPD2    C313311   1.882   4.392  12.161 -0.4603  0.1974 -0.6723
  909MPD2    C413312   1.902   4.296  12.257 -0.4859  0.4599 -0.0694
  909MPD2    C513313   2.014   4.217  12.255 -0.5289  0.4197 -0.3887
  909MPD2     H13314   1.963   4.475  11.985  0.6310  0.5014  0.9231
  909MPD2    H113315   1.834   4.284  12.340  0.1259 -1.0863  0.2246
  909MPD2    H213316   2.196   4.159  12.179  0.7753  1.2626  0.8628
  909MPD2    H313317   2.034   4.157  12.343  1.4028  1.9849  0.2453
  909MPD2     N13318   1.777   4.489  12.172 -0.7241  0.2363  0.2823
  909MPD2    H513319   1.770   4.562  12.102  1.9815  0.5733  0.3592
  909MPD2    N113320   2.173   4.335  11.946 -0.1879 -0.6037 -0.7724
  909MPD2    H713321   2.134   4.395  11.874 -0.8064 -0.0002  0.0693
  910MPD2     C13322   3.284   1.287  15.658  0.5107 -0.1438  0.0690
  910MPD2    C113323   3.421   1.287  15.639  0.3589  0.2661 -0.1273
  910MPD2    C213324   3.464   1.337  15.517 -0.6322 -0.2186 -0.8309
  910MPD2    C313325   3.371   1.372  15.421 -0.1909 -0.0007 -0.4985
  910MPD2    C413326   3.235   1.360  15.439  0.2217  0.4372  0.0748
  910MPD2    C513327   3.195   1.318  15.561  0.0040 -0.5286 -0.0386
  910MPD2     H13328   3.570   1.347  15.497 -0.5082  0.2042  0.0359
  910MPD2    H113329   3.152   1.379  15.372 -0.8564  1.9982  1.8747
  910MPD2    H213330   3.241   1.266  15.756  2.7234 -1.2745  0.8052
  910MPD2    H313331   3.090   1.306  15.582  0.5155  1.2827  3.5035
  910MPD2     N13332   3.413   1.412  15.295 -0.1344 -0.2288 -0.1378
  910MPD2    H513333   3.343   1.420  15.223  1.2597  0.7390 -1.3791
  910MPD2    N113334   3.519   1.261  15.739 -0.2475  0.4943  0.3146
  910MPD2    H713335   3.618   1.268  15.717 -0.4185 -2.5981 -1.4833
  911MPD2     C13336   1.285   1.686  16.035 -0.3825 -0.2696  0.8517
  911MPD2    C113337   1.334   1.814  16.028  0.6967 -0.0583 -0.5075
  911MPD2    C213338   1.267   1.908  15.949  0.1412 -0.1534 -0.1547
  911MPD2    C313339   1.151   1.867  15.883 -0.0739 -0.2887 -0.1826
  911MPD2    C413340   1.102   1.740  15.908 -0.6513  0.2613  0.0820
  911MPD2    C513341   1.161   1.654  15.986 -1.6812 -0.0492  0.0695
  911MPD2     H13342   1.306   2.007  15.934  1.9644 -1.2594 -2.6642
  911MPD2    H113343   1.013   1.705  15.857  0.3272 -0.1937 -1.3314
  911MPD2    H213344   1.327   1.615  16.105  0.7836 -0.8896 -0.4711
  911MPD2    H313345   1.140   1.549  15.969  1.7932 -0.9450  1.1644
  911MPD2     N13346   1.069   1.947  15.796 -0.5742 -0.2316 -0.2404
  911MPD2    H513347   0.988   1.902  15.756 -0.5013  2.2729 -3.2166
  911MPD2    N113348   1.457   1.833  16.091  0.3204 -0.2080  0.0304
  911MPD2    H713349   1.489   1.748  16.137  1.2955 -0.5167 -1.2192
  912MPD2     C13350   0.843   1.532  15.372 -0.0802 -0.1311 -0.0759
  912MPD2    C113351   0.833   1.609  15.487 -0.4480  0.2457 -0.9319
  912MPD2    C213352   0.838   1.539  15.610  0.2672 -0.4317 -0.2283
  912MPD2    C313353   0.862   1.404  15.625  0.8458  0.1741 -0.0828
  912MPD2    C413354   0.884   1.338  15.505 -0.4330  0.0279 -0.4133
  912MPD2    C513355   0.863   1.401  15.386 -0.5704  0.7051  0.2005
  912MPD2     H13356   0.814   1.589  15.703  2.9680  0.1860  0.1304
  912MPD2    H113357   0.905   1.233  15.489 -2.1699 -0.2934 -0.5539
  912MPD2    H213358   0.840   1.570  15.270 -0.6273  0.1883  0.0552
  912MPD2    H313359   0.870   1.335  15.300 -1.0698  2.3483 -1.1068
  912MPD2     N13360   0.898   1.347  15.751  0.1398  0.1057  0.4366
  912MPD2    H513361   0.872   1.406  15.829 -1.6522  0.2362 -0.2563
  912MPD2    N113362   0.814   1.749  15.477  0.1972  0.0132  0.0066
  912MPD2    H713363   0.797   1.798  15.390 -1.8839  2.9844  2.0911
  913MPD2     C13364   1.993   2.788  10.900 -0.6795 -0.4715  0.4079
  913MPD2    C113365   1.955   2.887  10.990 -0.0552 -0.0553 -0.1768
  913MPD2    C213366   1.861   2.972  10.942 -0.0949  0.1829  0.8409
  913MPD2    C313367   1.812   2.960  10.812 -0.6736  0.8203  0.2494
  913MPD2    C413368   1.856   2.864  10.725 -0.2509 -0.3309  0.3447
  913MPD2    C513369   1.943   2.769  10.777 -1.0350  0.4384 -0.0755
  913MPD2     H13370   1.830   3.053  11.007 -1.8786  1.0401 -1.0756
  913MPD2    H113371   1.812   2.857  10.626 -0.9534 -0.1899  0.6418
  913MPD2    H213372   2.069   2.716  10.926 -3.8326 -3.4455  1.4959
  913MPD2    H313373   1.981   2.691  10.713  0.6017  1.1342  0.0425
  913MPD2     N13374   1.727   3.060  10.759  0.4965 -0.0861  0.0094
  913MPD2    H513375   1.708   3.050  10.660 -0.7247  0.8624  0.1591
  913MPD2    N113376   2.000   2.880  11.121  0.1554  0.1156  0.1916
  913MPD2    H713377   2.056   2.802  11.153 -1.7261 -1.4055 -0.2314
  914MPD2     C13378   4.247   3.066  12.169 -0.5471  0.5210 -0.2743
  914MPD2    C113379   4.209   3.173  12.239  0.3875 -0.0309  0.7798
  914MPD2    C213380   4.249   3.182  12.372  0.7199  0.1493  0.9116
  914MPD2    C313381   4.321   3.081  12.435 -0.1023 -0.5473  0.1177
  914MPD2    C413382   4.352   2.969  12.360 -0.5536 -0.0835 -0.5489
  914MPD2    C513383   4.323   2.966  12.227 -0.9865 -0.2447 -0.3753
  914MPD2     H13384   4.234   3.266  12.439 -0.2641 -1.1591  2.3505
  914MPD2    H113385   4.409   2.885  12.400 -0.8427  0.0045  0.0454
  914MPD2    H213386   4.215   3.064  12.065  1.7506  0.2986 -0.9815
  914MPD2    H313387   4.360   2.883  12.167  1.5589  1.2048 -0.7914
  914MPD2     N13388   4.371   3.104  12.569 -0.3693 -0.6511  0.0060
  914MPD2    H513389   4.333   3.189  12.608  1.5953  1.1424 -2.0349
  914MPD2    N113390   4.128   3.276  12.179  0.2742 -0.8196 -0.8366
  914MPD2    H713391   4.102   3.266  12.082 -0.8723  0.5401 -0.6740
  915MPD2     C13392   2.850   3.490  15.465 -0.1916  0.3456  0.2156
  915MPD2    C113393   2.717   3.448  15.442 -0.9667  0.2343  0.2535
  915MPD2    C213394   2.622   3.502  15.532 -0.7630  0.2945  0.0045
  915MPD2    C313395   2.660   3.584  15.633 -0.1341  0.5070 -0.5486
  915MPD2    C413396   2.793   3.613  15.656  0.3894  0.8509  0.3258
  915MPD2    C513397   2.885   3.573  15.565  0.3076 -0.8405  0.5950
  915MPD2     H13398   2.516   3.491  15.515 -1.0910  3.1354  0.2572
  915MPD2    H113399   2.829   3.682  15.731  2.7301 -0.7979  0.7327
  915MPD2    H213400   2.922   3.470  15.386 -1.2400 -0.8108 -0.4383
  915MPD2    H313401   2.991   3.594  15.576  0.8452 -2.1255 -1.9651
  915MPD2     N13402   2.554   3.645  15.709  0.3043 -0.3179 -0.1049
  915MPD2    H513403   2.463   3.615  15.675  0.2322  1.6325 -1.6349
  915MPD2    N113404   2.684   3.374  15.328 -0.1660  0.3710 -0.4329
  915MPD2    H713405   2.757   3.348  15.263 -0.3282 -1.7342  0.2095
  916MPD2     C13406   0.411   1.659  15.703  0.4750  0.0419  0.1205
  916MPD2    C113407   0.414   1.543  15.778 -0.4596 -0.0630  0.1031
  916MPD2    C213408   0.455   1.420  15.723 -0.1594  0.6372  0.7468
  916MPD2    C313409   0.502   1.418  15.590 -0.3453 -0.7369 -0.1155
  916MPD2    C413410   0.494   1.534  15.519 -0.0060  0.6157 -0.2273
  916MPD2    C513411   0.450   1.651  15.572  0.5853  0.3989 -0.0915
  916MPD2     H13412   0.450   1.328  15.779 -0.6197  1.2818  1.7847
  916MPD2    H113413   0.526   1.544  15.416 -0.8447 -1.3964 -0.6682
  916MPD2    H213414   0.378   1.749  15.753 -1.2983  0.3588 -1.6140
  916MPD2    H313415   0.439   1.740  15.511  0.1101  0.0910 -0.4642
  916MPD2     N13416   0.537   1.292  15.536  0.3206 -0.3894 -0.9670
  916MPD2    H513417   0.542   1.214  15.600  0.3605  0.4126  0.0131
  916MPD2    N113418   0.367   1.557  15.914 -0.0831 -0.1668 -0.7848
  916MPD2    H713419   0.335   1.650  15.935  0.5660  0.0212 -0.6147
  917MPD2     C13420   0.599   4.401  11.391  0.1785  0.3547 -0.0100
  917MPD2    C113421   0.623   4.265  11.418 -0.3893 -0.3599 -0.7737
  917MPD2    C213422   0.725   4.200  11.345 -0.6928 -0.4072  0.1900
  917MPD2    C313423   0.812   4.278  11.263  0.1802 -0.7707 -0.8415
  917MPD2    C413424   0.782   4.415  11.244 -0.3245 -0.3092 -0.7289
  917MPD2    C513425   0.670   4.470  11.296  0.1113 -0.5340 -0.8153
  917MPD2     H13426   0.734   4.092  11.341  0.5797 -0.3297  1.2763
  917MPD2    H113427   0.845   4.481  11.187 -0.4392  0.0049 -0.4926
  917MPD2    H213428   0.515   4.453  11.435 -0.7743 -1.3681  0.1833
  917MPD2    H313429   0.659   4.577  11.285  1.0834 -0.2070  1.3313
  917MPD2     N13430   0.914   4.222  11.182 -0.6142  0.5506  0.1941
  917MPD2    H513431   0.952   4.277  11.106 -2.1990  0.4519 -0.6621
  917MPD2    N113432   0.529   4.194  11.497 -0.4560 -0.0674  0.1695
  917MPD2    H713433   0.461   4.240  11.558 -0.8721  0.5428 -0.7661
  918MPD2     C13434   0.702   4.131  12.372 -0.2757  0.1970 -0.6804
  918MPD2    C113435   0.770   4.067  12.276  0.4131 -0.2333  0.6246
  918MPD2    C213436   0.722   4.046  12.152 -0.1604 -0.0555  0.2129
  918MPD2    C313437   0.588   4.071  12.125 -0.3228  0.1457 -0.1067
  918MPD2    C413438   0.518   4.134  12.219  0.3663  1.0640  0.9860
  918MPD2    C513439   0.576   4.162  12.334  0.7140  0.2641  0.7079
  918MPD2     H13440   0.791   4.000  12.082  1.4252  1.9563  0.4653
  918MPD2    H113441   0.413   4.156  12.204  0.8261  1.5759 -1.5685
  918MPD2    H213442   0.739   4.150  12.472  0.4066 -1.4371 -0.6231
  918MPD2    H313443   0.514   4.215  12.406 -1.0178  1.2170 -1.4947
  918MPD2     N13444   0.532   4.033  11.999 -0.0501  0.0594 -0.1890
  918MPD2    H513445   0.587   3.973  11.939 -1.7959 -0.7784 -0.9520
  918MPD2    N113446   0.904   4.023  12.311  0.1439 -0.1943  0.1918
  918MPD2    H713447   0.951   3.967  12.240 -1.1755 -2.5856  1.2244
  919MPD2     C13448   1.144   3.163  11.740 -0.7628 -0.0363  0.3115
  919MPD2    C113449   1.246   3.080  11.707  0.1997  0.5485 -0.0788
  919MPD2    C213450   1.293   3.078  11.574 -0.4086 -0.0121 -0.1882
  919MPD2    C313451   1.226   3.151  11.472  0.1297  0.4022 -0.2459
  919MPD2    C413452   1.128   3.234  11.509 -0.3275  0.1488  0.3380
  919MPD2    C513453   1.083   3.240  11.642 -0.1975  0.6660 -0.7759
  919MPD2     H13454   1.373   3.011  11.544  0.4389 -0.4210  2.9779
  919MPD2    H113455   1.080   3.291  11.431  2.1407  0.8489 -0.6595
  919MPD2    H213456   1.092   3.174  11.835 -0.8867 -1.0279  0.3606
  919MPD2    H313457   0.988   3.285  11.670 -0.0207  0.3058  0.4056
  919MPD2     N13458   1.261   3.150  11.336 -0.0691 -0.0106 -0.0480
  919MPD2    H513459   1.224   3.229  11.284 -1.2670 -0.0836  0.6982
  919MPD2    N113460   1.301   3.000  11.808 -0.3753  0.0742  0.1211
  919MPD2    H713461   1.379   2.940  11.783 -0.1739 -0.1685  1.3559
  920MPD2     C13462   1.225   3.658  10.472 -0.0520 -0.3569 -0.1893
  920MPD2    C113463   1.123   3.564  10.471 -0.2082 -0.1236  0.0264
  920MPD2    C213464   1.129   3.458  10.557  0.0389  0.1439 -0.0261
  920MPD2    C313465   1.221   3.460  10.660  0.3066 -0.4823 -0.4494
  920MPD2    C413466   1.311   3.563  10.669  0.5947 -0.2012  1.8697
  920MPD2    C513467   1.313   3.658  10.571  0.4859 -0.5467 -0.6113
  920MPD2     H13468   1.054   3.380  10.552  2.6382 -2.5873  3.6442
  920MPD2    H113469   1.382   3.569  10.751  2.4606  2.1520  0.0721
  920MPD2    H213470   1.234   3.738  10.400  1.5261  0.4925  0.9852
  920MPD2    H313471   1.390   3.734  10.572  0.0388 -0.0978 -0.6254
  920MPD2     N13472   1.229   3.342  10.739  0.1379  0.6306  0.7170
  920MPD2    H513473   1.155   3.273  10.723 -0.3717  1.2650  0.3483
  920MPD2    N113474   1.023   3.561  10.368  0.0872 -0.0591 -0.8168
  920MPD2    H713475   0.977   3.472  10.356 -0.0506  0.0816 -1.3074
  921MPD2     C13476   2.183   2.584  16.380  0.2773 -0.5377 -0.1854
  921MPD2    C113477   2.236   2.475  16.311 -0.1249  0.3152  0.3202
  921MPD2    C213478   2.150   2.369  16.281 -0.0751  0.1639  0.4521
  921MPD2    C313479   2.017   2.379  16.306 -0.2723  0.0442  0.8311
  921MPD2    C413480   1.966   2.484  16.374 -0.8178 -0.0973 -0.6919
  921MPD2    C513481   2.047   2.594  16.411 -0.1895 -0.7558 -0.0984
  921MPD2     H13482   2.181   2.277  16.234 -0.0217  0.1597  0.4952
  921MPD2    H113483   1.859   2.491  16.392 -0.5930  1.1469  0.2204
  921MPD2    H213484   2.250   2.667  16.399 -0.3956  0.2901 -1.4413
  921MPD2    H313485   2.005   2.685  16.452 -1.7291 -0.2148 -2.8669
  921MPD2     N13486   1.921   2.277  16.285  0.2332  0.1077  0.2751
  921MPD2    H513487   1.832   2.294  16.332 -1.2742 -2.7204 -1.5895
  921MPD2    N113488   2.371   2.466  16.286 -0.0236  0.4053 -0.1586
  921MPD2    H713489   2.439   2.539  16.307  0.2655  0.5012 -1.4502
  922MPD2     C13490   3.656   0.074  17.081  0.1782  0.3212  0.3600
  922MPD2    C113491   3.697   0.072  17.211 -0.7753  0.2262 -0.2872
  922MPD2    C213492   3.630   4.717  17.307 -0.1702 -0.4760 -1.0156
  922MPD2    C313493   3.518   4.641  17.269  0.5532  0.3169 -0.0204
  922MPD2    C413494   3.499   4.619  17.132 -0.1298 -0.1223  0.1442
  922MPD2    C513495   3.571   4.705  17.045 -0.2324  0.4853 -0.6420
  922MPD2     H13496   3.664   0.001  17.409  0.0486 -0.1071 -1.1103
  922MPD2    H113497   3.432   4.549  17.085 -1.7896  0.6898  1.3342
  922MPD2    H213498   3.689   0.134  16.998 -2.2940 -1.4026 -1.8716
  922MPD2    H313499   3.562   4.698  16.937  0.3547  1.5998 -0.7624
  922MPD2     N13500   3.445   4.581  17.375  0.2500  0.3003  0.3872
  922MPD2    H513501   3.475   4.609  17.467  2.0274 -1.8451  0.4708
  922MPD2    N113502   3.802   0.153  17.259 -0.4367 -0.4815 -0.6441
  922MPD2    H713503   3.823   0.128  17.355  0.8890 -1.6431 -1.2358
  923MPD2     C13504   0.075   1.402   9.276  0.5616 -0.4581  0.3707
  923MPD2    C113505   0.029   1.520   9.324 -0.0799 -0.2590 -0.3390
  923MPD2    C213506   0.090   1.582   9.433 -0.4298 -0.6588 -0.1084
  923MPD2    C313507   0.202   1.536   9.491  0.4393  0.0014 -0.3600
  923MPD2    C413508   0.269   1.436   9.419 -0.0693 -0.0014 -0.3889
  923MPD2    C513509   0.199   1.362   9.327  0.1070  0.3975 -0.0831
  923MPD2     H13510   0.041   1.673   9.468  0.0716 -0.5008  0.1758
  923MPD2    H113511   0.365   1.394   9.449 -1.2279 -2.4549 -0.1252
  923MPD2    H213512   0.024   1.340   9.203  1.7439  1.0715 -1.7661
  923MPD2    H313513   0.247   1.275   9.285 -1.2202 -0.8941  1.0805
  923MPD2     N13514   0.258   1.596   9.604  0.4920 -0.0777  0.7117
  923MPD2    H513515   0.354   1.570   9.624  0.9349  2.3891  1.6994
  923MPD2    N113516   4.639   1.581   9.255 -0.3480 -0.8234  0.8822
  923MPD2    H713517   4.617   1.545   9.163  0.2761  1.7533 -0.2695
  924MPD2     C13518   3.958   4.131  15.940 -0.1368 -0.2464 -0.3800
  924MPD2    C113519   3.951   4.243  15.861  0.1154  0.2034  0.1605
  924MPD2    C213520   4.052   4.278  15.775  0.4559 -0.2946 -0.0629
  924MPD2    C313521   4.167   4.200  15.764  0.5820 -0.0428  0.2789
  924MPD2    C413522   4.174   4.093  15.855  0.6741  0.4297  0.4095
  924MPD2    C513523   4.071   4.054  15.931 -0.0938  0.3331 -0.7021
  924MPD2     H13524   4.047   4.372  15.722  2.0335 -0.3307 -0.2655
  924MPD2    H113525   4.267   4.038  15.865 -0.8599 -1.8709  1.9428
  924MPD2    H213526   3.886   4.105  16.017 -0.3416  1.4661 -0.0139
  924MPD2    H313527   4.079   3.970  15.999 -2.2502 -2.4594 -3.8786
  924MPD2     N13528   4.284   4.244  15.693 -0.1122  0.2633  0.0791
  924MPD2    H513529   4.368   4.199  15.728 -0.8718 -1.9875 -0.9735
  924MPD2    N113530   3.847   4.337  15.895 -0.1320 -0.0104 -0.4064
  924MPD2    H713531   3.799   4.311  15.981  0.0500  0.0126 -0.2949
  925MPD2     C13532   3.662   2.482  14.630 -0.1424 -0.1462 -0.0985
  925MPD2    C113533   3.561   2.580  14.622  0.5337  1.0576  1.0738
  925MPD2    C213534   3.478   2.608  14.726 -0.5084  0.5181 -0.3081
  925MPD2    C313535   3.488   2.539  14.850 -0.3495 -0.2260  0.4765
  925MPD2    C413536   3.589   2.444  14.854 -0.3519 -0.4680 -0.2294
  925MPD2    C513537   3.671   2.410  14.749 -0.1815  0.2808 -0.2152
  925MPD2     H13538   3.402   2.684  14.719  0.3184  1.2070 -1.9208
  925MPD2    H113539   3.596   2.395  14.950 -1.2611  1.5318  0.8679
  925MPD2    H213540   3.722   2.454  14.544  1.2743 -1.0447  1.1736
  925MPD2    H313541   3.740   2.326  14.758  0.6261  0.6848 -2.7887
  925MPD2     N13542   3.403   2.564  14.963 -0.3105 -0.0408 -0.2028
  925MPD2    H513543   3.408   2.506  15.046  0.5190 -0.8545 -0.8256
  925MPD2    N113544   3.531   2.654  14.503 -0.4409 -0.1247 -0.1292
  925MPD2    H713545   3.450   2.715  14.494  0.8671  1.7386  0.8895
  926MPD2     C13546   1.059   0.967  13.649 -0.0604  0.1686  0.9677
  926MPD2    C113547   1.148   1.072  13.647 -0.2161 -0.0950 -0.0867
  926MPD2    C213548   1.215   1.097  13.532 -0.5965 -0.3725 -0.3083
  926MPD2    C313549   1.208   1.021  13.424  0.4787  0.5175 -0.4770
  926MPD2    C413550   1.125   0.911  13.424  0.2559 -0.3138 -0.0719
  926MPD2    C513551   1.057   0.885  13.540  0.7231  0.1594 -1.1088
  926MPD2     H13552   1.262   1.194  13.529  1.6281 -1.4972 -1.5468
  926MPD2    H113553   1.118   0.841  13.342  1.3407 -0.3151 -0.1634
  926MPD2    H213554   1.009   0.924  13.735 -3.3285 -2.0018 -2.0049
  926MPD2    H313555   1.003   0.792  13.553  0.2640  0.3332 -1.8014
  926MPD2     N13556   1.278   1.054  13.309 -0.0787  0.2112  0.2678
  926MPD2    H513557   1.252   1.021  13.217 -0.0284  1.5204 -0.2006
  926MPD2    N113558   1.169   1.156  13.764 -0.3490 -0.0071 -0.2689
  926MPD2    H713559   1.245   1.223  13.758  0.7066 -1.1577  0.2301
  927MPD2     C13560   1.394   3.534  17.501  0.2660  0.2669 -0.3036
  927MPD2    C113561   1.524   3.560  17.511 -0.6812 -0.4154  0.0030
  927MPD2    C213562   1.609   3.554  17.398  0.1935  0.3522  0.0277
  927MPD2    C313563   1.553   3.530  17.270  0.4221 -0.3645  0.0664
  927MPD2    C413564   1.418   3.500  17.263 -0.4174 -0.1057 -0.3334
  927MPD2    C513565   1.339   3.510  17.378  0.4694 -0.9188  0.1682
  927MPD2     H13566   1.714   3.582  17.405  0.5309 -0.8539 -0.2239
  927MPD2    H113567   1.374   3.475  17.166 -0.4689 -0.5094 -0.2076
  927MPD2    H213568   1.332   3.546  17.589  1.9464 -3.2697  1.3650
  927MPD2    H313569   1.233   3.494  17.363  0.6861 -0.1007 -2.3147
  927MPD2     N13570   1.642   3.494  17.162  0.4205  0.3232  0.0455
  927MPD2    H513571   1.741   3.481  17.182  0.2151 -2.2209 -0.5455
  927MPD2    N113572   1.556   3.613  17.632  0.2697  0.0523 -0.3256
  927MPD2    H713573   1.479   3.631   0.002  0.4184  1.4613 -0.5399
  928MPD2     C13574   0.648   1.782   1.292  0.5735  0.4701 -0.1866
  928MPD2    C113575   0.623   1.916   1.312  0.4439  0.0611 -0.2011
  928MPD2    C213576   0.615   2.000   1.204  0.2965 -0.3468 -0.5414
  928MPD2    C313577   0.632   1.945   1.076  0.7889 -0.1143  0.3287
  928MPD2    C413578   0.643   1.807   1.053  0.0737  0.1116  0.1823
  928MPD2    C513579   0.662   1.730   1.167 -0.8104 -0.1801  0.5092
  928MPD2     H13580   0.594   2.105   1.221  0.2258 -0.6092  0.9119
  928MPD2    H113581   0.656   1.754   0.960  1.1886 -2.0112  1.5336
  928MPD2    H213582   0.664   1.716   1.377  0.0453  0.9424  0.2775
  928MPD2    H313583   0.681   1.624   1.158  0.4269 -0.1403  2.6486
  928MPD2     N13584   0.618   2.026   0.959  0.2118 -0.0547  0.1889
  928MPD2    H513585   0.610   1.977   0.870  0.7741 -0.8958  0.6064
  928MPD2    N113586   0.605   1.964   1.447 -0.0601 -0.4015 -0.5700
  928MPD2    H713587   0.631   1.893   1.514 -1.4349 -0.9728 -0.6627
  929MPD2     C13588   4.454   1.837  10.145  0.2460  0.4473  0.5896
  929MPD2    C113589   4.398   1.713  10.173 -0.0379 -0.4151  0.0893
  929MPD2    C213590   4.310   1.657  10.085 -0.2128 -0.6016 -0.2011
  929MPD2    C313591   4.281   1.731   9.969 -0.9097  0.5054  0.0240
  929MPD2    C413592   4.344   1.852   9.939 -0.1486  0.9182  0.3552
  929MPD2    C513593   4.418   1.904  10.035  0.3452 -0.1785 -0.0084
  929MPD2     H13594   4.239   1.581  10.115  1.6028 -2.4246 -0.5521
  929MPD2    H113595   4.320   1.897   9.843 -1.8347  0.7311  0.7055
  929MPD2    H213596   4.515   1.889  10.219  1.2644  0.7459 -0.4608
  929MPD2    H313597   4.471   1.996  10.014  1.4164 -0.5614  1.0147
  929MPD2     N13598   4.177   1.690   9.874 -0.7274 -0.6756  0.6521
  929MPD2    H513599   4.139   1.758   9.808  0.5792 -2.3523 -1.8171
  929MPD2    N113600   4.417   1.661  10.302 -0.1277 -0.0260  0.1961
  929MPD2    H713601   4.476   1.728  10.350  2.0069 -1.5835 -0.2676
  930MPD2     C13602   1.735   4.337  14.258  0.1854 -0.3471 -0.1887
  930MPD2    C113603   1.744   4.371  14.126 -0.0959  0.5084  0.2431
  930MPD2    C213604   1.635   4.336  14.046 -0.3713 -0.6046 -0.6202
  930MPD2    C313605   1.526   4.267  14.093 -0.1641 -0.1627 -1.1182
  930MPD2    C413606   1.528   4.232  14.224 -0.0508 -0.1477  0.0658
  930MPD2    C513607   1.627   4.275  14.308  0.0987  0.0682  0.7964
  930MPD2     H13608   1.623   4.370  13.944  2.5026  0.6880 -0.5487
  930MPD2    H113609   1.445   4.175  14.263  1.3406 -0.9242  1.8490
  930MPD2    H213610   1.806   4.382  14.327 -0.8016 -0.2371  0.7528
  930MPD2    H313611   1.623   4.254  14.414 -0.1034  0.1113  0.7973
  930MPD2     N13612   1.426   4.223  14.004 -0.5497 -0.7321  0.3906
  930MPD2    H513613   1.451   4.228  13.905 -1.1691  2.2182  0.3640
  930MPD2    N113614   1.859   4.434  14.077 -0.3023  0.0080 -0.2859
  930MPD2    H713615   1.933   4.446  14.146 -0.2065 -1.8482 -0.0744
  931MPD2     C13616   2.055   4.138   0.528  0.0161  0.2218 -0.0528
  931MPD2    C113617   2.025   4.007   0.513  0.0152  0.4605 -0.0846
  931MPD2    C213618   2.067   3.922   0.607 -0.7269 -0.1454 -0.2781
  931MPD2    C313619   2.123   3.964   0.728  0.1809 -0.4112 -0.2437
  931MPD2    C413620   2.152   4.099   0.736  0.3179 -0.0113 -0.0131
  931MPD2    C513621   2.110   4.184   0.641  1.0885 -0.0629 -0.2984
  931MPD2     H13622   2.047   3.818   0.585  2.2968 -0.9957  0.9030
  931MPD2    H113623   2.201   4.141   0.824 -0.6059  2.9953 -0.9368
  931MPD2    H213624   2.028   4.215   0.457 -1.7183 -0.6947 -0.3778
  931MPD2    H313625   2.143   4.287   0.646 -1.6522  0.7987 -0.2018
  931MPD2     N13626   2.180   3.883   0.828 -0.3818  0.0035  0.4279
  931MPD2    H513627   2.239   3.931   0.895 -0.4748 -0.4847  0.8593
  931MPD2    N113628   1.956   3.984   0.391 -0.6626 -0.0556  0.3878
  931MPD2    H713629   1.931   4.065   0.335  0.3132 -0.6416 -0.8980
  932MPD2     C13630   3.166   2.118  10.930 -0.6454 -0.5079 -0.0983
  932MPD2    C113631   3.227   2.217  11.007  0.0773 -0.0336 -0.0985
  932MPD2    C213632   3.332   2.186  11.094 -0.1963  0.2260  0.5134
  932MPD2    C313633   3.379   2.061  11.096 -0.5004 -0.7311  0.4583
  932MPD2    C413634   3.319   1.961  11.021  0.0974 -0.5118  0.2859
  932MPD2    C513635   3.210   1.995  10.940  0.0180  0.8227 -0.3062
  932MPD2     H13636   3.379   2.258  11.161 -0.5697  0.3573  0.6358
  932MPD2    H113637   3.349   1.857  11.015 -1.8628 -1.0769  0.1286
  932MPD2    H213638   3.079   2.140  10.869  0.8707  1.1700 -1.6617
  932MPD2    H313639   3.167   1.924  10.870 -0.5059  1.9655 -1.1523
  932MPD2     N13640   3.485   2.019  11.186  0.1237  0.1833  0.0227
  932MPD2    H513641   3.492   1.919  11.202  2.8216 -0.0207 -2.2891
  932MPD2    N113642   3.190   2.354  10.996  0.5490  0.2996  0.1723
  932MPD2    H713643   3.241   2.425  11.048 -1.2982  2.7055 -1.3000
  933MPD2     C13644   0.717   2.532   2.185  0.1222 -0.3142  0.4855
  933MPD2    C113645   0.639   2.524   2.075 -0.3073  0.0021  0.5868
  933MPD2    C213646   0.544   2.619   2.051  0.0194  0.0729  0.1066
  933MPD2    C313647   0.523   2.726   2.139  0.1825 -0.2913  0.6292
  933MPD2    C413648   0.607   2.734   2.247  0.3145 -0.3954 -0.3052
  933MPD2    C513649   0.708   2.641   2.265 -0.6020 -0.0640  0.0887
  933MPD2     H13650   0.483   2.615   1.961  0.9467 -2.2727 -0.4035
  933MPD2    H113651   0.596   2.822   2.310  0.6200 -0.7264  0.2118
  933MPD2    H213652   0.801   2.465   2.199  0.7747  0.6204  1.0590
  933MPD2    H313653   0.763   2.651   2.358 -1.6714 -1.1449  0.8373
  933MPD2     N13654   0.429   2.828   2.103 -0.6899  0.0520 -0.6349
  933MPD2    H513655   0.367   2.814   2.024 -1.8489  1.2044  0.0861
  933MPD2    N113656   0.666   2.421   1.979  0.6370 -0.4516 -0.8454
  933MPD2    H713657   0.740   2.356   2.001 -0.2141 -1.4859 -1.0172
  934MPD2     C13658   0.970   4.548   2.257 -0.7309  0.1969 -0.0372
  934MPD2    C113659   1.042   4.516   2.144  0.6113  0.2109 -0.7076
  934MPD2    C213660   1.010   4.402   2.070 -0.0297 -0.4117  0.4044
  934MPD2    C313661   0.893   4.333   2.101  0.3927 -0.0095  0.1692
  934MPD2    C413662   0.809   4.381   2.204  0.2668 -0.4940 -0.1083
  934MPD2    C513663   0.859   4.470   2.289  0.8608 -0.1492 -0.1624
  934MPD2     H13664   1.070   4.377   1.984 -1.8046 -0.0167 -0.9414
  934MPD2    H113665   0.714   4.340   2.234  0.0907  1.5956  2.1872
  934MPD2    H213666   0.990   4.628   2.327 -0.1530  0.5442 -0.6032
  934MPD2    H313667   0.800   4.492   2.377  0.3622  0.5547 -0.6632
  934MPD2     N13668   0.846   4.226   2.019 -0.8142  0.1513 -0.4006
  934MPD2    H513669   0.754   4.187   2.039 -1.3006  0.4026 -2.1086
  934MPD2    N113670   1.158   4.577   2.098  0.3228  0.1236 -0.0278
  934MPD2    H713671   1.193   4.536   2.012 -2.4965  1.1349 -1.6404
  935MPD2     C13672   1.412   3.745   1.334  0.3742 -0.3574  0.2299
  935MPD2    C113673   1.296   3.666   1.342  0.3540  0.2058  0.0924
  935MPD2    C213674   1.200   3.703   1.435  0.1979  0.1250  0.0556
  935MPD2    C313675   1.214   3.809   1.525  0.1933  0.0037 -0.1971
  935MPD2    C413676   1.332   3.876   1.520 -0.2295 -0.3080  0.4239
  935MPD2    C513677   1.435   3.845   1.425 -0.6355 -0.0010  0.5449
  935MPD2     H13678   1.113   3.639   1.444  0.8311 -0.8244 -0.4831
  935MPD2    H113679   1.356   3.956   1.589 -0.2214  0.8989 -0.9738
  935MPD2    H213680   1.489   3.729   1.259  0.3537  0.3481  0.0585
  935MPD2    H313681   1.518   3.914   1.419  0.9595 -1.9344  0.4615
  935MPD2     N13682   1.120   3.852   1.619 -0.1067  0.6397 -0.1594
  935MPD2    H513683   1.136   3.944   1.660 -1.1057  0.2533  1.0943
  935MPD2    N113684   1.272   3.549   1.264  0.6386 -0.6700  0.3223
  935MPD2    H713685   1.178   3.512   1.271  0.5118 -0.5302 -0.5948
  936MPD2     C13686   3.488   1.748  12.651 -0.6293  0.7216 -0.4307
  936MPD2    C113687   3.428   1.669  12.557 -0.0213 -0.5413  0.3773
  936MPD2    C213688   3.460   1.686  12.418 -0.3358  0.0678 -0.0420
  936MPD2    C313689   3.558   1.773  12.382  1.0090  0.6349  0.4842
  936MPD2    C413690   3.623   1.843  12.481  0.8609  0.8921  0.6608
  936MPD2    C513691   3.580   1.838  12.612  0.5366  0.5909 -0.0493
  936MPD2     H13692   3.421   1.614  12.347  1.1323 -1.6996  0.9388
  936MPD2    H113693   3.705   1.907  12.450  1.2088 -0.1516 -0.5756
  936MPD2    H213694   3.455   1.753  12.754 -3.4660  1.9825 -1.4063
  936MPD2    H313695   3.618   1.913  12.681  1.1519 -0.0473  0.2949
  936MPD2     N13696   3.603   1.765  12.249 -0.2230  0.2471 -0.0994
  936MPD2    H513697   3.555   1.699  12.190  0.5544 -0.7735  0.4159
  936MPD2    N113698   3.337   1.569  12.583  0.0404 -0.1489  0.2211
  936MPD2    H713699   3.321   1.504  12.507  0.0978  1.1752 -0.9128
  937MPD2     C13700   1.533   2.337  11.905  0.3051  0.4403  0.7181
  937MPD2    C113701   1.550   2.461  11.853  0.1899 -0.2509 -0.1134
  937MPD2    C213702   1.569   2.481  11.718  0.6167 -0.2330  0.1262
  937MPD2    C313703   1.627   2.380  11.643  0.5560  0.6693 -0.6964
  937MPD2    C413704   1.620   2.252  11.703 -0.6218  0.3747  0.8120
  937MPD2    C513705   1.578   2.232  11.829  0.0365  0.2958 -0.2015
  937MPD2     H13706   1.560   2.578  11.671 -0.0424 -0.4931 -0.2913
  937MPD2    H113707   1.639   2.167  11.638 -2.0876 -0.2825  1.2511
  937MPD2    H213708   1.487   2.309  12.000 -2.7255  4.0067  0.2930
  937MPD2    H313709   1.561   2.132  11.866 -1.6428  0.3592 -0.8066
  937MPD2     N13710   1.652   2.376  11.505 -0.6347 -0.3431  0.3600
  937MPD2    H513711   1.713   2.302  11.471 -1.1008 -0.4699 -0.1862
  937MPD2    N113712   1.498   2.567  11.920 -0.1124  0.0027  0.5105
  937MPD2    H713713   1.483   2.646  11.858 -1.5732 -1.6177 -1.2065
  938MPD2     C13714   4.566   3.835   0.988 -0.2438  0.5233 -0.5923
  938MPD2    C113715   4.681   3.796   1.054  0.5976  0.0300  0.5026
  938MPD2    C213716   4.671   3.775   1.192 -0.2601 -0.4954  0.4411
  938MPD2    C313717   4.559   3.795   1.269  0.1957 -0.0694  0.6790
  938MPD2    C413718   4.452   3.845   1.202 -0.1112 -0.4054 -0.9265
  938MPD2    C513719   4.460   3.872   1.069  0.5884 -0.2106  0.5658
  938MPD2     H13720   0.037   3.734   1.238  0.3879 -1.7525 -1.9334
  938MPD2    H113721   4.363   3.864   1.261  0.2492  0.8587 -0.8001
  938MPD2    H213722   4.561   3.850   0.880  1.2219 -1.1992 -0.9107
  938MPD2    H313723   4.372   3.901   1.012 -0.0952 -1.0901  1.1712
  938MPD2     N13724   4.552   3.795   1.411 -0.3142  0.4737 -0.0123
  938MPD2    H513725   4.468   3.819   1.462 -0.9568  0.1482 -0.9028
  938MPD2    N113726   0.083   3.772   0.994  0.0311  0.6797 -0.6418
  938MPD2    H713727   0.157   3.746   1.059 -2.3140 -1.5186  1.1586
  939MPD2     C13728   2.023   0.264   1.361 -0.3433  0.3316 -0.2819
  939MPD2    C113729   1.894   0.279   1.311 -0.4679  0.1609 -0.2785
  939MPD2    C213730   1.872   0.207   1.195 -0.5420 -0.1333 -0.1147
  939MPD2    C313731   1.964   0.129   1.128 -0.1315  0.0406 -0.1338
  939MPD2    C413732   2.091   0.116   1.178 -0.0870 -0.4837 -0.0645
  939MPD2    C513733   2.121   0.183   1.294 -0.2345  0.0205  0.0228
  939MPD2     H13734   1.772   0.197   1.152 -1.7131 -0.7959  2.7516
  939MPD2    H113735   2.166   0.054   1.129  0.4408  0.0353  0.0848
  939MPD2    H213736   2.056   0.326   1.444  1.0233 -0.4317 -0.2634
  939MPD2    H313737   2.216   0.193   1.344 -0.0044 -1.0185 -0.2141
  939MPD2     N13738   1.921   0.059   1.013 -0.2744 -0.0416  0.1072
  939MPD2    H513739   1.824   0.071   0.985 -0.2944  1.1029  0.6776
  939MPD2    N113740   1.805   0.373   1.359  0.4621  0.1322  0.4426
  939MPD2    H713741   1.820   0.418   1.449  0.2585  0.1099  0.4891
  940MPD2     C13742   4.090   1.210  13.194  0.5034  0.3089  0.6516
  940MPD2    C113743   4.212   1.147  13.204 -0.0326  0.3756 -0.1360
  940MPD2    C213744   4.295   1.138  13.093 -0.0609  0.5720  0.2359
  940MPD2    C313745   4.238   1.169  12.969  0.6552 -0.0856  0.1169
  940MPD2    C413746   4.111   1.222  12.959 -0.2478  0.1323 -0.6287
  940MPD2    C513747   4.036   1.243  13.071 -0.3333  0.1198  0.0399
  940MPD2     H13748   4.392   1.091  13.104  0.7999  1.9106 -1.4956
  940MPD2    H113749   4.067   1.241  12.861 -0.1598 -0.2996 -0.7525
  940MPD2    H213750   4.039   1.231  13.287  0.8162 -0.0361  0.9014
  940MPD2    H313751   3.939   1.289  13.061  0.3534  1.4950 -0.3310
  940MPD2     N13752   4.311   1.141  12.849  0.2057 -0.4915 -0.0612
  940MPD2    H513753   4.256   1.148  12.764 -2.2390 -0.5792  1.4994
  940MPD2    N113754   4.258   1.093  13.324 -0.6091  0.9711 -0.0455
  940MPD2    H713755   4.337   1.030  13.320 -1.6683 -0.2674 -1.1776
  941MPD2     C13756   3.079   0.236   9.697 -0.0529  0.3404  0.1539
  941MPD2    C113757   3.202   0.173   9.717  0.2495  0.5925  0.5599
  941MPD2    C213758   3.194   0.043   9.755 -0.1054 -0.0213 -0.8190
  941MPD2    C313759   3.080   4.695   9.773 -0.9435 -0.3884  0.1854
  941MPD2    C413760   2.961   0.028   9.748 -0.1185 -0.7513  0.1610
  941MPD2    C513761   2.962   0.155   9.701  0.1212  0.3282 -0.3181
  941MPD2     H13762   3.288   4.715   9.773 -0.7199 -0.3568  1.4987
  941MPD2    H113763   2.864   4.702   9.756 -0.4247 -0.3599 -1.1407
  941MPD2    H213764   3.068   0.337   9.660 -0.5570 -0.0785 -0.8229
  941MPD2    H313765   2.862   0.195   9.692  0.1144  0.9264  2.4393
  941MPD2     N13766   3.078   4.564   9.829 -0.4912  0.0481 -0.3865
  941MPD2    H513767   2.996   4.507   9.818  1.1402 -2.1284 -1.2290
  941MPD2    N113768   3.324   0.228   9.681 -0.7404  0.1255 -1.0166
  941MPD2    H713769   3.409   0.179   9.705 -0.3938  0.3310 -1.8326
  942MPD2     C13770   3.291   1.789   9.174  0.6455 -0.0387 -0.2904
  942MPD2    C113771   3.275   1.923   9.140 -0.4060  0.8157 -0.0943
  942MPD2    C213772   3.362   1.973   9.042 -0.4802 -0.3543  0.4913
  942MPD2    C313773   3.477   1.898   9.001  0.3939 -0.2910 -0.6073
  942MPD2    C413774   3.490   1.766   9.039  0.6644  0.7430 -0.8539
  942MPD2    C513775   3.400   1.714   9.126 -0.7582  0.1617 -0.7801
  942MPD2     H13776   3.349   2.077   9.016  0.7129  0.8461  4.6616
  942MPD2    H113777   3.575   1.701   9.023  0.0200 -1.0523  2.8438
  942MPD2    H213778   3.226   1.732   9.239 -0.1480  3.0880  1.6487
  942MPD2    H313779   3.426   1.616   9.164  0.2777  2.2893  4.0233
  942MPD2     N13780   3.588   1.948   8.922 -0.7389  0.4839  0.8918
  942MPD2    H513781   3.668   1.885   8.922 -0.5143  0.7637  2.4619
  942MPD2    N113782   3.164   2.002   9.186  0.3618 -0.1035 -0.1057
  942MPD2    H713783   3.150   2.094   9.145 -1.1083 -1.7096 -3.2419
  943MPD2     C13784   2.276   4.266   9.603  0.8915 -0.1555  0.3972
  943MPD2    C113785   2.173   4.271   9.690 -0.0349 -0.2121  0.0686
  943MPD2    C213786   2.071   4.366   9.677  0.0814 -0.1855 -0.0630
  943MPD2    C313787   2.080   4.470   9.588 -0.4847 -0.5252 -0.1889
  943MPD2    C413788   2.190   4.468   9.507  0.0510  0.3421 -0.4760
  943MPD2    C513789   2.285   4.368   9.512 -1.3471  0.8294  0.6887
  943MPD2     H13790   1.995   4.361   9.754  0.9054 -0.8654  0.7191
  943MPD2    H113791   2.193   4.545   9.430 -0.1672 -0.6043 -1.4230
  943MPD2    H213792   2.355   4.191   9.605 -0.8414 -2.0333 -1.8383
  943MPD2    H313793   2.375   4.369   9.451 -0.5983  0.9311  1.7985
  943MPD2     N13794   1.989   4.571   9.585  0.7882 -0.7052  0.3603
  943MPD2    H513795   2.001   4.655   9.528 -1.4652  0.1006  1.0533
  943MPD2    N113796   2.175   4.172   9.791 -0.1845  0.3952 -0.0127
  943MPD2    H713797   2.257   4.113   9.798 -0.2730  0.0174 -2.1406
  944MPD2     C13798   2.275   3.566  11.063 -0.5603  0.1045 -0.1968
  944MPD2    C113799   2.159   3.540  10.999 -0.0051 -0.2280  0.1738
  944MPD2    C213800   2.045   3.500  11.067  0.2602  0.4183  0.0033
  944MPD2    C313801   2.043   3.507  11.205 -0.2523  0.3918 -0.1713
  944MPD2    C413802   2.163   3.530  11.268 -0.2829 -0.0224  0.1677
  944MPD2    C513803   2.278   3.567  11.197  0.2174  0.0281 -0.1558
  944MPD2     H13804   1.954   3.488  11.010 -0.0802  1.1086  0.3985
  944MPD2    H113805   2.169   3.520  11.375  0.7377 -3.8124 -0.2342
  944MPD2    H213806   2.367   3.603  11.019 -0.5440  1.0529  0.6290
  944MPD2    H313807   2.367   3.596  11.251  0.3929  1.3234 -1.1393
  944MPD2     N13808   1.914   3.502  11.277 -0.2426  0.3702 -0.2109
  944MPD2    H513809   1.838   3.473  11.216 -2.9778  0.9106  2.9515
  944MPD2    N113810   2.161   3.540  10.853 -0.7115 -0.2540 -0.6710
  944MPD2    H713811   2.246   3.566  10.804 -0.0510  1.5810  1.4631
    1TCq1    O113812   0.151   4.196  14.816  0.2900  0.0533 -0.5096
    1TCq1    C113813   0.285   4.186  14.808  0.3202 -0.3507  0.0130
    1TCq1    O213814   0.355   4.160  14.902  0.7656 -0.0162  0.7696
    1TCq1    C213815   0.312   4.304  14.722 -0.2585  0.2478  0.5106
    1TCq1    C313816   0.252   4.300  14.599  0.6555 -0.1841 -0.1030
    1TCq1    C413817   0.227   4.420  14.534 -0.8317  0.4397 -0.2025
    1TCq1    C513818   0.262   4.536  14.590  0.7451 -0.3422  0.1864
    1TCq1    C613819   0.314   4.541  14.715  0.1217  0.7797 -0.3553
    1TCq1    C713820   0.331   4.422  14.788  0.2264  0.0908  1.4804
    1TCq1    C813821   0.340   4.670  14.786 -0.0391  0.2508 -0.6150
    1TCq1    O413822   0.375   4.664  14.903  0.0998  0.2138  0.2236
    1TCq1    C913823   0.155   4.427  14.412 -0.7666  0.1766 -0.5571
    1TCq1    O513824   0.123   4.319  14.355 -0.0052  0.3869  0.3440
    1TCq1    O613825   0.161   4.530  14.334  0.3964  0.2681  0.4826
    1TCq1    H113826   0.108   4.244  14.743 -0.6537  0.7945  0.5306
    1TCq1    H213827   0.211   4.205  14.569 -0.2364  0.4275 -0.8420
    1TCq1    H313828   0.238   4.631  14.545  1.2118 -2.3237 -4.2480
    1TCq1    H413829   0.374   4.417  14.887  0.1436  1.3079  1.5808
    2MPD2     C13830   0.408   0.453  14.789 -0.1023  0.1549  0.1441
    2MPD2    C113831   0.375   0.415  14.661 -0.5293  0.6361  0.0938
    2MPD2    C213832   0.353   0.284  14.631 -0.9602  0.6255 -0.2021
    2MPD2    C313833   0.358   0.189  14.739 -0.4346  0.5193  0.1074
    2MPD2    C413834   0.382   0.231  14.870  0.1902  0.5207 -0.4640
    2MPD2    C513835   0.413   0.361  14.895  0.1878 -0.2695 -0.1580
    2MPD2     H13836   0.355   0.261  14.525  0.6284 -1.5514  0.3140
    2MPD2    H113837   0.372   0.170  14.960  1.4560  1.0411  0.0324
    2MPD2    H213838   0.436   0.556  14.805  2.2974 -0.4836  0.0699
    2MPD2    H313839   0.434   0.391  14.997 -1.4679 -2.1121  0.7282
    2MPD2     N13840   0.332   0.055  14.700 -0.8874  0.4453 -0.1767
    2MPD2    H513841   0.302   0.042  14.604 -1.3679 -1.8039  0.2847
    2MPD2    N113842   0.370   0.527  14.575  0.3695 -0.3379 -0.5346
    2MPD2    H713843   0.398   0.619  14.607  0.2957 -1.2272  2.1029
    3TMC2    C113844   0.348   0.643  14.380  0.1116 -0.3021 -0.4295
    3TMC2    C213845   0.454   0.724  14.417 -0.6502 -1.2507 -0.6857
    3TMC2    C313846   0.497   0.809  14.320 -0.0053 -0.2696 -0.3890
    3TMC2    C413847   0.313   0.623  14.247 -0.7427 -0.3376 -0.3190
    3TMC2    C513848   0.368   0.708  14.153 -0.1700 -1.1460 -0.8830
    3TMC2    C613849   0.454   0.811  14.191 -0.1137  0.4018  0.1100
    3TMC2     C13850   0.316   0.526  14.451  0.2886 -0.2194 -0.6539
    3TMC2     O13851   0.274   0.430  14.389 -0.2758  0.0147  0.0688
    3TMC2     H13852   0.463   0.755  14.520  1.4001  0.8199 -1.4995
    3TMC2    H113853   0.236   0.557  14.209 -1.7150  0.5085  0.1562
    3TMC2    H213854   0.500   0.880  14.120  1.8989  0.0186  1.0496
    3TMC2    C713855   0.356   0.675  14.013  0.5381  0.0936 -0.2709
    3TMC2    C813856   0.557   0.930  14.361  1.3849  0.5286  0.7310
    3TMC2    O113857   0.324   0.561  13.993  0.5678 -0.0630  0.8026
    3TMC2    O213858   0.547   1.039  14.304  0.0092 -0.0141  0.3237
    3TMC2    O513859   0.620   0.914  14.481 -0.2248  0.2728 -0.1827
    3TMC2    H513860   0.648   0.823  14.501 -3.0033 -0.7915 -1.0822
    4MPD2     C13861   4.217   1.372  13.648  0.5145 -0.2290 -0.2839
    4MPD2    C113862   4.259   1.422  13.521 -0.4629  0.3817  0.3528
    4MPD2    C213863   4.392   1.421  13.481  0.1206  0.1093  0.3920
    4MPD2    C313864   4.486   1.372  13.571 -0.1992  0.2301 -0.2920
    4MPD2    C413865   4.446   1.321  13.688  0.6173 -0.1742 -0.1905
    4MPD2    C513866   4.317   1.324  13.733  0.3343 -0.4701  0.2926
    4MPD2     H13867   4.425   1.435  13.379 -1.9983 -0.1454 -0.3244
    4MPD2    H113868   4.522   1.290  13.760  1.7947 -0.5540 -1.6048
    4MPD2    H213869   4.113   1.360  13.674  0.4910 -1.7109 -1.0751
    4MPD2    H313870   4.291   1.293  13.833  2.1395 -0.6994  0.6840
    4MPD2     N13871   4.622   1.378  13.544  0.2341  0.2671  0.5461
    4MPD2    H513872   4.686   1.335  13.609  1.8860  2.7721  0.5640
    4MPD2    N113873   4.159   1.476  13.438 -0.6373 -0.1710  0.3057
    4MPD2    H713874   4.064   1.472  13.474 -1.1202 -1.4455 -1.1089
    5TCq2    C113875   4.679   1.449  13.440 -0.3411  0.6397 -0.6693
    5TCq2    O213876   4.626   1.503  13.338 -0.1805 -0.3698 -0.3830
    5TCq2    C213877   0.108   1.433  13.442 -1.0573 -0.4573 -0.1567
    5TCq2    C313878   0.164   1.434  13.313 -0.0969 -0.1434 -0.1380
    5TCq2    C413879   0.276   1.365  13.288 -0.2883  0.4358 -0.2517
    5TCq2    C513880   0.339   1.301  13.389 -0.4569  0.3069 -0.4886
    5TCq2    C613881   0.288   1.305  13.516 -0.9276  0.6961  0.5144
    5TCq2    C713882   0.172   1.376  13.547 -0.9175 -0.9353 -0.2290
    5TCq2    C813883   0.325   1.203  13.613 -0.2872 -0.1343  0.4415
    5TCq2    O413884   0.307   1.217  13.736  0.5074  0.0171 -0.9205
    5TCq2    C913885   0.329   1.355  13.159  1.0221  0.3457  1.3700
    5TCq2    O513886   0.280   1.432  13.067  0.4826 -0.1355 -0.3515
    5TCq2    O613887   0.395   1.245  13.132 -0.0458  0.2407  0.0711
    5TCq2    H213888   0.118   1.483  13.228 -1.0178 -0.1017  0.3803
    5TCq2    H313889   0.431   1.251  13.362 -0.4316 -0.7752  1.6391
    5TCq2    H413890   0.142   1.388  13.651  2.8446  1.6634  0.5608
    6MPD1     C13891   3.640   3.231  12.675 -1.0421  0.7540  0.3271
    6MPD1    C113892   3.678   3.232  12.802  0.3426 -0.4646 -0.3383
    6MPD1    C213893   3.707   3.103  12.856 -0.3521 -0.2304  0.1053
    6MPD1    C313894   3.704   2.982  12.786 -0.1359  0.0088 -0.2166
    6MPD1    C413895   3.672   2.992  12.651 -0.4712 -0.1473  0.9307
    6MPD1    C513896   3.633   3.116  12.603  0.0953 -0.7060  0.4741
    6MPD1     H13897   3.742   3.094  12.958 -0.1862 -0.3261  0.0396
    6MPD1    H113898   3.657   2.901  12.593  1.7496 -0.5075  0.8926
    6MPD1    H213899   3.622   3.323  12.620 -0.0116 -0.2949 -1.7643
    6MPD1    H313900   3.608   3.125  12.498 -1.0752 -1.1167  0.7132
    6MPD1     N13901   3.743   2.855  12.839 -0.0205  0.4370 -0.5185
    6MPD1    H513902   3.742   2.776  12.775  0.9472 -1.9159  2.3574
    6MPD1    N113903   3.695   3.349  12.880 -0.5101  0.1556  0.9314
    6MPD1    H613904   3.651   3.430  12.836  1.1072  0.1895 -0.6233
    6MPD1    H713905   3.655   3.335  12.973 -0.8020 -1.6268  0.5367
    7MPD2     C13906   3.842   2.294  13.525 -0.0025  0.0189 -0.2305
    7MPD2    C113907   3.836   2.251  13.396  0.1979  1.0047  0.3603
    7MPD2    C213908   3.840   2.120  13.370  0.5673  0.0976  0.5684
    7MPD2    C313909   3.846   2.024  13.465  0.3712  0.2385 -0.4115
    7MPD2    C413910   3.857   2.059  13.596  0.3812 -0.1795 -0.1782
    7MPD2    C513911   3.864   2.194  13.621 -0.2480  0.0213  0.8068
    7MPD2     H13912   3.845   2.109  13.262  1.4233 -0.4554  0.6646
    7MPD2    H113913   3.865   1.986  13.675  3.0062  0.5998  0.2784
    7MPD2    H213914   3.834   2.399  13.549 -1.0457  0.1802 -1.2932
    7MPD2    H313915   3.867   2.226  13.725  2.0687 -1.8584  1.3276
    7MPD2     N13916   3.841   1.887  13.427  0.2263 -0.1704  0.3812
    7MPD2    H513917   3.863   1.819  13.499  1.1140 -0.1195  0.1599
    7MPD2    N113918   3.824   2.331  13.275 -0.7037 -0.2180 -0.1947
    7MPD2    H713919   3.782   2.292  13.192 -0.2693  0.4182 -0.7099
    8TMC3    C113920   3.863   1.706  13.272  0.2892  0.3326 -0.3642
    8TMC3    C213921   3.970   1.659  13.337  0.2490  0.3416 -0.6550
    8TMC3    C313922   4.057   1.580  13.260 -0.3463  0.0782 -0.6850
    8TMC3    C413923   3.836   1.667  13.143 -0.2894 -0.8202 -0.3375
    8TMC3    C513924   3.930   1.605  13.070 -0.1419 -0.2655  0.2161
    8TMC3    C613925   4.038   1.550  13.126 -0.0329 -0.8425  0.6835
    8TMC3     C13926   3.836   1.843  13.297  1.5777 -0.2987  0.5386
    8TMC3     O13927   3.793   1.910  13.201  0.5412 -1.2230 -0.1922
    8TMC3     H13928   3.998   1.688  13.438  2.6271 -1.1755 -0.8691
    8TMC3    H113929   3.745   1.709  13.103 -0.9995 -1.7384  0.2928
    8TMC3    H213930   4.122   1.509  13.070 -0.3867  0.9199 -1.1255
    8TMC3    C713931   3.948   1.669  12.940 -0.2165  0.6091  1.0383
    8TMC3    C813932   4.179   1.541  13.318 -0.6962 -0.2277 -0.1544
    8TMC3    O113933   4.037   1.624  12.864 -0.6613  0.8953  0.6700
    8TMC3    O213934   4.283   1.558  13.256  0.0394 -0.2740  0.3344
    9TMC3    C113935   3.802   2.685  12.995  0.8832 -0.2964  0.3240
    9TMC3    C213936   3.840   2.609  12.886 -0.5368  0.0954  0.2052
    9TMC3    C313937   3.867   2.477  12.911 -0.3877 -0.4907  0.0585
    9TMC3    C413938   3.806   2.641  13.121 -0.1741 -0.2125 -0.6260
    9TMC3    C513939   3.820   2.507  13.137 -0.6368  0.0986 -0.5605
    9TMC3    C613940   3.846   2.419  13.037  0.2758  0.1633 -0.0975
    9TMC3     C13941   3.769   2.827  12.972  0.0534 -0.5157  0.4393
    9TMC3     O13942   3.769   2.900  13.070  0.6916  0.7143  0.4538
    9TMC3     H13943   3.853   2.645  12.784 -1.3108 -1.2827 -0.3921
    9TMC3    H113944   3.761   2.702  13.199 -1.9357 -1.0830 -0.9579
    9TMC3    H213945   3.899   2.327  13.054  2.0376  0.9313 -1.4710
    9TMC3    C713946   3.847   2.462  13.271 -0.3054  0.4674  0.4079
    9TMC3    C813947   3.867   2.381  12.800 -0.1282  0.2920 -1.0751
    9TMC3    O113948   3.862   2.539  13.361 -0.5073 -0.1402 -0.1011
    9TMC3    O213949   3.922   2.409  12.695 -0.2047 -0.4400  0.3839
   10MPD2     C13950   3.937   1.873  12.722 -0.1286 -0.0644  0.2567
   10MPD2    C113951   3.903   1.900  12.850 -0.0565 -0.1590  0.0741
   10MPD2    C213952   3.862   2.024  12.883 -0.1807 -0.2805 -0.0780
   10MPD2    C313953   3.858   2.129  12.789  0.2833 -0.7953  0.2300
   10MPD2    C413954   3.911   2.107  12.663  0.2866 -0.9348 -0.6530
   10MPD2    C513955   3.941   1.977  12.637 -0.2238  1.2512 -0.8341
   10MPD2     H13956   3.864   2.051  12.988  0.5722 -2.7640  0.5392
   10MPD2    H113957   3.926   2.190  12.594  2.6698 -0.0353  0.9438
   10MPD2    H213958   3.965   1.776  12.683  2.7221  1.0409 -0.4732
   10MPD2    H313959   3.990   1.948  12.544  1.1162  1.2515 -0.1303
   10MPD2     N13960   3.824   2.256  12.844 -0.3765 -0.3567  0.2169
   10MPD2    H513961   3.767   2.248  12.928  0.2862  0.7062  0.7734
   10MPD2    N113962   3.901   1.799  12.947 -0.2462 -0.1773 -0.4089
   10MPD2    H713963   3.867   1.830  13.038  0.3471 -1.1528  0.1454
   11MPD2     C13964   0.379   0.694  13.703  0.4468 -0.6765 -0.5253
   11MPD2    C113965   0.368   0.802  13.787 -0.1351  0.3654 -0.7644
   11MPD2    C213966   0.358   0.934  13.738  0.9104 -0.3979 -0.1130
   11MPD2    C313967   0.360   0.954  13.605  0.2319 -0.0527  1.3449
   11MPD2    C413968   0.371   0.841  13.521 -0.3606 -0.0102  0.5481
   11MPD2    C513969   0.372   0.713  13.563  0.2865 -0.0147  0.5371
   11MPD2     H13970   0.343   1.006  13.818 -0.7082 -1.7980  0.8422
   11MPD2    H113971   0.367   0.846  13.412 -1.1070 -0.9440  0.5334
   11MPD2    H213972   0.386   0.594  13.745  1.6235 -1.2323 -2.0856
   11MPD2    H313973   0.362   0.627  13.498  0.7329  1.2371 -1.1889
   11MPD2     N13974   0.344   1.083  13.546  0.2355 -0.2260  0.0599
   11MPD2    H513975   0.338   1.098  13.445 -3.1188 -1.3823  0.1022
   11MPD2    N113976   0.366   0.788  13.933 -0.9390  0.5465  0.0028
   11MPD2    H713977   0.371   0.879  13.978  1.0463  0.3106  0.2662
    1MPD1     C13978   2.063   2.170  16.936  0.0966  0.5879 -0.0373
    1MPD1    C113979   2.161   2.150  16.839  0.1069 -0.6515  0.3341
    1MPD1    C213980   2.273   2.232  16.837  0.2018 -0.6756  0.1195
    1MPD1    C313981   2.283   2.329  16.933  0.5417  0.7047 -0.1631
    1MPD1    C413982   2.176   2.353  17.019 -1.0645  0.0325  1.0155
    1MPD1    C513983   2.074   2.266  17.026  0.0547 -0.1559 -0.7177
    1MPD1     H13984   2.350   2.220  16.762 -0.2207 -0.9375 -0.2710
    1MPD1    H113985   2.169   2.425  17.099 -0.9555  1.0706  0.1008
    1MPD1    H213986   1.974   2.109  16.942 -0.8692  2.2013  1.9976
    1MPD1    H313987   2.003   2.281  17.107 -1.1365  2.9041 -2.3000
    1MPD1     N13988   2.391   2.419  16.940 -0.2235 -0.3169 -0.2837
    1MPD1    H513989   2.385   2.499  17.002  1.8704 -1.3493  1.2636
    1MPD1    N113990   2.141   2.057  16.740 -0.4135  0.5913  0.0493
    1MPD1    H613991   2.112   1.965  16.772 -1.6331  2.5035  4.4012
    1MPD1    H713992   2.233   2.043  16.699 -0.0742 -1.1747  1.4216
    2MPD1     C13993   2.619   3.270  17.029  0.2855  0.5729 -0.0294
    2MPD1    C113994   2.526   3.200  16.949 -0.2537 -0.5441  0.4483
    2MPD1    C213995   2.540   3.066  16.942  0.0687  0.4004 -0.0255
    2MPD1    C313996   2.639   2.997  17.016  0.2547  0.2882 -0.1016
    2MPD1    C413997   2.730   3.072  17.089 -0.3476 -0.0371  0.2319
    2MPD1    C513998   2.715   3.203  17.100 -0.2426  0.5128 -0.3967
    2MPD1     H13999   2.467   3.002  16.895 -0.4748  0.4165  0.7918
    2MPD1    H114000   2.802   3.015  17.149 -0.5847  2.6485  3.0717
    2MPD1    H214001   2.609   3.378  17.025  1.7464  0.6850 -0.6058
    2MPD1    H314002   2.792   3.251  17.159 -0.9946  0.6483  0.4735
    2MPD1     N14003   2.642   2.861  17.003  0.1225 -0.2185 -0.4002
    2MPD1    H514004   2.573   2.822  16.940 -1.0527  1.0497  0.1018
    2MPD1    N114005   2.439   3.271  16.867  0.0495  0.0578  0.0853
    2MPD1    H614006   2.366   3.205  16.841 -0.0144 -0.0849  0.6293
    2MPD1    H714007   2.407   3.358  16.908  1.3863  1.3396 -1.5386
    3TMC3    C114008   2.743   2.653  16.986 -0.1579 -0.3797  0.5415
    3TMC3    C214009   2.861   2.579  17.000  0.6573 -0.5176 -0.3723
    3TMC3    C314010   2.859   2.448  16.967 -0.5408  0.0985  0.0828
    3TMC3    C414011   2.626   2.586  16.957 -1.2779 -0.2323  0.1638
    3TMC3    C514012   2.632   2.454  16.926 -0.1838  0.5516  0.5581
    3TMC3    C614013   2.751   2.383  16.923 -0.3125 -0.4850 -0.1920
    3TMC3     C14014   2.743   2.782  17.051  0.1651  0.6019  0.0779
    3TMC3     O14015   2.848   2.810  17.106 -0.0344  0.2006 -0.4157
    3TMC3     H14016   2.954   2.611  17.044 -0.2176  0.9967  0.3982
    3TMC3    H114017   2.531   2.634  16.939 -2.0042 -1.3757  0.9008
    3TMC3    H214018   2.747   2.276  16.908  1.1743 -0.1848 -2.6545
    3TMC3    C714019   2.512   2.373  16.898  0.2007  0.0015 -0.0124
    3TMC3    C814020   2.984   2.377  16.930 -0.3934  0.0581  0.7167
    3TMC3    O114021   2.545   2.270  16.842  0.2761 -0.8648  0.5806
    3TMC3    O214022   2.969   2.272  16.868 -0.4643 -0.5484 -0.6368
    4MPD1     C14023   3.487   2.307  16.875 -0.6823  0.3753 -0.2557
    4MPD1    C114024   3.469   2.350  17.001  0.1370 -0.4287  0.2289
    4MPD1    C214025   3.341   2.389  17.038  0.5085 -0.7176 -0.0073
    4MPD1    C314026   3.232   2.375  16.952  0.2231  0.2236 -0.3678
    4MPD1    C414027   3.254   2.333  16.824  0.2702  0.0105  0.8443
    4MPD1    C514028   3.380   2.302  16.789  0.7511  0.4935 -0.0405
    4MPD1     H14029   3.321   2.423  17.139  3.6251  0.7208  0.1094
    4MPD1    H114030   3.173   2.329  16.753  1.6263 -0.0952 -0.7016
    4MPD1    H214031   3.586   2.273  16.845 -0.6842  0.6666 -0.5854
    4MPD1    H314032   3.400   2.272  16.686 -1.1188 -0.4727 -0.1169
    4MPD1     N14033   3.101   2.417  16.993  0.4297  0.4376  0.3354
    4MPD1    H514034   3.092   2.482  17.070  0.1182  1.5545 -0.6622
    4MPD1    N114035   3.587   2.378  17.079 -0.2310 -0.4018 -0.3285
    4MPD1    H614036   3.657   2.304  17.076  0.5621  0.3041  1.2662
    4MPD1    H714037   3.573   2.394  17.178 -2.3594 -1.8426 -0.3856
    1TCq1    O114038   2.724   1.767  10.306  0.5832  0.3347 -0.0655
    1TCq1    C114039   2.653   1.880  10.333 -0.1925  0.6954  0.0913
    1TCq1    O214040   2.534   1.881  10.351  0.2495  0.2652  0.2170
    1TCq1    C214041   2.741   1.990  10.370 -0.2576 -1.1404 -0.5911
    1TCq1    C314042   2.692   2.117  10.366 -0.2718  0.7159  0.0663
    1TCq1    C414043   2.757   2.215  10.436  0.1279  0.5295  0.3689
    1TCq1    C514044   2.864   2.188  10.513  0.0375 -0.3482  0.6406
    1TCq1    C614045   2.924   2.071  10.490 -0.8391 -0.6305 -0.4600
    1TCq1    C714046   2.863   1.967  10.431  0.3931 -0.4425 -0.3862
    1TCq1    C814047   3.050   2.048  10.553  0.9391 -0.0394  0.1740
    1TCq1    O414048   3.075   1.933  10.592 -0.3524  0.6872 -0.5307
    1TCq1    C914049   2.680   2.323  10.490  0.0070 -0.3488  0.4289
    1TCq1    O514050   2.739   2.424  10.525 -0.1942 -0.3139 -0.3716
    1TCq1    O614051   2.553   2.319  10.477  0.7777  0.2576 -0.3876
    1TCq1    H114052   2.808   1.787  10.259  0.6962 -1.2803 -0.5734
    1TCq1    H214053   2.588   2.135  10.342 -0.4048  1.7910  1.4871
    1TCq1    H314054   2.890   2.257  10.592 -2.4966  0.0604  1.1101
    1TCq1    H414055   2.917   1.873  10.437  0.8691 -0.2196 -1.1472
    2MPD1     C14056   3.542   2.175  10.596 -0.2997 -0.2139  0.1979
    2MPD1    C114057   3.469   2.276  10.528 -0.2144 -0.3730  0.1778
    2MPD1    C214058   3.333   2.272  10.532 -0.0737 -0.1982  0.1264
    2MPD1    C314059   3.265   2.163  10.584 -0.9305  0.0973 -0.3265
    2MPD1    C414060   3.336   2.064  10.643  0.2919  0.2541 -0.5303
    2MPD1    C514061   3.472   2.069  10.652 -0.1720 -0.4311 -0.5599
    2MPD1     H14062   3.285   2.355  10.482  2.3260  0.6239 -0.7728
    2MPD1    H114063   3.289   1.975  10.684 -0.5880  1.3701  0.8769
    2MPD1    H214064   3.649   2.160  10.600 -0.1289  0.5698 -1.8386
    2MPD1    H314065   3.523   1.990  10.706  0.9168  0.8096  0.1953
    2MPD1     N14066   3.128   2.159  10.546 -0.1543  0.1505 -0.0734
    2MPD1    H514067   3.098   2.242  10.498 -2.6051 -0.4174  0.4734
    2MPD1    N114068   3.540   2.393  10.505 -0.2187 -0.4056 -0.5272
    2MPD1    H614069   3.499   2.460  10.440 -2.1382 -0.1102  0.9735
    2MPD1    H714070   3.633   2.368  10.471  0.0391 -1.1888  0.7362
    1TCq1    O114071   2.090   3.474   0.192 -0.1176 -0.5920  0.2008
    1TCq1    C114072   2.220   3.448   0.209 -0.5948 -0.6639 -0.7020
    1TCq1    O214073   2.308   3.481   0.134  0.1601  0.6007  0.3635
    1TCq1    C214074   2.239   3.406   0.348  0.9408 -0.1228  0.4359
    1TCq1    C314075   2.143   3.318   0.407  0.4844 -0.4569 -0.8678
    1TCq1    C414076   2.177   3.283   0.534  0.3098 -0.6388 -0.3525
    1TCq1    C514077   2.261   3.345   0.612  0.0052  0.2351  0.3612
    1TCq1    C614078   2.346   3.441   0.558 -0.3011  0.0755  0.6540
    1TCq1    C714079   2.333   3.466   0.422 -0.1436 -0.4391 -0.2873
    1TCq1    C814080   2.470   3.471   0.627 -0.1463  0.0966  0.1086
    1TCq1    O414081   2.545   3.557   0.578  0.0324 -0.0021  0.3003
    1TCq1    C914082   2.081   3.203   0.607  0.0037 -0.1138  0.0239
    1TCq1    O514083   2.048   3.250   0.724 -0.0536  0.4530  0.1349
    1TCq1    O614084   2.015   3.117   0.542 -0.0625 -0.2931 -0.4088
    1TCq1    H114085   2.026   3.435   0.255 -0.0172  3.5857  2.9072
    1TCq1    H214086   2.070   3.260   0.352  0.1429 -0.2081 -0.6749
    1TCq1    H314087   2.249   3.348   0.720 -0.7365  1.4392  0.2446
    1TCq1    H414088   2.408   3.525   0.369 -0.4300 -0.2241 -0.4501
    2MPD1     C14089   2.731   3.441   1.071 -0.2123 -0.1351 -0.9755
    2MPD1    C114090   2.652   3.328   1.056  0.2055 -0.1590  0.5179
    2MPD1    C214091   2.577   3.304   0.941  0.8025  0.4868 -0.3129
    2MPD1    C314092   2.570   3.406   0.846 -0.7869 -0.2421 -0.0474
    2MPD1    C414093   2.641   3.522   0.864  0.0225 -0.5796 -0.1085
    2MPD1    C514094   2.728   3.530   0.967  0.1938  0.8580  1.0822
    2MPD1     H14095   2.527   3.211   0.921 -0.2264  0.9160  0.2904
    2MPD1    H114096   2.626   3.598   0.788  0.9620  0.5352  0.8106
    2MPD1    H214097   2.796   3.463   1.155 -0.6204  0.3162 -0.7764
    2MPD1    H314098   2.788   3.621   0.973 -0.7760  1.4867  1.1255
    2MPD1     N14099   2.481   3.384   0.735 -0.2083  0.1640  0.2504
    2MPD1    H514100   2.423   3.302   0.733 -1.9856  1.4265  0.4677
    2MPD1    N114101   2.684   3.217   1.144 -0.5075 -0.2305  0.4597
    2MPD1    H614102   2.602   3.157   1.153 -0.6978 -0.2983 -1.5878
    2MPD1    H714103   2.708   3.242   1.239  0.5694  0.7967 -0.0740
    1MPD1     C14104   0.557   1.935  12.433 -0.5555 -0.1349 -0.9496
    1MPD1    C114105   0.672   1.974  12.499  0.0976  1.0067 -0.3764
    1MPD1    C214106   0.716   2.103  12.471  0.0785 -0.1656  0.4060
    1MPD1    C314107   0.656   2.176  12.370  0.1148  0.2606 -0.0479
    1MPD1    C414108   0.558   2.129  12.291  0.3032 -0.0262  0.4495
    1MPD1    C514109   0.509   2.006  12.326  0.3946  0.2112 -0.6672
    1MPD1     H14110   0.807   2.138  12.518  2.1824 -1.0237 -3.0994
    1MPD1    H114111   0.506   2.171  12.207  2.6043  0.1566 -0.8800
    1MPD1    H214112   0.524   1.832  12.438 -1.2118  0.1265 -0.0512
    1MPD1    H314113   0.418   1.966  12.284  0.1199  1.4063 -1.2155
    1MPD1     N14114   0.721   2.298  12.347 -0.4548 -0.1860 -0.4658
    1MPD1    H514115   0.791   2.324  12.416 -0.5362 -3.8773  1.0506
    1MPD1    N114116   0.723   1.886  12.599  0.2750  0.3132 -0.3322
    1MPD1    H614117   0.694   1.789  12.590 -0.8173  0.9067 -3.3758
    1MPD1    H714118   0.824   1.893  12.610  0.3740 -0.5589 -0.6846
    2MPD1     C14119   4.384   2.595  11.627  0.9363 -0.3744 -0.1878
    2MPD1    C114120   4.499   2.543  11.679 -0.0468  0.0079  0.2324
    2MPD1    C214121   4.589   2.491  11.592  0.1338 -0.0854  0.3934
    2MPD1    C314122   4.586   2.514  11.458 -0.5339  0.5474  1.1069
    2MPD1    C414123   4.471   2.567  11.408 -0.4244  0.4196 -0.0562
    2MPD1    C514124   4.372   2.604  11.495  0.6353 -0.2649  0.5437
    2MPD1     H14125   4.672   2.444  11.644 -2.7827 -3.9682  1.5443
    2MPD1    H114126   4.451   2.564  11.301 -0.9826 -3.7480  0.1858
    2MPD1    H214127   4.297   2.624  11.685  2.3605  2.6770  0.4031
    2MPD1    H314128   4.284   2.651  11.451 -1.1233 -2.5828  1.5600
    2MPD1     N14129   4.685   2.467  11.366 -0.2903 -0.7003  0.0531
    2MPD1    H514130   4.646   2.451  11.273 -1.3404 -0.0013  0.3782
    2MPD1    N114131   4.501   2.515  11.811  0.3072 -0.0217 -0.3081
    2MPD1    H614132   4.463   2.588  11.872  0.6543  0.2395 -0.4028
    2MPD1    H714133   4.592   2.485  11.846 -0.3667 -0.3403  1.1713
    3MPD1     C14134   0.075   2.165  10.430  0.2543 -0.2877 -0.9765
    3MPD1    C114135   0.202   2.188  10.475 -0.4366  0.3753 -0.7434
    3MPD1    C214136   0.230   2.194  10.606 -0.1162 -0.6440  0.2118
    3MPD1    C314137   0.136   2.193  10.706  0.7364 -0.7641 -0.5989
    3MPD1    C414138   0.003   2.176  10.663  0.2601 -0.5403 -0.6136
    3MPD1    C514139   4.702   2.149  10.530 -0.0918  0.2175 -0.2703
    3MPD1     H14140   0.332   2.211  10.638 -0.8369  2.2746  0.9382
    3MPD1    H114141   4.649   2.154  10.736  0.6082 -1.0169 -0.3978
    3MPD1    H214142   0.041   2.140  10.330 -0.3227  0.4981 -0.9719
    3MPD1    H314143   4.602   2.121  10.500 -0.3974 -0.7736  1.6675
    3MPD1     N14144   0.173   2.226  10.840 -0.0946  0.5739 -0.7177
    3MPD1    H514145   0.272   2.248  10.850 -0.3733  0.5609  1.9524
    3MPD1    N114146   0.307   2.178  10.381  0.4381 -0.5113 -0.3004
    3MPD1    H614147   0.291   2.214  10.287  0.3497  2.4393  0.8513
    3MPD1    H714148   0.390   2.212  10.429  1.3809 -0.9085 -1.6306
    4MPD2     C14149   0.779   2.972  11.835 -0.0131  0.8192 -0.3253
    4MPD2    C114150   0.873   2.871  11.872  0.5093  0.2592 -0.9967
    4MPD2    C214151   0.960   2.825  11.782  0.9383  0.9367  0.4394
    4MPD2    C314152   0.961   2.872  11.654 -0.2187 -0.7511  0.5768
    4MPD2    C414153   0.875   2.980  11.616  0.6455  0.5002  0.8932
    4MPD2    C514154   0.790   3.028  11.712 -0.1741 -0.1980 -0.0919
    4MPD2     H14155   1.028   2.749  11.819 -1.7727 -1.6023  0.1616
    4MPD2    H114156   0.878   3.033  11.522 -0.6478 -0.0896  0.5265
    4MPD2    H214157   0.702   3.008  11.902  0.8966  1.9122  0.1348
    4MPD2    H314158   0.725   3.110  11.683 -2.2989 -1.9227 -0.2069
    4MPD2     N14159   1.045   2.797  11.563 -0.2807 -0.6815 -0.5509
    4MPD2    H514160   1.108   2.727  11.600  0.2069 -0.2572 -0.5914
    4MPD2    N114161   0.882   2.811  12.006 -0.0186 -0.2644  0.2225
    4MPD2    H714162   0.961   2.748  12.020  1.0815  1.0661 -0.0586
    5TMC3    C114163   0.813   2.718  12.214 -1.3587  0.4048  0.5329
    5TMC3    C214164   0.717   2.618  12.227 -0.0325 -0.1371 -0.3581
    5TMC3    C314165   0.774   2.500  12.260 -0.3234  0.0819 -0.1227
    5TMC3    C414166   0.950   2.689  12.217 -0.0362 -0.0185  0.2869
    5TMC3    C514167   0.995   2.561  12.219 -0.1207 -0.7272  0.0101
    5TMC3    C614168   0.906   2.465  12.251  0.2404  0.4268  0.2213
    5TMC3     C14169   0.785   2.814  12.111  0.1451  0.0727  0.2631
    5TMC3     O14170   0.685   2.877  12.102  0.6825 -0.0590 -0.8648
    5TMC3     H14171   0.611   2.634  12.211 -0.1857 -0.6797  0.0931
    5TMC3    H114172   1.019   2.772  12.207 -1.2937  1.2217  1.8016
    5TMC3    H214173   0.942   2.364  12.265  0.2766  0.5431  0.9968
    5TMC3    C714174   1.089   2.533  12.118 -0.1581  0.0440  0.1742
    5TMC3    C814175   0.684   2.390  12.249 -0.0317  0.6976  1.0348
    5TMC3    O114176   1.087   2.622  12.036  0.6611 -0.5965  0.5323
    5TMC3    O214177   0.583   2.389  12.179 -0.6648 -0.0427  0.0216
    6TMC3    C114178   0.140   2.324  11.298  0.6505  0.5115 -0.1882
    6TMC3    C214179   0.091   2.325  11.172  0.8487  0.0764  0.2745
    6TMC3    C314180   0.165   2.274  11.071 -0.4175  0.2335 -0.2817
    6TMC3    C414181   0.262   2.264  11.319 -0.3393 -0.0963  0.4280
    6TMC3    C514182   0.332   2.213  11.219  0.1390  0.0664  0.1876
    6TMC3    C614183   0.293   2.221  11.087 -0.6041  0.9388 -0.7284
    6TMC3     C14184   0.087   2.417  11.402 -0.2772  0.0291  0.3343
    6TMC3     O14185   0.150   2.431  11.505 -0.5101 -0.0465  0.0443
    6TMC3     H14186   4.713   2.358  11.149  1.8524  3.4717  0.7442
    6TMC3    H114187   0.294   2.255  11.422  1.6341  0.9791 -0.0886
    6TMC3    H214188   0.362   2.180  11.014  0.2579  1.3297 -0.1435
    6TMC3    C714189   0.469   2.181  11.250 -0.1666 -0.1128  0.6209
    6TMC3    C814190   0.091   2.231  10.952  0.0342 -0.2167  0.3183
    6TMC3    O114191   0.506   2.223  11.357 -0.1236 -0.1297 -0.0175
    6TMC3    O214192   4.690   2.230  10.952 -0.8819  0.0288  0.1625
    7MPD2     C14193   1.253   2.184  11.784  0.2125  0.6695  0.0598
    7MPD2    C114194   1.210   2.315  11.774 -0.2754  0.0771  0.1943
    7MPD2    C214195   1.163   2.382  11.882 -0.2359  0.7386 -0.3303
    7MPD2    C314196   1.170   2.331  12.005  0.0419  0.4245 -0.2354
    7MPD2    C414197   1.222   2.202  12.017 -0.0204  0.3118  0.2483
    7MPD2    C514198   1.259   2.128  11.910 -0.3715  0.2906 -0.5923
    7MPD2     H14199   1.114   2.479  11.876  0.8252  1.3702  1.1953
    7MPD2    H114200   1.226   2.146  12.110 -0.7724 -0.7067 -0.3346
    7MPD2    H214201   1.287   2.128  11.697  0.5967 -0.8173  1.1652
    7MPD2    H314202   1.305   2.030  11.918 -1.1440 -0.0910 -0.8673
    7MPD2     N14203   1.127   2.406  12.115 -0.2243 -0.0405 -0.3339
    7MPD2    H514204   1.129   2.361  12.206 -1.3754  0.6835  0.0630
    7MPD2    N114205   1.248   2.374  11.646 -0.2190 -0.4594  0.2154
    7MPD2    H714206   1.289   2.311  11.578  0.2888  0.0852  0.0145
    8TMC3    C114207   1.234   2.530  11.486 -0.0345 -0.0173 -0.2004
    8TMC3    C214208   1.154   2.440  11.414  0.2570 -0.1860  0.2284
    8TMC3    C314209   1.090   2.491  11.305 -0.8881  0.5222  0.8634
    8TMC3    C414210   1.225   2.664  11.460 -0.4579 -0.4975  1.0628
    8TMC3    C514211   1.138   2.713  11.371  0.5603 -0.3376 -0.5242
    8TMC3    C614212   1.070   2.624  11.290 -0.8923 -0.3779 -0.1023
    8TMC3     C14213   1.234   2.506  11.626  0.4688 -0.2777  0.2866
    8TMC3     O14214   1.226   2.594  11.707  0.3562  0.0486  0.3591
    8TMC3     H14215   1.132   2.338  11.445 -0.3736 -0.0779  0.1461
    8TMC3    H114216   1.271   2.732  11.530  0.1567  1.5295 -1.2877
    8TMC3    H214217   1.008   2.647  11.204 -1.8223 -1.0255  0.3956
    8TMC3    C714218   1.053   2.814  11.429  0.5461 -0.2288 -0.7516
    8TMC3    C814219   0.973   2.416  11.269  0.1457  0.3473 -0.3105
    8TMC3    O114220   0.989   2.890  11.352  0.3120 -0.3212 -0.6531
    8TMC3    O214221   0.868   2.481  11.281  1.7303 -0.2737 -0.5695
    9MPD2     C14222   0.955   2.078  11.132 -0.3193  0.8616  0.1613
    9MPD2    C114223   0.906   2.193  11.193 -0.2866  0.4464  0.5982
    9MPD2    C214224   0.765   2.201  11.213  0.3547 -0.6142  0.3075
    9MPD2    C314225   0.682   2.093  11.172 -0.4529 -0.4820  1.0388
    9MPD2    C414226   0.737   1.981  11.112  0.1561  0.2819  0.0938
    9MPD2    C514227   0.869   1.977  11.086  0.1926 -0.4465 -0.2452
    9MPD2     H14228   0.728   2.294  11.253  0.2601 -1.1577  1.4748
    9MPD2    H114229   0.672   1.906  11.069 -0.0693  1.1543 -1.0829
    9MPD2    H214230   1.062   2.062  11.122  0.0761  2.2603  2.1240
    9MPD2    H314231   0.911   1.887  11.042 -1.3921 -0.8554 -0.9372
    9MPD2     N14232   0.535   2.101  11.162  0.0730  0.0576 -0.1048
    9MPD2    H514233   0.478   2.040  11.104  1.5084 -0.9545 -0.4484
    9MPD2    N114234   1.002   2.294  11.219 -0.0005 -0.1291 -0.1409
    9MPD2    H714235   1.099   2.272  11.202  0.4346  0.9000  0.9460
    1MPD1     C14236   4.605   4.546  16.851 -0.5727 -0.0314  0.2151
    1MPD1    C114237   4.511   4.653  16.849 -0.0193  0.1502  0.0185
    1MPD1    C214238   4.566   0.053  16.887  0.3547  0.4191  0.8367
    1MPD1    C314239   4.694   0.074  16.930 -0.1101 -0.5328 -0.7982
    1MPD1    C414240   0.051   4.685  16.949 -0.0501 -0.1517 -0.2352
    1MPD1    C514241   0.000   4.562  16.916  0.5751  0.1479 -0.1600
    1MPD1     H14242   4.502   0.141  16.882 -0.5185 -0.1993  1.0305
    1MPD1    H114243   0.139   4.686  17.014  0.6360  1.0250 -1.1843
    1MPD1    H214244   4.577   4.448  16.816  1.1855 -0.9610  1.4052
    1MPD1    H314245   0.053   4.473  16.946  0.4995  1.3316  3.4538
    1MPD1     N14246   0.018   0.201  16.968  0.0770  0.6780 -0.1889
    1MPD1    H514247   0.105   0.198  17.020 -0.7629  1.8594  1.2812
    1MPD1    N114248   4.393   4.636  16.777 -0.6470 -0.5353  0.2355
    1MPD1    H614249   4.317   4.701  16.798 -0.1379  0.3455 -0.6425
    1MPD1    H714250   4.353   4.545  16.797  2.1805 -2.0551 -1.0536
    2MPD1     C14251   0.380   0.586   0.096 -0.4240  0.1720 -0.3348
    2MPD1    C114252   0.369   0.699   0.020  0.1032  1.0623 -0.0052
    2MPD1    C214253   0.308   0.685  17.590  0.4809 -0.2198  0.1763
    2MPD1    C314254   0.237   0.571  17.556 -0.5636 -0.3110  0.0482
    2MPD1    C414255   0.243   0.462  17.640 -1.1044 -0.1685 -0.5577
    2MPD1    C514256   0.321   0.474   0.059  0.7055  0.2640  0.1175
    2MPD1     H14257   0.291   0.775  17.532  0.4729  0.0957  0.6632
    2MPD1    H114258   0.170   0.381  17.636  0.0674 -1.3111  1.3511
    2MPD1    H214259   0.439   0.586   0.187 -2.2354  0.2519  0.8419
    2MPD1    H314260   0.326   0.394   0.132 -0.1012 -1.2630 -1.4789
    2MPD1     N14261   0.173   0.575  17.433  0.0893  0.3421 -0.3056
    2MPD1    H514262   0.170   0.660  17.379  1.1620  0.3802 -0.3090
    2MPD1    N114263   0.442   0.814   0.050  0.3707 -0.4438  0.2975
    2MPD1    H614264   0.435   0.842   0.148  2.1305  1.4764 -0.1268
    2MPD1    H714265   0.414   0.892  17.684 -0.7949 -2.3257 -1.6298
    3TCq2    C114266   0.121   0.465  17.370  0.2374 -0.4330  0.0920
    3TCq2    O214267   0.135   0.344  17.391  0.0772  0.0415  0.2999
    3TCq2    C214268   0.068   0.498  17.243  0.1889 -0.3145 -0.6958
    3TCq2    C314269   0.065   0.629  17.202  0.6877 -0.0038 -0.0475
    3TCq2    C414270   0.022   0.648  17.071 -0.9047  0.1117  0.9885
    3TCq2    C514271   0.001   0.548  16.982  0.3784 -0.4578  0.3362
    3TCq2    C614272   0.014   0.425  17.030 -0.1518  0.5343  0.1133
    3TCq2    C714273   0.046   0.395  17.158 -0.8850  0.5415  0.2049
    3TCq2    C814274   4.688   0.322  16.943  0.4467  0.3642 -0.0040
    3TCq2    O414275   4.591   0.352  16.869  0.5990 -0.3261 -0.2986
    3TCq2    C914276   0.022   0.784  17.019  0.5724  0.3871 -0.1979
    3TCq2    O514277   0.065   0.868  17.102 -0.2614 -0.4783  0.3559
    3TCq2    O614278   0.001   0.812  16.897 -0.5279  0.1665  0.3306
    3TCq2    H214279   0.083   0.714  17.266  0.2659 -0.2939  0.4644
    3TCq2    H314280   4.701   0.563  16.877 -0.4545 -1.1385  0.4189
    3TCq2    H414281   0.035   0.294  17.195 -0.9732  0.7521  0.7657
    1TCq1    O114282   3.757   0.644  11.421  0.1201 -0.0820  0.4724
    1TCq1    C114283   3.670   0.586  11.506  0.3154  0.4926  0.4870
    1TCq1    O214284   3.564   0.629  11.540 -0.1361 -0.1696  0.6107
    1TCq1    C214285   3.764   0.515  11.596  1.3391  0.2463 -0.1983
    1TCq1    C314286   3.701   0.415  11.660  0.0345 -0.2414  0.2165
    1TCq1    C414287   3.771   0.346  11.752 -0.2281  0.3364 -0.3799
    1TCq1    C514288   3.896   0.384  11.787 -0.4198  0.2599  1.1037
    1TCq1    C614289   3.957   0.494  11.732 -0.6206 -0.8083 -0.2240
    1TCq1    C714290   3.891   0.557  11.624 -0.0488 -0.4737  0.8574
    1TCq1    C814291   4.100   0.499  11.737  0.3205 -0.0908 -0.2874
    1TCq1    O414292   4.168   0.531  11.641  0.1637  0.6154 -0.7670
    1TCq1    C914293   3.722   0.225  11.809 -0.0672 -0.0316  0.3118
    1TCq1    O514294   3.801   0.150  11.873 -0.1720  0.7777 -0.0622
    1TCq1    O614295   3.599   0.211  11.798 -0.0695 -0.3574  0.0025
    1TCq1    H114296   3.820   0.575  11.391  0.4360  0.8864 -1.1097
    1TCq1    H214297   3.608   0.376  11.620  0.5404 -2.7521  1.4844
    1TCq1    H314298   3.954   0.321  11.854  0.7775 -0.5468 -0.6984
    1TCq1    H414299   3.942   0.633  11.565 -0.5863  0.6581  1.8658
    2MPD2     C14300   4.385   0.451  11.806  0.0548 -0.3633  0.0948
    2MPD2    C114301   4.284   0.470  11.896  0.0889  0.1699 -0.6798
    2MPD2    C214302   4.313   0.483  12.031  0.2200 -0.3943  0.1821
    2MPD2    C314303   4.444   0.473  12.078  0.3031 -0.2019 -0.7026
    2MPD2    C414304   4.537   0.428  11.990  0.0860  0.1582  0.9270
    2MPD2    C514305   4.508   0.416  11.857 -0.2762  0.8990 -0.3759
    2MPD2     H14306   4.231   0.495  12.101  0.6769  0.5479  0.5471
    2MPD2    H114307   4.632   0.393  12.030  0.4064 -0.5682 -0.4756
    2MPD2    H214308   4.374   0.427  11.701  0.8905 -5.1688  1.1202
    2MPD2    H314309   4.573   0.373  11.782 -0.5024  1.6381 -0.9888
    2MPD2     N14310   4.466   0.484  12.217  0.2310  0.0007 -0.7499
    2MPD2    H514311   4.391   0.512  12.280 -1.2238  0.3945 -2.6583
    2MPD2    N114312   4.149   0.476  11.862  0.2116 -0.6059  0.5595
    2MPD2    H714313   4.083   0.462  11.938  1.6573  1.2384  2.1400
    3TCq1    O114314   0.067   0.506  12.805 -0.0024 -0.0218 -0.0299
    3TCq1    C114315   0.018   0.400  12.741  0.1828  0.1052 -0.9026
    3TCq1    O214316   0.079   0.296  12.729 -0.1521  0.1648  0.3617
    3TCq1    C214317   4.633   0.450  12.650  0.3532  0.3163 -0.2475
    3TCq1    C314318   4.532   0.530  12.701  0.4770  0.2717 -0.1348
    3TCq1    C414319   4.446   0.585  12.609 -0.2780  0.2428  0.5569
    3TCq1    C514320   4.446   0.562  12.475 -0.9166 -0.6257  0.2533
    3TCq1    C614321   4.559   0.492  12.430  0.3616 -0.0909  0.7008
    3TCq1    C714322   4.650   0.436  12.518 -0.8216 -0.5687  0.4633
    3TCq1    C814323   4.581   0.469  12.288  0.4432  0.3654  1.2631
    3TCq1    O414324   4.698   0.454  12.254 -0.1734  0.0828  0.0431
    3TCq1    C914325   4.329   0.649  12.656  0.5056  0.2760 -0.0794
    3TCq1    O514326   4.285   0.620  12.774 -0.9494  0.4552 -0.2687
    3TCq1    O614327   4.249   0.692  12.568 -0.4096  0.4014  0.6075
    3TCq1    H114328   0.017   0.588  12.789 -0.2752 -0.1455  0.1989
    3TCq1    H214329   4.528   0.545  12.809 -0.5812 -0.9349 -0.0014
    3TCq1    H314330   4.381   0.621  12.411 -1.3977  0.1336  1.4390
    3TCq1    H414331   0.009   0.376  12.480 -0.2516 -0.3816  1.4009
    1MPD2     C14332   2.776   1.135  14.908 -0.7340 -0.0358 -0.4451
    1MPD2    C114333   2.659   1.066  14.900 -0.0542 -0.0581  0.0867
    1MPD2    C214334   2.668   0.933  14.924 -0.4329 -0.0840 -0.1876
    1MPD2    C314335   2.788   0.868  14.938 -0.4614 -0.2377  0.1326
    1MPD2    C414336   2.904   0.936  14.941 -0.4160 -0.1198 -1.3121
    1MPD2    C514337   2.898   1.069  14.922 -0.6062  0.1067 -0.0032
    1MPD2     H14338   2.578   0.872  14.926  0.0393 -0.8239 -1.3096
    1MPD2    H114339   2.996   0.881  14.958  0.4711  1.0007 -2.4902
    1MPD2    H214340   2.785   1.242  14.896  0.9611 -0.1684 -0.4163
    1MPD2    H314341   2.987   1.127  14.902 -0.2336  0.0143  1.3472
    1MPD2     N14342   2.781   0.723  14.955  0.4818 -0.0691 -0.3685
    1MPD2    H514343   2.686   0.691  14.968 -0.2804  2.1076 -0.5015
    1MPD2    N114344   2.542   1.143  14.871  0.1654 -0.4086  0.2231
    1MPD2    H714345   2.557   1.239  14.842  0.7266  0.2060  2.5350
    2TMC3    C114346   2.313   1.176  14.803  0.7471 -0.5897  0.1522
    2TMC3    C214347   2.184   1.121  14.814  0.5247 -0.0241 -0.2414
    2TMC3    C314348   2.110   1.110  14.698  0.3633  0.0014  0.6673
    2TMC3    C414349   2.351   1.232  14.683 -0.2465 -0.1339  1.0608
    2TMC3    C514350   2.266   1.225  14.567 -0.5412  0.1128  0.6722
    2TMC3    C614351   2.152   1.153  14.578 -0.4226 -0.3489  0.0161
    2TMC3     C14352   2.412   1.096  14.875  0.2128  0.2388 -0.1992
    2TMC3     O14353   2.371   0.991  14.921  0.0542  0.2084 -0.1401
    2TMC3     H14354   2.156   1.077  14.909  0.6545  1.5231  0.5102
    2TMC3    H114355   2.437   1.297  14.678  0.9950 -1.9624 -1.4366
    2TMC3    H214356   2.093   1.135  14.488 -0.1550 -0.8354 -0.0592
    2TMC3    C714357   2.281   1.322  14.463 -0.4913 -0.6692  0.4206
    2TMC3    C814358   2.072   0.975  14.674 -0.3668  0.6597  0.2463
    2TMC3    O114359   2.186   1.333  14.386  0.2492 -0.2056  0.3665
    2TMC3    O214360   1.984   0.954  14.587 -0.5705 -0.5001  0.1380
    3TCq1    O114361   3.219   2.076  14.524  0.1779  0.0793 -0.8846
    3TCq1    C114362   3.158   2.099  14.407 -0.7680 -0.2134  0.3176
    3TCq1    O214363   3.113   2.206  14.371  0.1672  0.0948  0.3414
    3TCq1    C214364   3.124   1.974  14.347 -0.1953  0.1681 -0.1516
    3TCq1    C314365   3.217   1.877  14.387 -0.4072  0.2100 -0.1933
    3TCq1    C414366   3.169   1.747  14.397  0.5401  0.7844  0.6155
    3TCq1    C514367   3.040   1.711  14.372 -0.4164  0.3848 -0.7366
    3TCq1    C614368   2.957   1.814  14.340  0.6535  0.3474  0.0510
    3TCq1    C714369   2.995   1.941  14.329  0.1861  0.4310 -0.2095
    3TCq1    C814370   2.815   1.787  14.295  0.0122  0.2101  0.2895
    3TCq1    O414371   2.765   1.875  14.220  0.8783  0.3641 -0.1692
    3TCq1    C914372   3.264   1.643  14.438 -0.1727  0.0502  0.1034
    3TCq1    O514373   3.384   1.673  14.466  0.2995 -0.2112  0.1922
    3TCq1    O614374   3.214   1.529  14.441  0.5921 -0.6481 -0.3645
    3TCq1    H114375   3.247   1.982  14.527 -1.6112 -0.4406 -0.4898
    3TCq1    H214376   3.325   1.891  14.386 -0.2375 -0.9478  2.6666
    3TCq1    H314377   3.009   1.608  14.383  0.5562  0.1358 -0.4007
    3TCq1    H414378   2.929   2.016  14.286  1.1211  0.8348 -0.9423
    4MPD2     C14379   2.539   1.690  14.221  0.3535 -0.2031  0.8389
    4MPD2    C114380   2.626   1.632  14.307  0.5101 -0.1368 -0.4014
    4MPD2    C214381   2.580   1.521  14.374 -0.7199  0.1531  0.2225
    4MPD2    C314382   2.444   1.484  14.367 -0.0501 -0.0166 -0.4312
    4MPD2    C414383   2.355   1.550  14.289  0.9696  0.1106  0.0408
    4MPD2    C514384   2.409   1.655  14.215 -0.4519 -0.0287 -0.0228
    4MPD2     H14385   2.655   1.473  14.435 -2.3846 -1.9862  0.5692
    4MPD2    H114386   2.247   1.534  14.286  0.9618  0.2523 -0.4678
    4MPD2    H214387   2.568   1.773  14.157 -2.6882  0.7630  0.7132
    4MPD2    H314388   2.342   1.713  14.152  1.9183  2.2647 -0.4055
    4MPD2     N14389   2.399   1.387  14.457 -0.3654  0.1269  0.2766
    4MPD2    H514390   2.468   1.354  14.524  1.3941  0.0398 -1.5476
    4MPD2    N114391   2.761   1.671  14.339  0.0001 -0.1710  0.5865
    4MPD2    H714392   2.815   1.616  14.405  0.7554 -0.6440 -0.4331
    5TMC2    C114393   2.612   0.432  14.893 -0.5104  0.6175 -0.1348
    5TMC2    C214394   2.654   0.376  14.774  0.1668  0.0061  0.5138
    5TMC2    C314395   2.784   0.371  14.744 -0.0843  0.3159  0.1633
    5TMC2    C414396   2.707   0.484  14.975 -0.3355 -0.2123  0.0538
    5TMC2    C514397   2.837   0.502  14.928  0.4125 -0.2522 -0.1339
    5TMC2    C614398   2.872   0.448  14.808 -0.7659 -0.3536 -0.2622
    5TMC2     C14399   2.502   0.528  14.890  0.5094  0.6018 -0.2438
    5TMC2     O14400   2.514   0.638  14.938  0.4740  0.0562 -0.0526
    5TMC2     H14401   2.585   0.309  14.725  0.7998 -0.9191  0.8866
    5TMC2    H114402   2.680   0.514  15.075  0.5659  0.1531  0.1855
    5TMC2    H214403   2.972   0.463  14.770  0.1568 -0.3551  2.1530
    5TMC2    C714404   2.883   0.639  14.918 -0.1983 -0.1764  0.8350
    5TMC2    C814405   2.821   0.306  14.622  0.8223  0.6905 -0.4910
    5TMC2    O114406   3.003   0.645  14.910  0.3211 -0.0982  0.7538
    5TMC2    O214407   2.816   0.183  14.603  0.0486 -0.3341 -0.3321
    5TMC2    O514408   2.815   0.391  14.520 -0.1810 -0.7201 -0.8688
    5TMC2    H514409   2.809   0.486  14.546  0.2006 -0.4678 -1.7238
    6MPD2     C14410   2.072   0.672  14.667  0.0335  0.3676  0.1474
    6MPD2    C114411   2.170   0.750  14.727  0.6227 -0.1881 -0.0769
    6MPD2    C214412   2.274   0.684  14.782  0.0740 -0.1939 -0.4891
    6MPD2    C314413   2.287   0.546  14.773 -0.4810 -0.1192  0.6335
    6MPD2    C414414   2.190   0.475  14.708  0.1947 -0.3075 -0.0133
    6MPD2    C514415   2.078   0.536  14.657 -0.2431 -0.3602 -0.1049
    6MPD2     H14416   2.353   0.745  14.827 -0.6729 -0.3144  0.9907
    6MPD2    H114417   2.198   0.369  14.689  2.3682 -0.1729  0.1745
    6MPD2    H214418   1.985   0.713  14.617  0.9058  1.2737 -0.6336
    6MPD2    H314419   1.996   0.487  14.607  0.8140 -2.0126 -0.2247
    6MPD2     N14420   2.395   0.473  14.821  0.7179 -0.7562  0.2052
    6MPD2    H514421   2.394   0.373  14.805  0.1171 -1.3913  4.2223
    6MPD2    N114422   2.171   0.894  14.726 -0.0577 -0.2325 -0.0687
    6MPD2    H714423   2.247   0.936  14.778  0.9648 -1.9689 -0.1637
  945NH3     N114424   1.126   1.730   7.632 -0.9279 -0.0960 -0.0810
  945NH3     H214425   1.208   1.771   7.589 -0.3775 -0.5116  0.5661
  945NH3     H314426   1.138   1.629   7.635 -1.2489 -0.1349 -0.0879
  945NH3     H414427   1.052   1.749   7.565 -0.5042  0.8370 -0.2755
  946SOD     NA14428   2.743   2.059  14.079 -0.5926  0.1603 -0.3962
  947SOD     NA14429   3.468   0.926  15.327 -0.4305  0.1908  0.4999
  948SOD     NA14430   2.728   4.289  15.902  0.1552  0.3864 -0.0244
  949SOD     NA14431   1.530   1.356  10.471  0.0417  0.6129 -0.0170
  950SOD     NA14432   3.920   0.930   9.970 -0.0450  0.0007 -0.2912
  951SOD     NA14433   0.674   0.889  14.822 -0.0296 -0.1993 -0.6505
  952SOD     NA14434   2.580   2.236   1.484 -0.1278 -0.1219 -0.0286
  953SOD     NA14435   0.443   0.602   2.728  0.0164 -0.1452  0.0678
  954SOD     NA14436   3.954   4.178  12.636  0.0404  0.2001  0.2691
  955SOD     NA14437   4.511   0.349  16.649 -0.0307 -0.2703 -0.5439
  956SOD     NA14438   1.307   0.051   1.097  0.1885  0.0118  0.6917
  957SOD     NA14439   2.925   0.655   8.657  0.6482  0.2152 -0.0152
  958SOD     NA14440   3.255   0.727   0.881  0.5336 -0.7020  0.0901
  959SOD     NA14441   3.309   3.684   9.204 -0.0570 -0.7970  0.1236
  960SOD     NA14442   2.692   4.095  10.210 -0.3911 -0.6870  0.0664
  961SOD     NA14443   4.179   0.153   3.279  0.2246  0.3162 -0.3112
  962SOD     NA14444   3.379   0.371  12.561 -0.0273 -0.1209  0.5120
  963SOD     NA14445   2.500   1.131  10.241  0.5417  0.1604  0.3435
  964SOD     NA14446   3.494   0.041  11.718  0.3570 -0.1660  0.8539
  965SOD     NA14447   1.797   4.394   9.948 -0.0220 -0.0795  0.4536
  966SOD     NA14448   3.124   1.440  14.607 -0.0525 -0.1502 -0.0593
  967SOD     NA14449   1.887   3.054   0.723 -0.1853 -0.2359  0.2989
  968SOD     NA14450   4.366   3.228   3.252  0.3248  0.0811 -0.5583
  969SOD     NA14451   0.561   3.814  11.273 -0.5378  0.4503  0.0130
  970SOD     NA14452   3.660   3.790   0.930 -0.1081 -0.4855 -0.5150
  971SOD     NA14453   1.078   3.073  15.224  0.4713 -0.0343  0.1636
  972SOD     NA14454   1.883   1.029  13.580  0.0218 -0.1036  0.1972
  973SOD     NA14455   2.212   4.410  11.282 -0.1284 -0.0343  0.7125
  974SOD     NA14456   0.937   3.379  13.706  0.2823 -0.3417 -0.0634
  975SOD     NA14457   1.694   4.088   1.060 -0.4472  0.1401  0.0623
  976SOD     NA14458   2.786   4.404  10.207  0.3315 -0.0544 -0.0638
  977SOD     NA14459   3.545   0.372  12.231  0.2718 -0.1854  0.1641
  978SOD     NA14460   0.032   1.611   7.504 -0.2694  0.0302 -0.4221
  979SOD     NA14461   4.476   1.618  13.171  0.5926 -0.0751  0.2749
  980SOD     NA14462   0.126   0.011  14.257 -0.4661  0.3321  0.0252
  981SOD     NA14463   1.723   3.351   9.514 -0.3035 -0.0677 -0.3679
  982SOD     NA14464   0.494   3.412   0.378  0.1609 -0.0219 -0.3913
  983SOD     NA14465   2.583   2.364   1.868 -0.5566  0.2127  0.6737
  984SOD     NA14466   1.646   2.009   4.179  0.2041  0.4337 -0.2882
  985SOD     NA14467   1.325   4.314  11.856 -0.1077 -0.2771  0.0960
  986SOD     NA14468   2.974   4.046  10.347 -0.4997 -0.0565  0.6956
  987SOD     NA14469   2.075   2.925   0.452  0.5492  0.6146 -0.0263
  988SOD     NA14470   4.487   1.104   5.662  0.2933 -0.4943 -0.0187
  989SOD     NA14471   0.358   4.421   8.357 -0.2466 -0.1912 -0.4830
  990SOD     NA14472   1.937   3.290   0.914 -0.0286 -0.0365 -0.2009
  991SOD     NA14473   0.222   1.072  16.480 -0.3398 -0.0468 -0.0824
  992SOD     NA14474   3.430   1.466  14.512 -0.1878  0.1451 -0.7674
  993SOD     NA14475   2.535   3.889  10.428  0.6309 -0.1887  0.1142
  994SOD     NA14476   3.685   1.444  11.230  0.1279 -0.4093 -0.0771
  995SOD     NA14477   3.810   1.727  10.998  0.3835 -0.1224  0.0981
  996SOD     NA14478   3.200   3.085   3.098  0.1363  0.2194 -0.0495
  997SOD     NA14479   4.105   0.853  12.552  0.3201  0.2389  0.3562
  998SOD     NA14480   1.762   0.435   1.904  0.0850 -0.0960  0.3102
  999SOD     NA14481   1.924   1.507   9.293 -0.3871  0.0323  0.4428
 1000SOD     NA14482   1.409   4.574  12.792 -0.5324 -0.1690  0.3401
 1001SOD     NA14483   2.699   0.267  10.096 -0.0733  0.0922  0.4367
 1002SOD     NA14484   0.610   1.210  13.179  0.1172  0.1460 -0.0385
 1003SOD     NA14485   2.951   3.999  10.702 -0.2463  0.1914 -0.4689
 1004SOD     NA14486   1.711   4.440  13.669  0.4016  0.0398  0.0228
 1005SOD     NA14487   1.072   4.573  15.944 -0.0933  0.0072  0.1638
 1006SOD     NA14488   3.466   0.293  11.952  0.1377  0.4026 -0.0393
 1007SOD     NA14489   0.052   2.700  16.870 -0.0922  0.2621  0.1610
 1008SOD     NA14490   0.110   4.434  14.142  0.1852  0.2340  0.0708
 1009SOD     NA14491   2.583   1.683  16.776  0.1926  0.2489  0.0157
 1010SOD     NA14492   0.263   2.815  11.664  0.2248 -0.1713  0.3579
 1011SOD     NA14493   3.283   2.735   2.137  0.3297  0.5359 -0.0004
 1012SOL     OW14494   2.770   0.244   3.014 -0.3645  0.1073  0.2668
 1012SOL    HW114495   2.732   0.162   2.982 -1.3003  0.3593  0.7259
 1012SOL    HW214496   2.724   0.249   3.098 -0.8882 -0.2060  0.0027
 1013SOL     OW14497   0.745   2.143   3.790  0.4693 -0.3168 -0.8518
 1013SOL    HW114498   0.705   2.074   3.844 -1.4133  0.4689 -1.2631
 1013SOL    HW214499   0.672   2.204   3.783  0.9614  0.3151 -0.5086
 1014SOL     OW14500   4.517   2.927  16.433  0.4449 -0.0428 -0.0737
 1014SOL    HW114501   4.468   2.852  16.398  2.1172 -0.9554 -0.4950
 1014SOL    HW214502   4.508   2.993  16.364  0.7120 -0.9935 -1.0226
 1015SOL     OW14503   2.141   3.121   9.224 -0.3251  0.3513  0.5417
 1015SOL    HW114504   2.192   3.058   9.173  0.6226  0.4119  1.4138
 1015SOL    HW214505   2.150   3.085   9.312 -3.4450 -0.1521  0.6491
 1016SOL     OW14506   3.140   2.279   4.976 -0.3704 -0.3869  0.1820
 1016SOL    HW114507   3.157   2.211   5.040 -0.2592 -0.3101  0.2341
 1016SOL    HW214508   3.051   2.259   4.945 -0.4859 -0.2835  0.4440
 1017SOL     OW14509   0.776   4.522   5.014 -0.8200 -0.4240 -0.4144
 1017SOL    HW114510   0.704   4.530   4.952  0.6041  0.0344 -2.0006
 1017SOL    HW214511   0.801   4.430   5.003 -1.4097 -0.6995  0.5923
 1018SOL     OW14512   1.721   1.247  12.601 -0.2554 -0.2929 -0.0062
 1018SOL    HW114513   1.705   1.341  12.591 -0.1884 -0.2579  0.2181
 1018SOL    HW214514   1.748   1.246  12.509  1.0707 -2.1304  0.4299
 1019SOL     OW14515   4.105   1.817   3.829  0.3888  0.2029  0.1145
 1019SOL    HW114516   4.157   1.802   3.908 -0.2586 -0.3614  0.4272
 1019SOL    HW214517   4.166   1.773   3.770 -0.1888 -0.5217  0.0593
 1020SOL     OW14518   3.736   1.563  12.631  0.8419 -0.1414 -0.1014
 1020SOL    HW114519   3.730   1.561  12.726 -0.4739 -0.6153 -0.2009
 1020SOL    HW214520   3.684   1.640  12.611  1.2004  0.6614  2.1353
 1021SOL     OW14521   1.166   2.886   4.296  0.8911 -0.4151 -0.0915
 1021SOL    HW114522   1.213   2.857   4.218  0.2673 -0.4925 -0.4461
 1021SOL    HW214523   1.138   2.973   4.265 -1.2717 -0.4607  1.7207
 1022SOL     OW14524   3.926   3.463   6.200 -0.5557  0.0369  0.6213
 1022SOL    HW114525   4.018   3.479   6.223 -0.5869  2.0851 -0.7168
 1022SOL    HW214526   3.887   3.483   6.285 -0.9411 -0.7239  0.6289
 1023SOL     OW14527   4.022   1.605   1.104 -0.0830 -0.0437  0.1937
 1023SOL    HW114528   3.954   1.610   1.037 -0.1175 -0.2194  0.2162
 1023SOL    HW214529   4.098   1.653   1.070 -0.0439 -1.5483 -1.8672
 1024SOL     OW14530   4.262   1.673   1.003  0.1982 -0.0572 -0.0331
 1024SOL    HW114531   4.324   1.614   0.960 -0.9702 -0.6761 -0.8710
 1024SOL    HW214532   4.320   1.732   1.052 -1.5638  0.1482  1.7955
 1025SOL     OW14533   0.039   1.271  14.941 -0.2772 -0.2835 -0.2290
 1025SOL    HW114534   4.681   1.227  14.916 -0.1625 -1.1274  0.8751
 1025SOL    HW214535   0.031   1.270  15.037 -1.8463  1.4501 -0.3421
 1026SOL     OW14536   4.258   1.733   2.273 -0.4165 -0.0908 -0.1352
 1026SOL    HW114537   4.187   1.678   2.240  0.3200 -1.6651  0.9227
 1026SOL    HW214538   4.260   1.704   2.364 -0.9652  0.3907  0.0328
 1027SOL     OW14539   0.720   3.179   3.034  0.0790  0.4936 -0.5137
 1027SOL    HW114540   0.637   3.180   2.987  0.2821 -3.0057 -0.9522
 1027SOL    HW214541   0.766   3.101   3.002 -2.0420 -0.5660 -0.9969
 1028SOL     OW14542   3.595   3.884   7.069 -0.2580 -0.0313 -0.0348
 1028SOL    HW114543   3.531   3.814   7.056 -0.0752  0.4301 -3.4373
 1028SOL    HW214544   3.542   3.963   7.084 -1.1653 -1.0064  1.8915
 1029SOL     OW14545   4.341   2.977   1.480 -0.6217  0.1389  0.1703
 1029SOL    HW114546   4.350   2.929   1.398 -1.0392 -2.9761  1.9696
 1029SOL    HW214547   4.296   3.057   1.451  0.2080 -0.1235 -1.8317
 1030SOL     OW14548   0.492   2.764   3.500  0.2586  0.4721  0.8674
 1030SOL    HW114549   0.473   2.827   3.429 -0.6701  2.6141  3.0238
 1030SOL    HW214550   0.410   2.760   3.549 -1.2129  0.5455 -1.5738
 1031SOL     OW14551   4.467   4.667   4.254 -0.1584  0.1111 -0.4275
 1031SOL    HW114552   4.519   4.588   4.269 -2.9145 -1.2060  2.1236
 1031SOL    HW214553   4.515   0.001   4.313 -0.1902  0.4409 -0.7207
 1032SOL     OW14554   4.075   3.552   0.495  0.1115  0.5437 -0.9555
 1032SOL    HW114555   3.983   3.529   0.508  0.7422 -0.5748  1.6199
 1032SOL    HW214556   4.078   3.532   0.402  2.3844  1.4687 -1.0785
 1033SOL     OW14557   0.998   0.002   7.009 -0.1132 -0.4396  0.3665
 1033SOL    HW114558   0.934   0.057   6.963 -2.6401 -2.2697  1.7111
 1033SOL    HW214559   0.946   4.646   7.026 -0.1014 -0.7805 -1.1608
 1034SOL     OW14560   0.873   2.113   6.940 -0.2331 -0.0817 -0.2192
 1034SOL    HW114561   0.959   2.130   6.978 -0.7138 -1.5646  1.4959
 1034SOL    HW214562   0.833   2.059   7.008 -0.6089  2.8041  1.8472
 1035SOL     OW14563   4.715   1.050   4.341 -0.1446 -0.0707 -0.0850
 1035SOL    HW114564   4.716   1.143   4.364 -2.0430  0.8799 -3.7465
 1035SOL    HW214565   4.622   1.047   4.318 -0.4076  1.0174  0.8057
 1036SOL     OW14566   2.340   3.163  15.634 -0.3636 -0.0477 -0.2348
 1036SOL    HW114567   2.405   3.192  15.570  1.0483 -1.2546  0.6484
 1036SOL    HW214568   2.314   3.083  15.590 -2.0280 -0.2671  1.1699
 1037SOL     OW14569   2.486   4.131   3.061  0.2059 -0.1110  0.3005
 1037SOL    HW114570   2.449   4.217   3.081  0.3115 -0.4016  1.7154
 1037SOL    HW214571   2.553   4.141   3.129  0.4511  1.5215 -0.1737
 1038SOL     OW14572   3.456   1.177  10.321 -0.2535  0.1560 -0.4814
 1038SOL    HW114573   3.400   1.220  10.256 -0.1789  0.8883 -0.0475
 1038SOL    HW214574   3.451   1.245  10.388  0.2843  0.5621 -0.8552
 1039SOL     OW14575   2.752   2.614   4.683 -0.2082 -0.0127 -0.4662
 1039SOL    HW114576   2.753   2.521   4.704  1.6089 -0.0974 -0.9592
 1039SOL    HW214577   2.660   2.636   4.697  0.4222  3.4599 -1.7396
 1040SOL     OW14578   3.371   3.645  10.159 -0.2210 -0.1920 -0.2953
 1040SOL    HW114579   3.286   3.664  10.198  0.4744  2.3091  0.0045
 1040SOL    HW214580   3.395   3.560  10.196 -0.3179 -0.1639 -0.1670
 1041SOL     OW14581   4.232   2.342   8.332  0.4639  0.7083  0.4575
 1041SOL    HW114582   4.295   2.281   8.370  0.6170  0.4760 -0.1869
 1041SOL    HW214583   4.271   2.386   8.256  0.4097 -0.0954 -0.0243
 1042SOL     OW14584   4.669   0.284   6.547  0.1424  0.1895  0.7021
 1042SOL    HW114585   4.695   0.243   6.629  2.6507 -0.7527 -0.5845
 1042SOL    HW214586   0.017   0.346   6.529 -0.6234  0.5183 -1.2916
 1043SOL     OW14587   0.566   2.694   8.611 -0.1107 -0.6509 -0.2448
 1043SOL    HW114588   0.573   2.627   8.543 -1.0007 -0.9907 -0.0092
 1043SOL    HW214589   0.657   2.714   8.631  0.0721 -1.3433 -0.3904
 1044SOL     OW14590   1.574   1.815   5.108  0.4528 -0.0463 -0.0878
 1044SOL    HW114591   1.481   1.797   5.098  0.4070 -0.2507  0.7200
 1044SOL    HW214592   1.597   1.778   5.022  2.5719 -0.4408  0.6412
 1045SOL     OW14593   0.982   3.893   5.393 -0.8986  0.1949 -0.3123
 1045SOL    HW114594   0.920   3.953   5.435  1.0352  0.8935  1.6160
 1045SOL    HW214595   1.007   3.837   5.467  0.9623  1.8058  0.2830
 1046SOL     OW14596   0.493   1.554   0.006  0.0387  0.0118 -0.2662
 1046SOL    HW114597   0.481   1.460  17.690 -0.3849  0.2564 -2.2806
 1046SOL    HW214598   0.425   1.571   0.072  1.1252 -0.2107  0.9013
 1047SOL     OW14599   4.609   4.403   0.283 -0.3274 -0.0716  0.1442
 1047SOL    HW114600   4.661   4.402   0.363 -1.7821 -2.2984  1.0695
 1047SOL    HW214601   4.606   4.317   0.243  2.5884 -0.9221  1.8022
 1048SOL     OW14602   0.497   1.190   2.055  0.3209  0.1332 -0.3344
 1048SOL    HW114603   0.427   1.245   2.091  0.7801  0.7807 -0.4312
 1048SOL    HW214604   0.542   1.238   1.985  1.0029 -1.4490 -0.9831
 1049SOL     OW14605   3.117   0.167   5.166 -0.2415  0.0937 -0.2105
 1049SOL    HW114606   3.200   0.211   5.144 -0.1350 -0.7911 -1.5774
 1049SOL    HW214607   3.146   0.076   5.155 -1.7358 -0.5012  0.8511
 1050SOL     OW14608   3.526   3.353   5.034 -0.5672  0.0906  0.4840
 1050SOL    HW114609   3.589   3.347   5.106  0.6417 -1.5351 -0.6985
 1050SOL    HW214610   3.514   3.448   5.036  1.6190  0.3516  1.4442
 1051SOL     OW14611   0.117   1.824   6.489 -0.5432  0.3605 -0.4792
 1051SOL    HW114612   0.041   1.839   6.545 -1.1334 -1.5023 -0.7987
 1051SOL    HW214613   0.096   1.753   6.429  0.0796  1.0491 -1.5296
 1052SOL     OW14614   0.125   2.961   5.012  0.1713  0.7040 -0.1662
 1052SOL    HW114615   0.150   2.928   4.926 -0.7149  0.8459 -0.4695
 1052SOL    HW214616   0.128   2.882   5.067 -1.8930 -0.2332 -1.4316
 1053SOL     OW14617   2.897   4.186   3.241 -0.0946  0.0068 -0.5440
 1053SOL    HW114618   2.891   4.206   3.147  0.8199  2.2809 -0.1253
 1053SOL    HW214619   2.863   4.270   3.273  1.1789 -0.3131  1.6343
 1054SOL     OW14620   1.565   1.083   6.732 -0.6003 -0.6388 -0.1549
 1054SOL    HW114621   1.626   1.020   6.694  0.5165  1.7747 -2.3997
 1054SOL    HW214622   1.608   1.161   6.696 -1.9994 -0.0490 -0.5631
 1055SOL     OW14623   2.824   2.051   3.496 -0.1802  0.1181  0.7675
 1055SOL    HW114624   2.907   2.097   3.484  0.4025 -1.0364  0.3713
 1055SOL    HW214625   2.770   2.089   3.427  1.2154  0.7802  0.0359
 1056SOL     OW14626   2.950   3.048   5.479 -0.0746  0.0474  0.1426
 1056SOL    HW114627   2.866   3.044   5.524 -0.4552 -0.7549 -0.6222
 1056SOL    HW214628   2.911   3.036   5.392  1.0241  2.4457 -0.6847
 1057SOL     OW14629   2.000   1.618  10.685 -0.1659  0.2926 -0.2422
 1057SOL    HW114630   1.999   1.591  10.777 -1.1954 -0.4749 -0.4792
 1057SOL    HW214631   1.956   1.543  10.643 -1.9266  0.0955  1.9429
 1058SOL     OW14632   2.894   4.040   4.372  0.1563  0.2691 -0.0218
 1058SOL    HW114633   2.902   3.951   4.337 -1.0570  1.4033 -3.1114
 1058SOL    HW214634   2.799   4.049   4.377 -0.0096 -2.2443  1.4450
 1059SOL     OW14635   1.496   2.632   7.903 -0.3368  0.8043  0.5647
 1059SOL    HW114636   1.467   2.704   7.846 -0.0773 -0.2777 -0.9419
 1059SOL    HW214637   1.435   2.630   7.977 -0.0174  2.9406  0.8892
 1060SOL     OW14638   3.438   3.593   5.528 -0.1439 -0.5832  0.4834
 1060SOL    HW114639   3.478   3.529   5.469  0.0530  0.0576 -0.0833
 1060SOL    HW214640   3.442   3.551   5.614  0.9458 -2.5614 -0.5218
 1061SOL     OW14641   2.919   2.125   4.287  0.8044  0.0828  0.3599
 1061SOL    HW114642   2.885   2.104   4.374 -0.2621  1.6390  0.3182
 1061SOL    HW214643   3.008   2.150   4.314  0.8224 -0.6250  0.9463
 1062SOL     OW14644   1.702   2.051  11.387  0.8550  0.4603 -0.0325
 1062SOL    HW114645   1.790   2.051  11.349  0.8678  0.4418 -0.0031
 1062SOL    HW214646   1.722   1.994  11.461  0.9904 -0.1605 -0.5446
 1063SOL     OW14647   1.655   0.299   0.432 -0.3110 -0.2089 -0.3726
 1063SOL    HW114648   1.694   0.386   0.423 -1.5414  0.2050 -1.7311
 1063SOL    HW214649   1.610   0.300   0.517 -1.0059  1.1728 -0.7670
 1064SOL     OW14650   2.257   1.782   3.991 -0.3352  0.2925 -0.3810
 1064SOL    HW114651   2.252   1.824   3.905 -0.0445 -1.2315 -1.1485
 1064SOL    HW214652   2.334   1.726   3.981 -0.1617  0.5496 -0.5014
 1065SOL     OW14653   4.041   2.761  14.149 -0.1656  0.2381  0.0268
 1065SOL    HW114654   4.057   2.667  14.148 -0.3144  0.2134 -0.1362
 1065SOL    HW214655   3.968   2.756  14.086 -0.8563 -0.0715  0.8527
 1066SOL     OW14656   2.441   2.012  12.796  0.2379 -0.2448  0.3625
 1066SOL    HW114657   2.361   1.965  12.820 -1.6655  2.2654 -1.1259
 1066SOL    HW214658   2.507   1.945  12.817  1.2906  0.4480 -0.7106
 1067SOL     OW14659   0.639   4.538   5.750 -0.2110  0.3958 -0.6168
 1067SOL    HW114660   0.698   4.596   5.702  1.5038 -0.6169  0.2325
 1067SOL    HW214661   0.670   4.532   5.840 -2.1220 -0.5626 -0.0227
 1068SOL     OW14662   2.376   0.711   3.452  0.6851  0.8144 -0.8580
 1068SOL    HW114663   2.377   0.644   3.520  0.3932  0.9887 -0.6814
 1068SOL    HW214664   2.371   0.649   3.379 -1.4873 -0.0141 -0.0236
 1069SOL     OW14665   0.926   3.623   4.450  0.7147  0.3340  0.4228
 1069SOL    HW114666   0.902   3.560   4.518  0.3282  3.6636  3.4411
 1069SOL    HW214667   0.882   3.586   4.374 -0.6185 -3.5721  3.0804
 1070SOL     OW14668   1.897   0.134   3.764  0.0019  0.4990  0.1302
 1070SOL    HW114669   1.975   0.169   3.722  0.2858 -0.4221 -0.1095
 1070SOL    HW214670   1.865   0.076   3.695  0.0828 -0.1863  0.6637
 1071SOL     OW14671   0.142   2.450  14.510  0.7812  0.4580  0.0807
 1071SOL    HW114672   0.207   2.380  14.499  0.9104  0.7230 -0.8538
 1071SOL    HW214673   0.124   2.497  14.429 -3.0712  0.0256  0.6826
 1072SOL     OW14674   1.019   3.623   8.319  0.0453 -0.0881 -0.4003
 1072SOL    HW114675   1.004   3.703   8.268  1.0049  0.3704  0.0422
 1072SOL    HW214676   1.052   3.567   8.248 -0.1271  0.3242 -0.8095
 1073SOL     OW14677   1.577   4.648   3.768  0.3640  0.1330 -0.2747
 1073SOL    HW114678   1.490   4.683   3.750 -0.3120 -0.6036  1.5535
 1073SOL    HW214679   1.633   4.693   3.704  0.9488  1.0297  0.8724
 1074SOL     OW14680   1.633   2.766   9.344 -0.3372 -0.0064 -0.1203
 1074SOL    HW114681   1.565   2.794   9.282 -0.9265 -0.1983  0.4390
 1074SOL    HW214682   1.582   2.780   9.425 -1.1608 -1.3440 -0.4105
 1075SOL     OW14683   3.168   2.856  15.668 -0.2854 -0.6118 -0.0989
 1075SOL    HW114684   3.248   2.817  15.705  1.0292 -0.8110 -3.1751
 1075SOL    HW214685   3.181   2.825  15.579 -3.3526  0.5550 -0.9248
 1076SOL     OW14686   4.414   1.585   7.855  0.2449  0.7970  0.0356
 1076SOL    HW114687   4.363   1.551   7.781  0.5552 -1.6174  0.9445
 1076SOL    HW214688   4.397   1.510   7.912 -1.2038  0.2858 -1.0716
 1077SOL     OW14689   1.933   2.212   5.041  0.2824  0.0301 -0.0313
 1077SOL    HW114690   1.886   2.131   5.062 -1.3659  0.8151 -0.7827
 1077SOL    HW214691   1.858   2.260   5.008  1.0149  1.4370  0.3554
 1078SOL     OW14692   2.484   0.615   5.378 -0.3078  0.3491  0.1626
 1078SOL    HW114693   2.458   0.547   5.439 -0.9918  1.1560  0.7727
 1078SOL    HW214694   2.429   0.597   5.302  1.9726 -0.9717 -1.1667
 1079SOL     OW14695   3.620   3.038  17.609  0.0658 -0.4496 -0.0172
 1079SOL    HW114696   3.595   2.989  17.688 -0.0129 -0.3897 -0.0049
 1079SOL    HW214697   3.715   3.047  17.617 -0.1367  1.0929  0.5082
 1080SOL     OW14698   4.381   0.617  13.367 -0.3336  0.1132  0.1728
 1080SOL    HW114699   4.313   0.685  13.368 -0.3706  0.0625  1.5090
 1080SOL    HW214700   4.327   0.541  13.347 -0.9545  0.1170  1.7998
 1081SOL     OW14701   4.496   3.729   4.255 -0.5492  0.2635  0.1348
 1081SOL    HW114702   4.495   3.679   4.174 -1.4231 -2.1913  1.6676
 1081SOL    HW214703   4.427   3.795   4.250  0.0349  0.8852  0.2068
 1082SOL     OW14704   2.789   0.261   9.213 -0.1838 -0.0872  0.2516
 1082SOL    HW114705   2.846   0.215   9.151  0.1462  1.0248 -0.2587
 1082SOL    HW214706   2.776   0.188   9.274 -0.5657  0.9531  1.4129
 1083SOL     OW14707   3.470   2.332  15.465  0.1760 -0.5720  0.2316
 1083SOL    HW114708   3.395   2.337  15.525  1.2992  0.5482  1.5447
 1083SOL    HW214709   3.546   2.305  15.517  0.7332 -2.4211 -1.5509
 1084SOL     OW14710   0.292   0.726   7.234 -0.0640 -0.0033 -0.2958
 1084SOL    HW114711   0.243   0.712   7.153 -0.1107 -1.5164  0.0015
 1084SOL    HW214712   0.379   0.734   7.193 -0.5647 -0.9520 -1.5384
 1085SOL     OW14713   0.026   3.205   3.042 -0.0918 -0.1543 -0.3501
 1085SOL    HW114714   0.102   3.159   3.006  1.9981  3.0208  0.0252
 1085SOL    HW214715   0.025   3.171   3.132  0.5674  1.3191  0.2111
 1086SOL     OW14716   3.846   0.491   8.112 -0.4757  0.1353 -0.1396
 1086SOL    HW114717   3.845   0.586   8.129 -1.0641  0.0209  0.4871
 1086SOL    HW214718   3.938   0.474   8.090 -0.3375  1.8487 -0.9126
 1087SOL     OW14719   2.690   0.016  12.468  0.0293  0.2655  0.0791
 1087SOL    HW114720   2.720   4.708  12.383  0.1978 -1.3175  0.7255
 1087SOL    HW214721   2.759   4.710  12.528 -0.9898 -1.3349  0.4639
 1088SOL     OW14722   2.291   2.025   7.353 -0.5780 -0.5014 -0.4462
 1088SOL    HW114723   2.238   2.048   7.276  0.8743  1.2863 -0.9181
 1088SOL    HW214724   2.365   2.086   7.350  1.0346 -2.5051 -0.8911
 1089SOL     OW14725   3.857   4.050   5.143 -0.1080  0.9094  0.3900
 1089SOL    HW114726   3.793   4.038   5.072 -0.3705  0.9862  0.6161
 1089SOL    HW214727   3.935   4.027   5.093 -0.4513 -1.5074  0.9486
 1090SOL     OW14728   2.401   1.015  10.575  0.2987 -0.1008 -0.2227
 1090SOL    HW114729   2.427   1.072  10.648 -1.6101 -0.8993  1.0758
 1090SOL    HW214730   2.438   0.931  10.600 -1.4382 -0.0902  2.4631
 1091SOL     OW14731   2.208   0.640   4.666 -0.4011  0.2979  0.0303
 1091SOL    HW114732   2.218   0.545   4.664  1.3399  0.4648  0.2945
 1091SOL    HW214733   2.119   0.655   4.633 -0.5861 -1.4184 -0.2171
 1092SOL     OW14734   1.572   1.620  13.209  0.3699  0.3869 -0.1568
 1092SOL    HW114735   1.651   1.602  13.261 -0.0993 -0.7408  0.1768
 1092SOL    HW214736   1.601   1.681  13.142  1.5234 -1.8067 -1.6612
 1093SOL     OW14737   0.815   0.269   7.774 -0.0677  0.1993 -0.1168
 1093SOL    HW114738   0.877   0.297   7.841  0.1441  1.6720 -0.9226
 1093SOL    HW214739   0.865   0.211   7.717  0.6627 -1.7493  2.5184
 1094SOL     OW14740   3.683   2.699   4.093  0.2330  0.0619  0.6476
 1094SOL    HW114741   3.618   2.647   4.140  3.1451 -2.6289  1.7320
 1094SOL    HW214742   3.766   2.671   4.132 -0.8196 -0.7542  2.2659
 1095SOL     OW14743   4.233   1.219  16.824 -0.2211 -0.0054 -0.3611
 1095SOL    HW114744   4.206   1.131  16.849  0.0675  0.6884  2.4403
 1095SOL    HW214745   4.196   1.272  16.895 -0.6861 -2.2720  1.0891
 1096SOL     OW14746   0.374   4.044   4.659 -0.0675  0.5893  0.5766
 1096SOL    HW114747   0.416   3.999   4.732  0.4842  1.2574  0.6702
 1096SOL    HW214748   0.383   3.983   4.586  1.2734  0.3500  0.9336
 1097SOL     OW14749   0.128   1.770   6.980 -0.0501  0.4758  0.2375
 1097SOL    HW114750   0.087   1.857   6.985  0.0593  0.5693 -0.5195
 1097SOL    HW214751   0.176   1.770   7.063  0.0943 -2.1726  0.1613
 1098SOL     OW14752   0.296   0.915  14.965  0.2786 -0.5746 -0.5406
 1098SOL    HW114753   0.243   0.947  15.038 -0.5559 -1.2360 -0.8492
 1098SOL    HW214754   0.381   0.953  14.987  0.1135  0.6811 -2.0134
 1099SOL     OW14755   2.977   0.668   8.869 -0.1219 -0.4997 -0.1695
 1099SOL    HW114756   2.905   0.709   8.916 -0.6610 -2.4595  0.7140
 1099SOL    HW214757   3.052   0.708   8.913 -1.3667  0.7966  0.7830
 1100SOL     OW14758   1.780   1.050   9.763  0.0712 -0.2808  0.1128
 1100SOL    HW114759   1.724   1.002   9.823 -1.4819  0.3856 -0.8098
 1100SOL    HW214760   1.718   1.120   9.743 -0.0039  1.0380  5.1285
 1101SOL     OW14761   0.378   0.479   4.203  0.3591  0.0380  0.7278
 1101SOL    HW114762   0.328   0.413   4.251 -0.6069  0.3801  0.1880
 1101SOL    HW214763   0.398   0.548   4.265 -1.0621  0.8476  0.2804
 1102SOL     OW14764   4.338   1.089   4.505  0.1434 -0.0752 -0.5301
 1102SOL    HW114765   4.288   1.010   4.527  0.7147 -0.0475  0.8735
 1102SOL    HW214766   4.393   1.105   4.582 -2.4641 -2.2283  1.7747
 1103SOL     OW14767   4.520   2.401   6.639 -0.2967  0.0917  0.2740
 1103SOL    HW114768   4.570   2.478   6.666 -0.2244  0.3699 -0.6445
 1103SOL    HW214769   4.443   2.409   6.694  1.2419  1.1148  2.2635
 1104SOL     OW14770   4.080   4.433   6.964  0.2233 -0.0816 -0.3864
 1104SOL    HW114771   4.150   4.493   6.938 -1.9132  1.6076 -2.3279
 1104SOL    HW214772   4.027   4.496   7.013 -0.0157 -0.9086  0.4098
 1105SOL     OW14773   4.106   1.039  10.094  0.5971 -0.4437  0.2709
 1105SOL    HW114774   4.080   1.129  10.114  1.1767 -0.7022  2.2019
 1105SOL    HW214775   4.185   1.051  10.042 -0.8878  0.8734 -1.6703
 1106SOL     OW14776   0.501   3.210  16.715 -0.2238  0.2557  0.1441
 1106SOL    HW114777   0.559   3.276  16.752  0.4827 -0.5021  0.3972
 1106SOL    HW214778   0.416   3.251  16.732  0.6318  1.5621  1.2705
 1107SOL     OW14779   0.717   2.625   9.358 -0.5674 -0.3537 -0.1823
 1107SOL    HW114780   0.769   2.641   9.279 -0.9492  2.6284  0.1835
 1107SOL    HW214781   0.788   2.647   9.419  0.4740 -4.1337 -0.0311
 1108SOL     OW14782   3.581   4.157   1.434  0.3377 -1.0567 -0.5110
 1108SOL    HW114783   3.673   4.155   1.462 -0.3365 -1.4876  1.6064
 1108SOL    HW214784   3.601   4.150   1.340  4.7294  0.5512  0.2727
 1109SOL     OW14785   1.756   3.139   0.454  0.2039 -0.0810  0.0211
 1109SOL    HW114786   1.850   3.148   0.465  0.0896  1.4145 -0.2833
 1109SOL    HW214787   1.729   3.223   0.490 -0.0061 -0.4317  0.6999
 1110SOL     OW14788   2.591   1.005   2.988  0.3118 -0.0997 -0.0860
 1110SOL    HW114789   2.660   0.982   2.925  0.0567  2.8139 -1.4348
 1110SOL    HW214790   2.524   0.938   2.973  0.7231 -0.3752 -0.7295
 1111SOL     OW14791   0.807   1.425   7.598  0.1383  0.1831  0.1302
 1111SOL    HW114792   0.808   1.509   7.553 -1.6002  0.0089 -0.2404
 1111SOL    HW214793   0.827   1.456   7.686  0.4563 -0.9456  0.4598
 1112SOL     OW14794   4.440   1.955   2.250  0.1013  0.3208  0.0377
 1112SOL    HW114795   4.521   1.936   2.202 -1.5833 -1.9102 -1.8935
 1112SOL    HW214796   4.400   1.868   2.253  2.4463 -0.7322  1.1766
 1113SOL     OW14797   1.587   3.306   8.624  0.3569  0.0499 -0.4181
 1113SOL    HW114798   1.498   3.272   8.635 -0.0097  1.2927  0.3805
 1113SOL    HW214799   1.570   3.393   8.588 -2.0051 -0.8464 -1.4872
 1114SOL     OW14800   0.547   2.993   4.950  0.0068  0.4114  0.7713
 1114SOL    HW114801   0.614   3.056   4.975  0.3031  0.0004  1.0113
 1114SOL    HW214802   0.500   2.978   5.033 -0.0432  0.7559  0.8075
 1115SOL     OW14803   2.850   1.773   3.517 -0.4544  0.0122 -0.2921
 1115SOL    HW114804   2.945   1.787   3.524 -0.5354  1.2768 -1.8618
 1115SOL    HW214805   2.831   1.865   3.499  2.2169  0.0389 -3.0725
 1116SOL     OW14806   3.586   0.106  16.118  0.2535  0.5254 -0.3053
 1116SOL    HW114807   3.568   0.131  16.027 -0.1070 -0.0185 -0.3826
 1116SOL    HW214808   3.640   0.180  16.146 -1.2518  1.7640 -0.6773
 1117SOL     OW14809   3.139   4.154   1.873  0.2536  0.1482 -0.5047
 1117SOL    HW114810   3.210   4.212   1.900 -1.6942  1.5648  1.5509
 1117SOL    HW214811   3.067   4.212   1.848  0.0869  0.8558  1.5858
 1118SOL     OW14812   0.716   0.364   7.101  0.5255 -0.4880  0.3884
 1118SOL    HW114813   0.712   0.314   7.020  0.3585  1.0562 -0.5521
 1118SOL    HW214814   0.798   0.413   7.093  1.1140 -1.4465  0.4781
 1119SOL     OW14815   0.043   4.656  16.576 -0.4915 -0.5348 -0.3177
 1119SOL    HW114816   4.684   4.630  16.534 -0.2087 -0.7643 -0.7361
 1119SOL    HW214817   0.016   4.645  16.667  0.3802 -1.4474 -0.1638
 1120SOL     OW14818   3.490   0.716  15.306 -0.1580 -0.1248  0.3497
 1120SOL    HW114819   3.556   0.655  15.339 -0.6429  1.1944  3.7930
 1120SOL    HW214820   3.453   0.663  15.235  2.2546 -0.2914 -0.7692
 1121SOL     OW14821   3.509   4.556  16.195  0.6019 -0.2195 -0.0785
 1121SOL    HW114822   3.420   4.581  16.169  0.6834  2.2528  1.9079
 1121SOL    HW214823   3.556   4.637  16.175 -1.1880  0.9433  0.3926
 1122SOL     OW14824   1.626   3.577   0.393 -0.0908 -0.0724  0.0092
 1122SOL    HW114825   1.578   3.651   0.432 -0.3453  0.4558 -1.3262
 1122SOL    HW214826   1.582   3.570   0.309 -0.1827 -0.3146  0.0786
 1123SOL     OW14827   3.380   3.297   5.395 -0.0141 -0.0771 -0.2901
 1123SOL    HW114828   3.308   3.238   5.373  1.2166 -2.5528  2.2611
 1123SOL    HW214829   3.335   3.355   5.457  0.5514 -1.0772  1.0624
 1124SOL     OW14830   2.538   2.905   4.411 -0.7775 -0.4934 -0.4047
 1124SOL    HW114831   2.527   3.000   4.406  0.8411 -0.2860 -0.0571
 1124SOL    HW214832   2.620   2.897   4.460 -0.4010 -0.7619 -1.0895
 1125SOL     OW14833   0.510   4.543   3.310 -0.3332  0.6197 -0.7443
 1125SOL    HW114834   0.458   4.607   3.359  1.5905  0.3688  1.6509
 1125SOL    HW214835   0.470   4.548   3.223  1.5940  1.9326 -1.5709
 1126SOL     OW14836   0.380   0.050  16.880 -0.5275  0.5608 -0.2349
 1126SOL    HW114837   0.333   0.125  16.918 -0.6701 -0.1851  1.0924
 1126SOL    HW214838   0.405   0.082  16.794  1.2991 -0.6931 -0.1620
 1127SOL     OW14839   2.823   0.753   9.544  0.2292 -0.2064 -0.0482
 1127SOL    HW114840   2.891   0.686   9.543 -1.1371 -1.6160  0.1008
 1127SOL    HW214841   2.875   0.824   9.583 -0.4448 -0.4882  1.3818
 1128SOL     OW14842   3.630   1.815   7.254 -0.2018  0.4077 -0.4482
 1128SOL    HW114843   3.627   1.900   7.210  0.4107  0.1096 -1.0555
 1128SOL    HW214844   3.668   1.832   7.341 -0.1683  0.2537 -0.4330
 1129SOL     OW14845   1.078   0.934   0.276 -0.0510 -0.0227 -0.1107
 1129SOL    HW114846   1.165   0.944   0.238 -1.2717 -0.0840 -2.9713
 1129SOL    HW214847   1.062   0.844   0.246  0.3771  0.0023 -0.4103
 1130SOL     OW14848   1.163   2.568   2.022 -0.0114  0.6541  0.1681
 1130SOL    HW114849   1.114   2.502   2.071  0.4818  0.5081  0.4690
 1130SOL    HW214850   1.097   2.602   1.962 -1.2984  0.4848  1.4803
 1131SOL     OW14851   3.724   1.062   0.518 -0.0362  0.3938  0.2049
 1131SOL    HW114852   3.664   0.988   0.510 -0.5393  1.0151 -1.8197
 1131SOL    HW214853   3.791   1.018   0.571  1.8974  2.0281 -0.8856
 1132SOL     OW14854   0.053   0.836  13.344  0.3445  0.6492 -0.2958
 1132SOL    HW114855   0.073   0.928  13.365 -0.5782  0.5393  1.1010
 1132SOL    HW214856   0.084   0.830  13.254  3.5444  0.4514  0.8421
 1133SOL     OW14857   3.147   2.641  13.509  0.1502 -0.0943  0.5482
 1133SOL    HW114858   3.146   2.546  13.501 -0.9392 -0.0471  0.1333
 1133SOL    HW214859   3.242   2.652  13.497  0.2445  1.0617  2.4343
 1134SOL     OW14860   2.049   1.438  15.883  0.7663 -0.3254  0.4980
 1134SOL    HW114861   2.067   1.531  15.868 -1.2849 -0.1305 -0.7029
 1134SOL    HW214862   2.020   1.414  15.795  1.4261  0.6406  0.0146
 1135SOL     OW14863   0.822   1.157   7.565 -0.5313  0.0009 -0.0591
 1135SOL    HW114864   0.830   1.252   7.580  0.7233  0.0547 -1.0646
 1135SOL    HW214865   0.788   1.172   7.476 -2.7574  0.0752  0.8048
 1136SOL     OW14866   2.965   4.313   7.648 -0.0258 -0.2394  0.1057
 1136SOL    HW114867   2.987   4.403   7.625 -0.2242 -0.5325 -1.2551
 1136SOL    HW214868   2.885   4.316   7.700 -0.5017 -2.7663 -0.4613
 1137SOL     OW14869   0.429   2.329  13.175  0.1850 -0.7512  0.4087
 1137SOL    HW114870   0.411   2.242  13.210 -0.9264 -0.9475 -0.5998
 1137SOL    HW214871   0.517   2.315  13.140  0.3885  0.6518  0.3650
 1138SOL     OW14872   3.590   3.961   8.267 -0.3903 -0.5646  0.1076
 1138SOL    HW114873   3.640   3.994   8.193  1.1146 -0.4668  1.1767
 1138SOL    HW214874   3.500   3.993   8.259  0.1753  0.6817 -1.1866
 1139SOL     OW14875   3.690   2.981   7.594 -0.2039  0.4652 -0.1875
 1139SOL    HW114876   3.773   2.987   7.641  0.3134 -3.8094 -0.6332
 1139SOL    HW214877   3.713   3.021   7.509  0.6320 -0.9142 -0.5994
 1140SOL     OW14878   1.987   0.141  15.356 -0.2753 -0.2566 -0.3167
 1140SOL    HW114879   2.072   0.103  15.379 -1.0756 -0.5270  2.1413
 1140SOL    HW214880   2.014   0.230  15.334 -0.6415  0.0391  0.4267
 1141SOL     OW14881   0.540   4.593   4.894  0.5094 -0.5182  0.4309
 1141SOL    HW114882   0.464   4.630   4.939  0.8384  0.9374 -0.2174
 1141SOL    HW214883   0.528   4.629   4.807 -1.3774 -3.0107 -0.3364
 1142SOL     OW14884   2.992   0.534   5.886 -0.0153  0.4727  0.1283
 1142SOL    HW114885   2.994   0.455   5.939 -1.4610  0.7310  0.5628
 1142SOL    HW214886   2.965   0.606   5.943  1.5216  1.6100 -0.5741
 1143SOL     OW14887   1.719   3.973  12.934  0.1788 -0.4948 -0.0180
 1143SOL    HW114888   1.704   3.887  12.896  0.0817 -0.6785  0.4301
 1143SOL    HW214889   1.633   4.015  12.921  0.3651  0.2018  0.9780
 1144SOL     OW14890   3.303   3.574  15.270 -0.1238 -0.8646 -0.3337
 1144SOL    HW114891   3.333   3.545  15.356  2.3654  0.7243 -0.6911
 1144SOL    HW214892   3.383   3.610  15.233 -0.8594 -0.4004 -1.4763
 1145SOL     OW14893   0.888   3.301   1.813 -0.1093 -0.3384  0.1031
 1145SOL    HW114894   0.893   3.289   1.908 -0.0801  0.3132  0.1854
 1145SOL    HW214895   0.934   3.225   1.777  0.6682  0.6994 -1.1263
 1146SOL     OW14896   2.378   3.199  11.108  0.3231 -0.2861 -0.0282
 1146SOL    HW114897   2.399   3.285  11.143  0.6456 -0.8394  1.1503
 1146SOL    HW214898   2.284   3.200  11.090  0.5695 -1.1469 -1.3382
 1147SOL     OW14899   4.649   4.135   7.296 -0.0029 -0.7414  0.1064
 1147SOL    HW114900   4.639   4.051   7.340  0.4888 -1.3828 -1.0114
 1147SOL    HW214901   4.706   4.114   7.222 -1.3653  1.1746 -1.4778
 1148SOL     OW14902   2.747   2.212  14.471 -0.6085  0.2132 -0.1698
 1148SOL    HW114903   2.798   2.274  14.523  1.7256 -1.7501 -0.1469
 1148SOL    HW214904   2.729   2.147  14.539  1.8041  0.2246  0.4587
 1149SOL     OW14905   3.827   2.253   5.745  0.6686  0.4372 -0.1572
 1149SOL    HW114906   3.867   2.210   5.821  0.9389 -0.2079 -0.6571
 1149SOL    HW214907   3.736   2.223   5.742  1.3003 -1.4529 -0.7467
 1150SOL     OW14908   1.873   2.892   6.201 -0.2295 -0.2773  0.0639
 1150SOL    HW114909   1.886   2.819   6.262  0.1813  0.6228  1.0637
 1150SOL    HW214910   1.791   2.930   6.233 -0.8184 -0.6049 -1.0828
 1151SOL     OW14911   4.207   3.962  16.351 -0.2561  0.2430 -1.0456
 1151SOL    HW114912   4.283   3.925  16.396 -0.9909 -2.6640 -2.1873
 1151SOL    HW214913   4.212   3.911  16.270  0.5115 -1.6601  0.2273
 1152SOL     OW14914   2.484   4.594   3.378  0.3538  0.3471 -0.1540
 1152SOL    HW114915   2.508   4.529   3.444 -3.3699 -1.2692 -0.4256
 1152SOL    HW214916   2.416   4.646   3.420 -1.1060 -1.8533  0.1719
 1153SOL     OW14917   1.891   2.632   7.908  0.3204 -0.4869  0.0686
 1153SOL    HW114918   1.850   2.588   7.833  2.8281  2.1689 -2.8708
 1153SOL    HW214919   1.943   2.699   7.865 -0.3741 -0.4548 -0.7207
 1154SOL     OW14920   0.701   4.704   8.877 -0.5193  0.0894  0.5365
 1154SOL    HW114921   0.739   0.045   8.817 -0.9698  0.0448  0.2060
 1154SOL    HW214922   0.746   0.008   8.957  0.3831 -1.4325  0.5489
 1155SOL     OW14923   1.454   4.490  11.173  0.3892  0.2675  0.3166
 1155SOL    HW114924   1.486   4.400  11.174  0.5499  0.3119 -0.4642
 1155SOL    HW214925   1.462   4.504  11.078  1.1414 -0.1848  0.3105
 1156SOL     OW14926   4.521   3.910   3.068 -0.3617  0.5190  0.0939
 1156SOL    HW114927   4.610   3.877   3.055 -1.2377 -1.8794  0.3025
 1156SOL    HW214928   4.505   3.867   3.152  2.5077  1.6095  1.2187
 1157SOL     OW14929   2.182   1.150   8.564  0.2069  0.4334 -0.2563
 1157SOL    HW114930   2.153   1.240   8.579  0.7154  0.6938 -0.7920
 1157SOL    HW214931   2.112   1.123   8.505  3.3045 -0.6002 -3.4236
 1158SOL     OW14932   4.192   1.755   6.520 -0.8711 -0.9834  0.0808
 1158SOL    HW114933   4.225   1.817   6.456  0.0457 -1.1402  0.4038
 1158SOL    HW214934   4.114   1.796   6.558 -2.1367 -1.0111 -2.5000
 1159SOL     OW14935   1.268   3.295   7.522  0.2527 -0.1418 -0.7224
 1159SOL    HW114936   1.345   3.336   7.483  0.1969 -0.8392 -1.5471
 1159SOL    HW214937   1.220   3.257   7.449 -0.7501 -2.0471  0.9290
 1160SOL     OW14938   0.258   0.901  17.284  0.4788  0.2894 -0.0605
 1160SOL    HW114939   0.308   0.923  17.205 -1.1579  1.4896 -0.7618
 1160SOL    HW214940   0.177   0.893  17.235  0.9388  2.9891 -1.3049
 1161SOL     OW14941   1.685   4.484  16.091  0.2344  0.4472  0.0393
 1161SOL    HW114942   1.726   4.404  16.124 -3.0895 -0.7976  1.2199
 1161SOL    HW214943   1.700   4.473  15.998  1.5858 -2.9251  0.6533
 1162SOL     OW14944   3.875   0.232  13.289 -0.3056  0.3769  0.7069
 1162SOL    HW114945   3.857   0.295  13.220  0.6451  0.1715  0.2868
 1162SOL    HW214946   3.922   0.294  13.344  1.0358 -1.1449  1.2547
 1163SOL     OW14947   2.431   0.125   8.568  0.4471 -0.2301  0.1796
 1163SOL    HW114948   2.417   0.168   8.484  2.1152 -1.4098 -0.7138
 1163SOL    HW214949   2.523   0.142   8.587  0.1435  0.8438  0.7055
 1164SOL     OW14950   2.452   2.953   5.285  0.0284 -0.0872 -1.0040
 1164SOL    HW114951   2.408   2.872   5.312  1.6105 -0.6530 -0.1236
 1164SOL    HW214952   2.386   3.012   5.322  2.0184  1.1484  0.5941
 1165SOL     OW14953   0.847   0.482  15.066 -0.1553  0.4912  0.9118
 1165SOL    HW114954   0.795   0.439  15.135 -0.1511  0.0848  0.6638
 1165SOL    HW214955   0.779   0.528  15.017  0.1309  0.2651  0.2958
 1166SOL     OW14956   1.365   2.280   7.953  0.3570  0.0883  0.1156
 1166SOL    HW114957   1.372   2.350   8.018  1.3883 -0.2105  0.3281
 1166SOL    HW214958   1.438   2.299   7.893 -0.6701 -1.6045 -1.6592
 1167SOL     OW14959   0.084   1.512   3.764 -0.7023 -0.3785 -0.1753
 1167SOL    HW114960   0.031   1.555   3.696 -3.1236  0.0182  1.9639
 1167SOL    HW214961   0.118   1.434   3.720  0.4566  0.2511 -0.3777
 1168SOL     OW14962   4.574   2.101   6.037 -0.1151 -0.3252 -0.0190
 1168SOL    HW114963   4.639   2.055   6.090 -0.5398  0.4650  1.1925
 1168SOL    HW214964   4.580   2.050   5.956 -1.0630  1.9519 -1.5340
 1169SOL     OW14965   1.166   0.890   2.397 -0.3165  0.1749 -0.1715
 1169SOL    HW114966   1.111   0.820   2.360 -0.5042  0.9695 -1.4258
 1169SOL    HW214967   1.249   0.852   2.368 -1.0119 -0.1615 -1.7519
 1170SOL     OW14968   1.918   3.580   0.592  0.4076  0.4351 -0.6070
 1170SOL    HW114969   1.997   3.596   0.644  0.9195 -1.4940 -0.7804
 1170SOL    HW214970   1.934   3.636   0.516  1.9462 -0.0160 -0.6028
 1171SOL     OW14971   4.224   3.984   4.495  0.0815 -0.3639  0.1080
 1171SOL    HW114972   4.181   4.039   4.560  1.7149  0.3781  0.5479
 1171SOL    HW214973   4.265   4.047   4.436 -1.2337 -0.1086 -0.5363
 1172SOL     OW14974   2.998   3.176   8.414  0.0522  0.6226  0.1867
 1172SOL    HW114975   2.928   3.122   8.376 -0.3885  1.4698 -0.2122
 1172SOL    HW214976   2.952   3.206   8.493  0.1217  1.2729 -0.0199
 1173SOL     OW14977   1.033   4.102   7.172 -0.3163  0.0922 -0.3498
 1173SOL    HW114978   0.994   4.015   7.176  1.0422 -0.2910  4.4994
 1173SOL    HW214979   1.097   4.088   7.242 -1.6504 -1.1866  0.6377
 1174SOL     OW14980   0.287   0.855  16.494  0.0969  0.2186 -0.2536
 1174SOL    HW114981   0.234   0.828  16.570 -0.9281 -1.1094 -1.4431
 1174SOL    HW214982   0.290   0.778  16.438  0.7639 -1.4201  2.0278
 1175SOL     OW14983   4.345   1.210  17.126 -0.3663  0.2605  0.0370
 1175SOL    HW114984   4.252   1.220  17.107 -0.2998 -0.0901 -0.4869
 1175SOL    HW214985   4.388   1.157  17.059 -0.7411  0.0186 -0.0111
 1176SOL     OW14986   0.535   4.112   3.979  0.5461  0.6864  0.6221
 1176SOL    HW114987   0.480   4.106   4.058 -0.8652 -0.5012 -0.4516
 1176SOL    HW214988   0.531   4.019   3.956  0.2420  0.9899 -0.5477
 1177SOL     OW14989   1.341   2.229   1.875 -0.5307  1.3447 -0.1754
 1177SOL    HW114990   1.405   2.245   1.945 -0.8038 -0.7272  0.5448
 1177SOL    HW214991   1.351   2.134   1.862  0.2147  1.2981  0.6999
 1178SOL     OW14992   1.850   3.170   8.420  0.0563  0.6736 -0.4313
 1178SOL    HW114993   1.930   3.217   8.398 -0.2397  1.2874 -0.2181
 1178SOL    HW214994   1.835   3.192   8.512  0.5596 -0.9939  0.0365
 1179SOL     OW14995   0.180   0.648  16.343  0.3282  0.1516 -0.0209
 1179SOL    HW114996   0.090   0.671  16.365  0.0825 -1.5335  0.6936
 1179SOL    HW214997   0.172   0.641  16.248  1.2432 -2.4993  0.1159
 1180SOL     OW14998   4.206   0.472  11.363 -0.1744 -0.2247  0.1057
 1180SOL    HW114999   4.285   0.525  11.367 -1.5593  1.8847 -0.8082
 1180SOL    HW215000   4.189   0.472  11.457  1.3234  1.3237  0.3815
 1181SOL     OW15001   0.344   2.925   4.193 -0.1238  0.6551  0.2404
 1181SOL    HW115002   0.428   2.899   4.231  0.7930  0.8103 -1.6992
 1181SOL    HW215003   0.291   2.854   4.230 -0.9031  1.0433 -0.1356
 1182SOL     OW15004   2.117   0.816   8.958  0.1661  0.0874 -0.3024
 1182SOL    HW115005   2.066   0.846   9.033  0.3833 -4.1668  1.5737
 1182SOL    HW215006   2.185   0.883   8.963  0.7756 -0.3962 -2.0194
 1183SOL     OW15007   1.163   0.540  13.311 -0.1077  0.2619 -0.1121
 1183SOL    HW115008   1.078   0.584  13.311  0.3189  1.0991  1.2455
 1183SOL    HW215009   1.210   0.591  13.377  0.6280 -0.7364  0.1264
 1184SOL     OW15010   2.505   3.200   6.111  0.3366  0.7054 -0.2642
 1184SOL    HW115011   2.437   3.132   6.108  0.6039  0.4557 -0.7690
 1184SOL    HW215012   2.556   3.172   6.034  2.1209  0.9275  0.8392
 1185SOL     OW15013   0.960   4.039   6.867  0.8060 -0.4057 -0.5945
 1185SOL    HW115014   0.887   3.989   6.831  0.4352 -0.5784  0.4045
 1185SOL    HW215015   0.920   4.068   6.948  1.6168  0.2021 -0.4090
 1186SOL     OW15016   2.015   2.110   2.731  0.2464 -0.2253  0.0011
 1186SOL    HW115017   1.975   2.197   2.723 -0.1074 -0.4442 -0.5710
 1186SOL    HW215018   2.057   2.097   2.646 -1.3618  0.0747 -0.8500
 1187SOL     OW15019   2.587   4.263   8.909 -0.0275 -0.1674  0.2081
 1187SOL    HW115020   2.497   4.272   8.941  0.1670 -2.8949  1.5206
 1187SOL    HW215021   2.581   4.274   8.814  1.8622  1.1148  0.2570
 1188SOL     OW15022   2.486   0.379  12.584  0.0451  0.1120  0.1871
 1188SOL    HW115023   2.466   0.439  12.512 -3.5599  0.5986  1.6176
 1188SOL    HW215024   2.567   0.337  12.554  0.8144  1.6353  0.1357
 1189SOL     OW15025   2.667   0.603   2.260 -0.5172  0.2087 -0.4290
 1189SOL    HW115026   2.592   0.615   2.202 -0.5000  3.2484  0.1783
 1189SOL    HW215027   2.715   0.684   2.243 -1.8428  1.8492  3.5818
 1190SOL     OW15028   0.124   2.904   2.858  0.0643 -0.5578 -0.0455
 1190SOL    HW115029   0.194   2.940   2.804 -0.5740  0.7210 -0.0290
 1190SOL    HW215030   0.168   2.851   2.925  0.9393  0.5848  0.2742
 1191SOL     OW15031   4.347   3.292  16.565 -0.1805 -0.2280 -0.2736
 1191SOL    HW115032   4.251   3.291  16.562 -0.1821 -1.4967  0.2544
 1191SOL    HW215033   4.354   3.347  16.643 -0.2063 -0.6650  0.0337
 1192SOL     OW15034   3.933   4.682  17.481 -0.5305 -0.0171  0.3799
 1192SOL    HW115035   3.930   4.605  17.425  4.6945 -0.0909  0.2052
 1192SOL    HW215036   3.881   4.655  17.557  1.7967  0.1543  2.0154
 1193SOL     OW15037   4.394   3.670   6.758  0.0903  0.6991 -0.2201
 1193SOL    HW115038   4.392   3.758   6.796  2.6025  0.6186  0.0668
 1193SOL    HW215039   4.467   3.672   6.696  0.2336 -0.2727 -0.0773
 1194SOL     OW15040   0.717   2.460   3.033 -0.3280 -0.1091 -0.6018
 1194SOL    HW115041   0.717   2.523   2.961 -1.0494  0.9213  0.3080
 1194SOL    HW215042   0.649   2.396   3.013  1.4866 -1.9437 -0.9834
 1195SOL     OW15043   1.718   0.035   2.398 -0.0773 -0.0530 -0.7544
 1195SOL    HW115044   1.688   4.667   2.400  2.1324 -0.7332  1.2376
 1195SOL    HW215045   1.658   0.070   2.464  0.6970 -0.1840  0.0170
 1196SOL     OW15046   1.220   0.041   4.622  0.2301  0.2420 -0.3796
 1196SOL    HW115047   1.135   0.026   4.581 -0.3550  1.0208  0.5500
 1196SOL    HW215048   1.264   0.088   4.551  0.7380  1.7531  0.9367
 1197SOL     OW15049   3.689   2.920   6.158  0.3057  0.2495  0.2834
 1197SOL    HW115050   3.704   2.927   6.252  0.2293 -0.8101  0.3727
 1197SOL    HW215051   3.696   3.010   6.127 -1.0392 -0.2513 -1.4940
 1198SOL     OW15052   4.180   4.282   9.766 -0.1508 -0.3909  0.1126
 1198SOL    HW115053   4.139   4.216   9.823 -0.5068  1.1985  1.6865
 1198SOL    HW215054   4.242   4.228   9.718 -0.2788  0.6049 -1.1714
 1199SOL     OW15055   1.862   1.959   4.254  0.3986  0.4471  0.2014
 1199SOL    HW115056   1.941   2.012   4.244  0.0150  0.8801 -0.5225
 1199SOL    HW215057   1.893   1.869   4.244  1.9628  0.9174  0.7043
 1200SOL     OW15058   1.539   3.897   9.026  0.2637  0.3759 -0.4647
 1200SOL    HW115059   1.557   3.982   9.065  1.0745  0.6345 -1.4075
 1200SOL    HW215060   1.460   3.868   9.072  2.0843 -2.2165  1.0381
 1201SOL     OW15061   4.117   1.268  11.477 -0.0997 -0.6042 -0.5235
 1201SOL    HW115062   4.194   1.310  11.515 -0.6434 -0.8186  0.8087
 1201SOL    HW215063   4.154   1.188  11.438 -0.2498 -0.1781 -1.5359
 1202SOL     OW15064   3.192   1.324  14.281  0.0745  0.5950  0.2400
 1202SOL    HW115065   3.156   1.283  14.360 -0.8073  2.3959  0.7562
 1202SOL    HW215066   3.167   1.413  14.304  3.0959  1.3483  0.5808
 1203SOL     OW15067   0.970   0.671   0.211  0.0973 -0.0697 -0.5087
 1203SOL    HW115068   0.884   0.656   0.171  1.0578  1.0591 -3.0405
 1203SOL    HW215069   1.000   0.580   0.208 -0.7709 -0.3847  0.6137
 1204SOL     OW15070   3.151   4.392  16.898 -0.4598 -0.0132 -0.1793
 1204SOL    HW115071   3.108   4.475  16.879 -1.0301 -0.0833  0.8432
 1204SOL    HW215072   3.073   4.341  16.920 -1.4696  1.5111 -0.2815
 1205SOL     OW15073   3.034   2.748   3.749  0.3210  0.2578 -0.5246
 1205SOL    HW115074   3.036   2.796   3.832  0.0868 -0.1177 -0.3014
 1205SOL    HW215075   2.941   2.728   3.756  0.8597 -2.0507  0.3349
 1206SOL     OW15076   1.353   2.031   8.061 -0.3819 -0.3962  0.3456
 1206SOL    HW115077   1.391   2.116   8.042  0.5151 -0.9962 -0.5498
 1206SOL    HW215078   1.283   2.043   8.124  0.5767 -1.1659  1.5741
 1207SOL     OW15079   4.590   0.594  14.393  0.3206  0.1553  0.5931
 1207SOL    HW115080   4.530   0.606  14.467  0.6736 -2.2954  1.2507
 1207SOL    HW215081   4.674   0.597  14.439  0.6869 -1.5356  0.0396
 1208SOL     OW15082   3.711   2.781   4.790  0.0887 -0.5047  0.6076
 1208SOL    HW115083   3.759   2.702   4.764 -2.2749 -0.9273 -2.5040
 1208SOL    HW215084   3.644   2.793   4.722  1.7537 -3.0036 -1.5006
 1209SOL     OW15085   2.893   3.074   8.832 -0.1747 -0.4516 -0.2475
 1209SOL    HW115086   2.969   3.036   8.876 -0.1935  1.0042  1.0510
 1209SOL    HW215087   2.850   2.992   8.807 -0.0461 -0.8501  0.8104
 1210SOL     OW15088   0.171   3.934   5.148  0.5771 -0.7794 -0.2729
 1210SOL    HW115089   0.133   3.893   5.070 -0.7602 -0.1556  0.0542
 1210SOL    HW215090   0.139   4.023   5.137  1.1065 -0.4704  0.7793
 1211SOL     OW15091   4.009   3.234  17.046 -0.2527 -0.2621  0.5184
 1211SOL    HW115092   3.931   3.222  16.991 -0.2510 -0.1693  0.4972
 1211SOL    HW215093   4.007   3.328  17.058 -1.2771 -0.1160 -0.7539
 1212SOL     OW15094   0.593   0.252   5.030 -0.0652  0.0342 -0.0020
 1212SOL    HW115095   0.613   0.181   5.092 -1.7809 -0.3955  0.0831
 1212SOL    HW215096   0.649   0.319   5.067  0.6030  1.9154 -4.4234
 1213SOL     OW15097   4.653   1.711  11.741  0.5248  0.6037 -0.0370
 1213SOL    HW115098   4.703   1.671  11.670  0.8603  0.6204  0.1908
 1213SOL    HW215099   4.715   1.728  11.812  0.3316 -0.7811  0.4562
 1214SOL     OW15100   1.578   0.817   1.730 -0.2874 -0.0668  0.4947
 1214SOL    HW115101   1.654   0.764   1.755  1.1604  1.2608 -1.0908
 1214SOL    HW215102   1.517   0.744   1.719 -0.7494  0.1741  1.5097
 1215SOL     OW15103   4.704   1.581   3.164 -0.0278  0.2357  0.0208
 1215SOL    HW115104   0.022   1.586   3.250  1.0830 -1.9394 -0.3534
 1215SOL    HW215105   4.680   1.672   3.150 -1.6591 -0.2428 -0.3657
 1216SOL     OW15106   3.513   3.020   5.152  0.3375  0.0788 -0.1002
 1216SOL    HW115107   3.564   3.098   5.173 -0.0089  0.7331 -1.6846
 1216SOL    HW215108   3.492   3.038   5.060 -3.4695  0.1160  0.7992
 1217SOL     OW15109   4.628   1.419   2.239 -0.2493 -0.2493  0.0732
 1217SOL    HW115110   4.593   1.354   2.178 -1.2402  0.6703 -0.3305
 1217SOL    HW215111   4.590   1.390   2.321 -0.6509 -2.0683 -0.7530
 1218SOL     OW15112   4.721   2.766   3.740  0.1293  0.3154 -0.1301
 1218SOL    HW115113   0.042   2.681   3.739 -1.9791 -0.7622 -0.7300
 1218SOL    HW215114   4.630   2.737   3.748 -0.2422  1.5937  0.2742
 1219SOL     OW15115   2.786   4.542   8.670 -0.2121 -0.4381 -0.5864
 1219SOL    HW115116   2.746   4.542   8.757  1.4503  0.0435  0.1822
 1219SOL    HW215117   2.713   4.554   8.610  0.8804  0.4305 -1.7609
 1220SOL     OW15118   0.026   2.994   8.447  0.0078  0.2328  0.0510
 1220SOL    HW115119   0.116   2.966   8.463 -0.4939 -0.6610  1.3788
 1220SOL    HW215120   4.721   2.918   8.396 -0.3653  0.1096  0.4363
 1221SOL     OW15121   1.264   4.066   5.807  1.1633  0.7094  0.4785
 1221SOL    HW115122   1.221   4.137   5.760  2.0989  0.9041 -0.0821
 1221SOL    HW215123   1.250   4.089   5.899 -2.9693  3.4219 -0.8318
 1222SOL     OW15124   0.503   0.807   8.476  0.1391  0.2700 -0.1192
 1222SOL    HW115125   0.456   0.792   8.394 -0.4356 -3.1904  0.8806
 1222SOL    HW215126   0.513   0.718   8.510  1.1987  0.9219  1.2698
 1223SOL     OW15127   1.631   1.372   6.941 -0.5204 -0.4444 -0.0838
 1223SOL    HW115128   1.539   1.380   6.967 -0.5904  2.9632 -1.4199
 1223SOL    HW215129   1.626   1.415   6.856 -1.6244 -1.5790 -0.5904
 1224SOL     OW15130   4.402   3.626  14.408  0.1171  0.0001 -0.9551
 1224SOL    HW115131   4.434   3.645  14.320  2.6035  2.1166  0.4223
 1224SOL    HW215132   4.360   3.710  14.424  0.1583 -0.3752  1.2180
 1225SOL     OW15133   4.416   0.334   6.217 -0.2463 -0.2269 -1.0967
 1225SOL    HW115134   4.327   0.331   6.180 -1.0738  0.1978  0.8433
 1225SOL    HW215135   4.404   0.375   6.302  2.7658 -0.5047 -0.5473
 1226SOL     OW15136   1.553   3.366   3.299 -0.7775 -0.0440 -1.3363
 1226SOL    HW115137   1.548   3.284   3.251 -2.5466 -2.8347  3.6839
 1226SOL    HW215138   1.565   3.340   3.390 -0.6329  0.2012 -1.2839
 1227SOL     OW15139   3.555   1.254   3.863  0.0288 -0.3360  0.4585
 1227SOL    HW115140   3.587   1.263   3.773 -0.8052 -2.3187 -0.0379
 1227SOL    HW215141   3.528   1.162   3.861 -0.2778 -0.2251 -0.4177
 1228SOL     OW15142   3.154   3.073   6.416  0.7324  0.4532  0.3936
 1228SOL    HW115143   3.076   3.044   6.463  0.0246  1.2417 -0.2912
 1228SOL    HW215144   3.122   3.154   6.376  0.6026  0.1938 -0.0273
 1229SOL     OW15145   1.777   3.296   0.110 -0.7420  0.1786 -0.5590
 1229SOL    HW115146   1.808   3.307   0.020 -0.4997  0.0110 -0.4978
 1229SOL    HW215147   1.682   3.303   0.102 -0.7353 -0.3110 -1.0412
 1230SOL     OW15148   4.313   0.619   5.506 -0.3434 -0.6245  0.3634
 1230SOL    HW115149   4.309   0.668   5.424 -0.3537  0.8557  1.2583
 1230SOL    HW215150   4.263   0.541   5.481 -2.1590  0.9328 -0.8990
 1231SOL     OW15151   3.666   4.697  12.040 -0.3399 -0.3017 -0.4534
 1231SOL    HW115152   3.715   4.615  12.041 -0.4033 -0.3428 -0.6110
 1231SOL    HW215153   3.700   0.015  11.960  2.1268 -1.7331 -0.1290
 1232SOL     OW15154   0.333   2.844  11.333  0.9886  0.6209 -0.2337
 1232SOL    HW115155   0.341   2.761  11.287  0.9382 -0.1417  1.1596
 1232SOL    HW215156   0.423   2.850  11.366  0.6068  0.4336  0.8508
 1233SOL     OW15157   3.526   4.240   3.233  1.2678  0.1269  0.0837
 1233SOL    HW115158   3.583   4.225   3.307  3.0474 -0.8442 -1.4979
 1233SOL    HW215159   3.456   4.286   3.280  0.6332  0.3604 -1.0806
 1234SOL     OW15160   4.643   1.283  15.276  0.3781 -0.5685  0.4209
 1234SOL    HW115161   4.706   1.276  15.347  1.8526  0.9709 -0.7048
 1234SOL    HW215162   4.680   1.352  15.219  1.8268  0.2242  2.3267
 1235SOL     OW15163   3.993   3.536  13.940 -0.6428  0.7541  0.5677
 1235SOL    HW115164   3.912   3.558  13.894 -0.2724 -2.1919 -1.4526
 1235SOL    HW215165   3.992   3.440  13.933  0.0644  0.6390  1.8955
 1236SOL     OW15166   1.470   1.870   0.953 -0.2330  0.4181 -0.0951
 1236SOL    HW115167   1.479   1.797   1.015 -0.9715  2.1995  2.0779
 1236SOL    HW215168   1.396   1.923   0.982 -1.0021 -0.7599  0.1252
 1237SOL     OW15169   2.060   4.083  13.198  0.1071  0.2620 -0.6587
 1237SOL    HW115170   2.090   4.027  13.126 -0.8439  0.4820 -1.2388
 1237SOL    HW215171   2.138   4.114  13.243  0.3618  0.6525 -1.3630
 1238SOL     OW15172   0.993   0.394   7.551 -0.0516  0.3770  0.3218
 1238SOL    HW115173   0.963   0.448   7.625  0.7401  2.4821 -0.9130
 1238SOL    HW215174   0.909   0.354   7.528 -0.3835  1.4135 -0.2354
 1239SOL     OW15175   2.122   1.992   2.963 -0.4745 -0.1866  0.8901
 1239SOL    HW115176   2.110   1.908   2.919  2.0799 -0.4651  0.7019
 1239SOL    HW215177   2.063   2.040   2.905 -0.7997  0.7487  2.0037
 1240SOL     OW15178   0.720   3.621   6.814  0.1277 -0.1311  0.3217
 1240SOL    HW115179   0.743   3.714   6.803  0.8979 -0.1847  1.5637
 1240SOL    HW215180   0.640   3.623   6.866 -1.1163 -1.0023 -1.5702
 1241SOL     OW15181   1.896   0.148   5.719  0.3367  0.5089 -0.4135
 1241SOL    HW115182   1.972   0.197   5.751  0.3339 -0.3747  0.9454
 1241SOL    HW215183   1.926   0.059   5.737  0.7429  0.8890  0.7973
 1242SOL     OW15184   3.949   4.638   1.142 -0.1156 -0.1966 -0.6690
 1242SOL    HW115185   3.950   0.000   1.097  0.7488  1.5407  2.6051
 1242SOL    HW215186   3.860   4.629   1.175  0.0254  1.4918  0.2046
 1243SOL     OW15187   4.715   1.516   4.654  0.2292 -0.0870 -0.4673
 1243SOL    HW115188   0.048   1.589   4.680 -2.4607  1.8920 -0.2260
 1243SOL    HW215189   0.055   1.470   4.599  0.7522  1.8072 -1.4688
 1244SOL     OW15190   4.478   1.438   8.187 -0.2658  0.1571 -0.4166
 1244SOL    HW115191   4.508   1.396   8.268 -0.7590  2.6148  1.0438
 1244SOL    HW215192   4.383   1.438   8.199 -0.0237 -1.9019  1.5382
 1245SOL     OW15193   2.623   2.411   8.578 -0.1599 -0.4602 -0.2598
 1245SOL    HW115194   2.641   2.469   8.504  2.4634 -2.5736 -1.2956
 1245SOL    HW215195   2.711   2.372   8.582 -0.2389 -0.5050  0.8642
 1246SOL     OW15196   3.990   3.315  12.870  0.0254  0.8329  0.2779
 1246SOL    HW115197   3.895   3.326  12.864 -0.1938 -1.8925 -1.3031
 1246SOL    HW215198   3.997   3.283  12.959  1.3062  2.7046  0.8529
 1247SOL     OW15199   4.031   4.443   2.012 -0.0276  0.4570 -0.2544
 1247SOL    HW115200   4.075   4.489   1.941 -2.0771  0.5126 -1.4915
 1247SOL    HW215201   4.049   4.500   2.087 -0.5094  0.4388 -0.1276
 1248SOL     OW15202   2.926   0.509   3.581 -0.8612  0.5059 -0.0511
 1248SOL    HW115203   2.840   0.520   3.540 -1.7343 -0.7178  1.4447
 1248SOL    HW215204   2.979   0.470   3.511 -0.6992 -1.2370  1.0337
 1249SOL     OW15205   1.560   1.111   0.188  0.5014  0.1461  0.2463
 1249SOL    HW115206   1.547   1.187   0.132  2.6590 -0.5997 -1.2893
 1249SOL    HW215207   1.474   1.087   0.221  0.5677  2.5831  2.1728
 1250SOL     OW15208   4.138   1.583   7.986  0.2284  0.7723  0.2814
 1250SOL    HW115209   4.165   1.540   7.905  2.6085  2.8438 -0.0336
 1250SOL    HW215210   4.172   1.671   7.966 -1.3348  1.6750  1.6089
 1251SOL     OW15211   1.491   3.783   0.539 -0.0012 -0.3223  0.3445
 1251SOL    HW115212   1.405   3.761   0.575 -0.1898 -1.3048 -0.6991
 1251SOL    HW215213   1.523   3.835   0.613  1.7594  1.0695 -1.3919
 1252SOL     OW15214   1.287   3.137   9.161  0.1440  0.6705 -0.6745
 1252SOL    HW115215   1.259   3.134   9.253  0.0675  0.1632 -0.7125
 1252SOL    HW215216   1.205   3.124   9.113 -0.4034  0.1151  0.4216
 1253SOL     OW15217   1.235   0.276   3.089 -0.0615  0.4217  0.2967
 1253SOL    HW115218   1.313   0.239   3.131 -0.0980  0.4614  0.3979
 1253SOL    HW215219   1.184   0.195   3.086  1.2024 -0.3835  0.6010
 1254SOL     OW15220   4.144   4.281   8.518  0.0035  0.1484 -0.0636
 1254SOL    HW115221   4.056   4.315   8.536 -0.0268  0.4348 -0.7769
 1254SOL    HW215222   4.166   4.231   8.597 -4.0366 -1.0335  0.3072
 1255SOL     OW15223   4.263   2.137   9.478 -0.3842 -0.4558 -0.1425
 1255SOL    HW115224   4.301   2.225   9.485  0.6317 -0.8757 -0.4330
 1255SOL    HW215225   4.251   2.146   9.383  2.2116  0.6081 -0.3542
 1256SOL     OW15226   2.706   2.546   7.267 -0.0801 -0.2358 -0.1264
 1256SOL    HW115227   2.766   2.472   7.261 -0.9264 -0.7206 -2.5107
 1256SOL    HW215228   2.758   2.605   7.212  0.5681 -0.6120  0.0836
 1257SOL     OW15229   4.203   0.642   1.823 -0.2309 -0.6992  0.2079
 1257SOL    HW115230   4.163   0.712   1.875  2.7326  1.7557 -0.8217
 1257SOL    HW215231   4.135   0.622   1.759  0.9847  2.2136 -1.9524
 1258SOL     OW15232   3.993   1.622   0.505 -0.0313  0.3884  0.5143
 1258SOL    HW115233   4.060   1.629   0.573  1.4926 -0.4237 -0.9136
 1258SOL    HW215234   3.999   1.530   0.479 -1.1231  1.1051 -2.2700
 1259SOL     OW15235   3.738   2.870  16.556 -1.1043 -0.7399 -0.0494
 1259SOL    HW115236   3.720   2.925  16.632 -0.5479  1.2911 -1.4021
 1259SOL    HW215237   3.661   2.881  16.500  0.6163  0.5166 -2.1700
 1260SOL     OW15238   0.577   0.659   6.845 -0.1662  0.4165  0.2141
 1260SOL    HW115239   0.639   0.728   6.820 -0.0218 -0.0343 -0.6821
 1260SOL    HW215240   0.570   0.614   6.761  1.5971  1.0104 -0.2617
 1261SOL     OW15241   2.786   3.065   7.207  0.1760 -0.3743 -0.0890
 1261SOL    HW115242   2.717   3.009   7.243 -1.5926 -0.2452 -3.2458
 1261SOL    HW215243   2.736   3.145   7.195 -0.4459 -0.6803  0.4519
 1262SOL     OW15244   3.905   4.472   6.670 -0.3825 -0.5037  0.3557
 1262SOL    HW115245   3.953   4.426   6.738  0.8979 -0.5740 -0.6009
 1262SOL    HW215246   3.912   4.422   6.588  0.5937  1.6193 -0.8521
 1263SOL     OW15247   3.330   4.231   2.984  0.1454  0.0124 -0.1143
 1263SOL    HW115248   3.410   4.189   3.015  1.1190  2.2629  0.4212
 1263SOL    HW215249   3.295   4.267   3.066  2.4539 -1.1510  1.3625
 1264SOL     OW15250   3.412   4.007   6.115  0.2269 -0.3218 -0.1923
 1264SOL    HW115251   3.492   4.041   6.155  0.9420 -1.4262 -0.6806
 1264SOL    HW215252   3.447   3.922   6.088  1.6503 -0.2686  1.4367
 1265SOL     OW15253   1.388   3.682   9.622 -0.0170 -0.3160 -0.4756
 1265SOL    HW115254   1.296   3.699   9.644 -0.0845  0.5235 -1.4064
 1265SOL    HW215255   1.422   3.742   9.688  0.6827 -1.0623 -0.1535
 1266SOL     OW15256   3.377   3.063   2.011 -0.1712 -0.4496  0.0703
 1266SOL    HW115257   3.304   3.061   1.949  1.7351 -2.2166 -2.1302
 1266SOL    HW215258   3.326   3.090   2.087  2.3561 -1.0285  1.9736
 1267SOL     OW15259   4.312   3.949   8.393  0.0151  0.3852 -0.4012
 1267SOL    HW115260   4.308   4.037   8.356  0.8662  1.6207  2.4088
 1267SOL    HW215261   4.218   3.939   8.378  0.4002  0.0345 -2.5666
 1268SOL     OW15262   0.474   3.667   1.802  0.1192  0.0952  0.4688
 1268SOL    HW115263   0.392   3.628   1.833 -0.6363 -1.8842 -3.9878
 1268SOL    HW215264   0.549   3.610   1.819 -1.0892 -0.9232  2.4015
 1269SOL     OW15265   4.469   0.030   8.350 -0.2974 -0.1815 -0.0883
 1269SOL    HW115266   4.460   0.069   8.263  0.0166 -0.8566 -0.4193
 1269SOL    HW215267   4.419   0.090   8.406  1.0585  0.4441  0.4607
 1270SOL     OW15268   3.960   4.373   5.016 -0.4725 -0.2782  0.4085
 1270SOL    HW115269   4.049   4.380   4.983 -0.7877 -0.8633 -0.5688
 1270SOL    HW215270   3.927   4.297   4.969  2.3344 -0.8340 -0.6404
 1271SOL     OW15271   2.396   1.979   2.988 -0.7801 -0.6185 -0.3286
 1271SOL    HW115272   2.302   1.980   2.971 -1.0650  0.8033  1.3325
 1271SOL    HW215273   2.418   1.887   3.006 -0.4435 -0.8179 -1.8169
 1272SOL     OW15274   3.845   2.146   5.300  0.3149 -0.6989 -0.6353
 1272SOL    HW115275   3.903   2.200   5.245 -0.7090 -0.0511 -1.0790
 1272SOL    HW215276   3.863   2.203   5.376  1.9054  0.0010 -1.5305
 1273SOL     OW15277   3.975   0.129   0.229  0.3107  0.7976  0.2178
 1273SOL    HW115278   3.969   0.041   0.191  0.6543  1.0075 -0.3204
 1273SOL    HW215279   3.992   0.102   0.319 -4.4699 -1.4469  0.4200
 1274SOL     OW15280   2.334   3.030   6.484 -0.3336 -0.2393  0.2946
 1274SOL    HW115281   2.318   3.061   6.573  1.5531 -0.2093  0.6219
 1274SOL    HW215282   2.319   3.114   6.440 -1.7430 -0.2824  0.6864
 1275SOL     OW15283   4.309   2.502   9.087  0.3706  0.1723  0.1986
 1275SOL    HW115284   4.387   2.558   9.081  0.6209 -0.2162 -0.1964
 1275SOL    HW215285   4.241   2.570   9.083 -1.1824 -1.4252 -0.3435
 1276SOL     OW15286   1.917   0.573  17.672  0.2426  0.6883  0.4412
 1276SOL    HW115287   1.866   0.516  17.615 -2.4223 -0.0610  3.5459
 1276SOL    HW215288   1.973   0.618  17.609 -3.3628  0.5018 -2.9010
 1277SOL     OW15289   1.233   1.175  17.634 -0.3699  0.6864 -1.0527
 1277SOL    HW115290   1.185   1.149   0.020  0.6676 -0.0915 -0.6817
 1277SOL    HW215291   1.316   1.199  17.675  0.4400  0.7679 -2.7559
 1278SOL     OW15292   0.759   3.898  15.549  0.1149 -0.0729 -0.3155
 1278SOL    HW115293   0.705   3.954  15.604 -1.3477 -0.7756 -1.0628
 1278SOL    HW215294   0.838   3.940  15.585  1.7194 -1.3152 -2.4038
 1279SOL     OW15295   2.787   3.669   9.097  0.1036 -0.9889  0.1443
 1279SOL    HW115296   2.774   3.703   9.186  1.8359 -1.4242  0.5757
 1279SOL    HW215297   2.760   3.578   9.111  0.3083 -0.7419  2.1578
 1280SOL     OW15298   0.692   3.997   6.946 -0.4517 -0.3473  0.1249
 1280SOL    HW115299   0.604   3.964   6.928 -1.4757  1.2645  2.1473
 1280SOL    HW215300   0.678   4.018   7.038 -2.6979 -2.2206  0.2211
 1281SOL     OW15301   2.650   3.885  10.605 -0.3781 -0.2870  0.1004
 1281SOL    HW115302   2.665   3.898  10.698 -0.3620 -2.6071  0.4216
 1281SOL    HW215303   2.726   3.934  10.574 -1.4203  2.0887  1.2870
 1282SOL     OW15304   4.119   2.966   2.986  0.1646  0.3327  0.0463
 1282SOL    HW115305   4.086   2.905   3.053  0.6751 -0.8075 -0.7420
 1282SOL    HW215306   4.037   3.002   2.952  0.5585  0.2615 -0.9462
 1283SOL     OW15307   3.805   3.602   8.444 -0.1209 -0.5009 -0.1359
 1283SOL    HW115308   3.792   3.508   8.429 -1.0118 -0.5445  0.9110
 1283SOL    HW215309   3.885   3.595   8.495 -0.7057  0.4784  0.9202
 1284SOL     OW15310   1.633   3.190  14.009  0.4376 -0.0435 -0.4727
 1284SOL    HW115311   1.648   3.125  14.078 -2.0132 -1.0865 -0.9091
 1284SOL    HW215312   1.594   3.131  13.945 -0.7069 -0.4274  0.5778
 1285SOL     OW15313   1.085   1.363   7.692 -0.1544 -0.1323 -0.2262
 1285SOL    HW115314   1.162   1.332   7.644 -1.4390 -1.7580 -1.2576
 1285SOL    HW215315   1.023   1.375   7.620  0.6233  0.5270 -0.7965
 1286SOL     OW15316   3.729   1.668  10.623  0.0422 -0.0270 -0.2687
 1286SOL    HW115317   3.771   1.677  10.709 -0.4074  0.0793 -0.0585
 1286SOL    HW215318   3.690   1.581  10.619  0.1108 -0.1171  1.0162
 1287SOL     OW15319   3.798   0.774   3.377  0.1781  0.1622 -0.2829
 1287SOL    HW115320   3.745   0.724   3.315  2.2780 -0.2319 -1.7615
 1287SOL    HW215321   3.870   0.803   3.321 -0.9636  1.4103 -1.1208
 1288SOL     OW15322   3.961   4.049  14.623 -0.1491  0.2783  0.3345
 1288SOL    HW115323   3.907   3.973  14.645 -3.0645  2.1643 -0.3676
 1288SOL    HW215324   3.985   4.031  14.532 -4.2950 -0.4390 -0.5805
 1289SOL     OW15325   4.035   3.520   3.010 -0.0406  0.3792 -0.0076
 1289SOL    HW115326   3.948   3.559   3.017 -0.9039 -1.2899 -1.4588
 1289SOL    HW215327   4.043   3.530   2.915  2.1265  0.2508  0.1622
 1290SOL     OW15328   4.562   1.989  15.558 -0.7112  0.5295 -0.0063
 1290SOL    HW115329   4.558   1.998  15.463  1.9666  0.9020 -0.0840
 1290SOL    HW215330   4.522   1.904  15.577  0.7545 -0.4665 -1.3962
 1291SOL     OW15331   1.522   1.835   4.237  0.1533  0.0766  0.1869
 1291SOL    HW115332   1.444   1.857   4.288 -0.3549 -0.8125 -0.2150
 1291SOL    HW215333   1.518   1.741   4.218 -0.3927  0.1125  0.1243
 1292SOL     OW15334   3.730   0.978  13.732 -0.1851 -0.0595 -0.2106
 1292SOL    HW115335   3.764   1.016  13.813  0.0798 -0.4509 -0.1410
 1292SOL    HW215336   3.719   0.891  13.769 -1.5530  0.2926  0.2117
 1293SOL     OW15337   0.890   4.462  14.993  0.6862  0.1157  0.5828
 1293SOL    HW115338   0.797   4.443  15.002  0.5936 -1.0066 -2.7932
 1293SOL    HW215339   0.889   4.497  14.904 -0.4321 -0.0354  0.5391
 1294SOL     OW15340   0.067   4.412   8.995 -0.4458 -0.1502 -0.4767
 1294SOL    HW115341   0.157   4.445   8.999 -0.0848 -1.1331 -0.3984
 1294SOL    HW215342   0.039   4.426   8.905  1.5395  0.0463 -1.0626
 1295SOL     OW15343   1.717   4.235  10.659 -0.1515  0.2951  0.2584
 1295SOL    HW115344   1.684   4.320  10.686  0.4836  0.3613  0.8430
 1295SOL    HW215345   1.789   4.213  10.719  0.0638 -0.8070 -0.3850
 1296SOL     OW15346   3.535   1.012   0.268  0.3576  0.2826 -0.4326
 1296SOL    HW115347   3.611   0.974   0.224 -0.6335 -1.9199 -0.2423
 1296SOL    HW215348   3.517   1.091   0.217 -1.0194 -1.1524 -2.1926
 1297SOL     OW15349   4.428   4.060   0.606  0.0269  0.1033 -0.2859
 1297SOL    HW115350   4.488   4.002   0.652 -0.4838 -0.9391 -0.9347
 1297SOL    HW215351   4.345   4.044   0.652  0.1549 -1.5793 -0.6627
 1298SOL     OW15352   0.007   4.070   5.996 -0.2963  0.1560 -0.1613
 1298SOL    HW115353   0.078   4.064   5.932 -1.0150  1.2569 -1.0525
 1298SOL    HW215354   0.037   4.143   6.050 -1.7542  0.0623  0.7891
 1299SOL     OW15355   0.028   4.307   2.127 -0.2517  0.3045  0.3363
 1299SOL    HW115356   0.079   4.315   2.207 -1.3648 -1.6509  1.2340
 1299SOL    HW215357   4.660   4.327   2.151 -0.6069 -0.8881  0.0152
 1300SOL     OW15358   2.802   3.749   4.308  0.4720  0.0105 -0.3012
 1300SOL    HW115359   2.790   3.795   4.225  0.8543  2.5131  1.0110
 1300SOL    HW215360   2.887   3.707   4.299 -0.2005 -1.1347 -1.2492
 1301SOL     OW15361   0.486   3.231   2.377  0.3479 -0.3472 -0.4834
 1301SOL    HW115362   0.416   3.255   2.438  0.9607 -1.2809  0.5683
 1301SOL    HW215363   0.455   3.148   2.342 -2.2513 -0.1053  1.2037
 1302SOL     OW15364   3.102   2.355  10.222  0.1968  0.5203 -0.3240
 1302SOL    HW115365   3.100   2.377  10.315 -0.0172 -1.4791  0.1342
 1302SOL    HW215366   3.011   2.375  10.199 -0.2087 -0.5710  0.3560
 1303SOL     OW15367   1.292   1.812  10.311 -0.6797 -0.2209  0.7441
 1303SOL    HW115368   1.349   1.756  10.258  0.2575 -0.2719  1.8268
 1303SOL    HW215369   1.316   1.900  10.280 -1.2410  0.1287  1.2989
 1304SOL     OW15370   3.786   3.403   2.748 -0.2460  0.0673 -0.0291
 1304SOL    HW115371   3.806   3.489   2.712  0.3027  0.0268  0.1707
 1304SOL    HW215372   3.772   3.352   2.668  0.0192 -0.8341  0.5019
 1305SOL     OW15373   4.253   3.431  17.590  0.3026 -0.4486 -0.7380
 1305SOL    HW115374   4.347   3.439  17.576  0.7263  0.2349  2.3705
 1305SOL    HW215375   4.213   3.449  17.505 -2.1392 -1.0736  0.2933
 1306SOL     OW15376   4.321   0.862   3.246 -0.4190 -0.3688 -0.4152
 1306SOL    HW115377   4.226   0.852   3.235 -0.4238 -1.8600  1.1406
 1306SOL    HW215378   4.335   0.948   3.207  0.0082  0.6618  2.0417
 1307SOL     OW15379   2.089   2.803   5.013  0.1268  0.3357 -0.1859
 1307SOL    HW115380   2.157   2.743   5.044  0.0477  1.2380  1.6996
 1307SOL    HW215381   2.064   2.846   5.095  1.6530  2.1757 -0.6814
 1308SOL     OW15382   2.808   3.220   3.602  0.2467 -0.7309 -0.2719
 1308SOL    HW115383   2.852   3.136   3.586 -2.8864 -2.2424 -0.9264
 1308SOL    HW215384   2.864   3.279   3.552 -0.4959  1.3753  1.3930
 1309SOL     OW15385   1.763   2.551   3.544  0.4209 -0.6920  0.1698
 1309SOL    HW115386   1.822   2.478   3.560 -0.9813 -1.7011  0.7315
 1309SOL    HW215387   1.810   2.621   3.589  0.6330 -0.9866  0.4029
 1310SOL     OW15388   0.793   3.851   6.661  0.2418  0.4180  0.0090
 1310SOL    HW115389   0.747   3.932   6.640 -1.6437  0.1797  3.1453
 1310SOL    HW215390   0.734   3.797   6.609  0.1052  0.0660  0.5245
 1311SOL     OW15391   4.073   2.213   7.515  0.4433 -0.1873  0.5648
 1311SOL    HW115392   3.981   2.239   7.527  0.5352  0.4887 -0.2030
 1311SOL    HW215393   4.097   2.280   7.452  1.7353 -1.5250 -0.3633
 1312SOL     OW15394   0.801   0.141   6.901 -0.3521 -0.3823  0.1040
 1312SOL    HW115395   0.815   0.142   6.806 -1.3434 -1.1863 -0.0447
 1312SOL    HW215396   0.717   0.097   6.912  0.3724 -1.5802  0.8286
 1313SOL     OW15397   3.970   4.221   7.138 -0.0047  0.3333 -1.0221
 1313SOL    HW115398   4.044   4.278   7.116  1.6342 -2.4027 -2.4359
 1313SOL    HW215399   3.903   4.261   7.082 -1.0219 -1.5385 -1.1045
 1314SOL     OW15400   4.647   0.489   3.232 -0.2953 -0.1581 -0.4021
 1314SOL    HW115401   4.626   0.583   3.225  0.9975  0.1040 -0.8132
 1314SOL    HW215402   4.579   0.455   3.174 -0.0569 -1.9573  0.3973
 1315SOL     OW15403   4.413   1.164   3.510  0.1174 -0.3345 -0.0155
 1315SOL    HW115404   4.329   1.158   3.465 -0.6852 -0.6852  1.5262
 1315SOL    HW215405   4.473   1.138   3.440 -0.6253 -2.4107  0.1242
 1316SOL     OW15406   1.955   1.143   8.373 -0.0433  0.1880  0.2635
 1316SOL    HW115407   1.863   1.118   8.371  0.5391 -1.7146 -3.2401
 1316SOL    HW215408   1.967   1.174   8.283  1.1287 -1.2631 -0.0716
 1317SOL     OW15409   4.049   3.304   6.574  0.1409 -0.1043  0.7553
 1317SOL    HW115410   4.107   3.249   6.521  0.5822  2.7301 -1.7115
 1317SOL    HW215411   3.966   3.256   6.570  0.0663  0.2175 -1.5020
 1318SOL     OW15412   4.538   2.255  13.010  0.2300  0.2307 -0.3555
 1318SOL    HW115413   4.466   2.254  12.947  0.1967 -0.0818 -0.3117
 1318SOL    HW215414   4.578   2.341  12.994  1.3500 -0.4858 -1.3516
 1319SOL     OW15415   4.058   1.308   5.211 -0.2673 -0.2112 -0.0462
 1319SOL    HW115416   4.072   1.376   5.146  0.6896  2.0823  2.5789
 1319SOL    HW215417   4.134   1.316   5.268 -0.8977  1.5939  0.5149
 1320SOL     OW15418   1.723   3.635   7.279 -1.0205  0.8601  0.3589
 1320SOL    HW115419   1.676   3.598   7.354  0.0737 -0.5857  0.3199
 1320SOL    HW215420   1.698   3.727   7.287  1.7775  1.8463 -2.2856
 1321SOL     OW15421   2.577   4.397   3.539  0.5055 -0.5946 -0.1969
 1321SOL    HW115422   2.649   4.452   3.569 -1.5831  0.7439  2.4096
 1321SOL    HW215423   2.623   4.313   3.534  0.2574 -0.8639  2.1214
 1322SOL     OW15424   0.609   3.000  16.563  0.1126  0.5733 -0.4773
 1322SOL    HW115425   0.683   2.956  16.605  0.8988  0.4730 -1.9626
 1322SOL    HW215426   0.600   3.079  16.616 -0.8115  0.6424 -0.7399
 1323SOL     OW15427   2.449   0.237   4.358  0.0899  0.1000  0.3955
 1323SOL    HW115428   2.527   0.290   4.341  0.5919 -1.2511 -1.5986
 1323SOL    HW215429   2.487   0.157   4.321 -1.6290 -0.1770 -0.7571
 1324SOL     OW15430   0.127   1.331  10.788  0.0468 -0.4301 -0.4684
 1324SOL    HW115431   0.120   1.246  10.745 -1.0213  0.8358 -2.7930
 1324SOL    HW215432   0.190   1.298  10.852  0.6506 -0.7712 -1.2402
 1325SOL     OW15433   0.292   3.606  11.015  0.1590 -0.2348  0.2431
 1325SOL    HW115434   0.197   3.619  11.024 -0.1211 -0.1955 -2.7962
 1325SOL    HW215435   0.311   3.671  10.947  0.5022  0.1454  0.6998
 1326SOL     OW15436   3.738   0.380   1.083  0.3233 -0.4257  0.8147
 1326SOL    HW115437   3.698   0.462   1.054  0.2589  0.3297  3.0690
 1326SOL    HW215438   3.831   0.394   1.098  0.6640 -1.5804 -0.2219
 1327SOL     OW15439   2.038   0.037   5.185  0.0739  0.0562 -0.0978
 1327SOL    HW115440   2.014   0.126   5.158 -1.5024 -0.1130  0.6953
 1327SOL    HW215441   1.957   4.711   5.173  0.7080 -1.1843  0.6901
 1328SOL     OW15442   1.755   3.140   3.445 -0.3719 -0.8233 -0.1580
 1328SOL    HW115443   1.685   3.075   3.451 -1.1258  0.0309  0.3370
 1328SOL    HW215444   1.816   3.088   3.392 -1.2399 -2.3308  0.3110
 1329SOL     OW15445   3.902   0.162  11.244 -0.3337 -0.1086  0.1016
 1329SOL    HW115446   3.882   0.095  11.178 -3.1470  1.4106 -0.5899
 1329SOL    HW215447   3.998   0.161  11.249 -0.3586  1.1309  0.6966
 1330SOL     OW15448   3.039   4.525  11.174  0.2562 -0.4576  0.1981
 1330SOL    HW115449   2.974   4.587  11.141 -1.4046 -0.9373  2.5601
 1330SOL    HW215450   3.084   4.568  11.247 -0.9708 -0.8294  1.1793
 1331SOL     OW15451   0.288   2.564   4.558  0.3419 -0.4475 -0.7693
 1331SOL    HW115452   0.324   2.599   4.639  0.2202 -0.1892 -0.8264
 1331SOL    HW215453   0.226   2.507   4.604  0.6622 -0.9462 -0.9415
 1332SOL     OW15454   3.654   0.510   2.275 -0.4993 -0.5430 -0.4802
 1332SOL    HW115455   3.731   0.561   2.250 -0.3289 -0.2846  0.5692
 1332SOL    HW215456   3.607   0.511   2.192  1.8444  2.2338 -1.7854
 1333SOL     OW15457   3.551   1.988   4.140 -0.2028  0.2786  0.0439
 1333SOL    HW115458   3.470   2.025   4.175 -1.3617 -0.6763 -1.6576
 1333SOL    HW215459   3.550   1.895   4.161 -0.6979 -0.0659 -1.4561
 1334SOL     OW15460   0.013   3.220   8.329  0.4720 -0.5659 -0.1285
 1334SOL    HW115461   4.656   3.246   8.282  0.9925  0.5200 -0.4019
 1334SOL    HW215462   4.710   3.133   8.362 -0.0715 -0.2365  0.3092
 1335SOL     OW15463   0.740   1.520   7.339  0.5101 -0.2393  0.1730
 1335SOL    HW115464   0.671   1.454   7.332  1.4442 -0.8747 -2.8087
 1335SOL    HW215465   0.822   1.476   7.319 -0.6718 -0.9938 -2.8918
 1336SOL     OW15466   0.069   0.715   3.521  0.7557  0.0631  1.1724
 1336SOL    HW115467   0.022   0.635   3.546 -0.1482  0.7672  1.7516
 1336SOL    HW215468   0.069   0.716   3.425 -0.8810 -2.3789  1.1491
 1337SOL     OW15469   2.048   0.467   8.338 -0.1124  0.1703 -0.1679
 1337SOL    HW115470   2.138   0.484   8.311  0.5288 -1.8605  0.6905
 1337SOL    HW215471   2.014   0.419   8.262 -0.7363  2.6933 -1.4925
 1338SOL     OW15472   1.446   2.899   4.567 -0.0642 -0.1392 -0.0028
 1338SOL    HW115473   1.529   2.903   4.615  0.3443 -0.4662 -0.6830
 1338SOL    HW215474   1.434   2.805   4.557  0.2995 -0.1787 -0.0708
 1339SOL     OW15475   2.693   2.059  12.248 -0.2661  0.6170  0.4524
 1339SOL    HW115476   2.707   1.985  12.308  0.9978 -0.0095 -0.6205
 1339SOL    HW215477   2.732   2.025  12.168  1.9626 -0.2129  1.8659
 1340SOL     OW15478   1.966   3.350   5.964 -0.0478  0.0958  0.3196
 1340SOL    HW115479   2.032   3.286   5.934 -0.9177 -1.7676  2.3352
 1340SOL    HW215480   1.886   3.309   5.931  0.3729 -1.5439  1.2871
 1341SOL     OW15481   2.707   4.109   7.037  0.0792  0.4050  0.5338
 1341SOL    HW115482   2.692   4.180   6.976  0.4011 -1.2674 -1.4816
 1341SOL    HW215483   2.670   4.161   7.109 -1.6007 -1.6075  1.1287
 1342SOL     OW15484   1.582   1.719   2.711 -0.1062  0.0417  0.4568
 1342SOL    HW115485   1.645   1.654   2.741 -1.7444 -0.6641  2.3662
 1342SOL    HW215486   1.638   1.788   2.675  1.0597 -0.7162  0.8101
 1343SOL     OW15487   1.496   1.637  17.262  0.2463 -0.2778 -0.1690
 1343SOL    HW115488   1.574   1.667  17.309 -0.2906 -2.3120  2.0172
 1343SOL    HW215489   1.536   1.634  17.175 -2.5096  0.2494 -1.4383
 1344SOL     OW15490   2.141   2.429   5.272  0.0572 -0.0132  0.5536
 1344SOL    HW115491   2.149   2.369   5.346  1.9966 -0.2994  0.1141
 1344SOL    HW215492   2.048   2.427   5.250  0.1290 -0.0182  0.2462
 1345SOL     OW15493   3.855   3.354   1.730  0.3168  0.0740  0.1967
 1345SOL    HW115494   3.767   3.370   1.699  0.2425  1.6061  1.1744
 1345SOL    HW215495   3.842   3.345   1.825  0.7217  2.8786  0.5115
 1346SOL     OW15496   0.434   2.931  10.624  0.3127 -0.3388 -0.0749
 1346SOL    HW115497   0.484   2.912  10.703 -2.0748 -3.3081  0.7160
 1346SOL    HW215498   0.428   2.848  10.577  0.7314  0.2470 -1.1736
 1347SOL     OW15499   4.684   0.746   8.995  0.2716  0.0189  0.1337
 1347SOL    HW115500   4.647   0.668   9.036  0.9525  1.3671  3.2761
 1347SOL    HW215501   4.705   0.704   8.911  2.3293 -0.2688  0.7817
 1348SOL     OW15502   0.421   0.620   8.862  0.3533  0.7644  0.2876
 1348SOL    HW115503   0.508   0.649   8.890  0.8141  0.4095 -0.7693
 1348SOL    HW215504   0.393   0.695   8.809  0.3074 -0.1799 -1.0320
 1349SOL     OW15505   0.811   3.770   4.110  0.4721  0.1352 -0.5721
 1349SOL    HW115506   0.719   3.771   4.082  0.6217  2.5116 -0.9780
 1349SOL    HW215507   0.824   3.678   4.130  1.0627  0.3211 -0.0988
 1350SOL     OW15508   3.926   0.422  11.335  0.3866  0.3614  0.2628
 1350SOL    HW115509   3.905   0.338  11.295  2.8838 -0.2196  0.1786
 1350SOL    HW215510   4.020   0.413  11.348  0.0733 -1.7649  0.9324
 1351SOL     OW15511   2.785   0.584   1.684 -0.4335 -0.1308  0.0385
 1351SOL    HW115512   2.823   0.511   1.732  0.2345  0.3216  0.2045
 1351SOL    HW215513   2.840   0.653   1.723  2.6366 -2.1288 -0.8215
 1352SOL     OW15514   4.703   3.883   2.727 -0.0845  0.1916  0.1492
 1352SOL    HW115515   0.013   3.802   2.767  1.5736  1.6153  1.6665
 1352SOL    HW215516   0.040   3.950   2.761 -0.6669  2.3237 -3.0299
 1353SOL     OW15517   1.733   0.069   0.329 -0.3244 -0.7627  0.2446
 1353SOL    HW115518   1.661   0.033   0.381 -1.2206  0.6590 -0.0314
 1353SOL    HW215519   1.737   0.159   0.361 -0.0821 -0.0169 -1.8526
 1354SOL     OW15520   4.648   3.305   3.574 -0.7671  0.3400 -0.3429
 1354SOL    HW115521   4.637   3.213   3.601  2.3885 -0.4061 -1.6242
 1354SOL    HW215522   4.644   3.286   3.481  0.1474 -0.6400 -0.1849
 1355SOL     OW15523   0.339   1.173   5.081 -0.0773  0.2554  0.0396
 1355SOL    HW115524   0.303   1.247   5.130 -0.7494  0.8601 -1.3702
 1355SOL    HW215525   0.280   1.161   5.007  0.4546  1.0586 -0.5259
 1356SOL     OW15526   3.485   0.060  13.087 -0.4200 -0.5165 -0.1047
 1356SOL    HW115527   3.541   0.111  13.146 -1.3792  0.2564  0.1321
 1356SOL    HW215528   3.458   0.138  13.038  1.0521 -0.4486 -0.8087
 1357SOL     OW15529   1.201   4.526   9.457  1.0231 -0.5102  0.6526
 1357SOL    HW115530   1.151   4.444   9.469  1.2398 -0.7643 -0.1830
 1357SOL    HW215531   1.284   4.500   9.417  0.6814  1.0811 -1.0641
 1358SOL     OW15532   2.981   3.522  10.713  0.6281 -0.6199  0.1812
 1358SOL    HW115533   3.068   3.542  10.678 -0.3283  1.7002 -0.8793
 1358SOL    HW215534   2.971   3.587  10.782 -0.6435  0.6023 -1.1556
 1359SOL     OW15535   1.647   4.058  13.883 -0.3062  0.0797 -0.0088
 1359SOL    HW115536   1.720   4.057  13.821 -1.7011 -1.4206 -1.6368
 1359SOL    HW215537   1.691   4.091  13.961 -0.1630  0.6453 -0.3287
 1360SOL     OW15538   1.644   3.574   4.382 -0.3507  0.3469  0.6253
 1360SOL    HW115539   1.732   3.549   4.412 -0.5403 -0.9611  0.0614
 1360SOL    HW215540   1.645   3.559   4.288  1.3921 -2.0888  1.0313
 1361SOL     OW15541   3.466   4.155   7.332 -0.2178 -0.1987  0.3330
 1361SOL    HW115542   3.384   4.147   7.284  0.7623  0.3962 -1.4459
 1361SOL    HW215543   3.498   4.245   7.322 -1.7804  0.3011 -0.0470
 1362SOL     OW15544   2.453   2.649  12.348 -0.0727 -0.0021 -0.2918
 1362SOL    HW115545   2.491   2.733  12.374  1.8261 -1.0326  0.2242
 1362SOL    HW215546   2.508   2.619  12.277 -0.2575 -1.3457  0.1411
 1363SOL     OW15547   0.460   3.706   7.348  0.4265 -0.4258 -0.5418
 1363SOL    HW115548   0.420   3.652   7.416  0.2782  1.2766  0.7248
 1363SOL    HW215549   0.519   3.638   7.317  1.2455 -0.1517  0.4124
 1364SOL     OW15550   1.371   3.857   7.094 -0.6270 -0.2057  1.1618
 1364SOL    HW115551   1.304   3.855   7.161  1.2921  2.3496  3.1754
 1364SOL    HW215552   1.321   3.903   7.027 -0.5232  3.2631  3.4279
 1365SOL     OW15553   0.662   3.731   6.465 -0.0766  0.2131 -0.3724
 1365SOL    HW115554   0.734   3.770   6.416  1.4692 -2.7834 -0.4827
 1365SOL    HW215555   0.635   3.669   6.397 -0.4013  0.3257 -0.3460
 1366SOL     OW15556   1.869   0.222   7.084 -0.4733  0.1542 -0.7554
 1366SOL    HW115557   1.866   0.289   7.015 -1.3223 -0.2961 -1.1580
 1366SOL    HW215558   1.912   0.269   7.155  1.1121 -0.9223 -1.0092
 1367SOL     OW15559   3.021   2.271   1.464 -0.8071 -0.2255  0.0078
 1367SOL    HW115560   3.034   2.344   1.525 -1.4600 -1.4616  1.6285
 1367SOL    HW215561   2.998   2.310   1.380 -0.4786  1.1228  0.5436
 1368SOL     OW15562   0.593   4.464  15.398  0.1268  0.1225 -0.1644
 1368SOL    HW115563   0.631   4.376  15.387 -0.6116 -0.0860 -1.0951
 1368SOL    HW215564   0.670   4.512  15.366 -1.3774  0.7967 -2.7446
 1369SOL     OW15565   1.682   0.997   7.797  0.4988 -0.1421 -0.3003
 1369SOL    HW115566   1.741   1.056   7.845 -0.6106  1.7510 -1.2905
 1369SOL    HW215567   1.690   1.032   7.709 -2.4698 -1.6714 -1.1764
 1370SOL     OW15568   1.529   0.301  10.589  0.4028 -0.2255 -0.1672
 1370SOL    HW115569   1.533   0.268  10.679 -0.1755 -0.7137 -0.3233
 1370SOL    HW215570   1.464   0.371  10.597 -0.0598 -1.0763  3.5117
 1371SOL     OW15571   4.471   1.424   6.528 -0.0253 -0.2458  0.0103
 1371SOL    HW115572   4.477   1.504   6.475  2.9840 -0.3956  0.0993
 1371SOL    HW215573   4.388   1.390   6.494 -0.9838  0.6062  1.5106
 1372SOL     OW15574   0.982   1.667   0.932 -0.3461 -0.0051 -0.4253
 1372SOL    HW115575   1.067   1.657   0.891 -0.9334 -0.2243 -1.6004
 1372SOL    HW215576   0.931   1.588   0.913 -1.3115  0.3414  0.7199
 1373SOL     OW15577   2.743   1.276   7.644 -0.2920  0.6488 -0.5835
 1373SOL    HW115578   2.767   1.363   7.675 -2.7415  1.8095 -1.9889
 1373SOL    HW215579   2.693   1.237   7.715  0.2677 -1.3007 -1.2561
 1374SOL     OW15580   0.138   3.786   8.502  0.0216  0.2961  0.0913
 1374SOL    HW115581   0.050   3.762   8.471  1.0384 -1.9095 -1.1037
 1374SOL    HW215582   0.187   3.718   8.455  0.2342 -0.1113  0.9107
 1375SOL     OW15583   3.165   2.985   2.904  0.1910  0.3335  0.2272
 1375SOL    HW115584   3.089   2.965   2.850  0.0076  0.9757  0.2429
 1375SOL    HW215585   3.231   3.013   2.842 -0.5338  1.0496 -0.2322
 1376SOL     OW15586   2.025   2.541   5.764  0.4161 -0.5514  0.3572
 1376SOL    HW115587   2.046   2.590   5.684  0.3781 -1.0206  0.0613
 1376SOL    HW215588   2.093   2.475   5.762 -0.8567 -1.8734  0.7328
 1377SOL     OW15589   4.501   3.148   4.944  0.4655  0.5380  0.4368
 1377SOL    HW115590   4.520   3.180   4.856  0.2727  1.0786  0.5929
 1377SOL    HW215591   4.516   3.055   4.926  0.5155  0.7006 -0.3576
 1378SOL     OW15592   3.572   3.570   6.984 -0.1974  0.4777 -0.4315
 1378SOL    HW115593   3.505   3.619   6.935 -0.4942  2.4838  1.9937
 1378SOL    HW215594   3.528   3.525   7.056 -0.7796  1.3570 -0.2434
 1379SOL     OW15595   3.003   3.375   9.173 -0.0368 -0.6081 -0.7972
 1379SOL    HW115596   3.017   3.385   9.267 -2.3542 -0.2339 -0.4899
 1379SOL    HW215597   2.911   3.385   9.149 -0.7207  0.9013  2.4203
 1380SOL     OW15598   2.735   3.706   0.472 -0.1203  0.2272  0.3088
 1380SOL    HW115599   2.657   3.664   0.510  1.9355 -1.7925  2.3533
 1380SOL    HW215600   2.705   3.792   0.500  0.2573  0.7207 -0.8118
 1381SOL     OW15601   2.524   4.485   8.016  0.1083 -0.3606 -0.1131
 1381SOL    HW115602   2.446   4.498   7.963  1.4269  1.7779 -1.4822
 1381SOL    HW215603   2.488   4.461   8.102  2.5888 -0.4606  0.8963
 1382SOL     OW15604   0.975   4.515   6.634  0.3039  0.4629  0.1467
 1382SOL    HW115605   0.894   4.531   6.585  1.1074 -0.8075 -1.5982
 1382SOL    HW215606   0.940   4.474   6.713  1.5155 -0.5314  0.1742
 1383SOL     OW15607   0.630   0.113   5.919  0.3031  0.1320  0.9530
 1383SOL    HW115608   0.540   0.126   5.889  0.3376  0.9621  1.2161
 1383SOL    HW215609   0.678   0.173   5.862  0.6734 -0.5596  0.5255
 1384SOL     OW15610   3.708   1.979   4.626 -0.0532  0.2304 -0.1721
 1384SOL    HW115611   3.758   2.022   4.556 -0.3343 -0.6778 -0.9221
 1384SOL    HW215612   3.661   2.051   4.668 -2.6642  0.1472 -2.9615
 1385SOL     OW15613   1.938   0.075   6.726 -0.5143 -0.6077 -0.2036
 1385SOL    HW115614   1.957   0.131   6.650  1.7949 -2.4814 -1.0279
 1385SOL    HW215615   1.953   4.711   6.688  2.8539 -0.2543  0.3406
 1386SOL     OW15616   3.506   0.161  11.504  0.0232  0.3469  0.1658
 1386SOL    HW115617   3.437   0.227  11.509 -0.2244  0.3465 -3.4266
 1386SOL    HW215618   3.508   0.113  11.421 -0.8427 -1.5612  1.2487
 1387SOL     OW15619   2.899   4.709   4.649  0.1864  0.1741 -0.5704
 1387SOL    HW115620   2.817   0.033   4.665  0.0239  0.0788 -1.1273
 1387SOL    HW215621   2.912   4.678   4.739 -0.9328  2.0644  0.2369
 1388SOL     OW15622   3.978   1.338   0.478  0.4295 -0.2402  0.3405
 1388SOL    HW115623   3.998   1.245   0.465  1.0261  0.2731 -2.5621
 1388SOL    HW215624   3.991   1.334   0.572  1.0464  0.2834  0.2846
 1389SOL     OW15625   0.414   1.094  12.443  0.8117 -0.4590 -0.4373
 1389SOL    HW115626   0.489   1.043  12.475  0.7744  0.2602  0.7860
 1389SOL    HW215627   0.338   1.061  12.491  0.9013  1.0264  0.7355
 1390SOL     OW15628   3.881   3.110   9.572  0.6610 -0.2350  0.1905
 1390SOL    HW115629   3.948   3.080   9.633 -0.5317 -1.1463  1.0625
 1390SOL    HW215630   3.806   3.061   9.606 -0.0107  0.3294 -0.4951
 1391SOL     OW15631   4.073   3.890   8.816  0.1228 -0.5717  0.0683
 1391SOL    HW115632   4.156   3.842   8.808  0.6419  0.0576  1.6196
 1391SOL    HW215633   4.022   3.867   8.738  0.7190 -2.3542  0.2062
 1392SOL     OW15634   2.822   1.031   7.875 -0.0868  0.2569 -0.2135
 1392SOL    HW115635   2.836   1.087   7.951  0.2743 -0.7346  0.4607
 1392SOL    HW215636   2.745   1.078   7.844 -2.5110 -3.8137 -0.4904
 1393SOL     OW15637   1.203   2.422  16.584 -0.1223  0.3768  0.1423
 1393SOL    HW115638   1.146   2.348  16.603 -0.7058  0.6419 -0.6104
 1393SOL    HW215639   1.240   2.433  16.672  0.6524 -0.3553 -0.1001
 1394SOL     OW15640   1.546   0.905   0.359  0.9306  0.1372 -0.1346
 1394SOL    HW115641   1.537   0.908   0.454 -0.1133  0.6520 -0.2516
 1394SOL    HW215642   1.608   0.974   0.336 -0.1406  1.5642  1.3025
 1395SOL     OW15643   3.240   3.178   5.761  0.0707 -0.2253  0.3221
 1395SOL    HW115644   3.256   3.135   5.845  0.7618  0.5803  0.6058
 1395SOL    HW215645   3.215   3.103   5.707 -0.9465 -1.5234  2.6125
 1396SOL     OW15646   2.715   0.574   8.613 -0.0819 -0.0345  0.2970
 1396SOL    HW115647   2.700   0.632   8.539  0.2669  0.0093  0.2638
 1396SOL    HW215648   2.739   0.487   8.581  0.8717  0.6631 -0.8499
 1397SOL     OW15649   4.712   0.125   8.092 -0.3369 -0.5048  0.6204
 1397SOL    HW115650   4.627   0.088   8.069  0.7970 -2.4555 -0.4002
 1397SOL    HW215651   0.004   0.189   8.022 -2.1347  0.0009  0.7155
 1398SOL     OW15652   2.260   3.680   5.754  0.5852  0.5963 -0.2044
 1398SOL    HW115653   2.224   3.765   5.779 -0.0664  0.6237 -1.2747
 1398SOL    HW215654   2.222   3.634   5.829  0.0070  1.6865  0.1758
 1399SOL     OW15655   2.186   3.403   8.022  0.4087  0.2163 -0.2721
 1399SOL    HW115656   2.239   3.401   8.102 -0.1484 -2.5955  0.0294
 1399SOL    HW215657   2.223   3.331   7.971 -1.0814 -1.7513  1.4407
 1400SOL     OW15658   3.747   0.272   0.840 -0.3605  0.2190 -0.1629
 1400SOL    HW115659   3.732   0.333   0.912 -1.1881  0.9433 -0.9685
 1400SOL    HW215660   3.737   0.189   0.887 -2.7291  0.3749 -0.4216
 1401SOL     OW15661   0.563   4.050   8.689 -0.0190  0.2252  0.1094
 1401SOL    HW115662   0.543   3.981   8.752  0.3770  1.6484  1.8130
 1401SOL    HW215663   0.639   4.090   8.731  0.2931 -0.8367  0.5527
 1402SOL     OW15664   2.874   2.668   2.971 -0.3586  0.0989  0.0850
 1402SOL    HW115665   2.946   2.609   2.992  0.0966  0.8354  0.6111
 1402SOL    HW215666   2.819   2.641   3.044 -1.4009 -2.1291 -1.5032
 1403SOL     OW15667   2.748   2.722  15.683 -0.2350  0.5908  0.0188
 1403SOL    HW115668   2.820   2.694  15.740 -0.6807 -0.7176 -0.0737
 1403SOL    HW215669   2.788   2.691  15.602 -1.3722  0.1205 -0.3494
 1404SOL     OW15670   1.910   2.564  11.499  0.0702  0.4231  0.3431
 1404SOL    HW115671   1.937   2.480  11.536  2.5508  0.2006 -1.9363
 1404SOL    HW215672   1.942   2.549  11.409 -0.6488 -1.7534  0.4547
 1405SOL     OW15673   4.076   2.231   6.371  0.2275 -0.4949  0.1915
 1405SOL    HW115674   4.161   2.270   6.354  1.2377 -1.5251  2.8600
 1405SOL    HW215675   4.103   2.140   6.358 -1.2315 -1.1236  1.5364
 1406SOL     OW15676   4.686   1.273   1.294  0.2717 -0.0724 -0.6582
 1406SOL    HW115677   0.036   1.224   1.333  0.1521 -0.2694 -0.6807
 1406SOL    HW215678   4.672   1.325   1.373 -2.3691  0.9252 -1.7911
 1407SOL     OW15679   3.123   3.933   5.196  0.2787 -0.1212  0.1622
 1407SOL    HW115680   3.066   4.008   5.212 -1.6824 -0.8515 -3.4561
 1407SOL    HW215681   3.194   3.972   5.145 -0.2893  1.2457  0.4310
 1408SOL     OW15682   3.304   1.346   4.315  0.7394  0.0884  0.9274
 1408SOL    HW115683   3.369   1.416   4.321  0.7523  0.2565 -1.0651
 1408SOL    HW215684   3.363   1.281   4.276  0.4397 -0.6268  1.6646
 1409SOL     OW15685   0.941   2.799   7.257 -0.5594  0.4117 -0.6053
 1409SOL    HW115686   0.945   2.889   7.226  2.4035  1.2232  2.0771
 1409SOL    HW215687   0.847   2.778   7.256 -0.4243 -0.3271  1.0372
 1410SOL     OW15688   2.637   1.048  17.657 -0.0489 -0.4516  0.4932
 1410SOL    HW115689   2.720   1.056  17.611  0.2364  1.0170  1.2619
 1410SOL    HW215690   2.635   0.965   0.012 -0.0762  0.3269  1.8359
 1411SOL     OW15691   1.618   4.290   2.163  0.7544  0.3967  0.4465
 1411SOL    HW115692   1.706   4.278   2.126  0.6519  1.5326 -0.1593
 1411SOL    HW215693   1.615   4.204   2.205 -1.8586  0.1801 -0.2235
 1412SOL     OW15694   4.405   2.935   0.320 -0.4330  0.1779 -0.7568
 1412SOL    HW115695   4.396   3.021   0.361  0.4579 -0.0141 -0.1525
 1412SOL    HW215696   4.497   2.940   0.294 -0.3198 -1.2306 -0.6294
 1413SOL     OW15697   1.597   3.044   0.241 -0.0577  0.1095 -0.9229
 1413SOL    HW115698   1.578   2.963   0.287  1.6567 -0.1156 -0.6137
 1413SOL    HW215699   1.656   3.088   0.302 -1.3076  1.2029 -0.5026
 1414SOL     OW15700   0.527   1.297   5.473 -0.2167  0.3415 -0.0497
 1414SOL    HW115701   0.480   1.308   5.556  0.0524 -0.5378  0.2263
 1414SOL    HW215702   0.516   1.387   5.445 -0.8486  0.4288  0.4687
 1415SOL     OW15703   3.342   2.136   1.835  0.1166 -0.1838  0.5345
 1415SOL    HW115704   3.304   2.125   1.748 -0.6540  0.6166  0.7650
 1415SOL    HW215705   3.381   2.222   1.824  1.4362 -0.8851 -0.2667
 1416SOL     OW15706   0.826   2.934  15.968  0.1925  0.3543 -0.2132
 1416SOL    HW115707   0.880   3.012  15.977 -0.1317  0.7327 -1.5629
 1416SOL    HW215708   0.795   2.954  15.880  0.5915  0.4330 -0.3342
 1417SOL     OW15709   2.968   1.942   7.840  0.9747  0.0470 -0.3957
 1417SOL    HW115710   2.910   1.927   7.915  1.7968 -1.3400 -0.0465
 1417SOL    HW215711   3.051   1.914   7.877  1.8268 -0.2428 -2.4871
 1418SOL     OW15712   2.532   0.273   8.876  0.1157 -0.0502 -0.1770
 1418SOL    HW115713   2.518   0.232   8.961  0.9572 -0.6819 -0.3514
 1418SOL    HW215714   2.590   0.345   8.900  0.1738  0.3379 -1.4622
 1419SOL     OW15715   3.863   3.733   8.083 -0.4023 -0.2692 -0.1367
 1419SOL    HW115716   3.859   3.829   8.082  1.8776 -0.1923 -1.9453
 1419SOL    HW215717   3.854   3.711   8.176 -0.7155  2.1749  0.4102
 1420SOL     OW15718   2.210   1.146   3.324 -0.5335 -0.0230 -0.6230
 1420SOL    HW115719   2.277   1.078   3.334 -1.1227 -0.4874  0.2310
 1420SOL    HW215720   2.232   1.210   3.392  0.0659  1.6636 -2.3904
 1421SOL     OW15721   2.879   1.534   0.815  0.2468 -0.3979 -0.6186
 1421SOL    HW115722   2.900   1.624   0.790  0.4966 -0.6109 -1.1761
 1421SOL    HW215723   2.964   1.491   0.810  0.6021  0.4734 -2.1528
 1422SOL     OW15724   3.844   2.252   3.406  0.6901  0.1157 -0.4490
 1422SOL    HW115725   3.767   2.235   3.352  0.0970 -1.4573  0.9028
 1422SOL    HW215726   3.877   2.165   3.426  0.8045 -0.2054 -2.0249
 1423SOL     OW15727   1.592   2.265   6.455 -0.2766 -0.2313 -0.4379
 1423SOL    HW115728   1.519   2.257   6.517  2.3518 -2.2537  2.4037
 1423SOL    HW215729   1.622   2.174   6.455  0.7658  0.1023 -1.1881
 1424SOL     OW15730   0.979   4.441   4.627 -1.1912 -0.5870  0.0167
 1424SOL    HW115731   0.993   4.524   4.581 -0.2274  0.8974  3.0137
 1424SOL    HW215732   0.900   4.418   4.579 -1.3724 -1.5822  0.7876
 1425SOL     OW15733   4.024   0.669   8.997  0.3033  0.3011 -0.6353
 1425SOL    HW115734   4.028   0.574   9.002  0.1431  0.4967  2.8034
 1425SOL    HW215735   4.111   0.688   9.032 -0.0517 -1.2252  1.0145
 1426SOL     OW15736   2.505   3.164  16.602 -0.4931 -0.0667  0.8206
 1426SOL    HW115737   2.577   3.199  16.550 -1.0421 -1.3669 -0.8262
 1426SOL    HW215738   2.506   3.209  16.687  1.1353 -0.8514  1.2124
 1427SOL     OW15739   0.824   3.574   6.195  0.3009 -0.0962  0.1113
 1427SOL    HW115740   0.867   3.645   6.243  0.6502  0.4541 -1.0194
 1427SOL    HW215741   0.897   3.528   6.154 -1.0043 -2.1443  0.1084
 1428SOL     OW15742   4.261   1.517  15.084 -0.1689  0.5608  0.4392
 1428SOL    HW115743   4.282   1.605  15.114  2.6313 -0.3367  1.1053
 1428SOL    HW215744   4.197   1.531  15.015 -2.4474 -1.7763  2.0304
 1429SOL     OW15745   3.716   1.329   7.419  0.5262 -0.4495 -0.1531
 1429SOL    HW115746   3.802   1.371   7.411  0.7509 -1.1402 -1.4733
 1429SOL    HW215747   3.660   1.401   7.391 -0.7816 -1.5479 -0.3343
 1430SOL     OW15748   1.951   4.490   3.378 -0.0023 -0.3620 -0.6290
 1430SOL    HW115749   2.042   4.508   3.353  0.8641 -1.5487  1.6758
 1430SOL    HW215750   1.960   4.422   3.445 -0.1047  0.0419 -0.2080
 1431SOL     OW15751   1.290   2.722   5.020 -0.8455 -0.2790  0.3559
 1431SOL    HW115752   1.336   2.792   4.973 -0.9887  0.2461  1.0000
 1431SOL    HW215753   1.296   2.765   5.105  1.5316 -0.3993  0.2430
 1432SOL     OW15754   0.188   4.228   3.995  0.7230 -0.1748  0.0191
 1432SOL    HW115755   0.233   4.236   3.911  1.7814  0.4802  0.6430
 1432SOL    HW215756   0.249   4.178   4.049  2.4972  0.9190 -0.9709
 1433SOL     OW15757   2.426   4.087   4.874  0.3986 -0.6491  0.0773
 1433SOL    HW115758   2.424   4.182   4.868  0.9167 -0.7360 -1.5616
 1433SOL    HW215759   2.516   4.076   4.842  0.3575  3.2957 -1.3984
 1434SOL     OW15760   3.295   0.572   4.137 -0.1461  0.7151 -0.3064
 1434SOL    HW115761   3.332   0.514   4.071  2.7243  1.2367  0.8358
 1434SOL    HW215762   3.207   0.570   4.100  0.2767  0.3865 -1.2941
 1435SOL     OW15763   1.612   0.398   9.227 -0.3848 -0.7172 -0.3781
 1435SOL    HW115764   1.665   0.402   9.307 -0.5001 -0.5260 -0.3129
 1435SOL    HW215765   1.633   0.308   9.202 -1.3465 -0.7551 -1.0470
 1436SOL     OW15766   2.410   4.491   1.984 -0.2055  0.5101  0.2854
 1436SOL    HW115767   2.351   4.439   1.930  2.3492  0.2375 -2.2525
 1436SOL    HW215768   2.356   4.505   2.061 -0.8029 -0.5378  0.0524
 1437SOL     OW15769   4.281   2.547   5.590 -0.0050  0.1200  0.4448
 1437SOL    HW115770   4.202   2.501   5.619  0.1519  0.1894  0.9775
 1437SOL    HW215771   4.322   2.468   5.555 -0.7295  1.1605 -2.8093
 1438SOL     OW15772   0.247   4.040  15.234  0.0375 -0.2560  0.0810
 1438SOL    HW115773   0.162   3.998  15.218  0.6922 -2.1845  1.8247
 1438SOL    HW215774   0.300   3.988  15.173 -0.9557 -1.4526  0.2449
 1439SOL     OW15775   4.094   1.268  17.089 -0.4789 -0.3763  0.1452
 1439SOL    HW115776   4.005   1.236  17.074 -0.5426  0.4243 -1.1538
 1439SOL    HW215777   4.069   1.360  17.096  0.1656 -0.3062  1.6243
 1440SOL     OW15778   0.086   0.961   5.116  0.8965  0.2364 -0.0530
 1440SOL    HW115779   0.076   1.053   5.089 -3.8064 -0.5715 -1.0985
 1440SOL    HW215780   0.116   0.921   5.035 -0.3841  0.1812 -0.4952
 1441SOL     OW15781   4.655   4.675   4.879 -0.1946 -0.2637 -0.0351
 1441SOL    HW115782   4.674   4.696   4.971 -2.0073  1.3123 -0.0301
 1441SOL    HW215783   4.618   0.033   4.844 -0.9050 -0.9430 -0.8510
 1442SOL     OW15784   0.791   1.244   5.532 -0.5724 -0.2827 -0.1638
 1442SOL    HW115785   0.794   1.202   5.618 -1.3820  5.3134  2.5826
 1442SOL    HW215786   0.697   1.261   5.530 -0.5335 -0.1814 -1.2462
 1443SOL     OW15787   1.540   3.710   5.576 -0.5266 -0.4008  0.3568
 1443SOL    HW115788   1.476   3.709   5.648  0.0137  1.2134  0.8687
 1443SOL    HW215789   1.481   3.669   5.514 -0.0953 -1.0113  0.3521
 1444SOL     OW15790   1.313   2.510  10.546 -0.4870  0.0085 -0.0884
 1444SOL    HW115791   1.290   2.538  10.635 -1.3035  0.9093 -0.5779
 1444SOL    HW215792   1.379   2.577  10.524 -0.1594 -0.0922  0.5679
 1445SOL     OW15793   0.446   4.235   5.078 -0.0599  0.1382 -0.0193
 1445SOL    HW115794   0.388   4.298   5.121 -1.1318  0.4052 -1.8419
 1445SOL    HW215795   0.459   4.284   4.997 -1.3714  0.7169  0.1191
 1446SOL     OW15796   3.708   3.739   0.708 -0.3030  0.5918  0.6814
 1446SOL    HW115797   3.774   3.770   0.646 -2.7808 -0.1498 -2.3155
 1446SOL    HW215798   3.693   3.653   0.670  0.8246  0.2926  0.9166
 1447SOL     OW15799   1.858   0.426   6.483  0.6953  0.0895 -0.2960
 1447SOL    HW115800   1.825   0.448   6.396  1.7561 -0.2537 -0.7786
 1447SOL    HW215801   1.823   0.343   6.518 -4.1684  1.2685 -2.2783
 1448SOL     OW15802   2.800   0.944   2.433  0.2465  1.0239  0.3414
 1448SOL    HW115803   2.841   0.896   2.505 -1.1611  0.7771  0.9657
 1448SOL    HW215804   2.817   1.037   2.451  0.1410  1.2762 -0.8753
 1449SOL     OW15805   1.443   3.220   3.856 -0.4064  0.1370  0.3443
 1449SOL    HW115806   1.525   3.202   3.901 -0.8106  0.1497  1.0860
 1449SOL    HW215807   1.466   3.174   3.775 -0.9587  0.2941  0.0939
 1450SOL     OW15808   2.521   2.006  11.911  0.1095  0.4470 -0.1105
 1450SOL    HW115809   2.465   2.018  11.988 -1.8248 -2.2357 -1.0965
 1450SOL    HW215810   2.458   1.976  11.845  0.2640 -0.1973  0.0393
 1451SOL     OW15811   2.122   0.693   1.753 -0.2855 -0.3394 -0.6067
 1451SOL    HW115812   2.089   0.755   1.688 -2.1307  0.2643  0.9022
 1451SOL    HW215813   2.195   0.651   1.707 -0.4896 -0.0057 -1.2342
 1452SOL     OW15814   3.595   4.366   2.264  0.1293 -0.0694 -0.1722
 1452SOL    HW115815   3.526   4.303   2.285  0.0334 -0.4081 -1.5162
 1452SOL    HW215816   3.678   4.326   2.289  0.6585  1.5739  0.7108
 1453SOL     OW15817   4.529   1.444  13.043  0.4368 -0.4460 -0.1048
 1453SOL    HW115818   4.550   1.372  13.102  0.2301 -0.5231 -0.1254
 1453SOL    HW215819   4.616   1.464  13.008 -0.7738  4.0799 -0.5795
 1454SOL     OW15820   0.046   1.829   0.685 -0.1578 -1.0244  0.0513
 1454SOL    HW115821   0.085   1.748   0.719  1.5751  0.2598  1.1487
 1454SOL    HW215822   4.720   1.799   0.608  0.4342 -0.2345 -0.6228
 1455SOL     OW15823   4.130   3.365   2.461 -0.1022  0.6192  0.4212
 1455SOL    HW115824   4.119   3.312   2.540  0.8695 -0.2103 -0.0028
 1455SOL    HW215825   4.218   3.401   2.474 -0.2624  1.0339  0.3451
 1456SOL     OW15826   0.770   3.108   6.150  0.1854  0.1201 -0.2268
 1456SOL    HW115827   0.737   3.135   6.064 -0.8327 -1.0926 -0.2100
 1456SOL    HW215828   0.777   3.194   6.193  0.8843 -0.0306 -0.0398
 1457SOL     OW15829   3.320   1.542  16.646 -0.3188  0.1661  0.8317
 1457SOL    HW115830   3.384   1.605  16.615 -0.4533 -0.6275 -1.0251
 1457SOL    HW215831   3.335   1.473  16.582  0.2082  1.0789 -0.0226
 1458SOL     OW15832   3.665   4.564   9.404  0.1175 -0.5496  0.2790
 1458SOL    HW115833   3.753   4.587   9.376 -0.3863  2.7304  1.4455
 1458SOL    HW215834   3.615   4.578   9.323  0.9038  0.2225 -0.0686
 1459SOL     OW15835   1.442   4.652   5.143 -0.3931 -0.4056 -0.2028
 1459SOL    HW115836   1.518   4.618   5.190  0.2501 -0.0014 -0.9517
 1459SOL    HW215837   1.375   4.650   5.211  1.5317 -0.2605  1.7035
 1460SOL     OW15838   1.463   3.119   3.217  0.4110 -0.2274 -0.1134
 1460SOL    HW115839   1.388   3.148   3.268 -1.6076 -1.3764 -2.4609
 1460SOL    HW215840   1.422   3.070   3.146 -2.6475  0.3925  1.2479
 1461SOL     OW15841   1.378   0.370   6.083  0.2461  0.1942 -0.4707
 1461SOL    HW115842   1.328   0.293   6.056  1.2821  0.0901 -2.1014
 1461SOL    HW215843   1.454   0.337   6.132  0.2392  0.2379 -0.4314
 1462SOL     OW15844   0.116   1.228   5.898  0.1463 -0.1571 -0.4306
 1462SOL    HW115845   0.190   1.260   5.948  0.6581 -2.4187  0.2591
 1462SOL    HW215846   0.162   1.189   5.823  1.2679 -1.9411  1.1834
 1463SOL     OW15847   0.700   0.083   2.962 -0.2977  0.0202  0.4810
 1463SOL    HW115848   0.761   0.009   2.958  2.6152  2.4506 -0.1160
 1463SOL    HW215849   0.733   0.148   3.025 -1.5024  0.1967  0.9176
 1464SOL     OW15850   2.700   2.199   3.293 -0.3643  0.1546  0.1899
 1464SOL    HW115851   2.625   2.151   3.257  1.7080 -1.9989 -1.1620
 1464SOL    HW215852   2.768   2.180   3.229  1.0237 -1.1536  2.0635
 1465SOL     OW15853   1.634   3.864  10.318  0.2678 -0.1441 -0.0245
 1465SOL    HW115854   1.635   3.781  10.364  0.5465 -0.4962 -0.6603
 1465SOL    HW215855   1.726   3.874  10.294  0.4106  0.7091  0.9065
 1466SOL     OW15856   1.474   3.088  16.272  0.0080  0.1159  0.2918
 1466SOL    HW115857   1.413   3.060  16.204 -1.8368  2.1096  1.1242
 1466SOL    HW215858   1.553   3.104  16.220 -0.2564 -0.7430 -0.3655
 1467SOL     OW15859   2.982   1.895   1.371 -0.2843  0.8179 -0.4977
 1467SOL    HW115860   3.015   1.873   1.458  0.5764  1.0698 -0.7641
 1467SOL    HW215861   3.052   1.934   1.319  2.7435 -1.8253  1.6086
 1468SOL     OW15862   0.764   3.720   8.745 -0.0815  0.2531 -0.5687
 1468SOL    HW115863   0.761   3.635   8.788 -1.0462  1.3791  1.5747
 1468SOL    HW215864   0.682   3.754   8.781  0.7206  0.1063  1.3821
 1469SOL     OW15865   0.467   0.828   5.494 -0.2132 -0.6225 -0.4894
 1469SOL    HW115866   0.414   0.891   5.445 -0.6595  1.6349  2.8792
 1469SOL    HW215867   0.484   0.768   5.422  1.4800 -0.5030 -0.1825
 1470SOL     OW15868   0.641   2.225   6.819  0.2501 -0.1816 -0.0456
 1470SOL    HW115869   0.716   2.196   6.871  0.5524 -0.4032 -0.6025
 1470SOL    HW215870   0.573   2.215   6.886  0.5185 -1.2171  0.0848
 1471SOL     OW15871   4.625   2.069   5.090 -0.3815  0.3178 -0.5778
 1471SOL    HW115872   4.554   2.117   5.046  0.0843  0.5102 -1.1221
 1471SOL    HW215873   4.669   2.022   5.019  1.9288  0.9162  0.4841
 1472SOL     OW15874   4.128   0.833   8.159 -0.1843  0.1755 -0.6869
 1472SOL    HW115875   4.192   0.776   8.203 -1.1874  0.9227  1.7644
 1472SOL    HW215876   4.123   0.904   8.222 -1.2596 -0.9153  0.4681
 1473SOL     OW15877   3.291   0.901   8.198  0.0066 -0.0878  0.4726
 1473SOL    HW115878   3.267   0.828   8.140 -0.6171  0.6510 -0.1927
 1473SOL    HW215879   3.203   0.931   8.221 -0.7739 -1.0675 -1.2698
 1474SOL     OW15880   4.427   2.584   4.556  0.3272 -0.3842 -0.3446
 1474SOL    HW115881   4.488   2.644   4.599 -0.6097 -0.1626  0.6945
 1474SOL    HW215882   4.456   2.506   4.603 -2.8238 -0.8338  0.8953
 1475SOL     OW15883   0.118   2.810   3.439  0.5998  0.2307 -0.2286
 1475SOL    HW115884   0.145   2.796   3.529  0.5327  1.8331  0.0428
 1475SOL    HW215885   0.200   2.788   3.394  0.4370  0.3780 -0.5994
 1476SOL     OW15886   2.076   2.033   6.587  0.0649  0.7145  0.0812
 1476SOL    HW115887   2.010   2.098   6.612  0.3243  0.7306  0.7354
 1476SOL    HW215888   2.055   1.971   6.657  1.2600  1.8798  1.4918
 1477SOL     OW15889   2.569   4.523   2.255  0.2777 -0.4621  0.0040
 1477SOL    HW115890   2.561   4.462   2.329  0.6433  0.7121  1.0058
 1477SOL    HW215891   2.660   4.552   2.264  0.3579 -0.0472 -2.1905
 1478SOL     OW15892   0.627   2.794  16.891  0.4312 -0.2104  0.7891
 1478SOL    HW115893   0.669   2.711  16.916 -0.0209 -0.1633  1.7196
 1478SOL    HW215894   0.596   2.773  16.803 -0.9721 -0.2430  1.2930
 1479SOL     OW15895   0.238   0.264   5.654  0.3982  0.1657 -0.3493
 1479SOL    HW115896   0.325   0.304   5.662  0.6370 -0.5876  0.7908
 1479SOL    HW215897   0.187   0.342   5.629 -1.2967 -0.0775  2.4140
 1480SOL     OW15898   4.653   1.447  14.332  0.1072 -0.2062  0.5199
 1480SOL    HW115899   0.005   1.391  14.311 -0.7579 -0.4711 -1.8446
 1480SOL    HW215900   4.629   1.400  14.411  0.6364 -1.2428  0.0635
 1481SOL     OW15901   4.483   3.113   0.493 -0.7024  0.1984 -0.2673
 1481SOL    HW115902   4.467   3.122   0.587 -0.6460 -0.6626 -0.1761
 1481SOL    HW215903   4.531   3.192   0.467 -1.5272  0.1637 -1.9346
 1482SOL     OW15904   4.559   2.993   2.878 -0.1968 -0.2549  0.2185
 1482SOL    HW115905   4.648   2.964   2.896  0.1993  1.4808  1.0274
 1482SOL    HW215906   4.511   2.944   2.944  0.3799 -0.8602  0.1883
 1483SOL     OW15907   4.366   1.513   4.227  0.2070  0.4576 -0.5790
 1483SOL    HW115908   4.329   1.426   4.210 -1.4255  0.3841  3.4916
 1483SOL    HW215909   4.308   1.553   4.292 -1.4902  1.7811 -2.8848
 1484SOL     OW15910   3.783   3.552  10.738 -0.1422  0.3168 -0.0277
 1484SOL    HW115911   3.767   3.459  10.749 -0.3403  0.5590  1.6530
 1484SOL    HW215912   3.835   3.581  10.813  1.1015 -0.2108 -0.6817
 1485SOL     OW15913   4.354   0.554  16.252 -0.2783  0.4119  0.0970
 1485SOL    HW115914   4.387   0.622  16.310  0.2930  0.1874  0.0294
 1485SOL    HW215915   4.346   0.483  16.315  1.2967 -0.2828 -0.4971
 1486SOL     OW15916   4.039   1.307  11.199  0.2087 -0.0689 -0.0614
 1486SOL    HW115917   4.100   1.338  11.265  0.6013  2.6602 -1.7034
 1486SOL    HW215918   4.044   1.212  11.216  0.9814 -0.1620 -0.8523
 1487SOL     OW15919   0.004   3.937   3.993 -0.0711 -0.0920  0.2568
 1487SOL    HW115920   0.015   3.960   4.085  0.9889  0.8994 -0.1213
 1487SOL    HW215921   4.635   3.911   3.987 -0.3776  1.2774 -1.0444
 1488SOL     OW15922   0.948   1.295  16.584 -0.8091 -0.5611  0.3717
 1488SOL    HW115923   0.957   1.318  16.677  0.6490  0.6507 -0.0773
 1488SOL    HW215924   1.021   1.345  16.548 -0.2966 -1.9089 -0.4352
 1489SOL     OW15925   4.430   0.834   3.582 -0.2690  0.0983 -0.6025
 1489SOL    HW115926   4.365   0.878   3.636 -0.3262 -1.2269  0.3982
 1489SOL    HW215927   4.513   0.874   3.610  0.2190  0.3305 -2.3795
 1490SOL     OW15928   1.794   3.096  10.468  0.2049  0.0154  0.1295
 1490SOL    HW115929   1.883   3.130  10.457  0.3875 -0.9494 -1.5129
 1490SOL    HW215930   1.799   3.006  10.434 -2.1224 -0.3799  0.8378
 1491SOL     OW15931   2.411   3.935   4.452 -0.4430  0.1278 -0.3364
 1491SOL    HW115932   2.387   3.927   4.544  0.7116 -1.4726 -0.1751
 1491SOL    HW215933   2.329   3.943   4.402 -0.7304 -0.6889  0.0042
 1492SOL     OW15934   3.507   2.499   4.778  0.7947 -0.3107  0.3113
 1492SOL    HW115935   3.603   2.497   4.780  0.8695  2.2933  0.1411
 1492SOL    HW215936   3.490   2.553   4.856  1.2531 -0.7459  0.7087
 1493SOL     OW15937   3.882   3.062   4.617 -0.1873 -0.2049  0.1250
 1493SOL    HW115938   3.819   3.127   4.648 -0.5506 -0.0587 -0.9192
 1493SOL    HW215939   3.886   2.997   4.687  1.4829  0.5749  0.7313
 1494SOL     OW15940   3.253   1.469   3.365 -0.5795  0.0586 -0.0289
 1494SOL    HW115941   3.198   1.518   3.426  2.1561  0.4298  2.1400
 1494SOL    HW215942   3.188   1.420   3.315 -2.6465  2.2528  0.5203
 1495SOL     OW15943   2.472   4.220   8.340 -0.3669  0.5561  0.1488
 1495SOL    HW115944   2.437   4.200   8.427  1.2303 -0.2740  0.6040
 1495SOL    HW215945   2.491   4.132   8.307  1.4449  1.1948 -0.5464
 1496SOL     OW15946   0.706   0.773   0.763 -0.4121 -0.3557 -0.0521
 1496SOL    HW115947   0.777   0.754   0.702 -0.5811  3.4026 -1.4431
 1496SOL    HW215948   0.639   0.732   0.709  0.9028 -0.1644 -1.8525
 1497SOL     OW15949   4.076   4.717   1.395 -0.1717 -0.0757  0.0778
 1497SOL    HW115950   3.989   4.698   1.429  0.1851 -2.8135 -0.5910
 1497SOL    HW215951   4.064   4.721   1.300 -0.5044  1.4283  0.1807
 1498SOL     OW15952   3.513   0.129   1.662  0.2555  0.4812 -0.4822
 1498SOL    HW115953   3.443   0.153   1.601 -0.8864 -1.9860 -0.1435
 1498SOL    HW215954   3.596   0.150   1.618 -0.2717 -0.8782 -2.1412
 1499SOL     OW15955   3.247   3.703   2.880 -0.0639 -0.0827 -0.3840
 1499SOL    HW115956   3.195   3.756   2.941 -1.3144 -2.3735  0.5489
 1499SOL    HW215957   3.308   3.772   2.853 -1.2450  1.5677  1.1471
 1500SOL     OW15958   4.088   2.675  10.569 -0.6908  0.7872 -0.4495
 1500SOL    HW115959   4.050   2.759  10.594  1.6196  1.5681  0.4472
 1500SOL    HW215960   4.024   2.610  10.597  0.9415 -1.4814 -1.9992
 1501SOL     OW15961   1.766   4.536  11.818  0.1506 -0.0059  0.1829
 1501SOL    HW115962   1.773   4.573  11.730  0.3225  0.5487  0.4355
 1501SOL    HW215963   1.732   4.451  11.789  0.8273 -0.0741 -0.4201
 1502SOL     OW15964   2.944   4.131   5.206  0.1211 -0.4354 -0.3952
 1502SOL    HW115965   2.873   4.132   5.270 -0.6182  0.4019 -1.2283
 1502SOL    HW215966   2.895   4.084   5.139 -0.5595  0.0210 -0.2221
 1503SOL     OW15967   2.549   1.378   4.115 -0.1280  1.0405  0.4744
 1503SOL    HW115968   2.565   1.319   4.188  0.5182  1.2486  0.5007
 1503SOL    HW215969   2.595   1.452   4.154 -1.0045  0.7027  2.1298
 1504SOL     OW15970   2.776   2.454   5.907 -0.4031  0.1357 -0.3065
 1504SOL    HW115971   2.687   2.444   5.940 -0.1141  1.0644  0.7608
 1504SOL    HW215972   2.782   2.548   5.891 -0.7280 -0.2051 -2.4131
 1505SOL     OW15973   2.111   0.074  10.157 -0.3581  0.3086 -0.3230
 1505SOL    HW115974   2.189   0.024  10.181 -0.8961 -0.3482  0.0634
 1505SOL    HW215975   2.117   0.164  10.191  1.5767  0.3198 -0.6745
 1506SOL     OW15976   3.731   2.302   4.927  0.4073 -0.4522 -0.4467
 1506SOL    HW115977   3.689   2.346   5.000  1.3065 -0.2650 -0.0500
 1506SOL    HW215978   3.659   2.293   4.864 -1.7758 -0.5998  2.0851
 1507SOL     OW15979   3.673   1.873   3.284  0.3161 -0.1682 -0.0528
 1507SOL    HW115980   3.613   1.875   3.359 -0.4628  0.2932 -0.6827
 1507SOL    HW215981   3.612   1.896   3.214  0.2243 -1.0667 -0.2625
 1508SOL     OW15982   2.458   3.678   5.559 -0.3319 -0.2825 -0.3113
 1508SOL    HW115983   2.464   3.596   5.510 -1.9676 -0.6968  0.1769
 1508SOL    HW215984   2.395   3.665   5.630 -0.5110 -0.9496 -0.5891
 1509SOL     OW15985   1.594   1.376  14.284  0.0283 -0.3411 -0.0818
 1509SOL    HW115986   1.576   1.397  14.192  5.0351 -0.7433 -1.1697
 1509SOL    HW215987   1.687   1.394  14.294  0.0991  0.4040 -2.0939
 1510SOL     OW15988   2.876   3.072   2.856 -0.3935  0.0218  0.2962
 1510SOL    HW115989   2.820   3.126   2.800 -0.3568  0.8736  1.0744
 1510SOL    HW215990   2.918   3.016   2.791 -0.1138 -0.6970  1.0949
 1511SOL     OW15991   4.640   1.306  15.991 -0.0773  0.1942 -0.3224
 1511SOL    HW115992   4.668   1.249  16.063 -2.1084  1.1222  1.2141
 1511SOL    HW215993   4.664   1.253  15.915  0.5937  0.7053 -0.4657
 1512SOL     OW15994   0.924   2.264   2.023 -0.2812 -0.0208 -0.5510
 1512SOL    HW115995   0.973   2.297   2.098  2.4388 -0.5464 -2.0882
 1512SOL    HW215996   0.981   2.302   1.955  0.1352  0.9709  0.3515
 1513SOL     OW15997   2.106   1.314   9.562  0.1456 -0.0001 -0.1425
 1513SOL    HW115998   2.060   1.307   9.478 -0.1598  2.3797 -0.1708
 1513SOL    HW215999   2.153   1.230   9.569 -3.0262 -1.6627  1.0812
 1514SOL     OW16000   2.820   3.663   2.258  0.2462  0.1813  0.1864
 1514SOL    HW116001   2.749   3.625   2.206  0.4605 -0.5713  0.4395
 1514SOL    HW216002   2.844   3.592   2.317  2.9722  1.0960  0.2060
 1515SOL     OW16003   1.462   2.823   5.808  0.2756  0.0282 -0.0293
 1515SOL    HW116004   1.409   2.746   5.825 -0.5084  0.3903 -0.8394
 1515SOL    HW216005   1.462   2.868   5.892 -0.7844  0.2611 -0.1538
 1516SOL     OW16006   2.057   1.975   3.636  0.4141 -0.0337  0.5922
 1516SOL    HW116007   2.139   1.935   3.666 -0.0736 -0.4731  1.3111
 1516SOL    HW216008   2.073   1.977   3.542  0.4252  1.0040  0.6096
 1517SOL     OW16009   3.252   0.707  16.456  0.2611 -0.3913 -0.5453
 1517SOL    HW116010   3.253   0.638  16.390  0.9479 -0.8794 -0.0235
 1517SOL    HW216011   3.231   0.781  16.400  1.7215 -0.3013 -0.9740
 1518SOL     OW16012   2.264   2.264   9.039 -0.0643 -0.0041  0.2777
 1518SOL    HW116013   2.254   2.281   8.945  1.9999 -0.1815  0.0240
 1518SOL    HW216014   2.182   2.227   9.072 -0.4833  0.0727 -0.6568
 1519SOL     OW16015   4.719   4.019  12.041  1.0074 -0.2180 -0.1855
 1519SOL    HW116016   0.067   4.070  12.000 -0.3325  3.7725  2.4678
 1519SOL    HW216017   4.685   4.081  12.106  0.9784 -1.0651  0.6009
 1520SOL     OW16018   1.586   0.464   5.788  0.5750  0.4490 -0.3668
 1520SOL    HW116019   1.666   0.482   5.739  1.5974  0.6759  1.4013
 1520SOL    HW216020   1.538   0.545   5.770  0.2882  0.6371  1.2581
 1521SOL     OW16021   3.993   4.648   9.511  0.6428  0.2477  0.1933
 1521SOL    HW116022   3.943   4.678   9.435  0.5837 -0.8723 -0.2038
 1521SOL    HW216023   3.983   4.719   9.574  0.6748  1.2023 -0.8673
 1522SOL     OW16024   3.862   0.106  14.128 -0.7069 -0.2893 -0.4621
 1522SOL    HW116025   3.825   0.029  14.169  0.2046 -0.4103  0.1401
 1522SOL    HW216026   3.953   0.079  14.139  0.0654  3.2790  2.0275
 1523SOL     OW16027   4.168   3.549  11.345 -0.3058 -0.0465  0.0562
 1523SOL    HW116028   4.119   3.631  11.349  0.0808  0.2041 -0.2532
 1523SOL    HW216029   4.222   3.559  11.266 -0.8258 -2.9901 -0.6574
 1524SOL     OW16030   2.506   2.395   5.956 -0.0301 -0.2290 -0.0808
 1524SOL    HW116031   2.414   2.409   5.979 -0.4272 -2.1817 -0.4742
 1524SOL    HW216032   2.488   2.358   5.870 -0.4936 -1.6394  0.6223
 1525SOL     OW16033   3.385   2.706  15.369 -0.1650 -0.2745 -0.6292
 1525SOL    HW116034   3.353   2.662  15.448  0.1283  2.2475  0.9219
 1525SOL    HW216035   3.441   2.639  15.331  0.7593 -0.3325  0.8171
 1526SOL     OW16036   1.534   0.529   7.679  0.5112  0.4333 -0.4187
 1526SOL    HW116037   1.449   0.518   7.720  0.6490  0.9405  0.0035
 1526SOL    HW216038   1.583   0.583   7.741  0.2300  0.2814 -0.0688
 1527SOL     OW16039   1.654   1.511   0.532 -0.1932 -0.1627  0.2476
 1527SOL    HW116040   1.692   1.595   0.508 -0.9743  0.7162  2.1032
 1527SOL    HW216041   1.633   1.472   0.447  0.1605 -1.2491  0.6656
 1528SOL     OW16042   0.243   3.228   1.290 -0.6392  0.2063  0.3726
 1528SOL    HW116043   0.176   3.170   1.327  0.6505 -1.2821  0.4046
 1528SOL    HW216044   0.278   3.277   1.364  0.6822 -1.4840  0.8884
 1529SOL     OW16045   0.881   4.306  11.627 -0.1046 -0.2112 -0.0856
 1529SOL    HW116046   0.828   4.269  11.557 -0.6262  0.4474 -0.0419
 1529SOL    HW216047   0.907   4.390  11.588  2.2551 -1.5810 -1.3970
 1530SOL     OW16048   3.491   0.345  10.390 -0.1490  0.5498  0.6687
 1530SOL    HW116049   3.467   0.260  10.352  0.9784  1.4790 -2.1433
 1530SOL    HW216050   3.413   0.391  10.358  0.2386  1.0489  0.4294
 1531SOL     OW16051   1.919   0.453   2.090  0.0747 -0.1901  0.1913
 1531SOL    HW116052   1.853   0.386   2.108 -0.7413  1.1483  2.1538
 1531SOL    HW216053   1.973   0.448   2.169  0.5921  2.2728  0.0005
 1532SOL     OW16054   3.707   4.028   0.903 -0.0163  0.2207 -0.8510
 1532SOL    HW116055   3.801   4.045   0.892  0.5123 -1.6674  0.6440
 1532SOL    HW216056   3.671   4.107   0.863  0.5138 -0.5611 -2.8746
 1533SOL     OW16057   2.473   0.983   9.867 -0.4641  0.1295 -0.2261
 1533SOL    HW116058   2.416   1.058   9.848 -1.1305 -0.5263 -0.8479
 1533SOL    HW216059   2.408   0.925   9.907  0.0418 -1.1700 -1.3026
 1534SOL     OW16060   1.703   2.931   0.839  0.2528 -0.2352  0.5192
 1534SOL    HW116061   1.632   2.880   0.800  0.7528 -0.4356 -0.1205
 1534SOL    HW216062   1.654   3.005   0.875  3.7193  1.8516  1.0163
 1535SOL     OW16063   1.872   2.937   8.842 -0.0919 -0.5035 -0.5000
 1535SOL    HW116064   1.914   3.017   8.875 -1.0482 -0.1935 -0.0322
 1535SOL    HW216065   1.938   2.877   8.875 -2.6517 -2.1077  1.7144
 1536SOL     OW16066   3.965   3.950  13.192 -0.0861  0.0394  0.7304
 1536SOL    HW116067   3.992   3.960  13.283 -0.0924  0.8170  0.6436
 1536SOL    HW216068   4.037   3.986  13.140  0.1306  0.4340  1.3030
 1537SOL     OW16069   4.122   4.710  14.193 -0.2155  0.5210 -0.3910
 1537SOL    HW116070   4.143   4.685  14.103  0.1375 -0.2803 -0.0916
 1537SOL    HW216071   4.205   0.021  14.227 -0.1666 -0.8030  0.8258
 1538SOL     OW16072   3.816   0.710  14.940 -0.0066  0.2084  0.6189
 1538SOL    HW116073   3.814   0.779  14.874 -2.3007  1.8753  2.4290
 1538SOL    HW216074   3.908   0.697  14.963  0.4003  0.1894 -1.0441
 1539SOL     OW16075   4.457   1.547  17.042  0.0638  0.3790  0.3157
 1539SOL    HW116076   4.476   1.540  17.135  3.0052 -0.0647 -0.3332
 1539SOL    HW216077   4.535   1.590  17.009 -0.0344  1.0000  0.9025
 1540SOL     OW16078   2.642   2.747  14.622  0.3137  0.3006 -0.3958
 1540SOL    HW116079   2.609   2.740  14.533 -0.0634 -0.2600 -0.2180
 1540SOL    HW216080   2.695   2.826  14.616  0.9534 -0.0704  0.3346
 1541SOL     OW16081   0.050   0.251   1.325 -0.2996 -0.3324  0.2289
 1541SOL    HW116082   0.015   0.216   1.243  1.7718 -1.9133  0.0154
 1541SOL    HW216083   0.022   0.342   1.323  0.9749  0.0933  2.1042
 1542SOL     OW16084   2.262   2.613   3.615 -0.2290  0.1181  0.5272
 1542SOL    HW116085   2.354   2.589   3.608 -0.4641 -1.2274  2.4022
 1542SOL    HW216086   2.223   2.531   3.587 -1.3404  0.2918  1.6147
 1543SOL     OW16087   1.260   3.223   4.288  0.0936  0.4372 -0.1385
 1543SOL    HW116088   1.354   3.228   4.272 -0.1325 -0.4369 -1.6979
 1543SOL    HW216089   1.239   3.312   4.315  0.3470  1.0477 -1.9774
 1544SOL     OW16090   3.311   3.163   7.797 -0.0029 -0.1511 -0.1760
 1544SOL    HW116091   3.308   3.085   7.853 -0.7264  0.1737  0.2375
 1544SOL    HW216092   3.404   3.180   7.780  0.0525  0.7492  0.9926
 1545SOL     OW16093   1.558   3.263   5.924 -0.1951  0.4694  0.3180
 1545SOL    HW116094   1.501   3.227   5.855  1.9213 -2.0155 -0.1350
 1545SOL    HW216095   1.515   3.244   6.007 -0.4343 -1.0526 -0.1635
 1546SOL     OW16096   3.565   0.299   3.414  0.2733 -0.4737  0.6527
 1546SOL    HW116097   3.527   0.267   3.331  0.0321 -1.8683  1.2960
 1546SOL    HW216098   3.657   0.273   3.415  0.3873 -0.1104  0.0296
 1547SOL     OW16099   3.875   1.680  13.660  0.3341 -0.0682  0.1177
 1547SOL    HW116100   3.888   1.589  13.632 -1.7036 -0.0609 -0.8608
 1547SOL    HW216101   3.780   1.691  13.657  0.3660  0.2251  0.1140
 1548SOL     OW16102   0.652   1.317   1.854 -0.7055  0.4391 -0.2492
 1548SOL    HW116103   0.617   1.405   1.863 -1.1412  0.1231  1.2180
 1548SOL    HW216104   0.744   1.338   1.838 -0.1520 -2.0978 -0.3790
 1549SOL     OW16105   4.461   0.622   5.734 -0.4169 -0.5539 -0.2667
 1549SOL    HW116106   4.453   0.527   5.728  0.4204 -0.6149 -0.4124
 1549SOL    HW216107   4.408   0.638   5.656 -0.7533 -0.4093 -0.0111
 1550SOL     OW16108   4.580   1.976   4.328  0.4027  0.0825 -0.3921
 1550SOL    HW116109   4.641   1.956   4.399 -0.3498  0.8120  0.4577
 1550SOL    HW216110   4.620   2.052   4.286 -0.2038 -0.0927 -1.3065
 1551SOL     OW16111   2.749   3.308   7.111  0.1986  0.3414  0.8590
 1551SOL    HW116112   2.735   3.301   7.016 -0.2429  2.6505  0.7627
 1551SOL    HW216113   2.724   3.400   7.119  1.9982  0.7234  2.1011
 1552SOL     OW16114   0.882   4.297   5.162  0.0782 -0.4968  0.4261
 1552SOL    HW116115   0.817   4.227   5.151 -1.5796  1.0226  0.5590
 1552SOL    HW216116   0.887   4.316   5.255  0.5301 -0.3490  0.3692
 1553SOL     OW16117   2.641   0.936   6.993  0.1320 -0.0709 -0.3868
 1553SOL    HW116118   2.724   0.933   7.040  1.1362  0.2039 -2.1245
 1553SOL    HW216119   2.624   1.029   7.007 -3.8152 -0.9267  0.4119
 1554SOL     OW16120   1.742   2.977  13.063  0.1038 -0.0021  0.1779
 1554SOL    HW116121   1.722   2.918  12.991 -2.6551  0.5471  0.4915
 1554SOL    HW216122   1.731   3.062  13.020 -0.8733 -0.9841 -1.4789
 1555SOL     OW16123   3.787   1.032  11.139  0.0980  0.4590 -0.0778
 1555SOL    HW116124   3.764   1.041  11.231 -0.2198 -1.0780 -0.0126
 1555SOL    HW216125   3.836   0.950  11.133 -3.0889 -1.3740 -0.9122
 1556SOL     OW16126   1.954   0.690   7.934  0.3043 -0.3512 -0.2028
 1556SOL    HW116127   1.884   0.639   7.974 -0.1211 -0.7948 -1.5190
 1556SOL    HW216128   1.966   0.762   7.996 -3.5650  1.4875 -1.6290
 1557SOL     OW16129   4.499   0.737   0.907  0.1804  0.4334  0.4995
 1557SOL    HW116130   4.430   0.803   0.914  0.4161  0.8729 -1.5321
 1557SOL    HW216131   4.494   0.741   0.812  1.0717  0.3323  0.4551
 1558SOL     OW16132   1.246   4.409   5.544 -0.1067 -0.0663  0.1374
 1558SOL    HW116133   1.336   4.408   5.576 -0.2079  2.6953  0.4880
 1558SOL    HW216134   1.213   4.490   5.583  0.9499  0.5252 -0.1977
 1559SOL     OW16135   4.087   0.650   9.652  0.5773 -0.2555  0.3490
 1559SOL    HW116136   3.994   0.663   9.633  0.4705  0.5837  1.4201
 1559SOL    HW216137   4.078   0.555   9.662 -2.2899  0.4040  3.9336
 1560SOL     OW16138   0.372   1.059   7.126 -0.3681  0.3195  0.0330
 1560SOL    HW116139   0.317   1.080   7.050  0.1460 -1.1365 -0.7443
 1560SOL    HW216140   0.421   0.985   7.090  0.6607  0.8896  0.2796
 1561SOL     OW16141   2.696   3.118   1.706 -0.4442 -0.3990  0.0883
 1561SOL    HW116142   2.679   3.187   1.642  0.2551  0.7019  1.1049
 1561SOL    HW216143   2.605   3.102   1.732  0.4006 -0.2723  3.0800
 1562SOL     OW16144   2.296   2.010   8.306  0.0947  0.6035 -0.2771
 1562SOL    HW116145   2.230   1.955   8.263  0.4635 -1.9367  2.4356
 1562SOL    HW216146   2.290   2.090   8.253 -1.7575  2.4547  2.7146
 1563SOL     OW16147   1.617   1.067   3.971  0.1784 -0.6691  0.0493
 1563SOL    HW116148   1.587   1.149   3.932  0.1426  0.1334  1.7736
 1563SOL    HW216149   1.589   1.074   4.063 -0.5324  1.8661 -0.3644
 1564SOL     OW16150   1.869   3.273   1.142 -0.0337 -0.6212 -0.0973
 1564SOL    HW116151   1.775   3.268   1.160 -0.0637 -0.8177 -0.3106
 1564SOL    HW216152   1.892   3.183   1.164 -1.2500 -0.0793  3.4019
 1565SOL     OW16153   3.291   0.865   1.342 -0.1930 -0.3473  0.4137
 1565SOL    HW116154   3.324   0.784   1.303  0.1579 -0.4206  0.8757
 1565SOL    HW216155   3.334   0.931   1.287 -0.7453  0.3487  0.8189
 1566SOL     OW16156   3.074   0.929   3.168  0.4721  0.4019 -0.0179
 1566SOL    HW116157   3.039   0.982   3.240 -0.7020  1.6248 -1.4959
 1566SOL    HW216158   2.994   0.945   3.118 -0.3257  0.6704  1.3487
 1567SOL     OW16159   1.144   0.931   1.884  0.2526 -0.0343 -1.0033
 1567SOL    HW116160   1.218   0.925   1.945 -0.3799  0.9578 -0.1251
 1567SOL    HW216161   1.172   0.869   1.818  2.3960 -1.1104  0.9233
 1568SOL     OW16162   3.584   0.118   5.297  0.2627 -0.7582 -0.4621
 1568SOL    HW116163   3.642   0.073   5.234  0.7113  0.5789 -0.9982
 1568SOL    HW216164   3.636   0.111   5.377 -1.8981  1.5745  1.1403
 1569SOL     OW16165   3.122   0.418   3.367 -0.2639  0.0787 -0.0893
 1569SOL    HW116166   3.072   0.352   3.319 -0.6895 -0.0972  0.5949
 1569SOL    HW216167   3.118   0.496   3.312  0.3845  0.5397  0.5140
 1570SOL     OW16168   4.599   4.079   6.655 -0.2214 -0.6793 -0.1765
 1570SOL    HW116169   4.588   4.070   6.560  2.1646 -0.4039 -0.4710
 1570SOL    HW216170   4.514   4.119   6.675  0.0843 -0.3390  0.4596
 1571SOL     OW16171   1.060   1.327  10.541 -0.0157  0.0610 -0.3132
 1571SOL    HW116172   0.987   1.294  10.593  0.2294  1.0719  0.6869
 1571SOL    HW216173   1.031   1.321  10.451  1.3301 -1.5758 -0.6355
 1572SOL     OW16174   3.654   3.668   6.609 -0.3446 -0.4989  0.0888
 1572SOL    HW116175   3.667   3.758   6.636 -2.1994 -0.0611 -0.4877
 1572SOL    HW216176   3.711   3.621   6.670 -0.1110 -0.9711 -0.4941
 1573SOL     OW16177   3.304   4.254   4.692  1.0836 -0.3989 -0.3709
 1573SOL    HW116178   3.337   4.166   4.712  0.3847 -0.8576 -1.2576
 1573SOL    HW216179   3.373   4.298   4.642  0.8113  1.4733  0.8925
 1574SOL     OW16180   2.874   4.439   4.282  0.5717  0.3803  0.3082
 1574SOL    HW116181   2.799   4.442   4.222  0.4035  1.4572  0.5726
 1574SOL    HW216182   2.836   4.472   4.364 -0.2545  0.1102  0.0352
 1575SOL     OW16183   1.175   0.785   8.160  0.2480 -0.0084 -0.1195
 1575SOL    HW116184   1.158   0.813   8.250  0.2774 -0.7251  0.1071
 1575SOL    HW216185   1.117   0.839   8.106 -0.4023 -0.6574 -0.0617
 1576SOL     OW16186   0.281   2.048   7.430  0.3566  0.3344  0.2579
 1576SOL    HW116187   0.313   2.134   7.458  2.4257 -0.4988  0.4949
 1576SOL    HW216188   0.243   2.077   7.348 -1.4018 -1.9531  0.2587
 1577SOL     OW16189   1.468   3.387   7.767  0.0336  0.0242  0.1289
 1577SOL    HW116190   1.487   3.318   7.703  0.6341 -1.5541  2.0044
 1577SOL    HW216191   1.553   3.424   7.790 -0.7001  2.0854 -0.4704
 1578SOL     OW16192   2.587   4.570   2.696 -0.2111 -0.1603  0.3035
 1578SOL    HW116193   2.505   4.603   2.657 -0.6714 -1.1804  0.4137
 1578SOL    HW216194   2.560   4.483   2.725  0.2232  0.2307  1.8965
 1579SOL     OW16195   2.345   1.309   7.842 -0.6454  0.5625  0.0803
 1579SOL    HW116196   2.296   1.362   7.906 -1.1742  0.5697 -0.3347
 1579SOL    HW216197   2.326   1.218   7.864 -1.4127  1.3200  2.5813
 1580SOL     OW16198   4.696   1.374   0.863 -0.2882 -0.5292 -0.0086
 1580SOL    HW116199   0.043   1.314   0.887  1.3535  0.9978 -0.9620
 1580SOL    HW216200   4.670   1.358   0.772  0.9148  0.5079 -0.5280
 1581SOL     OW16201   1.533   4.150  12.394 -0.3243 -0.1237  0.3881
 1581SOL    HW116202   1.582   4.226  12.362 -1.0318  0.2709  0.2357
 1581SOL    HW216203   1.447   4.191  12.396 -0.7996 -1.0951 -0.0492
 1582SOL     OW16204   1.501   2.726   7.396 -0.0191 -0.1878  0.0312
 1582SOL    HW116205   1.463   2.638   7.388 -1.6872  0.4697  0.6605
 1582SOL    HW216206   1.423   2.762   7.440  0.8248  0.2342  1.1738
 1583SOL     OW16207   0.475   0.779   6.463  0.4214  0.1595  0.0842
 1583SOL    HW116208   0.408   0.795   6.530  0.5425 -1.9094  0.7111
 1583SOL    HW216209   0.549   0.832   6.493  2.4855 -3.0483  0.6903
 1584SOL     OW16210   1.142   4.202   3.355 -0.2811 -0.7027 -0.0022
 1584SOL    HW116211   1.120   4.167   3.269 -0.0479 -1.8679  0.4202
 1584SOL    HW216212   1.134   4.294   3.330  0.6396 -0.7212 -0.3805
 1585SOL     OW16213   1.400   1.109   6.504  0.8184  0.0873  0.3623
 1585SOL    HW116214   1.424   1.198   6.477  2.6742 -0.3726  0.4965
 1585SOL    HW216215   1.447   1.092   6.586  0.9301 -1.3006  0.0093
 1586SOL     OW16216   4.560   0.402   1.041  0.0698 -0.1185  0.2075
 1586SOL    HW116217   4.492   0.382   1.106 -2.3315  0.3668 -2.1724
 1586SOL    HW216218   4.579   0.490   1.071 -1.1508 -0.9482  3.4031
 1587SOL     OW16219   2.015   3.411  13.076  0.3381  0.2147 -0.1965
 1587SOL    HW116220   2.089   3.465  13.049  0.9811 -0.6816 -0.2197
 1587SOL    HW216221   1.990   3.371  12.993 -1.4944  1.3350 -0.1948
 1588SOL     OW16222   4.225   2.167  15.389  0.0310  0.1463  0.2923
 1588SOL    HW116223   4.236   2.143  15.481 -2.6124 -0.4157  0.4777
 1588SOL    HW216224   4.130   2.153  15.385 -0.1644  1.5128  0.0285
 1589SOL     OW16225   1.448   4.270   8.568 -0.7385  0.1237 -0.3925
 1589SOL    HW116226   1.478   4.280   8.477  0.7274 -1.9935 -0.1285
 1589SOL    HW216227   1.417   4.359   8.584 -1.1021  0.2817 -1.9087
 1590SOL     OW16228   1.401   0.933   7.752  0.3846  0.1062  0.3033
 1590SOL    HW116229   1.442   0.889   7.677 -1.1845  0.0502 -0.5191
 1590SOL    HW216230   1.478   0.983   7.782 -0.1765 -0.1859  2.2194
 1591SOL     OW16231   3.221   0.747   6.107  0.0056  0.5033  0.1514
 1591SOL    HW116232   3.129   0.730   6.130 -0.5268  2.5694 -0.4585
 1591SOL    HW216233   3.205   0.747   6.013 -0.2657  0.7154  0.1988
 1592SOL     OW16234   3.168   1.213   6.316  0.7164 -0.3746 -0.2368
 1592SOL    HW116235   3.212   1.129   6.305 -0.4106 -1.0455  0.3507
 1592SOL    HW216236   3.198   1.271   6.246  1.8929 -0.1983  0.4101
 1593SOL     OW16237   2.534   3.416   6.495 -0.4812 -0.4284  0.3894
 1593SOL    HW116238   2.599   3.351   6.524 -2.7179 -2.8559 -0.0236
 1593SOL    HW216239   2.582   3.498   6.495 -1.0144 -0.1142  0.1349
 1594SOL     OW16240   1.363   3.224   7.143 -0.6701  0.2397  0.2135
 1594SOL    HW116241   1.386   3.316   7.126 -0.3401  0.2398  0.6725
 1594SOL    HW216242   1.272   3.227   7.114 -0.5946  1.9798  0.1023
 1595SOL     OW16243   4.548   0.685   2.380 -0.3500  0.2384  0.1762
 1595SOL    HW116244   4.621   0.626   2.360  0.4272  1.4236 -0.5011
 1595SOL    HW216245   4.522   0.703   2.290  0.3616  1.5113  0.2394
 1596SOL     OW16246   4.371   1.760  12.139  0.3686 -0.3787 -0.2784
 1596SOL    HW116247   4.330   1.682  12.102  1.2767  0.0684 -2.2662
 1596SOL    HW216248   4.408   1.798  12.059 -1.4273  1.7973 -0.0640
 1597SOL     OW16249   3.499   3.830   7.780  0.0494 -0.1620 -0.0239
 1597SOL    HW116250   3.580   3.783   7.766  0.4672  0.1152  1.5207
 1597SOL    HW216251   3.518   3.917   7.743 -1.5451  0.0882 -0.2598
 1598SOL     OW16252   0.688   2.011   5.296  0.7548  0.0401  0.3144
 1598SOL    HW116253   0.671   2.092   5.343  0.6991  0.4804 -0.4774
 1598SOL    HW216254   0.760   1.978   5.350  0.3767 -1.4544 -0.0746
 1599SOL     OW16255   2.282   2.446  17.606  0.8461 -0.0319  0.7937
 1599SOL    HW116256   2.243   2.527  17.571 -2.3539 -2.2717 -0.8413
 1599SOL    HW216257   2.261   2.465   0.005 -0.5709  2.0871  0.0371
 1600SOL     OW16258   3.127   4.339   2.141  0.1770  0.0026  0.4710
 1600SOL    HW116259   3.035   4.339   2.114  0.7356  4.1289 -1.3680
 1600SOL    HW216260   3.138   4.252   2.179  0.4522  0.6044  1.7812
 1601SOL     OW16261   1.170   2.617  15.666  0.2953 -0.6162 -0.4940
 1601SOL    HW116262   1.179   2.676  15.742  0.4412  0.3795 -1.2876
 1601SOL    HW216263   1.085   2.581  15.691  0.3675 -0.9548 -0.7418
 1602SOL     OW16264   0.407   2.712   5.396 -0.8479  0.2588 -0.4539
 1602SOL    HW116265   0.318   2.679   5.408 -0.0508 -2.1250 -1.1788
 1602SOL    HW216266   0.453   2.673   5.470  0.3115  2.2331 -0.1165
 1603SOL     OW16267   0.561   3.845   2.531  0.3806 -0.7149  0.2465
 1603SOL    HW116268   0.549   3.932   2.494  1.2214 -1.2025 -1.1440
 1603SOL    HW216269   0.653   3.826   2.510  1.3949 -0.7424  4.6860
 1604SOL     OW16270   1.659   3.133  10.217 -0.4430  0.1948  0.1922
 1604SOL    HW116271   1.674   3.039  10.210  0.6028  0.2500  1.7591
 1604SOL    HW216272   1.679   3.150  10.309  0.8444 -2.0076  0.3039
 1605SOL     OW16273   1.858   3.899   8.532 -0.3258 -0.0106 -0.5158
 1605SOL    HW116274   1.784   3.886   8.591 -1.1951  0.9873 -1.3742
 1605SOL    HW216275   1.871   3.805   8.519 -1.4619 -0.4524  1.5956
 1606SOL     OW16276   1.554   0.922  16.441 -0.0650 -0.9968 -0.4854
 1606SOL    HW116277   1.571   0.934  16.348  0.6080 -2.0519 -0.5058
 1606SOL    HW216278   1.614   0.848  16.454 -1.3922 -1.5346  2.4971
 1607SOL     OW16279   0.936   1.043  16.438  0.1218 -0.3421 -0.3457
 1607SOL    HW116280   1.029   1.023  16.445 -0.2608 -2.4800 -1.1925
 1607SOL    HW216281   0.934   1.132  16.473  1.0160 -0.6308  0.4384
 1608SOL     OW16282   1.394   0.678   4.056 -0.1610 -0.0306  0.0844
 1608SOL    HW116283   1.453   0.698   4.129  1.1316  1.2381 -1.3059
 1608SOL    HW216284   1.450   0.713   3.986 -1.3174 -1.4164 -1.5556
 1609SOL     OW16285   3.492   0.072  16.502  0.3340  0.7713 -0.0533
 1609SOL    HW116286   3.400   0.053  16.486  0.5235 -0.3361  0.2108
 1609SOL    HW216287   3.495   0.158  16.460  1.4954  0.8720  0.2214
 1610SOL     OW16288   3.731   0.442   6.614 -0.3324  0.2831  0.5815
 1610SOL    HW116289   3.710   0.380   6.684  1.5007 -1.1890 -0.2003
 1610SOL    HW216290   3.826   0.439   6.616 -0.2725  1.5986 -0.2953
 1611SOL     OW16291   2.623   3.618  13.246  0.1427 -0.3307 -0.0090
 1611SOL    HW116292   2.618   3.678  13.171  1.7289  0.2763  0.3819
 1611SOL    HW216293   2.531   3.612  13.272  0.0447 -0.4946 -0.3880
 1612SOL     OW16294   2.641   1.711   8.869 -0.0857 -0.1721  0.5389
 1612SOL    HW116295   2.549   1.692   8.848 -0.2461  0.0215  1.0762
 1612SOL    HW216296   2.636   1.807   8.868  1.2738 -0.0824  3.0030
 1613SOL     OW16297   3.221   1.432  12.353  0.1380 -0.4319 -0.1052
 1613SOL    HW116298   3.128   1.425  12.375  0.5545 -0.1344  1.7628
 1613SOL    HW216299   3.224   1.449  12.259 -0.1061  1.8295  0.3006
 1614SOL     OW16300   0.593   0.156   3.817  0.1949  0.1551  0.0110
 1614SOL    HW116301   0.614   0.229   3.760 -0.3842 -1.8353 -2.7276
 1614SOL    HW216302   0.536   0.200   3.881  2.4207  0.3624  1.8490
 1615SOL     OW16303   4.545   2.586   8.484  0.0144 -0.6940  0.0954
 1615SOL    HW116304   4.535   2.564   8.577  1.4166  2.2423  0.9752
 1615SOL    HW216305   4.480   2.657   8.481  0.4119 -0.4129 -1.4500
 1616SOL     OW16306   4.644   2.468   5.470  0.5145  0.6058  0.7058
 1616SOL    HW116307   4.572   2.422   5.428 -0.4780  1.7260  1.2087
 1616SOL    HW216308   4.610   2.467   5.559 -1.6112 -0.0296 -0.1347
 1617SOL     OW16309   4.127   0.319   2.154 -0.1093 -0.1261 -0.3021
 1617SOL    HW116310   4.039   0.354   2.146 -0.5747 -0.6997  2.4254
 1617SOL    HW216311   4.156   0.318   2.063 -0.2219 -1.5962 -0.3261
 1618SOL     OW16312   1.325   3.776   9.162  0.6656 -0.0941  0.2071
 1618SOL    HW116313   1.281   3.801   9.243 -0.9514 -1.1050 -0.3419
 1618SOL    HW216314   1.379   3.703   9.191  0.3606 -0.8355 -1.0735
 1619SOL     OW16315   3.568   2.384   6.350 -0.2307  0.1985 -0.5740
 1619SOL    HW116316   3.633   2.316   6.366 -0.5805 -0.2729 -1.1582
 1619SOL    HW216317   3.581   2.425   6.264  0.6182 -2.2697 -1.6168
 1620SOL     OW16318   2.934   2.559  12.272 -0.1744  0.3722  0.0151
 1620SOL    HW116319   3.013   2.543  12.323 -0.7458  1.7020  1.3221
 1620SOL    HW216320   2.967   2.534  12.186  0.8035  2.0156 -0.0948
 1621SOL     OW16321   0.721   3.417   2.093 -0.0326  0.0290 -0.1752
 1621SOL    HW116322   0.775   3.338   2.094 -0.8656 -0.5555 -0.6633
 1621SOL    HW216323   0.699   3.425   2.000 -0.7424  0.2526  0.0124
 1622SOL     OW16324   3.306   0.277   5.004 -0.3463 -0.1792 -0.1189
 1622SOL    HW116325   3.325   0.368   5.028 -1.5613  0.2564 -0.7591
 1622SOL    HW216326   3.320   0.272   4.909  1.2783  0.1577  0.1058
 1623SOL     OW16327   3.131   1.633   9.834 -0.5433  0.3151  0.2110
 1623SOL    HW116328   3.179   1.715   9.823 -0.9658  0.7718  1.7782
 1623SOL    HW216329   3.113   1.614   9.742 -0.2676 -0.6112  0.3528
 1624SOL     OW16330   1.880   2.079   8.872  0.0753  0.3959 -0.5680
 1624SOL    HW116331   1.893   2.148   8.807  1.9880  0.0044 -0.6021
 1624SOL    HW216332   1.786   2.073   8.860  0.1486 -1.2259 -0.3338
 1625SOL     OW16333   0.630   1.022   4.232  0.1380  0.1333 -0.1580
 1625SOL    HW116334   0.719   0.986   4.238  0.3259  0.4048 -1.2380
 1625SOL    HW216335   0.577   0.943   4.239 -0.5787  0.4196 -2.2746
 1626SOL     OW16336   0.144   1.340   4.115  0.5106 -0.2559 -0.3452
 1626SOL    HW116337   0.105   1.280   4.052  2.0034 -1.2390 -0.3466
 1626SOL    HW216338   0.217   1.381   4.068  0.2567 -1.0805 -1.4432
 1627SOL     OW16339   2.561   3.451   5.763  0.5117 -0.2248 -0.1157
 1627SOL    HW116340   2.530   3.418   5.678  1.4225  1.8293 -1.2492
 1627SOL    HW216341   2.484   3.495   5.799 -0.5000 -2.0113 -0.0812
 1628SOL     OW16342   1.333   2.953   2.124 -0.1465 -0.2876 -0.2581
 1628SOL    HW116343   1.271   3.012   2.166 -1.6310 -0.7375 -1.8225
 1628SOL    HW216344   1.284   2.924   2.047 -1.7715  1.2763  0.1941
 1629SOL     OW16345   1.009   3.262   5.897 -0.4340 -0.2517 -0.1643
 1629SOL    HW116346   0.984   3.280   5.988 -2.1541  0.0131 -0.6944
 1629SOL    HW216347   1.041   3.172   5.909 -0.3841 -0.2741 -0.4789
 1630SOL     OW16348   0.478   1.990   7.223  0.1487  0.0289 -0.0419
 1630SOL    HW116349   0.572   1.979   7.238  0.2964  0.3930 -0.7372
 1630SOL    HW216350   0.444   2.003   7.312 -0.8509  2.8889 -0.8250
 1631SOL     OW16351   0.589   3.329   8.346  0.3325  0.7838 -0.1910
 1631SOL    HW116352   0.590   3.357   8.437 -0.7397  0.1011  0.0319
 1631SOL    HW216353   0.519   3.264   8.359  1.8886 -0.8875 -0.2037
 1632SOL     OW16354   3.145   1.756   9.596  0.1737 -0.5825  0.3598
 1632SOL    HW116355   3.241   1.753   9.592  0.0750  1.2488 -3.1006
 1632SOL    HW216356   3.131   1.814   9.522  1.4366 -0.6688  0.0420
 1633SOL     OW16357   2.407   3.597   7.447 -0.3701  0.6580 -0.2623
 1633SOL    HW116358   2.371   3.614   7.360  0.0655  0.5316 -0.4726
 1633SOL    HW216359   2.328   3.602   7.500 -0.7042  0.5171 -0.7521
 1634SOL     OW16360   1.958   0.943   9.259  0.4213  0.6644  1.1124
 1634SOL    HW116361   1.989   0.866   9.305 -0.8498  0.2722  1.3062
 1634SOL    HW216362   1.898   0.975   9.326 -0.2454 -1.0065  1.3033
 1635SOL     OW16363   3.172   1.159   3.417  0.0976 -0.2669 -0.3975
 1635SOL    HW116364   3.268   1.162   3.417  0.0069  2.1606  1.3768
 1635SOL    HW216365   3.132   1.218   3.354  1.0978  2.7053  1.7598
 1636SOL     OW16366   3.358   4.690   6.037  0.8370  0.0712 -0.2103
 1636SOL    HW116367   3.402   4.625   5.983 -1.4706 -0.2159 -1.7313
 1636SOL    HW216368   3.267   4.663   6.048  0.7922 -0.0521 -0.8551
 1637SOL     OW16369   2.447   3.189   9.231 -0.0558 -0.2756  0.2898
 1637SOL    HW116370   2.537   3.182   9.265  0.1204  1.4730  0.1710
 1637SOL    HW216371   2.421   3.281   9.230  3.3466  0.6512 -2.1787
 1638SOL     OW16372   0.485   1.728   2.200  0.4019  0.0034  0.2296
 1638SOL    HW116373   0.473   1.679   2.120  2.4649 -1.0720  0.5872
 1638SOL    HW216374   0.573   1.700   2.223  0.3924 -1.1119 -1.1362
 1639SOL     OW16375   0.110   2.531  14.264  0.2321  0.1540 -0.5006
 1639SOL    HW116376   0.138   2.597  14.201  0.6814 -1.0241 -1.5367
 1639SOL    HW216377   0.042   2.485  14.216  1.5524 -1.9242 -0.4096
 1640SOL     OW16378   3.020   4.657  16.851  0.2995  0.0645  0.7902
 1640SOL    HW116379   2.946   4.686  16.905 -0.7229  1.6926 -1.5215
 1640SOL    HW216380   3.073   4.714  16.907  1.3655  0.1047 -0.2631
 1641SOL     OW16381   0.708   2.254   4.634  0.6091 -0.5642 -0.1366
 1641SOL    HW116382   0.639   2.320   4.636  1.1475 -0.0188  0.4372
 1641SOL    HW216383   0.720   2.238   4.540  0.4847 -0.0013 -0.2505
 1642SOL     OW16384   0.172   4.291   3.158  0.2706 -0.0504  0.3239
 1642SOL    HW116385   0.148   4.269   3.067  0.9690 -1.3624  0.4585
 1642SOL    HW216386   0.267   4.276   3.157  0.0906 -1.0560 -2.1783
 1643SOL     OW16387   3.442   4.555  11.664  0.8924  0.2693 -0.3670
 1643SOL    HW116388   3.391   4.477  11.641 -0.1992  0.8726 -0.0108
 1643SOL    HW216389   3.470   4.531  11.752 -1.3506 -3.0037 -0.5391
 1644SOL     OW16390   0.602   3.290   7.584  0.2871  0.1159  0.2696
 1644SOL    HW116391   0.681   3.255   7.625  0.7003 -0.1031 -0.6989
 1644SOL    HW216392   0.540   3.250   7.644  1.0404 -1.0765  0.2549
 1645SOL     OW16393   4.637   0.115   6.324 -0.0288 -0.4023 -0.3955
 1645SOL    HW116394   4.666   0.171   6.396 -0.6656 -2.9955  1.8784
 1645SOL    HW216395   4.559   0.163   6.297  0.5202  0.5992 -0.2107
 1646SOL     OW16396   0.742   2.470   6.914 -0.1578 -0.0187  0.2231
 1646SOL    HW116397   0.704   2.546   6.870  1.6202  0.8840  0.2825
 1646SOL    HW216398   0.697   2.398   6.870 -0.6687  0.9176 -0.8041
 1647SOL     OW16399   1.180   1.784   5.943  0.4652 -0.3192 -0.2485
 1647SOL    HW116400   1.146   1.731   5.872 -1.6142 -0.0979  0.5817
 1647SOL    HW216401   1.104   1.842   5.948  0.5009 -0.3949  1.0685
 1648SOL     OW16402   2.058   4.003   4.763  0.4301 -0.0038  0.2939
 1648SOL    HW116403   2.039   3.973   4.852  0.0380 -0.7022 -0.0202
 1648SOL    HW216404   1.988   3.966   4.710 -1.7678  3.5179  0.6990
 1649SOL     OW16405   1.154   1.160   6.123  0.6236 -0.1951  0.0167
 1649SOL    HW116406   1.221   1.144   6.057  0.7025 -1.9394  0.5053
 1649SOL    HW216407   1.098   1.082   6.120  2.1680 -1.3710  1.7032
 1650SOL     OW16408   2.930   4.403  11.431 -0.2237 -0.3119  0.2602
 1650SOL    HW116409   3.010   4.433  11.475 -0.5189 -0.2252  0.7419
 1650SOL    HW216410   2.959   4.400  11.340 -0.8594  1.3524  0.0024
 1651SOL     OW16411   0.675   2.721  17.444  0.3565  0.5330  0.0993
 1651SOL    HW116412   0.677   2.812  17.475  1.6014  0.5804 -0.1121
 1651SOL    HW216413   0.649   2.736  17.354 -1.9360 -0.4934  0.5994
 1652SOL     OW16414   1.733   4.439   2.639  0.0144  0.3341  0.6821
 1652SOL    HW116415   1.765   4.518   2.596  0.2889  0.0289  0.3271
 1652SOL    HW216416   1.638   4.441   2.624 -0.1283 -0.6847  1.4301
 1653SOL     OW16417   4.410   2.151  11.876 -0.2298  0.4505 -0.0767
 1653SOL    HW116418   4.386   2.068  11.836  3.1177 -0.8915  0.6549
 1653SOL    HW216419   4.479   2.119  11.934 -1.4181  1.9490  2.1348
 1654SOL     OW16420   2.379   3.116   4.921 -0.3236 -0.5500  0.4270
 1654SOL    HW116421   2.335   3.192   4.883  2.9416  0.8539 -0.5255
 1654SOL    HW216422   2.409   3.160   5.001  3.5927 -0.2458 -1.2097
 1655SOL     OW16423   1.303   2.344  10.321  0.1963 -0.0704  0.6932
 1655SOL    HW116424   1.236   2.404  10.288 -1.8032 -3.3524 -1.3275
 1655SOL    HW216425   1.323   2.390  10.402 -0.8378  0.7846  0.4732
 1656SOL     OW16426   4.374   0.870   4.893 -0.0098 -0.4059 -0.2520
 1656SOL    HW116427   4.438   0.855   4.962  1.1736  0.1032 -1.2287
 1656SOL    HW216428   4.294   0.829   4.927 -1.3493  0.9908 -1.6867
 1657SOL     OW16429   3.845   3.763  14.596  0.3098 -0.0636 -0.5764
 1657SOL    HW116430   3.779   3.746  14.530  0.5696  0.9495 -1.0959
 1657SOL    HW216431   3.932   3.747  14.559  0.6060 -0.1247  0.1339
 1658SOL     OW16432   0.609   2.694   6.122 -0.0107 -0.1188 -0.0195
 1658SOL    HW116433   0.561   2.770   6.087  1.6761  1.6125  1.4171
 1658SOL    HW216434   0.539   2.641   6.160  0.4918 -0.3035  0.6513
 1659SOL     OW16435   3.730   0.669   1.560 -0.1872  0.2897  0.3911
 1659SOL    HW116436   3.721   0.610   1.485 -1.3182  1.3292 -0.2989
 1659SOL    HW216437   3.696   0.747   1.517 -1.5406  0.3802  1.6356
 1660SOL     OW16438   2.005   1.941   0.592  0.5256 -0.2298  0.4846
 1660SOL    HW116439   1.965   2.023   0.565 -1.5133 -0.9143  1.4386
 1660SOL    HW216440   1.937   1.878   0.614 -1.1186  1.0720 -0.9523
 1661SOL     OW16441   4.556   2.011   7.708 -0.6327  0.8990  0.0122
 1661SOL    HW116442   4.564   2.051   7.794  0.9559 -0.8251  0.6849
 1661SOL    HW216443   4.467   2.026   7.676 -0.7548 -0.3794 -0.2653
 1662SOL     OW16444   2.164   4.304  11.475 -0.5455 -0.3498 -0.0018
 1662SOL    HW116445   2.094   4.295  11.540  0.7292  0.9698  1.5471
 1662SOL    HW216446   2.167   4.212  11.449 -0.4223 -0.1826 -0.5794
 1663SOL     OW16447   3.855   2.997   6.843 -0.4070 -0.2265  0.2752
 1663SOL    HW116448   3.775   3.046   6.864  0.0773  0.6638  0.0441
 1663SOL    HW216449   3.814   2.927   6.791  0.8776 -0.8773  0.1322
 1664SOL     OW16450   0.387   3.000   8.140  0.7606 -0.3038 -0.0834
 1664SOL    HW116451   0.375   2.919   8.190 -1.4948 -0.0701 -0.2517
 1664SOL    HW216452   0.396   2.968   8.050 -0.3352 -1.7225  0.3168
 1665SOL     OW16453   1.610   0.469   4.902  0.0991 -0.2504  0.3255
 1665SOL    HW116454   1.624   0.488   4.810 -2.1960 -1.1122 -0.1954
 1665SOL    HW216455   1.626   0.375   4.898  1.1049 -0.1162  1.2816
 1666SOL     OW16456   1.670   2.774  13.220 -0.2608 -0.3249 -0.0547
 1666SOL    HW116457   1.694   2.859  13.183  0.6871 -0.4557  0.2820
 1666SOL    HW216458   1.752   2.729  13.201  0.4335  1.6021 -1.6440
 1667SOL     OW16459   2.844   2.421   6.889  0.7214  0.3283 -0.5056
 1667SOL    HW116460   2.852   2.456   6.977 -0.9132  1.2859 -0.7370
 1667SOL    HW216461   2.894   2.486   6.840  0.4500  0.5288 -0.5200
 1668SOL     OW16462   3.805   2.616   9.837 -0.1652  0.2757  0.1918
 1668SOL    HW116463   3.767   2.592   9.922  2.3120 -0.2728  1.1609
 1668SOL    HW216464   3.726   2.607   9.785  0.4343  0.4913 -0.7480
 1669SOL     OW16465   1.579   0.426   3.572  0.3617  0.0717  0.0024
 1669SOL    HW116466   1.541   0.510   3.544  0.4978 -0.9457 -3.1873
 1669SOL    HW216467   1.565   0.372   3.495  0.3250 -0.9630  0.7345
 1670SOL     OW16468   0.921   1.061   5.219 -0.1922  0.0430 -0.3924
 1670SOL    HW116469   0.882   1.148   5.233  0.2945  0.2192 -0.1345
 1670SOL    HW216470   0.906   1.063   5.124  1.7729 -2.6189 -0.7597
 1671SOL     OW16471   3.779   0.988   8.018  0.5577 -0.0479 -0.2165
 1671SOL    HW116472   3.786   1.050   8.090  0.9313  1.5859 -1.6494
 1671SOL    HW216473   3.689   0.956   8.023  0.1087  1.6226  2.5115
 1672SOL     OW16474   0.009   0.034   5.126  0.5015  0.0674  0.4799
 1672SOL    HW116475   4.695   0.056   5.212  0.6349 -1.4036  0.9193
 1672SOL    HW216476   0.100   0.063   5.135  0.0450  1.0596  1.8022
 1673SOL     OW16477   0.521   2.201   5.015  0.1002  0.3276  0.2645
 1673SOL    HW116478   0.547   2.290   5.040  1.7833 -0.2431  0.4989
 1673SOL    HW216479   0.429   2.204   5.040 -1.2583 -1.1618 -4.4677
 1674SOL     OW16480   2.752   3.539   6.415 -0.3191  0.1271 -0.1296
 1674SOL    HW116481   2.726   3.460   6.367 -1.4414 -0.4746  1.4492
 1674SOL    HW216482   2.830   3.565   6.367  0.3238 -2.1856 -0.3336
 1675SOL     OW16483   1.131   4.241   9.037  0.7584  0.2859  0.0913
 1675SOL    HW116484   1.148   4.152   9.006  2.2524  1.7754 -3.3843
 1675SOL    HW216485   1.096   4.286   8.960 -0.4166 -0.0325  0.4282
 1676SOL     OW16486   3.683   2.200   0.511  0.8456 -0.6117  0.0511
 1676SOL    HW116487   3.611   2.172   0.567  1.6861 -1.4960  0.7000
 1676SOL    HW216488   3.680   2.122   0.455  0.9708 -0.5976  0.0248
 1677SOL     OW16489   1.662   1.413   2.356 -0.0763 -0.8185  0.3766
 1677SOL    HW116490   1.597   1.469   2.398  2.2763  1.5695  0.8026
 1677SOL    HW216491   1.736   1.468   2.333  0.3170 -1.7986 -0.7284
 1678SOL     OW16492   2.163   1.945   4.248 -0.5198 -0.2088  0.1569
 1678SOL    HW116493   2.139   2.033   4.277 -2.4372 -1.7309  3.1124
 1678SOL    HW216494   2.184   1.950   4.155 -0.4446 -0.8799  0.1357
 1679SOL     OW16495   4.467   4.305   4.993 -0.0128  0.4059 -0.6173
 1679SOL    HW116496   4.557   4.279   5.009 -0.8228 -0.4952  2.5091
 1679SOL    HW216497   4.470   4.393   4.956 -1.5726  0.4786 -0.5930
 1680SOL     OW16498   2.368   4.476   8.692  0.5025 -0.5865 -0.1401
 1680SOL    HW116499   2.372   4.552   8.749 -1.3432  0.1191 -0.9742
 1680SOL    HW216500   2.276   4.451   8.684  0.2193  0.5815 -0.4735
 1681SOL     OW16501   3.495   0.516   8.072 -0.5265 -0.0219 -0.0117
 1681SOL    HW116502   3.532   0.604   8.066 -0.2224 -0.1293  0.2387
 1681SOL    HW216503   3.541   0.474   8.145  3.1005  0.3290 -2.0914
 1682SOL     OW16504   2.432   2.857   8.546  0.2291  0.7488 -0.2289
 1682SOL    HW116505   2.421   2.797   8.619 -0.3586  0.4574 -0.5565
 1682SOL    HW216506   2.521   2.885   8.568  0.5255 -1.9810  1.9315
 1683SOL     OW16507   2.909   2.910   5.803  0.2818 -0.3066 -0.4797
 1683SOL    HW116508   2.988   2.861   5.777  0.3891 -0.3536 -0.0627
 1683SOL    HW216509   2.941   2.934   5.890  0.0049 -0.5918 -0.2973
 1684SOL     OW16510   0.304   1.194   0.390 -0.6437 -0.0658  0.3032
 1684SOL    HW116511   0.379   1.137   0.403  0.7144  2.1369  2.1162
 1684SOL    HW216512   0.244   1.129   0.352 -1.8469  1.3785 -0.2722
 1685SOL     OW16513   1.447   3.706   4.980 -0.5098  0.4629  0.3566
 1685SOL    HW116514   1.442   3.796   5.013 -1.3487  1.2658 -1.9399
 1685SOL    HW216515   1.511   3.721   4.910 -1.5530  0.0041 -0.6921
 1686SOL     OW16516   0.356   0.365   9.825 -0.2255 -0.2392 -0.2748
 1686SOL    HW116517   0.397   0.405   9.901  1.0757  0.7809 -1.5134
 1686SOL    HW216518   0.404   0.405   9.752 -1.2554  2.6151  0.6390
 1687SOL     OW16519   0.965   0.932   6.101 -0.4677  0.3059 -0.0030
 1687SOL    HW116520   0.962   0.836   6.097 -1.4943  0.4045 -1.7990
 1687SOL    HW216521   0.870   0.942   6.109 -0.5748 -1.1295  0.4819
 1688SOL     OW16522   3.175   1.322   6.558  0.1314 -0.0701 -0.2272
 1688SOL    HW116523   3.165   1.289   6.469 -1.8898 -1.2532  0.4306
 1688SOL    HW216524   3.154   1.238   6.601  1.7733 -0.5299 -0.3269
 1689SOL     OW16525   3.844   3.841   0.456  0.2287 -0.5793  0.1373
 1689SOL    HW116526   3.899   3.793   0.395 -1.6355 -0.2244 -1.8185
 1689SOL    HW216527   3.844   3.926   0.412 -2.1819 -0.8339 -0.3417
 1690SOL     OW16528   2.276   0.798   1.222  0.8252  0.1366  0.5836
 1690SOL    HW116529   2.244   0.712   1.194 -1.1899  1.1822 -0.3768
 1690SOL    HW216530   2.339   0.817   1.153 -1.5427  2.5771 -0.9221
 1691SOL     OW16531   1.573   4.508   7.806 -0.0465 -0.1129  0.2425
 1691SOL    HW116532   1.525   4.461   7.875 -0.7318 -0.6327 -0.5938
 1691SOL    HW216533   1.516   4.480   7.734 -1.9030  2.6148  0.6516
 1692SOL     OW16534   1.430   2.460   4.118 -0.3738  0.1210 -0.1555
 1692SOL    HW116535   1.457   2.374   4.150 -1.0457  0.9126  2.4688
 1692SOL    HW216536   1.507   2.499   4.076  0.1617 -0.0914  0.6360
 1693SOL     OW16537   0.788   2.250  13.369 -0.0051  0.3505 -0.0941
 1693SOL    HW116538   0.694   2.247  13.389  0.0013  4.2544  0.4570
 1693SOL    HW216539   0.817   2.283  13.453  0.1688 -2.3339  0.8976
 1694SOL     OW16540   4.282   4.382   0.767 -0.0129 -0.2112  0.3422
 1694SOL    HW116541   4.237   4.331   0.834  0.6303 -0.3013  0.7014
 1694SOL    HW216542   4.375   4.361   0.759 -0.7141 -2.5595 -1.4223
 1695SOL     OW16543   2.250   2.906  16.287  0.0624  0.3360  0.2514
 1695SOL    HW116544   2.250   2.933  16.195  0.7573 -2.7974 -0.6726
 1695SOL    HW216545   2.275   2.815  16.273  0.4203  0.5552 -0.5491
 1696SOL     OW16546   0.823   2.436   0.072  0.6096 -0.6051  0.8223
 1696SOL    HW116547   0.889   2.505   0.073  0.2003 -0.2244  1.2961
 1696SOL    HW216548   0.808   2.423   0.165  1.6246 -4.9910  0.3650
 1697SOL     OW16549   3.112   1.102   4.034  0.0739  0.1391  0.0325
 1697SOL    HW116550   3.186   1.073   3.981 -0.0241  0.0565 -0.0590
 1697SOL    HW216551   3.041   1.071   3.978 -0.0070  0.4297 -0.0243
 1698SOL     OW16552   0.416   3.963   6.859  0.6162  0.8692  0.5265
 1698SOL    HW116553   0.442   3.894   6.797  0.0820 -0.5599  1.9214
 1698SOL    HW216554   0.369   3.918   6.929  1.4397 -1.1485 -0.2014
 1699SOL     OW16555   3.582   3.974   9.297 -0.4692 -0.1270 -0.0161
 1699SOL    HW116556   3.588   3.997   9.390  0.5919 -1.9000  0.3435
 1699SOL    HW216557   3.571   3.879   9.300  1.3065 -0.4050 -1.9900
 1700SOL     OW16558   2.423   0.221   8.039  0.1127  0.1769  0.0231
 1700SOL    HW116559   2.375   0.286   7.988 -0.5308 -0.6160 -0.3913
 1700SOL    HW216560   2.450   0.156   7.974 -0.6340  0.5511 -0.6660
 1701SOL     OW16561   0.616   2.589  10.291 -0.2079  0.5733  0.4263
 1701SOL    HW116562   0.676   2.620  10.358  1.0360  0.9899 -0.8791
 1701SOL    HW216563   0.648   2.629  10.210  0.1859 -1.2206 -0.3070
 1702SOL     OW16564   1.200   4.606   4.914 -0.2276 -0.4355  0.0390
 1702SOL    HW116565   1.251   4.687   4.910  0.1244 -0.8670 -4.2094
 1702SOL    HW216566   1.204   4.586   4.820 -0.0093 -0.9698  0.1661
 1703SOL     OW16567   1.987   0.118  14.723  0.1295  0.0497  0.3915
 1703SOL    HW116568   1.927   0.158  14.660  1.4504 -1.6304 -1.9602
 1703SOL    HW216569   2.042   0.062  14.668 -0.2274  2.3328 -2.3015
 1704SOL     OW16570   4.318   1.649   5.542 -0.0418  0.1801 -0.4475
 1704SOL    HW116571   4.332   1.740   5.568  0.1785 -0.5427  1.9512
 1704SOL    HW216572   4.224   1.652   5.526  0.1606 -0.0686 -1.6642
 1705SOL     OW16573   4.354   1.368   7.411 -0.2512 -0.5249 -0.3905
 1705SOL    HW116574   4.325   1.394   7.323  2.0295  1.6763 -0.4823
 1705SOL    HW216575   4.442   1.336   7.393  0.5093  0.9328  0.8117
 1706SOL     OW16576   3.574   2.700  17.378  0.2747 -0.0711  0.4033
 1706SOL    HW116577   3.657   2.720  17.422 -0.5140  0.0514  1.8342
 1706SOL    HW216578   3.573   2.751  17.297  0.7797  0.8525  0.9742
 1707SOL     OW16579   0.611   4.545   7.715  0.5907 -0.5931  0.3757
 1707SOL    HW116580   0.647   4.541   7.626 -3.0221 -0.5191 -1.0650
 1707SOL    HW216581   0.650   4.623   7.754  0.9649 -1.3985  1.6210
 1708SOL     OW16582   2.742   2.998   4.086  0.2400  0.3200 -0.2114
 1708SOL    HW116583   2.789   2.923   4.123  1.2824  0.1037 -1.9653
 1708SOL    HW216584   2.773   2.994   3.996  0.2446 -0.4089 -0.1771
 1709SOL     OW16585   1.868   3.977  14.096  0.5500 -0.6472 -0.1045
 1709SOL    HW116586   1.962   3.992  14.109  0.1253  2.2692 -0.4640
 1709SOL    HW216587   1.843   3.924  14.172 -1.8024  1.8599  0.8917
 1710SOL     OW16588   2.908   4.678   0.171  0.0126 -0.2597  0.4306
 1710SOL    HW116589   2.821   4.664   0.209 -1.3314 -0.1353 -2.6449
 1710SOL    HW216590   2.945   0.017   0.233 -3.3397 -0.1478  2.3424
 1711SOL     OW16591   2.373   1.392  13.544 -0.3234 -0.0218  0.9322
 1711SOL    HW116592   2.280   1.412  13.554 -0.1810  0.0517  2.0698
 1711SOL    HW216593   2.369   1.308  13.499  2.2252  1.9891 -3.1190
 1712SOL     OW16594   3.510   1.653   1.670  0.3503 -0.4112 -0.0803
 1712SOL    HW116595   3.491   1.599   1.747 -2.4460 -1.8864 -1.8033
 1712SOL    HW216596   3.602   1.630   1.662  0.1263 -1.4446  0.2522
 1713SOL     OW16597   2.393   1.667  13.579 -0.5641  0.6231  0.0465
 1713SOL    HW116598   2.310   1.641  13.619  0.7899  3.7083  4.9334
 1713SOL    HW216599   2.432   1.580  13.587  0.4858  0.9210 -1.8559
 1714SOL     OW16600   2.235   2.418   3.399  0.0697  0.4703  0.2654
 1714SOL    HW116601   2.281   2.369   3.467 -2.1696  0.0309  1.4688
 1714SOL    HW216602   2.233   2.346   3.337  1.1078 -1.2681  2.2736
 1715SOL     OW16603   4.535   0.972   2.390 -0.0964 -0.3244 -0.0481
 1715SOL    HW116604   4.549   0.884   2.425  0.8850  0.3030  1.1300
 1715SOL    HW216605   4.564   1.032   2.458 -0.6942 -0.2101  0.1080
 1716SOL     OW16606   1.224   3.724   4.678 -0.0267 -0.5110 -0.0342
 1716SOL    HW116607   1.208   3.766   4.762 -1.0822 -0.7320 -0.1271
 1716SOL    HW216608   1.187   3.786   4.614 -0.6630 -1.4234 -0.5517
 1717SOL     OW16609   0.935   4.496  14.440  0.4318  0.2932  0.5163
 1717SOL    HW116610   1.026   4.522  14.427  0.5424 -0.6913 -0.5986
 1717SOL    HW216611   0.918   4.442  14.363  0.1073 -0.9632  1.4742
 1718SOL     OW16612   2.595   2.150  14.235 -0.7242 -0.4128 -0.4511
 1718SOL    HW116613   2.648   2.170  14.312 -1.3687  1.0985 -0.4082
 1718SOL    HW216614   2.534   2.088  14.274  0.3706 -1.7089 -0.7563
 1719SOL     OW16615   1.670   2.978   2.803  0.1758  1.0529  0.3746
 1719SOL    HW116616   1.722   2.988   2.883  1.6559 -2.1787 -0.1647
 1719SOL    HW216617   1.735   2.927   2.754 -0.5418  0.3267  0.1734
 1720SOL     OW16618   3.561   0.528   5.755 -0.4277 -0.5245  0.0950
 1720SOL    HW116619   3.495   0.496   5.694  1.5739  0.9656 -2.8687
 1720SOL    HW216620   3.573   0.619   5.726 -0.4083 -0.8906 -1.0198
 1721SOL     OW16621   0.906   2.528   7.169 -0.2012  0.3622 -0.0564
 1721SOL    HW116622   0.841   2.590   7.200  0.2008  0.4421  0.6194
 1721SOL    HW216623   0.873   2.516   7.080 -1.2309 -2.3149  0.6902
 1722SOL     OW16624   2.346   3.625   5.131  0.7120 -0.0934  0.1318
 1722SOL    HW116625   2.297   3.671   5.063  1.6579  1.7511  0.6839
 1722SOL    HW216626   2.416   3.688   5.152 -0.3336  1.4381 -0.9761
 1723SOL     OW16627   4.209   1.902   0.787  0.0921 -0.0683 -0.5193
 1723SOL    HW116628   4.293   1.885   0.829  0.5493  1.1476 -0.9525
 1723SOL    HW216629   4.241   1.905   0.697  0.6957  1.2734 -0.2479
 1724SOL     OW16630   3.144   1.749   7.536  0.2607 -0.0941  0.7569
 1724SOL    HW116631   3.207   1.819   7.525 -1.2540  1.1209 -0.2898
 1724SOL    HW216632   3.067   1.804   7.552  0.6233  0.5042  0.4412
 1725SOL     OW16633   4.032   4.309  10.634  0.0254 -0.0939  0.2318
 1725SOL    HW116634   3.940   4.317  10.612  0.4320  0.7883 -1.1483
 1725SOL    HW216635   4.055   4.237  10.575 -1.2777 -1.0517  0.8902
 1726SOL     OW16636   2.281   1.474   9.703 -0.5716 -0.0310 -0.1556
 1726SOL    HW116637   2.290   1.553   9.649  1.0597 -0.8293 -1.0523
 1726SOL    HW216638   2.224   1.424   9.646 -1.7395  1.3696 -0.2202
 1727SOL     OW16639   0.483   1.469   6.514 -0.0626  0.5610  0.5547
 1727SOL    HW116640   0.396   1.503   6.498 -0.5495 -1.0304 -0.2524
 1727SOL    HW216641   0.538   1.545   6.535  1.3180 -0.3343  0.2259
 1728SOL     OW16642   1.781   3.918   5.628 -0.0801  0.0661  0.3107
 1728SOL    HW116643   1.787   3.939   5.535 -0.5448  0.1233  0.2899
 1728SOL    HW216644   1.686   3.916   5.641 -0.3775  1.5124 -1.7090
 1729SOL     OW16645   2.073   3.111   5.159 -0.2278 -0.0399 -0.3943
 1729SOL    HW116646   2.134   3.182   5.137  0.9711 -0.7319  0.6950
 1729SOL    HW216647   2.110   3.085   5.244  1.0757 -2.6923 -1.7805
 1730SOL     OW16648   2.832   1.371  11.307  0.2201 -0.1199  0.0794
 1730SOL    HW116649   2.905   1.317  11.275 -0.2211 -0.0949 -0.9638
 1730SOL    HW216650   2.851   1.452  11.260  1.3818 -0.8042 -0.6215
 1731SOL     OW16651   3.734   2.021   2.420  0.2779 -0.3963  0.5937
 1731SOL    HW116652   3.816   2.066   2.437 -0.2289  0.7896 -0.0626
 1731SOL    HW216653   3.737   1.948   2.481 -0.7308 -1.3283 -0.4666
 1732SOL     OW16654   2.368   4.708  10.276  0.0684 -0.2728  0.5347
 1732SOL    HW116655   2.417   4.690  10.356 -0.9774 -0.2842  1.1604
 1732SOL    HW216656   2.433   4.682  10.210  0.3675  1.2031  0.2363
 1733SOL     OW16657   0.645   1.149   5.998 -0.0074  0.3516  0.6596
 1733SOL    HW116658   0.631   1.061   6.032  0.6055 -0.9152 -2.3080
 1733SOL    HW216659   0.560   1.192   6.008 -0.2383  0.3374 -1.2715
 1734SOL     OW16660   1.675   0.675  10.482 -0.5038  0.6775  0.0586
 1734SOL    HW116661   1.756   0.699  10.436  0.2780 -1.0797  0.5092
 1734SOL    HW216662   1.679   0.741  10.551  0.9267  1.0837 -0.4087
 1735SOL     OW16663   1.615   2.585   6.158  0.1411  0.1213 -0.2032
 1735SOL    HW116664   1.640   2.568   6.248  1.9121  1.9192 -0.3547
 1735SOL    HW216665   1.544   2.524   6.137 -0.0051  0.0680  0.4554
 1736SOL     OW16666   2.691   0.850   5.012  0.2531  0.0264  0.6519
 1736SOL    HW116667   2.627   0.915   5.039 -2.0647 -2.2327  0.6493
 1736SOL    HW216668   2.727   0.820   5.096  0.5713 -0.4712  0.3402
 1737SOL     OW16669   0.593   0.955   5.725 -1.1563 -0.1476 -0.1098
 1737SOL    HW116670   0.639   0.876   5.753 -0.6950  0.2087  0.1364
 1737SOL    HW216671   0.574   0.927   5.636  1.8142 -0.1083 -0.7307
 1738SOL     OW16672   4.194   3.292  12.696  0.3947 -0.1549  0.7815
 1738SOL    HW116673   4.148   3.302  12.780  1.6237 -2.5551  1.7542
 1738SOL    HW216674   4.230   3.380  12.705  1.2045 -0.4948  0.8270
 1739SOL     OW16675   3.762   0.085   6.538 -0.4050 -0.1457  0.3038
 1739SOL    HW116676   3.771   0.093   6.633  0.4808 -1.0096  0.2907
 1739SOL    HW216677   3.687   0.137   6.509 -0.2509  1.2253  2.3116
 1740SOL     OW16678   3.157   2.673   2.519  0.0518  0.7533  0.6987
 1740SOL    HW116679   3.203   2.736   2.463  0.0759 -0.4260 -0.6336
 1740SOL    HW216680   3.235   2.623   2.543 -1.2230 -0.9956  1.1916
 1741SOL     OW16681   0.394   1.201  14.680 -0.1831  0.0848 -0.3740
 1741SOL    HW116682   0.304   1.230  14.667 -0.4664 -0.3923  0.6025
 1741SOL    HW216683   0.409   1.206  14.585 -1.6560 -0.0457 -0.6003
 1742SOL     OW16684   3.726   3.666   4.652  0.4919  0.5271  0.3019
 1742SOL    HW116685   3.746   3.741   4.596 -0.3876 -1.3220 -2.4818
 1742SOL    HW216686   3.797   3.662   4.717  0.5064  2.8393  0.4166
 1743SOL     OW16687   0.939   1.037   4.543  0.0629 -0.9299  0.2759
 1743SOL    HW116688   0.916   0.943   4.544 -2.9220 -0.2212 -0.5821
 1743SOL    HW216689   0.868   1.069   4.599 -1.5260 -0.6740 -1.8753
 1744SOL     OW16690   3.162   2.078   4.465  0.3091 -0.2669  0.3807
 1744SOL    HW116691   3.144   2.023   4.542  1.0055  0.2193  0.8892
 1744SOL    HW216692   3.180   2.164   4.504 -1.2486 -0.2979  1.1702
 1745SOL     OW16693   2.440   0.690  17.399  0.5363 -0.8766 -0.5316
 1745SOL    HW116694   2.534   0.707  17.405  0.2607  0.5597 -0.3042
 1745SOL    HW216695   2.434   0.630  17.325  1.6208 -0.7243 -0.7543
 1746SOL     OW16696   2.546   1.727   7.113  0.1086  0.1044 -0.6204
 1746SOL    HW116697   2.502   1.686   7.187 -0.1796  0.0770 -0.8096
 1746SOL    HW216698   2.619   1.762   7.165 -0.1193 -1.7020  0.9137
 1747SOL     OW16699   3.110   1.093   6.680  0.4315 -0.3902  0.8309
 1747SOL    HW116700   3.019   1.106   6.706  0.7727  3.2721  0.2531
 1747SOL    HW216701   3.114   0.998   6.667 -0.4361 -0.4594  1.0416
 1748SOL     OW16702   3.368   0.791   6.839  0.4225  0.4075 -0.4972
 1748SOL    HW116703   3.419   0.711   6.833 -0.4136 -0.1822  0.1902
 1748SOL    HW216704   3.399   0.818   6.926 -0.1556 -0.2525 -0.0795
 1749SOL     OW16705   4.249   1.612  11.815  0.0061 -0.7547 -0.4682
 1749SOL    HW116706   4.191   1.569  11.878 -2.1862 -0.8844 -2.5914
 1749SOL    HW216707   4.196   1.619  11.736  2.0997 -1.2461 -1.9238
 1750SOL     OW16708   4.502   4.628  13.185 -0.2823 -0.1482 -0.9916
 1750SOL    HW116709   4.588   4.590  13.165  0.7444  1.3795  0.5908
 1750SOL    HW216710   4.523   4.693  13.252  0.3942 -0.0525 -1.2988
 1751SOL     OW16711   3.661   2.316   7.286  0.1094 -0.2601 -0.2830
 1751SOL    HW116712   3.584   2.357   7.327 -1.4843 -0.6951 -2.8710
 1751SOL    HW216713   3.722   2.303   7.359 -0.3085  1.0683  0.2985
 1752SOL     OW16714   0.701   3.037  12.434  1.0094 -0.2206  0.7008
 1752SOL    HW116715   0.744   2.998  12.510 -0.4213 -0.5994  1.3160
 1752SOL    HW216716   0.773   3.094  12.408 -0.4773  0.4879 -1.9355
 1753SOL     OW16717   1.704   1.544   1.242  0.3175 -0.7490 -0.1548
 1753SOL    HW116718   1.655   1.476   1.289  1.2631 -1.4628 -0.2056
 1753SOL    HW216719   1.747   1.483   1.181 -0.3474 -0.9496 -0.4251
 1754SOL     OW16720   0.779   3.833  11.290 -0.1267 -0.2370  0.1832
 1754SOL    HW116721   0.846   3.901  11.300  1.0091 -1.3569  0.1944
 1754SOL    HW216722   0.813   3.797  11.209 -1.8696 -0.8645 -0.2717
 1755SOL     OW16723   2.294   1.367   5.179  0.3442 -0.2664 -0.1345
 1755SOL    HW116724   2.310   1.353   5.085  2.8955  1.1185  0.1038
 1755SOL    HW216725   2.287   1.277   5.211  0.7806 -0.3726 -0.3385
 1756SOL     OW16726   0.176   3.164   3.677 -0.4744 -0.2695 -0.1737
 1756SOL    HW116727   0.097   3.124   3.639 -0.2315  0.7844 -1.7636
 1756SOL    HW216728   0.145   3.183   3.766  0.8439 -2.2631  0.7061
 1757SOL     OW16729   2.932   0.983   0.210 -0.3238  0.1899  0.0484
 1757SOL    HW116730   2.984   1.017   0.137 -0.0440  0.0680  0.1912
 1757SOL    HW216731   2.965   1.035   0.283 -1.5186 -0.1349  0.8256
 1758SOL     OW16732   3.204   1.157  11.462 -0.0778  0.3810 -0.5018
 1758SOL    HW116733   3.283   1.106  11.445 -0.8288 -0.8685 -0.2772
 1758SOL    HW216734   3.139   1.120  11.403 -0.6015  0.7215 -0.1386
 1759SOL     OW16735   2.465   4.665   7.675 -0.1303  0.4168  0.5177
 1759SOL    HW116736   2.411   0.010   7.635 -0.7380  0.5931  1.6309
 1759SOL    HW216737   2.497   4.707   7.755 -0.3396  1.6005 -0.0221
 1760SOL     OW16738   2.937   3.894   3.137 -0.3055  0.0371  0.2806
 1760SOL    HW116739   3.025   3.895   3.099 -0.2192 -0.6796  0.4589
 1760SOL    HW216740   2.930   3.980   3.179 -1.0564  1.5082 -2.8675
 1761SOL     OW16741   4.438   1.765   3.282  0.0824 -0.2791 -0.3739
 1761SOL    HW116742   4.402   1.784   3.196  2.0658  0.7468 -0.9850
 1761SOL    HW216743   4.515   1.822   3.270  0.8869 -1.3238 -0.1990
 1762SOL     OW16744   3.312   3.174   4.985  0.2593  0.1666 -0.3431
 1762SOL    HW116745   3.388   3.226   5.013 -1.1314  1.3908  1.1589
 1762SOL    HW216746   3.361   3.126   4.918 -0.6763  1.2756 -1.8061
 1763SOL     OW16747   2.733   3.796  15.370  0.0712 -0.1769 -0.4144
 1763SOL    HW116748   2.777   3.720  15.408  1.5803  1.0945  0.3931
 1763SOL    HW216749   2.664   3.752  15.320 -0.9473  1.6766 -0.6333
 1764SOL     OW16750   2.652   4.047   8.588 -0.2147 -0.2751  0.0208
 1764SOL    HW116751   2.566   4.088   8.597 -0.1683  0.1851 -1.6450
 1764SOL    HW216752   2.703   4.124   8.563 -1.3107  0.9220  1.5267
 1765SOL     OW16753   4.206   2.644   6.251 -0.3252  0.1489  0.3282
 1765SOL    HW116754   4.239   2.566   6.296  2.8951  1.2948 -0.0339
 1765SOL    HW216755   4.286   2.697   6.244  0.6135 -0.9759  2.3298
 1766SOL     OW16756   4.381   0.431   3.584 -0.3503  0.2717 -0.1836
 1766SOL    HW116757   4.287   0.418   3.592 -0.2291  0.7457  1.9048
 1766SOL    HW216758   4.373   0.494   3.512  0.6194  0.0832 -0.4641
 1767SOL     OW16759   2.665   0.194   8.664 -0.0243  0.4869 -0.2810
 1767SOL    HW116760   2.740   0.161   8.714 -1.5835  0.7286  2.2521
 1767SOL    HW216761   2.611   0.218   8.740  1.4117  2.1481  0.2004
 1768SOL     OW16762   1.594   4.343   3.703 -0.2577  0.4571  0.7023
 1768SOL    HW116763   1.587   4.415   3.766  0.2204 -0.2507  1.5761
 1768SOL    HW216764   1.548   4.386   3.631 -0.3526 -0.1987  0.3699
 1769SOL     OW16765   4.432   1.849   1.537  0.2167  0.6343  0.2714
 1769SOL    HW116766   4.492   1.844   1.463 -1.2647 -1.6684 -0.7998
 1769SOL    HW216767   4.481   1.912   1.590  0.6865  0.1323  0.4285
 1770SOL     OW16768   2.269   3.219   7.849 -0.1650  0.1532 -0.1605
 1770SOL    HW116769   2.348   3.179   7.812 -1.4537 -0.4504 -2.2368
 1770SOL    HW216770   2.220   3.249   7.773  0.8547 -1.4164 -1.4424
 1771SOL     OW16771   0.296   3.573   8.373  0.2228 -0.5363  0.0434
 1771SOL    HW116772   0.391   3.582   8.372  0.0434  1.3777  1.5749
 1771SOL    HW216773   0.277   3.486   8.409 -0.6374  0.3678  1.7488
 1772SOL     OW16774   4.223   1.370   2.396  0.7046 -0.7051 -0.0307
 1772SOL    HW116775   4.313   1.337   2.395 -0.0974 -2.9053  0.6865
 1772SOL    HW216776   4.225   1.453   2.445 -1.1473 -0.3697 -0.5308
 1773SOL     OW16777   1.725   0.899   8.747 -0.3728 -1.0156 -0.3500
 1773SOL    HW116778   1.776   0.819   8.762  0.2831 -0.3307  1.1082
 1773SOL    HW216779   1.730   0.910   8.652  3.3108 -0.0111 -0.0455
 1774SOL     OW16780   2.888   2.798   4.870 -0.0108 -0.6812  0.2180
 1774SOL    HW116781   2.928   2.867   4.817  0.4110 -1.2703 -0.2309
 1774SOL    HW216782   2.833   2.756   4.805 -1.7122  0.2518  1.0696
 1775SOL     OW16783   3.989   0.392   6.577 -1.0483  0.5591  0.4443
 1775SOL    HW116784   4.024   0.303   6.565 -1.7178  0.6659 -2.3469
 1775SOL    HW216785   3.986   0.427   6.488  3.2941  1.1775  0.5452
 1776SOL     OW16786   1.219   0.555  16.561  0.3166 -0.3563  0.2784
 1776SOL    HW116787   1.236   0.474  16.513 -0.1554  0.7450 -1.7277
 1776SOL    HW216788   1.193   0.613  16.490 -2.9282 -2.0682  0.0853
 1777SOL     OW16789   2.749   1.719   4.614 -0.1167  0.3112 -0.3417
 1777SOL    HW116790   2.776   1.627   4.607 -0.8262  0.0758 -0.0176
 1777SOL    HW216791   2.820   1.748   4.671 -1.2189 -0.4244  1.4154
 1778SOL     OW16792   2.717   2.735   6.186 -0.5266 -0.4810  0.2393
 1778SOL    HW116793   2.651   2.665   6.191  0.0880 -1.0881 -0.1645
 1778SOL    HW216794   2.801   2.695   6.209 -0.7176 -1.2419 -0.3848
 1779SOL     OW16795   4.489   0.629   8.124  0.6268 -0.5348  0.2733
 1779SOL    HW116796   4.564   0.617   8.182  0.7319  0.5308  0.3520
 1779SOL    HW216797   4.513   0.711   8.080 -0.6851  0.2576  1.0260
 1780SOL     OW16798   3.679   0.099   8.258 -0.2431  0.7327 -0.5116
 1780SOL    HW116799   3.770   0.082   8.284 -0.7826  0.2934  1.0881
 1780SOL    HW216800   3.682   0.195   8.265 -4.4034  0.7471  0.7185
 1781SOL     OW16801   1.949   3.495   9.119  0.2552  0.0583  1.0081
 1781SOL    HW116802   2.035   3.453   9.124 -0.4296 -1.6816 -1.3976
 1781SOL    HW216803   1.979   3.586   9.115 -1.7396  0.6668 -0.0377
 1782SOL     OW16804   3.195   1.559   3.835  0.2363 -0.0133 -0.1449
 1782SOL    HW116805   3.161   1.472   3.856  1.9093 -0.3129  1.3502
 1782SOL    HW216806   3.194   1.614   3.913  1.5837  0.0223 -0.1464
 1783SOL     OW16807   3.005   1.743   6.811  0.1339  0.1614  0.2374
 1783SOL    HW116808   3.040   1.709   6.728 -0.6176 -2.2867  0.9214
 1783SOL    HW216809   2.923   1.776   6.775 -0.1012  0.0858  0.7158
 1784SOL     OW16810   0.787   4.019   2.484 -0.1625  0.0886  0.5490
 1784SOL    HW116811   0.836   4.037   2.564 -0.8278 -2.1792  1.4441
 1784SOL    HW216812   0.722   4.089   2.487 -1.5574 -1.2246  0.8348
 1785SOL     OW16813   1.580   1.770   3.326 -0.1522  0.2405  0.4467
 1785SOL    HW116814   1.627   1.699   3.370 -1.3802 -0.1261  1.1623
 1785SOL    HW216815   1.508   1.777   3.389 -0.3206  0.2976  0.2495
 1786SOL     OW16816   4.631   3.567  17.386  0.7874  0.1424 -0.4829
 1786SOL    HW116817   4.610   3.521  17.468  0.3056  0.5247 -0.3903
 1786SOL    HW216818   4.669   3.647  17.421 -1.4601  0.4765  1.2497
 1787SOL     OW16819   4.030   1.033   6.864 -0.7265 -0.5898 -0.3894
 1787SOL    HW116820   4.119   1.007   6.888 -0.8150 -1.8770 -1.4794
 1787SOL    HW216821   4.031   0.997   6.776 -0.9048 -0.1028 -0.5945
 1788SOL     OW16822   1.604   1.530   6.734  0.1053  0.1196  0.7479
 1788SOL    HW116823   1.615   1.624   6.748 -0.9364  0.2924  0.4134
 1788SOL    HW216824   1.651   1.506   6.654 -0.7485  1.2222 -0.0675
 1789SOL     OW16825   2.583   0.272  10.623 -0.2429 -0.1754  0.1973
 1789SOL    HW116826   2.563   0.365  10.609  4.0590  0.5575 -1.0508
 1789SOL    HW216827   2.500   0.242  10.586 -0.6792  0.2642  0.8122
 1790SOL     OW16828   3.742   0.056   0.997  0.6197  0.6072  0.1880
 1790SOL    HW116829   3.682   4.704   1.002  0.7291  0.3705 -1.9068
 1790SOL    HW216830   3.722   0.095   1.082  0.0194  0.2578  0.2081
 1791SOL     OW16831   0.583   2.661  16.619 -0.2874 -0.1704  0.0226
 1791SOL    HW116832   0.497   2.622  16.602 -0.2993 -0.2258  0.2108
 1791SOL    HW216833   0.584   2.740  16.564 -1.2991 -1.5273 -1.9531
 1792SOL     OW16834   2.219   3.313   2.517 -0.2813  0.4368 -0.8692
 1792SOL    HW116835   2.128   3.291   2.500  0.1338 -0.9462 -1.2989
 1792SOL    HW216836   2.255   3.310   2.429  2.1691  1.7380  0.0738
 1793SOL     OW16837   0.843   4.433   0.560 -0.0319 -0.1286 -0.2671
 1793SOL    HW116838   0.813   4.361   0.505  2.6893 -2.8328  1.8087
 1793SOL    HW216839   0.849   4.383   0.641  1.1467  0.3225 -0.0614
 1794SOL     OW16840   0.821   4.382  14.037  0.4235 -0.0717 -0.1717
 1794SOL    HW116841   0.884   4.352  14.102  0.7645  0.4918 -0.2497
 1794SOL    HW216842   0.796   4.471  14.060 -1.0897 -0.6249  0.3180
 1795SOL     OW16843   0.138   0.544  15.016 -0.3201 -0.0108  0.5779
 1795SOL    HW116844   0.094   0.556  14.932  0.8569 -0.6971 -0.1409
 1795SOL    HW216845   0.128   0.450  15.036  1.4797  0.4585  3.6202
 1796SOL     OW16846   0.547   2.697  11.950 -0.0431 -0.2507 -0.2616
 1796SOL    HW116847   0.585   2.775  11.990 -3.3072  0.1468  2.0874
 1796SOL    HW216848   0.477   2.675  12.011 -0.3274  0.9131 -0.1720
 1797SOL     OW16849   3.233   3.981  10.312 -0.2595  0.1645  0.5087
 1797SOL    HW116850   3.281   3.964  10.230 -3.8977  0.3664 -1.6536
 1797SOL    HW216851   3.306   3.976  10.374 -1.2958  0.8100  1.7596
 1798SOL     OW16852   0.310   0.704   5.713  0.5085  0.7741 -0.2638
 1798SOL    HW116853   0.299   0.627   5.657  2.1913 -0.9614  1.8124
 1798SOL    HW216854   0.359   0.760   5.652 -0.7358  2.2310  0.0869
 1799SOL     OW16855   1.676   3.512   5.797 -0.4939 -0.2236  0.1998
 1799SOL    HW116856   1.586   3.540   5.812 -0.6454 -1.3958  1.5490
 1799SOL    HW216857   1.672   3.425   5.838 -0.5500 -0.0750  0.5075
 1800SOL     OW16858   2.941   2.988  16.016 -0.4049 -0.7495 -0.0897
 1800SOL    HW116859   2.974   3.078  16.017 -3.6471  0.4413  0.6071
 1800SOL    HW216860   2.931   2.972  15.922 -1.0984 -1.0434  0.0349
 1801SOL     OW16861   4.287   0.878   2.260 -0.0701 -0.1515  0.1665
 1801SOL    HW116862   4.346   0.945   2.295  0.6632 -1.4700  1.4314
 1801SOL    HW216863   4.249   0.934   2.192  1.0248  2.1384  1.4275
 1802SOL     OW16864   2.360   3.184  14.189 -0.2939 -0.3969 -0.6727
 1802SOL    HW116865   2.419   3.112  14.212  1.0845  0.5546 -1.2474
 1802SOL    HW216866   2.277   3.150  14.223  0.0810 -0.8246 -0.1776
 1803SOL     OW16867   3.534   1.248   7.091 -0.1509 -0.3990  0.0586
 1803SOL    HW116868   3.493   1.331   7.068  1.4369  0.1976 -0.6217
 1803SOL    HW216869   3.621   1.277   7.062 -1.1300  1.6281 -0.8103
 1804SOL     OW16870   0.752   4.432   1.312 -0.2261 -0.1188 -0.4127
 1804SOL    HW116871   0.844   4.407   1.307  0.4475  2.2543  0.0271
 1804SOL    HW216872   0.744   4.454   1.220 -2.1943  0.2815 -0.1433
 1805SOL     OW16873   4.100   4.046  11.470  0.0780  0.6351 -0.0718
 1805SOL    HW116874   4.178   4.061  11.418  0.7879 -1.7507  0.3092
 1805SOL    HW216875   4.146   4.034  11.553 -0.5688 -0.7957  0.0801
 1806SOL     OW16876   3.656   3.218   2.964 -0.6335 -0.2458 -0.4822
 1806SOL    HW116877   3.688   3.278   2.896  1.3645 -0.4098  0.3155
 1806SOL    HW216878   3.634   3.286   3.028 -1.4446 -2.3707  1.5118
 1807SOL     OW16879   2.486   2.769   5.039 -0.4712  0.2885 -0.6916
 1807SOL    HW116880   2.399   2.734   5.055 -0.7685  1.1517 -0.4172
 1807SOL    HW216881   2.530   2.723   5.110  1.9182  1.0105 -1.7042
 1808SOL     OW16882   1.995   1.797   6.727 -0.1050 -0.0963 -0.0689
 1808SOL    HW116883   2.021   1.708   6.749 -0.3987 -0.3874 -0.8731
 1808SOL    HW216884   1.904   1.778   6.704  0.1072 -0.3006 -0.7437
 1809SOL     OW16885   4.655   4.711   2.155  0.0266  0.0942  0.2345
 1809SOL    HW116886   0.002   0.037   2.199 -0.6212  0.6673  0.6380
 1809SOL    HW216887   4.699   4.658   2.089  1.0687  1.7202 -0.3530
 1810SOL     OW16888   3.593   1.062  10.668  0.0326  0.2465  0.2977
 1810SOL    HW116889   3.619   1.014  10.746 -0.7647 -0.9511 -0.1852
 1810SOL    HW216890   3.556   1.006  10.600  1.3606 -2.9195  2.1881
 1811SOL     OW16891   0.868   0.455   6.560 -0.0730 -0.1756  0.3438
 1811SOL    HW116892   0.835   0.492   6.478 -1.4540  0.8942  1.3747
 1811SOL    HW216893   0.813   0.501   6.624  0.0161  0.1690  0.1747
 1812SOL     OW16894   0.458   0.412   5.672 -1.3904  0.0644 -0.0055
 1812SOL    HW116895   0.524   0.403   5.603 -1.6232 -3.3532  0.2226
 1812SOL    HW216896   0.511   0.455   5.740 -0.3061 -2.7963  0.9477
 1813SOL     OW16897   1.431   1.881   7.656 -0.0004  0.4031  0.1261
 1813SOL    HW116898   1.437   1.963   7.607 -1.8673  0.0234 -0.7336
 1813SOL    HW216899   1.390   1.905   7.739  0.5983 -0.3766  0.6521
 1814SOL     OW16900   2.789   3.879  11.698  0.5179  0.4186  0.0263
 1814SOL    HW116901   2.732   3.953  11.676  1.0488  0.9410  0.4245
 1814SOL    HW216902   2.807   3.878  11.792  0.4993 -0.0569  0.0268
 1815SOL     OW16903   2.556   0.423   6.847  0.2433  0.4921 -0.1181
 1815SOL    HW116904   2.642   0.393   6.877  0.9372  0.1713 -2.4885
 1815SOL    HW216905   2.552   0.508   6.892 -2.6014 -0.5888  1.6845
 1816SOL     OW16906   2.296   3.061  12.474  0.0826  0.4639 -0.2540
 1816SOL    HW116907   2.344   3.132  12.432  0.9381 -0.1077 -0.2521
 1816SOL    HW216908   2.294   2.999  12.401 -0.6127  2.7768 -2.2115
 1817SOL     OW16909   4.509   0.427   5.408 -0.1539  0.3165  0.0799
 1817SOL    HW116910   4.483   0.374   5.483  2.7071 -1.4707 -0.1917
 1817SOL    HW216911   4.544   0.507   5.446  0.0194  0.6587 -0.8096
 1818SOL     OW16912   2.724   0.450   8.922 -0.3903 -1.0470 -0.2121
 1818SOL    HW116913   2.802   0.411   8.882 -0.4312 -0.1001 -1.2107
 1818SOL    HW216914   2.759   0.504   8.993 -3.8729 -1.3994  1.8177
 1819SOL     OW16915   3.105   1.174   2.556 -0.1514 -0.1405  0.2038
 1819SOL    HW116916   3.149   1.122   2.489 -0.2753 -0.9387  0.7523
 1819SOL    HW216917   3.115   1.124   2.637 -0.5724  0.5493  0.6821
 1820SOL     OW16918   0.771   1.548   6.579  0.5606  0.3233  0.0440
 1820SOL    HW116919   0.811   1.464   6.560 -1.2619 -0.0257 -2.1362
 1820SOL    HW216920   0.836   1.616   6.561 -0.2880  0.7979 -1.2121
 1821SOL     OW16921   3.072   1.492  17.600 -0.5080  0.0766  0.3214
 1821SOL    HW116922   3.126   1.544  17.540  2.0397 -3.1400 -0.2002
 1821SOL    HW216923   3.095   1.543  17.677 -3.3390  0.4619  0.8871
 1822SOL     OW16924   0.761   4.588   5.981  0.5991 -0.3508  0.3472
 1822SOL    HW116925   0.694   4.656   5.972  0.3992 -0.5843  0.0941
 1822SOL    HW216926   0.757   4.557   6.071  1.1480 -2.2125 -0.2630
 1823SOL     OW16927   2.302   3.029   7.485 -0.0845  0.5768  0.2786
 1823SOL    HW116928   2.208   3.013   7.473  0.1314 -0.2602 -0.3476
 1823SOL    HW216929   2.335   3.062   7.401  0.3334  0.1441  0.2687
 1824SOL     OW16930   3.619   4.566  15.434 -0.0244 -0.3049  0.5494
 1824SOL    HW116931   3.622   4.514  15.354 -0.0153  0.5786 -0.0294
 1824SOL    HW216932   3.708   4.601  15.435 -0.4021  0.6930 -0.7300
 1825SOL     OW16933   4.160   0.803  16.383  0.0194  0.3660  0.6832
 1825SOL    HW116934   4.110   0.748  16.322  1.0371 -0.3729  0.5132
 1825SOL    HW216935   4.242   0.803  16.335 -0.1877 -0.8557  0.3173
 1826SOL     OW16936   4.528   0.733   8.535  0.2438 -0.0665 -0.9072
 1826SOL    HW116937   4.615   0.751   8.571  0.1437 -0.0306 -0.6811
 1826SOL    HW216938   4.498   0.814   8.495  0.8073  1.5778  1.9886
 1827SOL     OW16939   3.907   4.293   1.816 -0.0885 -0.5404 -0.2532
 1827SOL    HW116940   3.960   4.339   1.881 -1.1370 -0.8901  0.8520
 1827SOL    HW216941   3.978   4.281   1.754 -0.3060  1.9212 -0.9636
 1828SOL     OW16942   3.120   3.976   9.010 -0.0503  0.5814 -0.1223
 1828SOL    HW116943   3.073   3.893   9.011 -1.5327  1.4243 -0.4782
 1828SOL    HW216944   3.208   3.939   9.019 -0.6033 -0.1532  2.2506
 1829SOL     OW16945   3.968   4.017   5.919 -0.1410  0.0717  0.0972
 1829SOL    HW116946   4.055   3.984   5.897  0.2730 -1.2323  3.6736
 1829SOL    HW216947   3.940   4.034   5.829  1.5136  1.0973 -0.2412
 1830SOL     OW16948   1.217   0.404   7.100 -0.1726 -0.4467 -0.1402
 1830SOL    HW116949   1.283   0.473   7.110 -0.7943 -0.1411  2.0317
 1830SOL    HW216950   1.212   0.388   7.195 -0.1060 -2.2352 -0.4483
 1831SOL     OW16951   1.512   0.673  16.278  0.2264  0.3322  0.0334
 1831SOL    HW116952   1.579   0.648  16.342 -0.5866 -1.6827  0.0740
 1831SOL    HW216953   1.560   0.743  16.232 -2.4561  1.1079 -1.5532
 1832SOL     OW16954   1.445   1.741   5.582 -0.0068 -0.4034  0.2226
 1832SOL    HW116955   1.446   1.748   5.677  2.2290  1.1032  0.0791
 1832SOL    HW216956   1.536   1.760   5.559 -0.6432  3.9059  1.3190
 1833SOL     OW16957   3.440   2.775   5.229  0.0522 -0.0516 -0.7343
 1833SOL    HW116958   3.470   2.785   5.319  0.2487  1.5778 -0.9824
 1833SOL    HW216959   3.428   2.867   5.205 -0.7849  0.3455  1.2514
 1834SOL     OW16960   3.989   0.946   4.727 -0.4783 -0.2053 -0.4755
 1834SOL    HW116961   3.973   0.929   4.820  0.2486 -0.9962 -0.5004
 1834SOL    HW216962   3.997   1.042   4.729 -0.7621 -0.1557 -2.2052
 1835SOL     OW16963   1.491   1.582   2.476  0.1571 -0.1841  0.1377
 1835SOL    HW116964   1.544   1.639   2.532  0.5850 -0.7882  0.3492
 1835SOL    HW216965   1.428   1.639   2.432 -0.4090 -1.9442 -1.3031
 1836SOL     OW16966   1.129   0.144   4.190 -0.3394  0.0584 -0.3712
 1836SOL    HW116967   1.042   0.104   4.190 -1.8857  3.4097 -0.1675
 1836SOL    HW216968   1.119   0.219   4.132 -1.3588  1.1460  1.2063
 1837SOL     OW16969   2.610   1.277   6.331 -0.0514 -0.0654  0.0652
 1837SOL    HW116970   2.561   1.357   6.315  0.6708  0.7600  1.8756
 1837SOL    HW216971   2.568   1.242   6.410  0.5392  0.4032  0.5901
 1838SOL     OW16972   0.119   0.897   6.781  0.8749  0.3871  0.5879
 1838SOL    HW116973   0.034   0.856   6.796 -0.1557  1.4085 -2.2716
 1838SOL    HW216974   0.100   0.988   6.756 -0.2874 -0.0136  0.0011
 1839SOL     OW16975   0.890   4.534  16.081  0.1076 -0.4634 -0.0170
 1839SOL    HW116976   0.813   4.590  16.071 -0.2159 -0.6842  1.3072
 1839SOL    HW216977   0.883   4.516  16.174  1.5854  1.4824  0.4500
 1840SOL     OW16978   3.265   3.630   5.866 -0.6559 -0.1711  0.0612
 1840SOL    HW116979   3.314   3.548   5.860  0.5008  0.4648  0.7208
 1840SOL    HW216980   3.331   3.684   5.910  0.1588  0.8785 -2.4364
 1841SOL     OW16981   1.117   0.724   3.699  0.4810  0.4417 -0.4720
 1841SOL    HW116982   1.161   0.762   3.623  3.7789 -2.6781 -0.1292
 1841SOL    HW216983   1.163   0.758   3.775  1.3005  0.5352 -1.0089
 1842SOL     OW16984   1.300   4.258  17.668  0.2627  0.1649  0.3801
 1842SOL    HW116985   1.380   4.310  17.670 -0.3880  1.1630  0.8065
 1842SOL    HW216986   1.340   4.188   0.026  1.5618 -0.4516 -1.5020
 1843SOL     OW16987   3.743   1.374  12.412 -0.1307  0.0464 -0.7265
 1843SOL    HW116988   3.741   1.447  12.473  1.3431 -0.9397  0.5027
 1843SOL    HW216989   3.651   1.350  12.413 -0.0694 -0.0896  2.8417
 1844SOL     OW16990   2.231   2.378   9.354 -0.4757 -0.0221  0.6438
 1844SOL    HW116991   2.150   2.429   9.356 -0.2395  0.3515  0.7723
 1844SOL    HW216992   2.204   2.309   9.294 -1.3101  1.0626 -0.2452
 1845SOL     OW16993   4.692   3.459   5.678 -0.0438 -0.2271 -0.1255
 1845SOL    HW116994   4.707   3.529   5.614  2.0072  0.6947  1.3562
 1845SOL    HW216995   0.012   3.485   5.760 -0.6399 -0.8240  0.3654
 1846SOL     OW16996   2.797   2.710   2.533 -0.3570 -0.3712  0.3295
 1846SOL    HW116997   2.789   2.626   2.577 -0.8822 -0.1644  0.6254
 1846SOL    HW216998   2.783   2.769   2.607  0.0786  0.4287 -0.2223
 1847SOL     OW16999   4.251   4.701  14.952  0.2023  0.2955  0.3447
 1847SOL    HW117000   4.249   4.686  14.857 -0.6131 -0.6059  0.5037
 1847SOL    HW217001   4.340   4.677  14.975  0.4216  2.2174  1.4540
 1848SOL     OW17002   3.572   0.109   6.172  0.4659 -0.6514 -0.4345
 1848SOL    HW117003   3.516   0.047   6.125 -1.0962  1.8525 -1.9066
 1848SOL    HW217004   3.509   0.178   6.194 -1.0810 -1.2594 -2.8806
 1849SOL     OW17005   4.108   0.821   9.879 -0.4018  0.0304  0.1470
 1849SOL    HW117006   4.137   0.784   9.796  0.8249  0.4837  0.3558
 1849SOL    HW217007   4.182   0.806   9.939 -1.3776 -2.3070  0.7246
 1850SOL     OW17008   2.786   2.143  12.645  0.2067  0.3893  0.2181
 1850SOL    HW117009   2.819   2.171  12.730 -0.3835 -0.9431  0.8815
 1850SOL    HW217010   2.853   2.176  12.585 -1.4609 -1.1062 -2.4369
 1851SOL     OW17011   1.257   4.480   8.190  0.8409 -0.0463 -0.0300
 1851SOL    HW117012   1.224   4.451   8.105  0.4028 -0.0946  0.1610
 1851SOL    HW217013   1.269   4.395   8.232 -1.2612 -1.3024 -1.9594
 1852SOL     OW17014   3.036   2.226   3.501  0.2036  0.0871 -0.2942
 1852SOL    HW117015   3.042   2.241   3.407  1.0763  0.0284 -0.2430
 1852SOL    HW217016   2.988   2.308   3.516 -3.2188 -1.9026 -0.2017
 1853SOL     OW17017   1.889   0.924   4.318 -0.1433 -0.1491  0.3296
 1853SOL    HW117018   1.853   0.904   4.232  0.6325 -0.7343  0.1340
 1853SOL    HW217019   1.880   1.019   4.322 -0.7930 -0.2721  1.8168
 1854SOL     OW17020   4.153   1.555   0.708  0.1754 -0.2604 -0.3442
 1854SOL    HW117021   4.181   1.493   0.775 -0.5540 -1.1521 -0.8567
 1854SOL    HW217022   4.236   1.595   0.682 -0.0113  0.5620  0.3066
 1855SOL     OW17023   2.088   0.340   7.582 -0.2609 -0.1255 -0.0802
 1855SOL    HW117024   2.078   0.255   7.626 -2.7324 -0.3873 -1.1190
 1855SOL    HW217025   2.044   0.311   7.502  0.0012  0.1789 -0.3367
 1856SOL     OW17026   4.465   4.170   8.529 -0.4872  0.3072  0.1395
 1856SOL    HW117027   4.515   4.106   8.580 -1.2222  0.6841  1.3384
 1856SOL    HW217028   4.372   4.151   8.532 -0.5229  0.6435  1.2545
 1857SOL     OW17029   0.157   2.317   8.984 -0.4975  0.0406 -0.9276
 1857SOL    HW117030   0.188   2.335   8.895 -0.2709 -2.6311 -1.4062
 1857SOL    HW217031   0.173   2.223   8.993 -0.6791  0.2181  1.1792
 1858SOL     OW17032   4.231   1.365   6.419  0.2342 -0.1141  0.2489
 1858SOL    HW117033   4.144   1.371   6.457  0.3303 -2.1924  0.8313
 1858SOL    HW217034   4.237   1.425   6.345 -2.6562 -2.5738 -1.9724
 1859SOL     OW17035   4.319   2.389   2.784  0.4311 -0.0007 -0.3305
 1859SOL    HW117036   4.393   2.400   2.724  0.2385  0.3635 -0.5019
 1859SOL    HW217037   4.309   2.479   2.815 -1.6031 -0.2536 -0.2520
 1860SOL     OW17038   0.851   3.009   0.313  0.0423  0.6359  0.4602
 1860SOL    HW117039   0.774   2.953   0.323  0.3173 -0.1858 -1.9181
 1860SOL    HW217040   0.920   2.943   0.322 -0.5327 -0.2279 -1.5000
 1861SOL     OW17041   3.584   1.237  16.802  0.0536 -0.0399  0.7608
 1861SOL    HW117042   3.605   1.145  16.782 -1.7578 -0.2888  0.0491
 1861SOL    HW217043   3.631   1.273  16.727 -1.0827 -0.1504 -0.0008
 1862SOL     OW17044   4.075   0.357   9.728  0.4529  0.3360 -0.5922
 1862SOL    HW117045   4.024   0.297   9.673  0.2887 -0.0086 -0.0580
 1862SOL    HW217046   4.126   0.293   9.778 -0.6792 -0.4074 -0.3832
 1863SOL     OW17047   1.079   3.082   2.235 -0.6628 -0.4100 -0.4944
 1863SOL    HW117048   1.051   2.991   2.240 -0.0487 -0.6122 -0.7570
 1863SOL    HW217049   1.072   3.109   2.326  1.5456  1.4157 -0.8534
 1864SOL     OW17050   2.144   3.909  11.762 -0.4619  0.1483 -0.9050
 1864SOL    HW117051   2.086   3.835  11.781 -0.7958  0.6069 -0.1476
 1864SOL    HW217052   2.163   3.897  11.669 -0.5761  0.6080 -0.9871
 1865SOL     OW17053   4.139   4.524  11.901 -0.2429  0.1731 -0.4920
 1865SOL    HW117054   4.195   4.562  11.969 -0.4734  1.1590 -0.8503
 1865SOL    HW217055   4.078   4.594  11.876  0.7468  1.7181  1.4000
 1866SOL     OW17056   2.419   3.882   3.135  0.0651  0.4153  0.3517
 1866SOL    HW117057   2.439   3.968   3.098  1.2647  0.2140  0.5263
 1866SOL    HW217058   2.324   3.880   3.130  0.1505  2.8657 -2.1689
 1867SOL     OW17059   2.847   3.958   1.192  0.1638  0.3484 -0.2278
 1867SOL    HW117060   2.912   3.985   1.257  1.2338 -0.8287 -0.8115
 1867SOL    HW217061   2.871   3.866   1.181 -0.1052  0.0328  1.6900
 1868SOL     OW17062   0.344   0.083   2.107 -0.6968 -0.1073  0.2692
 1868SOL    HW117063   0.313   0.171   2.129  0.3118  0.2136  0.4252
 1868SOL    HW217064   0.424   0.103   2.059 -1.5893  1.7680 -0.4426
 1869SOL     OW17065   2.530   4.448   7.506 -0.3380 -0.0049  0.4820
 1869SOL    HW117066   2.497   4.536   7.528  0.2814  0.8249 -1.9212
 1869SOL    HW217067   2.625   4.460   7.512 -0.6926  2.8296  0.7560
 1870SOL     OW17068   3.101   3.268   1.151  0.3343  0.0401 -0.2974
 1870SOL    HW117069   3.031   3.235   1.094  2.0152  0.7186 -2.7108
 1870SOL    HW217070   3.060   3.255   1.237  1.4019 -0.0560  0.1932
 1871SOL     OW17071   0.070   0.072   7.034 -0.1249 -0.8785 -0.1784
 1871SOL    HW117072   0.159   0.043   7.015  0.3679 -0.2251  1.1587
 1871SOL    HW217073   0.074   0.073   7.130  2.7447  0.4740 -0.3169
 1872SOL     OW17074   2.922   4.162   2.395  0.2617 -0.0325  0.6990
 1872SOL    HW117075   2.865   4.235   2.369 -0.0908 -0.3593  0.5601
 1872SOL    HW217076   2.882   4.090   2.347 -0.9796  1.5538 -0.6722
 1873SOL     OW17077   0.655   0.514   3.257 -0.0280 -0.0920  0.0424
 1873SOL    HW117078   0.700   0.588   3.216 -1.3171  0.9739  0.5480
 1873SOL    HW217079   0.726   0.472   3.306  1.0838  1.1039 -0.5178
 1874SOL     OW17080   0.253   3.337   4.861 -0.0902  0.5263  0.5762
 1874SOL    HW117081   0.252   3.312   4.769  2.0720  1.4992  0.3036
 1874SOL    HW217082   0.240   3.432   4.855 -1.2017  0.3369  0.0876
 1875SOL     OW17083   3.570   3.401  17.491  0.2361  0.0781  0.7915
 1875SOL    HW117084   3.660   3.413  17.520  0.2101  1.2289  0.3651
 1875SOL    HW217085   3.531   3.484  17.518 -4.0948 -0.5419 -3.5923
 1876SOL     OW17086   1.680   3.660   2.356 -0.7151 -0.1301 -0.2526
 1876SOL    HW117087   1.605   3.632   2.303 -0.4527 -0.9352 -0.1959
 1876SOL    HW217088   1.748   3.625   2.299 -0.8372 -1.0644  0.1692
 1877SOL     OW17089   1.608   1.321   9.682  0.0038  0.0045  0.0049
 1877SOL    HW117090   1.567   1.407   9.683  1.8507  0.8910 -0.8758
 1877SOL    HW217091   1.628   1.315   9.588 -2.8853 -0.3653 -0.5735
 1878SOL     OW17092   4.606   0.591   4.691 -0.1860 -0.2143  0.1088
 1878SOL    HW117093   4.544   0.538   4.741  1.8541 -1.7704  1.0049
 1878SOL    HW217094   4.542   0.659   4.669 -0.5404 -1.4961 -2.9675
 1879SOL     OW17095   3.386   1.429   6.792 -0.1066 -0.0547  0.3722
 1879SOL    HW117096   3.338   1.452   6.713 -1.3356 -0.6228  0.9556
 1879SOL    HW217097   3.377   1.336   6.813  2.7279 -0.4526 -0.0626
 1880SOL     OW17098   3.214   2.714   4.243  0.4389 -0.5938 -0.3704
 1880SOL    HW117099   3.180   2.803   4.258  0.4044 -0.3791 -1.7306
 1880SOL    HW217100   3.179   2.665   4.317  1.0099 -1.6597 -0.8103
 1881SOL     OW17101   1.937   0.237   0.490 -0.0320 -0.2966 -0.1514
 1881SOL    HW117102   1.849   0.269   0.468  0.4228  0.6261 -0.6454
 1881SOL    HW217103   1.976   0.300   0.551  0.3164 -1.3568  0.7138
 1882SOL     OW17104   0.707   2.615  11.131  0.7402  0.3170  0.4175
 1882SOL    HW117105   0.762   2.556  11.182 -0.4939  0.4459  1.8977
 1882SOL    HW217106   0.712   2.696  11.182 -0.1849  0.2526  0.6005
 1883SOL     OW17107   2.661   1.881  16.889  0.1611  0.0745 -0.3607
 1883SOL    HW117108   2.669   1.952  16.825 -1.8216 -0.7204 -1.5136
 1883SOL    HW217109   2.605   1.926  16.952 -0.3003  1.0098 -1.4336
 1884SOL     OW17110   0.342   2.605   8.039 -0.2121  0.8666 -0.1167
 1884SOL    HW117111   0.365   2.665   7.968  1.2230 -1.3163 -1.5194
 1884SOL    HW217112   0.265   2.564   8.001  2.1856 -1.3345 -2.6866
 1885SOL     OW17113   2.151   1.905  14.463  0.1733 -0.3223  0.2613
 1885SOL    HW117114   2.119   1.955  14.538 -0.6293  1.2131 -1.0834
 1885SOL    HW217115   2.093   1.931  14.390  1.3984  1.5076 -0.0564
 1886SOL     OW17116   1.163   3.015   7.551  0.4217  0.4512 -0.0057
 1886SOL    HW117117   1.224   2.954   7.592  0.8172  2.3287  2.2121
 1886SOL    HW217118   1.097   3.006   7.620  1.2261  0.1107  0.7119
 1887SOL     OW17119   0.481   4.416  12.005 -0.0113 -0.8036  0.1934
 1887SOL    HW117120   0.576   4.416  11.990  0.2065 -1.3035  1.6185
 1887SOL    HW217121   0.467   4.321  12.004 -0.7176 -0.6965 -0.1740
 1888SOL     OW17122   1.231   1.278  11.393 -0.3355  0.0334 -0.4227
 1888SOL    HW117123   1.231   1.342  11.463 -1.5977  0.2667 -0.6461
 1888SOL    HW217124   1.258   1.341  11.326 -2.5018  1.3763 -0.0058
 1889SOL     OW17125   2.633   1.850  16.582  0.5593  0.3855  0.3552
 1889SOL    HW117126   2.698   1.915  16.606 -1.2408  1.6189  1.9386
 1889SOL    HW217127   2.634   1.855  16.487 -0.6934 -1.2439  0.2581
 1890SOL     OW17128   4.715   4.677  13.516 -0.2244  0.3206  0.4820
 1890SOL    HW117129   4.708   4.618  13.591  0.0529 -2.2971 -1.5336
 1890SOL    HW217130   4.690   0.039  13.552 -1.3855 -0.0009  0.4423
 1891SOL     OW17131   3.711   0.109  10.119  0.5860 -0.1400  0.3933
 1891SOL    HW117132   3.770   0.132  10.048 -0.2880 -1.5199 -0.7819
 1891SOL    HW217133   3.762   0.137  10.195  0.9036 -0.1262  0.1732
 1892SOL     OW17134   4.000   0.011   8.305 -0.6587 -0.3887 -0.3642
 1892SOL    HW117135   3.982   0.040   8.395 -1.7987 -0.2168 -0.6405
 1892SOL    HW217136   4.037   4.646   8.318 -0.0617  0.0110  0.6060
 1893SOL     OW17137   1.902   3.938   2.654 -0.1339 -0.3216 -0.4243
 1893SOL    HW117138   1.924   3.955   2.562 -0.2069  0.6298 -0.2631
 1893SOL    HW217139   1.847   3.860   2.649 -0.9509  0.2508 -0.3888
 1894SOL     OW17140   2.279   0.817   9.958 -0.3600  0.2221  0.5612
 1894SOL    HW117141   2.257   0.724   9.964 -0.4682  0.3874  2.7186
 1894SOL    HW217142   2.198   0.857   9.989 -2.9052 -2.9283 -2.0442
 1895SOL     OW17143   2.550   0.369   7.692 -0.1900  0.6753 -0.1575
 1895SOL    HW117144   2.465   0.347   7.730  1.7595 -3.1362  2.0062
 1895SOL    HW217145   2.551   0.465   7.695 -0.7766  0.6527  0.9906
 1896SOL     OW17146   4.334   1.164   5.496 -0.3702  0.3836 -0.0801
 1896SOL    HW117147   4.337   1.232   5.429  0.6069  0.0535 -0.3849
 1896SOL    HW217148   4.258   1.110   5.474 -1.8900  1.9260  1.4381
 1897SOL     OW17149   1.387   2.224  11.445  0.4528  0.0574  0.6734
 1897SOL    HW117150   1.473   2.230  11.488 -0.3731 -0.2382  2.3851
 1897SOL    HW217151   1.413   2.152  11.388 -1.3996  0.1683 -0.3064
 1898SOL     OW17152   0.967   2.394  16.793  0.0944 -0.0339  0.7714
 1898SOL    HW117153   0.982   2.300  16.798 -3.2322 -0.5703  1.0988
 1898SOL    HW217154   0.881   2.393  16.750  1.2505 -1.3171 -1.5350
 1899SOL     OW17155   3.860   3.061   1.354  0.4757  0.0426  0.6735
 1899SOL    HW117156   3.776   3.096   1.326  0.5370  2.3550  3.3835
 1899SOL    HW217157   3.924   3.131   1.341 -0.4555  0.4187 -1.8154
 1900SOL     OW17158   1.082   0.077  16.025  0.8634 -0.2134 -0.4049
 1900SOL    HW117159   1.039   0.142  16.081  0.0373 -1.1816  0.0862
 1900SOL    HW217160   1.154   0.060  16.087  1.6210 -2.6890 -1.9784
 1901SOL     OW17161   1.743   2.511   5.808  0.6141 -0.2326  0.3440
 1901SOL    HW117162   1.766   2.562   5.885 -1.6567  0.7394  0.3612
 1901SOL    HW217163   1.829   2.492   5.771  0.1345 -0.8367 -0.4705
 1902SOL     OW17164   4.637   3.453   2.560  0.3475  0.1134 -0.1717
 1902SOL    HW117165   4.627   3.511   2.636  0.6040 -2.5453  1.9140
 1902SOL    HW217166   4.644   3.369   2.606 -0.8734  0.5536  0.8133
 1903SOL     OW17167   1.933   1.482   0.933 -0.4218 -1.5438  0.3581
 1903SOL    HW117168   1.918   1.424   0.858  0.7127  0.4771 -1.4025
 1903SOL    HW217169   1.847   1.523   0.937  0.4074  0.2494 -0.1744
 1904SOL     OW17170   1.260   2.827  14.471  0.1046 -0.3294 -0.4513
 1904SOL    HW117171   1.230   2.878  14.397 -4.7394  0.0559  1.7838
 1904SOL    HW217172   1.307   2.756  14.426 -0.1805  0.5821 -2.1791
 1905SOL     OW17173   2.436   0.034   2.297  0.2935  0.2479  0.4537
 1905SOL    HW117174   2.498   4.696   2.256 -0.7150 -1.4553  1.4357
 1905SOL    HW217175   2.360   0.009   2.244 -0.9399  0.1870  2.2720
 1906SOL     OW17176   0.998   4.645   5.090  0.9081  0.4116  0.4219
 1906SOL    HW117177   0.931   4.600   5.038  0.7565  1.0328  0.0807
 1906SOL    HW217178   1.072   4.641   5.029  1.4626 -1.3255  1.2225
 1907SOL     OW17179   2.880   2.628  16.095  0.2010  0.1870  0.0702
 1907SOL    HW117180   2.814   2.559  16.083  0.2773  0.0972  0.1650
 1907SOL    HW217181   2.946   2.608  16.029 -1.8376 -1.0830 -1.6059
 1908SOL     OW17182   4.580   3.273   3.966 -0.2058 -0.3026 -0.3353
 1908SOL    HW117183   4.518   3.234   3.903 -0.6890  0.1604 -0.1399
 1908SOL    HW217184   4.518   3.300   4.033  0.9604 -0.3181  0.7328
 1909SOL     OW17185   1.643   1.294   8.668  0.7730  0.4785 -0.4269
 1909SOL    HW117186   1.708   1.286   8.738  2.1550  2.3496 -1.4903
 1909SOL    HW217187   1.688   1.327   8.590  0.6500 -0.0848 -0.7378
 1910SOL     OW17188   1.663   0.367  16.584  0.4395 -0.3712 -0.6672
 1910SOL    HW117189   1.696   0.306  16.518 -1.3530 -0.5507 -1.4132
 1910SOL    HW217190   1.591   0.315  16.621  1.3869 -0.7113  0.6764
 1911SOL     OW17191   3.513   2.380  17.347  0.1309 -0.0786 -0.1608
 1911SOL    HW117192   3.426   2.411  17.369 -0.3913 -1.9652  0.4581
 1911SOL    HW217193   3.502   2.285  17.352 -0.1005  0.0043  0.7998
 1912SOL     OW17194   0.918   4.366   6.184 -0.6935 -0.5171 -0.6280
 1912SOL    HW117195   0.944   4.428   6.252 -0.4062 -1.2804 -0.0307
 1912SOL    HW217196   0.837   4.326   6.216 -0.5305 -0.6044 -0.3193
 1913SOL     OW17197   0.496   1.939   6.399 -0.3375  0.0440  0.1446
 1913SOL    HW117198   0.587   1.911   6.393  0.3265  1.7215  2.2587
 1913SOL    HW217199   0.502   1.967   6.491  4.0147  0.5214 -0.2880
 1914SOL     OW17200   3.232   1.109   4.552  0.3713 -0.4215 -0.5756
 1914SOL    HW117201   3.173   1.148   4.488 -0.4863 -0.6026  0.0992
 1914SOL    HW217202   3.281   1.051   4.493 -0.7768 -1.6815 -0.3123
 1915SOL     OW17203   1.730   3.579  15.732  0.8570 -0.1574 -0.2957
 1915SOL    HW117204   1.748   3.671  15.749  0.5023 -0.0559 -0.4715
 1915SOL    HW217205   1.734   3.546  15.822  1.2054 -0.9923 -0.6114
 1916SOL     OW17206   0.571   4.656   0.422 -0.1571  0.2841 -0.1031
 1916SOL    HW117207   0.565   4.610   0.339 -1.6535 -0.5622  0.4728
 1916SOL    HW217208   0.660   4.636   0.452 -0.8602 -0.6164  1.3993
 1917SOL     OW17209   1.357   2.683   4.368  0.1676  0.2469  0.5848
 1917SOL    HW117210   1.327   2.774   4.369  0.7608  0.4595 -1.2458
 1917SOL    HW217211   1.274   2.640   4.347  0.7175 -2.2710  3.5422
 1918SOL     OW17212   1.172   2.127   8.599  0.0258 -0.4644 -0.4707
 1918SOL    HW117213   1.152   2.044   8.643 -2.0937 -0.1074 -0.7501
 1918SOL    HW217214   1.094   2.145   8.547 -0.2730  1.2333  0.5551
 1919SOL     OW17215   1.033   0.156   5.218  0.7486  0.0962 -0.0314
 1919SOL    HW117216   1.015   0.074   5.172 -1.3583  0.2631  0.4717
 1919SOL    HW217217   1.115   0.129   5.260  0.4246 -0.1428  0.4453
 1920SOL     OW17218   2.550   2.950   3.319  0.1640  0.2019 -0.0544
 1920SOL    HW117219   2.585   3.035   3.293 -1.3140  0.3222 -1.6513
 1920SOL    HW217220   2.477   2.966   3.378 -0.1836 -1.5126 -0.0193
 1921SOL     OW17221   2.840   1.496   9.839 -0.5417  0.0349 -0.6683
 1921SOL    HW117222   2.932   1.474   9.849 -0.4525  0.9914  0.5557
 1921SOL    HW217223   2.840   1.558   9.766  0.1828  0.7027 -0.0946
 1922SOL     OW17224   1.301   0.501   8.793 -0.0395 -0.3965 -0.3854
 1922SOL    HW117225   1.369   0.468   8.852  0.3212 -1.6042 -1.4905
 1922SOL    HW217226   1.257   0.421   8.766  1.3447 -1.7583  1.4305
 1923SOL     OW17227   3.911   2.803   4.472 -0.8068  0.0434  0.0333
 1923SOL    HW117228   3.933   2.823   4.563 -1.7113 -0.4182  0.3604
 1923SOL    HW217229   3.858   2.723   4.467  0.5981 -0.8785  0.0667
 1924SOL     OW17230   2.835   1.405   6.220 -0.0189 -0.6842  0.0905
 1924SOL    HW117231   2.780   1.397   6.297 -0.9632 -2.1781 -0.7294
 1924SOL    HW217232   2.805   1.489   6.186 -1.4036 -0.7544  1.1817
 1925SOL     OW17233   0.295   1.040  14.069  1.1406 -0.5960  0.1225
 1925SOL    HW117234   0.233   1.047  14.141  1.0623  0.4744 -0.0479
 1925SOL    HW217235   0.314   1.128  14.038 -0.2363 -1.2758 -2.7016
 1926SOL     OW17236   2.119   3.896  12.522  0.0582 -0.7166 -0.0836
 1926SOL    HW117237   2.047   3.917  12.462  0.5159  2.3480  0.4051
 1926SOL    HW217238   2.082   3.928  12.604  1.0838  0.6132 -0.1410
 1927SOL     OW17239   3.982   2.846   4.744  0.3274  0.0207  0.3441
 1927SOL    HW117240   3.967   2.839   4.839  1.7036 -1.4603  0.4486
 1927SOL    HW217241   4.077   2.829   4.745  0.4267  0.5564 -0.5619
 1928SOL     OW17242   0.856   2.772   4.074  0.0700 -0.3581  0.2407
 1928SOL    HW117243   0.865   2.690   4.025  1.9721 -0.1817  0.3136
 1928SOL    HW217244   0.899   2.755   4.157 -0.4888  0.8797  0.7762
 1929SOL     OW17245   3.131   3.283  16.376  0.1775  0.0803  0.8360
 1929SOL    HW117246   3.107   3.192  16.393 -1.0583  0.5131  1.4649
 1929SOL    HW217247   3.062   3.332  16.420  0.4085 -0.7265  2.1109
 1930SOL     OW17248   1.469   1.450   0.698 -0.3249  1.0187  0.0094
 1930SOL    HW117249   1.553   1.480   0.664 -0.5390  0.9093 -0.6131
 1930SOL    HW217250   1.427   1.404   0.625 -0.0069  2.6765 -1.2038
 1931SOL     OW17251   2.060   2.901   7.563 -0.2037 -0.3486 -0.9234
 1931SOL    HW117252   1.978   2.951   7.569  0.3168  0.2721  1.2407
 1931SOL    HW217253   2.068   2.896   7.468  0.4192 -0.9688 -0.8353
 1932SOL     OW17254   2.712   3.397   9.110  0.3065 -0.3569  0.1820
 1932SOL    HW117255   2.622   3.429   9.103  0.9323  0.9079 -2.0617
 1932SOL    HW217256   2.714   3.339   9.186 -0.5137  1.0737  1.3136
 1933SOL     OW17257   1.536   0.178   4.641 -0.0729 -0.1259 -0.1359
 1933SOL    HW117258   1.484   0.250   4.604  0.7055  0.1120 -0.7823
 1933SOL    HW217259   1.621   0.215   4.618  0.3773 -1.0150  0.0895
 1934SOL     OW17260   2.808   0.374   2.110 -0.2667  0.2508 -0.5639
 1934SOL    HW117261   2.736   0.357   2.170 -0.1537 -1.3612 -0.8751
 1934SOL    HW217262   2.780   0.314   2.040  0.1536  0.4098 -0.8725
 1935SOL     OW17263   3.197   3.995  16.187 -0.2597  0.2509  0.2434
 1935SOL    HW117264   3.148   3.996  16.269 -1.4676 -1.6213 -0.4606
 1935SOL    HW217265   3.165   3.917  16.142  0.8679  0.2291 -0.5333
 1936SOL     OW17266   2.574   2.374   6.784  0.2216  0.2155 -0.1442
 1936SOL    HW117267   2.520   2.452   6.795 -0.0298 -0.0779  0.7110
 1936SOL    HW217268   2.662   2.402   6.809  1.2584 -1.6115 -1.7389
 1937SOL     OW17269   4.557   3.139   6.634 -0.3522  0.1111  0.0506
 1937SOL    HW117270   4.516   3.207   6.581  0.4533  0.4037 -0.2003
 1937SOL    HW217271   4.643   3.144   6.592 -0.9406  1.0765 -1.0531
 1938SOL     OW17272   2.382   3.677  12.102 -0.5709 -0.3662 -0.1735
 1938SOL    HW117273   2.365   3.669  12.008  2.0574 -0.5081 -0.6384
 1938SOL    HW217274   2.374   3.772  12.114 -2.8916 -0.5921  0.0253
 1939SOL     OW17275   2.571   2.863   3.589  0.9185  0.1136  0.4047
 1939SOL    HW117276   2.527   2.779   3.603  0.0408  0.2802 -1.4189
 1939SOL    HW217277   2.496   2.915   3.562  0.5171 -0.8889 -0.4057
 1940SOL     OW17278   2.745   0.507  17.579 -0.2066 -0.1363  0.6744
 1940SOL    HW117279   2.741   0.571  17.508  1.0573 -2.1104 -1.1901
 1940SOL    HW217280   2.728   0.420  17.543 -0.3968 -0.5106  1.6731
 1941SOL     OW17281   4.385   1.899   7.928 -0.7510 -0.0764 -0.3940
 1941SOL    HW117282   4.299   1.868   7.958  1.3421 -3.5399  2.0592
 1941SOL    HW217283   4.436   1.910   8.008 -2.1595  1.3864  0.2975
 1942SOL     OW17284   1.154   3.630   7.233  0.4219  0.1734 -0.0169
 1942SOL    HW117285   1.211   3.617   7.156 -0.4198 -0.0582 -0.6004
 1942SOL    HW217286   1.220   3.641   7.302  0.6726 -1.9011  0.0743
 1943SOL     OW17287   1.008   1.657  14.702 -0.2179  0.1420  0.5503
 1943SOL    HW117288   1.005   1.744  14.743  1.5088  0.1192  0.7145
 1943SOL    HW217289   0.915   1.638  14.690 -0.3624  2.6208 -2.2946
 1944SOL     OW17290   0.497   0.983   8.139  0.0782 -0.4520  0.2850
 1944SOL    HW117291   0.462   1.059   8.185 -1.2394  0.3153 -1.9721
 1944SOL    HW217292   0.420   0.935   8.106  1.5576 -1.3796 -1.7961
 1945SOL     OW17293   1.022   4.197   4.756 -0.0343  0.1288 -0.0581
 1945SOL    HW117294   1.061   4.201   4.843  0.8089  0.6409 -0.4679
 1945SOL    HW217295   1.021   4.291   4.737 -2.0620 -0.3227 -2.2030
 1946SOL     OW17296   2.838   4.578   7.420  0.1174 -0.3582  0.3645
 1946SOL    HW117297   2.931   4.563   7.437 -0.1007 -0.7719  1.2318
 1946SOL    HW217298   2.819   4.525   7.343 -1.2333 -0.0188  0.4743
 1947SOL     OW17299   4.080   1.500   0.262 -0.5037  0.3603  0.0384
 1947SOL    HW117300   4.048   1.434   0.324 -0.3982  0.9687  0.7457
 1947SOL    HW217301   4.043   1.465   0.181  0.5335 -2.9536  1.0014
 1948SOL     OW17302   1.436   0.388   5.472  0.4478  0.4559  0.3336
 1948SOL    HW117303   1.524   0.426   5.477  0.6111  0.0248  0.6995
 1948SOL    HW217304   1.428   0.345   5.387 -3.5864 -1.3724  1.6768
 1949SOL     OW17305   3.659   0.401   8.896 -0.3932 -0.2615 -0.8153
 1949SOL    HW117306   3.728   0.451   8.940  0.9268 -1.5944 -1.3720
 1949SOL    HW217307   3.593   0.394   8.965 -0.5176 -2.8420 -1.1990
 1950SOL     OW17308   2.118   0.205   3.668 -0.0243  0.1525 -0.1418
 1950SOL    HW117309   2.147   0.245   3.586 -0.6616 -0.6841 -0.7826
 1950SOL    HW217310   2.147   0.114   3.655 -1.0411 -0.2989  0.7564
 1951SOL     OW17311   4.586   4.333   6.427  0.8506 -0.2762 -0.5488
 1951SOL    HW117312   4.525   4.362   6.496  0.3404 -3.0440  0.1880
 1951SOL    HW217313   4.604   4.411   6.376 -0.9378  0.1347 -0.5382
 1952SOL     OW17314   3.074   1.469   6.119 -0.7133  0.0328 -0.4978
 1952SOL    HW117315   2.996   1.423   6.149 -0.2618  0.2748  1.0476
 1952SOL    HW217316   3.087   1.538   6.184 -0.7463 -0.9329  0.5305
 1953SOL     OW17317   3.558   1.722   5.722  0.3502 -0.0499  0.5798
 1953SOL    HW117318   3.593   1.645   5.677 -0.3019 -0.5714  0.9653
 1953SOL    HW217319   3.469   1.690   5.740  1.1803 -1.4444  2.1713
 1954SOL     OW17320   4.474   4.575  13.754  0.2839 -0.4377  0.3440
 1954SOL    HW117321   4.489   4.584  13.848 -0.2959 -0.6245  0.4575
 1954SOL    HW217322   4.399   4.633  13.738  1.5351  0.8562 -0.7900
 1955SOL     OW17323   2.771   2.265   4.080 -0.1347 -0.0141  0.3308
 1955SOL    HW117324   2.709   2.223   4.140 -0.0820 -0.6228 -0.0415
 1955SOL    HW217325   2.850   2.218   4.106 -0.5858 -0.3699  1.0640
 1956SOL     OW17326   3.308   3.869  11.283 -0.2568 -0.4712  0.6407
 1956SOL    HW117327   3.400   3.854  11.305 -0.7492 -0.7664  2.4444
 1956SOL    HW217328   3.255   3.800  11.322  1.3590 -1.9222  0.2921
 1957SOL     OW17329   3.911   0.225  15.243 -0.2914  0.1757 -0.4374
 1957SOL    HW117330   3.833   0.204  15.192  0.6578 -1.5731 -1.1767
 1957SOL    HW217331   3.907   0.175  15.325  0.1310 -0.9564 -1.1024
 1958SOL     OW17332   0.643   2.681   6.818  0.1265 -0.2498 -0.3997
 1958SOL    HW117333   0.580   2.723   6.759  0.9575 -0.9797 -1.8197
 1958SOL    HW217334   0.657   2.757   6.873  0.9276  0.8793 -2.1685
 1959SOL     OW17335   2.834   1.175   4.683  0.2551 -0.1746 -0.1407
 1959SOL    HW117336   2.929   1.167   4.694  0.4757 -0.5355 -2.3564
 1959SOL    HW217337   2.809   1.089   4.717 -1.3156  0.2536 -0.2241
 1960SOL     OW17338   2.516   3.817  11.544 -0.6009  0.2169  0.0338
 1960SOL    HW117339   2.607   3.798  11.520 -0.2545  1.0934  0.6677
 1960SOL    HW217340   2.531   3.901  11.587 -0.6255  0.5953 -0.6952
 1961SOL     OW17341   4.464   3.349  16.953  0.0861 -0.2450 -0.1791
 1961SOL    HW117342   4.499   3.367  17.040 -0.3987 -3.8898  0.7477
 1961SOL    HW217343   4.517   3.276  16.922  0.0520 -0.7563  0.9805
 1962SOL     OW17344   3.626   2.551   0.666 -0.2741 -0.5762 -0.1003
 1962SOL    HW117345   3.634   2.578   0.758  2.3405  0.3299 -0.6206
 1962SOL    HW217346   3.700   2.588   0.619 -0.0138 -0.7284  0.1870
 1963SOL     OW17347   0.855   2.009   4.148  0.4417  0.0118  0.2079
 1963SOL    HW117348   0.773   1.977   4.109  1.3063  0.6548 -2.1388
 1963SOL    HW217349   0.912   1.940   4.114 -1.3792 -0.8255 -1.1906
 1964SOL     OW17350   4.164   1.762   4.133  0.4156  0.4561  0.4785
 1964SOL    HW117351   4.248   1.734   4.098 -0.9137 -0.3359 -2.0708
 1964SOL    HW217352   4.109   1.703   4.081  1.0467 -2.0639  2.6807
 1965SOL     OW17353   0.990   1.151   7.040  0.2714  0.1846 -0.0609
 1965SOL    HW117354   1.053   1.152   7.112  0.5459  0.8492 -0.3106
 1965SOL    HW217355   1.052   1.171   6.971  0.3604  0.1739  0.0156
 1966SOL     OW17356   0.294   1.755   0.474  0.2015 -0.0405 -0.1735
 1966SOL    HW117357   0.327   1.820   0.536 -1.2167  0.8388 -0.3435
 1966SOL    HW217358   0.229   1.701   0.519 -1.1913  1.6090 -0.2274
 1967SOL     OW17359   1.750   4.131   2.795  0.1567 -0.4337  0.0077
 1967SOL    HW117360   1.794   4.048   2.779  1.9207  0.5434 -0.2491
 1967SOL    HW217361   1.705   4.150   2.713  1.0480 -1.0039 -0.6048
 1968SOL     OW17362   2.228   4.688   2.722  0.2225  0.5151 -0.2868
 1968SOL    HW117363   2.308   0.008   2.691  0.9925 -1.1700 -0.6712
 1968SOL    HW217364   2.162   4.706   2.656 -0.8184 -0.1398  0.5651
 1969SOL     OW17365   4.580   2.570   9.083  0.3756  0.1374 -0.3101
 1969SOL    HW117366   4.607   2.615   9.163 -1.5480  1.4585 -0.4174
 1969SOL    HW217367   4.638   2.595   9.012  1.3043 -1.1919 -0.0184
 1970SOL     OW17368   1.058   4.142   3.083  0.4064  0.0352  0.5063
 1970SOL    HW117369   1.036   4.050   3.075  1.1888 -0.2064  1.0833
 1970SOL    HW217370   1.112   4.144   3.004 -1.3365  2.5794 -0.6184
 1971SOL     OW17371   4.547   4.610   7.849 -0.1922 -0.2103  0.2708
 1971SOL    HW117372   4.590   4.562   7.778 -0.6102  0.3116 -0.3446
 1971SOL    HW217373   4.567   4.552   7.922 -0.9666 -1.2761 -0.3501
 1972SOL     OW17374   1.291   1.087   8.199  0.2047 -0.1382  0.4154
 1972SOL    HW117375   1.268   1.119   8.112  0.2506 -1.6476 -0.1549
 1972SOL    HW217376   1.355   1.019   8.180 -1.1740 -1.1016 -0.8337
 1973SOL     OW17377   3.403   4.312  16.285 -0.0467  0.3516  0.0617
 1973SOL    HW117378   3.441   4.399  16.271 -2.2044  1.1228 -1.0260
 1973SOL    HW217379   3.312   4.336  16.300 -0.2629 -0.5458  0.1375
 1974SOL     OW17380   2.838   4.617  12.672 -0.6446 -0.1647 -0.5697
 1974SOL    HW117381   2.908   4.554  12.687 -0.2071  0.7364  1.1419
 1974SOL    HW217382   2.780   4.610  12.748 -0.2257  0.4433 -0.1980
 1975SOL     OW17383   3.651   4.704   3.838 -0.7247 -0.0052 -0.2502
 1975SOL    HW117384   3.739   4.669   3.855 -1.5293 -1.2504  1.2955
 1975SOL    HW217385   3.631   4.662   3.755 -1.6106 -0.6415  0.2923
 1976SOL     OW17386   1.871   3.970   1.122 -0.0850  0.4385 -0.3010
 1976SOL    HW117387   1.901   3.879   1.131 -0.7771  0.4679  2.2852
 1976SOL    HW217388   1.956   4.012   1.135 -0.5912  1.3557  0.0577
 1977SOL     OW17389   4.343   4.680  14.006 -0.2876  0.4952 -0.5643
 1977SOL    HW117390   4.371   4.708  14.093 -0.8291 -2.6933  0.6575
 1977SOL    HW217391   4.392   0.017  13.950  1.0386  1.0172  1.1763
 1978SOL     OW17392   1.431   1.293  17.087 -0.5215 -0.4892  0.0353
 1978SOL    HW117393   1.372   1.363  17.114 -0.5475 -0.2507 -0.6344
 1978SOL    HW217394   1.393   1.219  17.134  2.7349 -0.8294  2.1395
 1979SOL     OW17395   2.762   2.014   3.111  0.4002  0.3386 -0.0020
 1979SOL    HW117396   2.747   2.048   3.023 -2.5517 -0.5488  0.1592
 1979SOL    HW217397   2.759   1.920   3.096 -0.3448  0.6936 -2.0214
 1980SOL     OW17398   2.584   2.110   8.343 -0.2582  0.1630 -0.1627
 1980SOL    HW117399   2.505   2.058   8.329  0.1814 -0.2488 -1.1101
 1980SOL    HW217400   2.585   2.140   8.434  1.7798  0.8904 -0.4097
 1981SOL     OW17401   3.035   0.284  11.648 -0.1261  1.0344  0.0284
 1981SOL    HW117402   2.986   0.344  11.704 -0.9517 -0.8809  1.3529
 1981SOL    HW217403   2.966   0.257  11.587  1.3014  1.6052 -1.8729
 1982SOL     OW17404   3.265   1.018   2.858  0.3269 -0.6491  0.5806
 1982SOL    HW117405   3.304   0.999   2.773  0.8404 -3.1342  1.3918
 1982SOL    HW217406   3.172   1.014   2.837  0.9481  0.3939 -2.3783
 1983SOL     OW17407   2.557   2.671  10.795  0.1999 -0.0098 -0.3266
 1983SOL    HW117408   2.493   2.636  10.732 -0.7203 -1.9019  1.6490
 1983SOL    HW217409   2.596   2.589  10.824  0.1160  0.1647  0.2796
 1984SOL     OW17410   2.305   0.011   5.688 -0.4106  0.3053 -0.6691
 1984SOL    HW117411   2.211   4.714   5.683 -0.4165  0.2068 -0.0734
 1984SOL    HW217412   2.316   0.059   5.605 -0.6566  0.1011 -0.8221
 1985SOL     OW17413   2.736   2.706   5.776 -0.5929 -0.3958  0.3016
 1985SOL    HW117414   2.793   2.781   5.788  0.4777 -0.7953 -2.2955
 1985SOL    HW217415   2.649   2.746   5.784  0.2998  1.8993 -1.6530
 1986SOL     OW17416   3.164   3.025  17.497 -0.1627  0.4608 -0.8481
 1986SOL    HW117417   3.238   3.078  17.527  0.4744 -1.9172  1.7763
 1986SOL    HW217418   3.210   2.970  17.434  1.1472  2.0062 -1.2286
 1987SOL     OW17419   0.777   0.971   8.350 -0.1303 -0.3416 -0.2293
 1987SOL    HW117420   0.840   1.027   8.305 -0.6142  1.6807  1.6401
 1987SOL    HW217421   0.708   0.971   8.284 -0.4171  0.4792  0.0721
 1988SOL     OW17422   2.576   0.621   5.830  0.0393 -0.0016 -0.0412
 1988SOL    HW117423   2.488   0.640   5.863  0.2226  0.2309  0.3203
 1988SOL    HW217424   2.555   0.529   5.814  0.0236  0.0460 -0.2794
 1989SOL     OW17425   4.585   3.256  14.788 -0.2535  0.0659 -0.6248
 1989SOL    HW117426   4.634   3.325  14.744 -0.2855  0.8320  0.5334
 1989SOL    HW217427   4.490   3.267  14.785 -0.4349 -1.0024  1.0790
 1990SOL     OW17428   1.379   3.504   3.892 -0.2304  0.6926  0.1895
 1990SOL    HW117429   1.403   3.416   3.865 -0.5975  0.8699 -0.7022
 1990SOL    HW217430   1.298   3.512   3.842  1.6128  0.3099 -2.8188
 1991SOL     OW17431   4.104   0.135   6.552  0.0890 -0.0188  0.0609
 1991SOL    HW117432   4.196   0.111   6.537  0.2454  0.4975  0.2074
 1991SOL    HW217433   4.064   0.085   6.480 -0.1199  0.2339  0.0025
 1992SOL     OW17434   3.443   0.586  16.737 -0.3970  0.0338  0.5873
 1992SOL    HW117435   3.394   0.572  16.817 -0.6724 -0.0236  0.4082
 1992SOL    HW217436   3.531   0.555  16.760 -0.0203  0.0764 -0.8038
 1993SOL     OW17437   4.382   0.026   1.985  0.7029  0.0418  0.2513
 1993SOL    HW117438   4.473   0.024   1.954 -0.1820  1.2997 -2.3447
 1993SOL    HW217439   4.373   0.119   2.007 -0.4145  0.0026 -0.0775
 1994SOL     OW17440   0.336   3.171   4.266  0.0661  0.7770  0.4940
 1994SOL    HW117441   0.422   3.181   4.225  0.5523 -0.6748  1.1685
 1994SOL    HW217442   0.312   3.081   4.243 -0.8364  0.7297  1.6331
 1995SOL     OW17443   2.810   2.908   7.848 -0.0403  0.6414  0.4878
 1995SOL    HW117444   2.846   2.897   7.936 -1.4231  3.7488  1.4320
 1995SOL    HW217445   2.832   2.823   7.809 -1.8136 -0.8723  2.7886
 1996SOL     OW17446   1.754   1.741   5.775 -0.2709 -0.5555  0.6850
 1996SOL    HW117447   1.825   1.776   5.720 -0.1194  2.1208  2.5854
 1996SOL    HW217448   1.794   1.703   5.853 -0.3365 -0.4591  0.7655
 1997SOL     OW17449   0.673   2.730  10.883  0.0265  0.2543  0.3792
 1997SOL    HW117450   0.621   2.806  10.910 -0.6708 -0.2253  0.3980
 1997SOL    HW217451   0.684   2.687  10.968 -3.0477 -0.8474  0.2334
 1998SOL     OW17452   1.209   0.356   7.375  0.1945 -0.5002 -0.2861
 1998SOL    HW117453   1.239   0.441   7.405 -3.5386  0.2494  1.3900
 1998SOL    HW217454   1.117   0.353   7.404  0.3280  0.8880  0.2452
 1999SOL     OW17455   4.262   3.057   2.782  0.3733 -0.4635 -0.0712
 1999SOL    HW117456   4.357   3.045   2.776  0.5695  1.9762 -1.7387
 1999SOL    HW217457   4.230   3.031   2.869 -0.3872 -0.9190 -0.4944
 2000SOL     OW17458   2.838   0.584   2.641  0.3573 -0.2647 -0.1827
 2000SOL    HW117459   2.748   0.568   2.670  0.6598 -0.6244  0.5598
 2000SOL    HW217460   2.823   0.542   2.556 -1.2046 -0.5644  0.2326
 2001SOL     OW17461   4.388   0.253   3.270  0.0828 -0.1554  0.1206
 2001SOL    HW117462   4.432   0.269   3.354  0.1443 -0.8552  0.2226
 2001SOL    HW217463   4.388   0.338   3.226 -1.6941 -0.4921 -0.5378
 2002SOL     OW17464   2.003   3.599   7.886  0.3763  0.3995  0.8425
 2002SOL    HW117465   2.040   3.684   7.910 -0.3399  0.3924  1.9586
 2002SOL    HW217466   2.033   3.541   7.956  0.0860 -0.2832  0.3990
 2003SOL     OW17467   3.815   4.003   6.942  0.2895  0.4034 -0.2923
 2003SOL    HW117468   3.810   4.095   6.970  1.1157  0.0830  0.9068
 2003SOL    HW217469   3.739   3.974   6.992  0.5090  0.1534 -0.1123
 2004SOL     OW17470   2.436   2.709   2.984 -0.0054  0.0192 -0.3778
 2004SOL    HW117471   2.397   2.658   3.055  2.3786 -1.7933 -0.3612
 2004SOL    HW217472   2.493   2.773   3.027  1.0050 -0.5257 -0.9028
 2005SOL     OW17473   1.492   3.266   0.110 -0.0919 -0.1193  0.5475
 2005SOL    HW117474   1.495   3.178   0.149 -1.2307  0.7449  2.5756
 2005SOL    HW217475   1.425   3.308   0.164 -2.9257 -1.2414 -2.1455
 2006SOL     OW17476   0.145   2.865   7.995  0.0389  0.0077  0.1280
 2006SOL    HW117477   0.093   2.784   8.003 -0.9048  0.7290  1.3919
 2006SOL    HW217478   0.231   2.834   7.970 -0.1542 -1.3623  1.1213
 2007SOL     OW17479   2.909   2.863   8.121  0.1702 -0.1477  0.3417
 2007SOL    HW117480   2.850   2.889   8.192 -0.0435  0.0167  0.1082
 2007SOL    HW217481   2.923   2.773   8.149  1.7945 -0.2290 -0.7411
 2008SOL     OW17482   0.293   4.166   7.277 -0.1529  0.0238 -0.5420
 2008SOL    HW117483   0.284   4.103   7.348  0.7033  0.4881 -0.0025
 2008SOL    HW217484   0.240   4.114   7.218 -2.3050  0.2519  1.2152
 2009SOL     OW17485   1.402   1.145   8.711  0.0105  0.2782 -0.3598
 2009SOL    HW117486   1.474   1.205   8.692 -1.7145  2.3341 -0.4068
 2009SOL    HW217487   1.371   1.138   8.621  2.2275 -0.7648 -1.0428
 2010SOL     OW17488   3.857   1.422   8.356 -0.4009  0.5836  0.7763
 2010SOL    HW117489   3.856   1.368   8.435 -1.1543  0.5357  0.7406
 2010SOL    HW217490   3.897   1.507   8.376  0.4439  0.3107  0.2371
 2011SOL     OW17491   0.735   1.573   3.903 -0.4387  0.3689  0.1844
 2011SOL    HW117492   0.758   1.489   3.865  0.4721  1.1573 -1.0242
 2011SOL    HW217493   0.762   1.553   3.992  1.7105  1.6105 -0.1737
 2012SOL     OW17494   3.274   0.868   9.787 -0.1380 -0.0446 -0.4401
 2012SOL    HW117495   3.217   0.792   9.773  0.4131 -0.9044  1.9133
 2012SOL    HW217496   3.204   0.932   9.800  1.0704  1.6195 -2.1963
 2013SOL     OW17497   2.848   2.553   7.494  0.1453 -0.4407  0.1581
 2013SOL    HW117498   2.813   2.469   7.522 -1.7621  0.9777  2.0591
 2013SOL    HW217499   2.805   2.572   7.411 -3.3156 -1.0648  1.8206
 2014SOL     OW17500   2.937   0.589   8.409  0.3955  0.9829 -0.4544
 2014SOL    HW117501   2.889   0.623   8.333 -1.9210  1.2976  1.1778
 2014SOL    HW217502   3.028   0.578   8.380  1.3458 -2.6561  3.9231
 2015SOL     OW17503   3.308   2.822  16.253  0.1999  0.0691 -0.4661
 2015SOL    HW117504   3.256   2.748  16.284 -0.2418 -1.8335 -5.7313
 2015SOL    HW217505   3.288   2.813  16.160  1.4286  2.9865 -1.0148
 2016SOL     OW17506   3.636   3.594   2.907  0.0880  0.3709 -0.2284
 2016SOL    HW117507   3.694   3.630   2.973  0.8128 -4.0186  1.5303
 2016SOL    HW217508   3.681   3.513   2.881 -0.0223 -0.0396  0.8739
 2017SOL     OW17509   4.644   0.568  15.719 -0.4677  0.2359 -0.3159
 2017SOL    HW117510   4.712   0.502  15.703 -1.2647  0.0782 -3.1832
 2017SOL    HW217511   4.606   0.587  15.633  1.6825  0.5933 -1.1853
 2018SOL     OW17512   1.736   2.493   2.792 -0.2064  0.0162 -0.0578
 2018SOL    HW117513   1.711   2.401   2.795  0.8585 -0.3083 -0.9442
 2018SOL    HW217514   1.805   2.497   2.858 -1.0913 -0.4280  0.8940
 2019SOL     OW17515   0.998   4.245  16.724 -0.1455 -0.0431 -1.0905
 2019SOL    HW117516   1.016   4.254  16.818  1.1124 -0.8960 -1.2562
 2019SOL    HW217517   1.080   4.254  16.675 -0.8824  1.8160 -1.9542
 2020SOL     OW17518   0.399   1.986   5.490  0.1040  0.3945  0.1275
 2020SOL    HW117519   0.386   1.892   5.503 -1.3233  0.9901  2.9814
 2020SOL    HW217520   0.490   1.997   5.517 -0.5421 -0.4705  2.6627
 2021SOL     OW17521   1.626   1.724   4.595  0.3773  0.5330  0.0022
 2021SOL    HW117522   1.695   1.664   4.564  1.1268  0.8233  1.1067
 2021SOL    HW217523   1.545   1.690   4.556  0.7388 -2.1746  1.6076
 2022SOL     OW17524   4.139   1.406   4.483  0.5263 -0.8440  0.6966
 2022SOL    HW117525   4.163   1.497   4.501  2.0445 -0.9421 -0.8086
 2022SOL    HW217526   4.221   1.371   4.448 -0.4505 -0.4909 -1.9836
 2023SOL     OW17527   1.916   3.351   7.410  0.2130  0.2088 -0.1061
 2023SOL    HW117528   1.886   3.260   7.403  2.1512 -0.5282  0.8935
 2023SOL    HW217529   1.911   3.367   7.505 -1.8332  0.0678 -0.1955
 2024SOL     OW17530   2.814   2.519   6.463  0.2765  0.0641  0.3043
 2024SOL    HW117531   2.863   2.537   6.543  2.1287 -1.1075 -0.5845
 2024SOL    HW217532   2.739   2.576   6.482 -0.0933  0.1241 -1.3033
 2025SOL     OW17533   2.258   4.038  11.456 -0.3450  0.4584 -0.0527
 2025SOL    HW117534   2.301   3.996  11.381  0.9209  2.8938 -0.7045
 2025SOL    HW217535   2.236   3.962  11.510  0.6394 -0.9585 -1.6521
 2026SOL     OW17536   1.847   3.500   3.003  0.3412  0.2803 -0.1395
 2026SOL    HW117537   1.764   3.480   2.960  1.4174 -0.1660 -1.9804
 2026SOL    HW217538   1.827   3.547   3.084  1.1168  2.1002 -1.0034
 2027SOL     OW17539   0.350   1.038  15.653  0.2950 -0.5184  0.0446
 2027SOL    HW117540   0.365   0.958  15.602 -0.0227 -0.6095  0.0969
 2027SOL    HW217541   0.260   1.070  15.649  0.9125  1.1096 -0.7313
 2028SOL     OW17542   4.297   3.008   5.568  0.3399  0.1968 -0.9157
 2028SOL    HW117543   4.303   2.928   5.517 -0.8704 -1.0310  0.8353
 2028SOL    HW217544   4.321   3.069   5.499 -1.0365  0.3845 -1.2417
 2029SOL     OW17545   2.227   3.904  12.038  0.5314 -0.4352 -0.0197
 2029SOL    HW117546   2.203   3.868  11.953 -1.0929  0.1760  0.1693
 2029SOL    HW217547   2.242   3.992  12.007  0.1577 -0.9846 -1.7401
 2030SOL     OW17548   1.684   2.833   2.387 -0.2802  0.1921 -0.5008
 2030SOL    HW117549   1.643   2.865   2.467  0.3910 -0.6402  0.1814
 2030SOL    HW217550   1.693   2.739   2.405  0.9222 -0.1039 -2.6236
 2031SOL     OW17551   2.671   2.266  15.445  0.1684 -0.1474  0.7457
 2031SOL    HW117552   2.644   2.220  15.366 -0.5305  1.8511 -0.1781
 2031SOL    HW217553   2.659   2.357  15.417 -1.3348 -0.5236  0.1538
 2032SOL     OW17554   3.379   3.728   9.885 -0.3509 -0.6179 -0.5164
 2032SOL    HW117555   3.363   3.813   9.924  2.0212  0.1014 -1.0977
 2032SOL    HW217556   3.378   3.666   9.958  0.4563  1.4014  1.1816
 2033SOL     OW17557   0.783   3.275   8.720 -0.3898  0.6200  0.3724
 2033SOL    HW117558   0.728   3.297   8.645 -0.4983  0.5205  0.4225
 2033SOL    HW217559   0.767   3.355   8.770  1.5540  0.5895  1.0457
 2034SOL     OW17560   4.066   4.388   0.598  0.3022 -0.2084 -0.0597
 2034SOL    HW117561   4.085   4.305   0.554  0.2396  0.8286 -2.0643
 2034SOL    HW217562   4.143   4.397   0.653  1.2731 -1.7017 -1.1947
 2035SOL     OW17563   3.779   3.842   2.719  0.6082 -0.6474 -0.0602
 2035SOL    HW117564   3.791   3.925   2.767 -0.0481 -1.9141  2.2838
 2035SOL    HW217565   3.806   3.878   2.634 -1.2318  0.5227 -0.1434
 2036SOL     OW17566   1.262   2.683  16.109  0.2951  0.7910 -0.2928
 2036SOL    HW117567   1.356   2.687  16.094  0.7146 -3.6480  1.2187
 2036SOL    HW217568   1.246   2.623  16.182 -0.5157  1.1430 -0.1814
 2037SOL     OW17569   2.546   3.862  16.268 -0.3498 -0.0494  0.0706
 2037SOL    HW117570   2.472   3.802  16.269  0.0181 -0.5483 -2.2694
 2037SOL    HW217571   2.556   3.888  16.360  1.3516  0.2980 -0.2195
 2038SOL     OW17572   3.700   1.825   5.504  0.0575 -0.0932  0.0080
 2038SOL    HW117573   3.639   1.810   5.576 -1.0561 -1.0045 -1.1223
 2038SOL    HW217574   3.651   1.898   5.467 -1.3713 -1.5662 -1.0301
 2039SOL     OW17575   2.779   2.314   5.358 -0.5397  0.1199 -0.4647
 2039SOL    HW117576   2.821   2.351   5.280  1.9043 -1.7530 -0.0285
 2039SOL    HW217577   2.742   2.393   5.396 -0.9562 -1.0167  1.4787
 2040SOL     OW17578   0.254   3.792   2.837 -0.1703  0.9846  0.0202
 2040SOL    HW117579   0.258   3.802   2.932  0.9996 -1.6255  0.2484
 2040SOL    HW217580   0.304   3.869   2.808  0.1271  0.4433 -0.9136
 2041SOL     OW17581   3.999   2.388   4.413 -0.0266  0.0204 -0.1302
 2041SOL    HW117582   3.988   2.327   4.340 -0.0170 -0.5052  0.3067
 2041SOL    HW217583   4.078   2.433   4.381 -0.5038  0.5676 -0.5403
 2042SOL     OW17584   1.083   1.666  10.953 -0.0909 -0.3573 -0.4225
 2042SOL    HW117585   1.012   1.642  10.893 -1.9078  0.6409  1.3346
 2042SOL    HW217586   1.121   1.739  10.903  0.7581 -0.6052 -0.1294
 2043SOL     OW17587   2.831   3.373   2.666 -0.0551 -0.1308  0.3252
 2043SOL    HW117588   2.794   3.457   2.638 -0.7997 -0.2929  0.8258
 2043SOL    HW217589   2.871   3.391   2.751 -1.6772 -2.6721  1.6137
 2044SOL     OW17590   2.950   2.579   6.672  0.2968  0.2569 -0.1037
 2044SOL    HW117591   2.920   2.662   6.710  0.2661  0.3408 -0.3073
 2044SOL    HW217592   3.037   2.572   6.710 -0.6830  1.3533  2.3315
 2045SOL     OW17593   3.356   1.866   2.595 -0.2137  0.0194  0.7346
 2045SOL    HW117594   3.351   1.815   2.514 -0.7116  0.6689  0.3606
 2045SOL    HW217595   3.366   1.791   2.654 -0.1004 -1.6890 -1.4771
 2046SOL     OW17596   4.367   3.411   8.664  0.7831 -0.5611 -0.4744
 2046SOL    HW117597   4.428   3.369   8.725  1.2333 -0.0902 -0.6012
 2046SOL    HW217598   4.326   3.471   8.726  2.5761  1.0493 -0.8499
 2047SOL     OW17599   2.199   4.170   7.538 -0.3253 -0.0108  0.4775
 2047SOL    HW117600   2.118   4.217   7.514  0.1881  0.8089  0.3456
 2047SOL    HW217601   2.191   4.143   7.629  0.9211 -0.8052  0.3429
 2048SOL     OW17602   2.091   1.057  16.080 -0.0556 -0.6636 -0.6577
 2048SOL    HW117603   2.152   1.009  16.023  0.1223 -2.2076  0.8391
 2048SOL    HW217604   2.010   1.021  16.044 -1.0058  0.3995  0.4420
 2049SOL     OW17605   2.920   3.178   3.297 -0.1768 -0.7822  0.5633
 2049SOL    HW117606   2.827   3.195   3.307 -0.5001 -2.3605  0.1925
 2049SOL    HW217607   2.959   3.244   3.355 -0.9670  1.0169 -0.9628
 2050SOL     OW17608   4.289   2.191   2.178  0.4299 -0.1846  0.1956
 2050SOL    HW117609   4.319   2.102   2.194 -0.3472 -0.8664 -2.1598
 2050SOL    HW217610   4.339   2.222   2.102  0.4449  0.9099  0.6459
 2051SOL     OW17611   4.345   0.681  10.034  0.0530 -0.2398  0.2167
 2051SOL    HW117612   4.361   0.766  10.075 -0.9294  0.6429 -1.2307
 2051SOL    HW217613   4.425   0.632  10.054  1.8646  1.9830 -1.5347
 2052SOL     OW17614   0.449   4.198   3.039  0.1380  0.3545 -0.4546
 2052SOL    HW117615   0.479   4.108   3.032 -0.0718  0.2988 -0.6486
 2052SOL    HW217616   0.496   4.223   3.118  1.1876 -1.2474 -0.5784
 2053SOL     OW17617   2.916   0.616   2.066 -0.1624  0.1828 -0.0826
 2053SOL    HW117618   2.877   0.683   2.122 -0.4809 -0.0946  0.0339
 2053SOL    HW217619   2.848   0.551   2.085  2.0015 -2.7591 -2.2447
 2054SOL     OW17620   4.273   0.040   3.456  0.0223  0.5057 -0.0529
 2054SOL    HW117621   4.367   0.049   3.469 -0.2270  0.6330  1.5872
 2054SOL    HW217622   4.261   4.673   3.488 -1.3471  1.1715  1.3090
 2055SOL     OW17623   0.479   2.920   5.205  0.2850  0.2577  0.2328
 2055SOL    HW117624   0.452   2.994   5.259 -1.1922  0.9904 -1.4952
 2055SOL    HW217625   0.469   2.849   5.268  0.9249 -0.5856 -0.6049
 2056SOL     OW17626   2.235   3.616   8.821  0.3435 -0.4344 -0.2973
 2056SOL    HW117627   2.179   3.545   8.852 -0.5854  0.8065  0.8178
 2056SOL    HW217628   2.175   3.660   8.760  1.1126 -1.3221 -1.7024
 2057SOL     OW17629   1.248   2.113   3.898  0.2967 -0.1363  0.5091
 2057SOL    HW117630   1.300   2.094   3.820 -1.2782 -0.1163 -0.5456
 2057SOL    HW217631   1.205   2.196   3.880 -0.6149 -1.4793 -3.4865
 2058SOL     OW17632   0.059   0.734   5.252 -0.0824  0.1540 -0.0093
 2058SOL    HW117633   0.070   0.822   5.216  0.9304 -0.3143 -0.8808
 2058SOL    HW217634   0.072   0.688   5.169  0.8708  0.7375 -0.1827
 2059SOL     OW17635   1.881   3.694   6.337  0.4480  0.1794  0.1704
 2059SOL    HW117636   1.930   3.754   6.394  0.4514  0.2844  0.0578
 2059SOL    HW217637   1.897   3.608   6.375  0.9141  0.3871  0.4595
 2060SOL     OW17638   2.919   1.926   6.203 -0.1574  0.0333 -0.5158
 2060SOL    HW117639   2.824   1.916   6.209  0.3138 -2.1960  2.8478
 2060SOL    HW217640   2.931   1.936   6.108  2.8786  1.0234 -0.0246
 2061SOL     OW17641   4.047   0.272   8.245  0.1213  0.3884  0.1683
 2061SOL    HW117642   4.072   0.269   8.153  1.3316 -0.7969  0.5186
 2061SOL    HW217643   4.018   0.181   8.251 -1.8794  0.9593 -0.9532
 2062SOL     OW17644   0.896   0.407   3.343 -0.3451 -0.4105 -0.5313
 2062SOL    HW117645   0.901   0.453   3.259 -2.6309 -0.3623 -0.6391
 2062SOL    HW217646   0.985   0.422   3.376  0.0846  0.2271 -2.0177
 2063SOL     OW17647   3.776   2.526   5.983 -0.3980 -0.5244  0.2012
 2063SOL    HW117648   3.862   2.510   5.944 -1.1579  0.0327 -1.6988
 2063SOL    HW217649   3.757   2.444   6.029 -0.1432  0.1395  1.4708
 2064SOL     OW17650   1.234   2.051   1.000  0.7487  0.9704  0.2904
 2064SOL    HW117651   1.227   2.053   1.095 -1.3546  2.5982  0.0923
 2064SOL    HW217652   1.143   2.031   0.977  1.9668 -1.5360 -2.4211
 2065SOL     OW17653   1.067   2.544  16.995 -0.3772  0.0503  0.3358
 2065SOL    HW117654   1.134   2.604  16.962 -0.7823 -0.0893 -0.7412
 2065SOL    HW217655   1.032   2.515  16.911 -0.7813  1.4673  0.0001
 2066SOL     OW17656   1.335   1.211   5.407 -0.0067  0.1899  0.2089
 2066SOL    HW117657   1.280   1.155   5.353  0.1606 -0.0801  0.3234
 2066SOL    HW217658   1.425   1.180   5.393 -0.5868 -0.6946 -1.5005
 2067SOL     OW17659   0.521   1.994  16.052  0.5877 -0.6094  0.1916
 2067SOL    HW117660   0.431   1.986  16.083  0.9764  2.6653  2.1822
 2067SOL    HW217661   0.572   2.027  16.126  3.2176  0.2131 -1.9888
 2068SOL     OW17662   1.159   0.050   9.304 -0.5194  0.2047 -0.0946
 2068SOL    HW117663   1.066   0.060   9.325 -0.3014  1.0908  0.4535
 2068SOL    HW217664   1.179   4.718   9.380  0.7801 -0.1846 -0.7194
 2069SOL     OW17665   2.195   0.857   8.135 -0.3803 -0.1375 -0.0640
 2069SOL    HW117666   2.222   0.772   8.170  0.6761 -0.4336 -1.5581
 2069SOL    HW217667   2.102   0.859   8.160 -0.2196 -0.4302  0.5605
 2070SOL     OW17668   4.369   2.596   2.979 -0.1071 -0.0641  0.0414
 2070SOL    HW117669   4.446   2.641   3.013 -0.5763  0.6701  0.1410
 2070SOL    HW217670   4.351   2.657   2.907 -0.2958 -0.9087 -0.6137
 2071SOL     OW17671   4.594   3.262   7.902  0.3257  0.0065  0.1907
 2071SOL    HW117672   4.558   3.192   7.847 -0.6951 -0.7727  1.8539
 2071SOL    HW217673   4.657   3.215   7.956  1.2735 -0.3557 -1.2351
 2072SOL     OW17674   2.494   3.789  12.986  0.3417 -0.5388  0.0431
 2072SOL    HW117675   2.426   3.745  12.935 -1.5070 -0.3077  2.2918
 2072SOL    HW217676   2.551   3.831  12.922 -1.1143  1.0016 -0.2365
 2073SOL     OW17677   1.173   1.787  11.696 -0.9818  0.0452 -0.6683
 2073SOL    HW117678   1.267   1.772  11.686 -1.0547 -1.9258  1.5671
 2073SOL    HW217679   1.160   1.739  11.778  0.3166 -1.2837 -1.2427
 2074SOL     OW17680   2.899   4.158  14.472 -0.1470 -0.8608  0.2141
 2074SOL    HW117681   2.922   4.066  14.459  0.1477 -0.6863 -0.5492
 2074SOL    HW217682   2.810   4.158  14.435  0.2073 -0.9667 -0.6509
 2075SOL     OW17683   0.607   0.004   6.727  0.0684  0.0267 -0.0943
 2075SOL    HW117684   0.557   0.076   6.765  0.4844  0.4372 -0.3282
 2075SOL    HW217685   0.626   4.692   6.815 -2.7215  0.4776  0.6989
 2076SOL     OW17686   4.452   0.949   7.476  0.6966 -0.2589  0.4861
 2076SOL    HW117687   4.522   1.012   7.460  0.0969 -0.1182 -1.5635
 2076SOL    HW217688   4.391   1.001   7.530  1.7227  0.8433  0.5808
 2077SOL     OW17689   1.444   0.098   0.364 -0.2107  0.2589  0.0694
 2077SOL    HW117690   1.491   0.181   0.376 -0.3418  0.2269  0.7947
 2077SOL    HW217691   1.481   0.046   0.436 -0.1925  0.6545  0.3424
 2078SOL     OW17692   1.126   0.666   5.459  0.8298  0.3254  0.3511
 2078SOL    HW117693   1.159   0.581   5.430  1.3339  1.1754 -1.5176
 2078SOL    HW217694   1.199   0.727   5.456  0.8043  0.5335  3.3878
 2079SOL     OW17695   4.406   2.133   3.326  0.5691 -0.1266  0.3639
 2079SOL    HW117696   4.385   2.151   3.235  0.8288  1.4438  0.6255
 2079SOL    HW217697   4.499   2.111   3.321  0.2774 -1.1986 -0.3335
 2080SOL     OW17698   2.994   3.830   3.653 -0.1554 -0.3313  0.0457
 2080SOL    HW117699   2.968   3.914   3.618  0.9356  0.6950  1.6876
 2080SOL    HW217700   3.034   3.854   3.737  1.1934  0.1444 -0.7254
 2081SOL     OW17701   0.351   3.513   3.626 -0.3175  0.3866  0.1137
 2081SOL    HW117702   0.413   3.565   3.574 -1.0258  2.0946  0.9883
 2081SOL    HW217703   0.284   3.501   3.559  0.1369 -0.4256 -0.1946
 2082SOL     OW17704   4.190   4.226   6.816 -0.3006  0.8489  0.0612
 2082SOL    HW117705   4.167   4.245   6.725  0.5310  0.1484 -0.3010
 2082SOL    HW217706   4.128   4.273   6.872 -1.0768 -0.6257  0.4321
 2083SOL     OW17707   2.259   0.443  16.103 -0.2095 -0.9694  0.3402
 2083SOL    HW117708   2.262   0.371  16.041 -0.2018 -1.7492  1.2348
 2083SOL    HW217709   2.240   0.389  16.180 -0.9015 -1.4704 -0.1842
 2084SOL     OW17710   4.352   3.441   4.751  0.5658 -0.3855 -0.1217
 2084SOL    HW117711   4.301   3.406   4.679 -1.6864  2.8457 -0.1270
 2084SOL    HW217712   4.436   3.451   4.706 -0.5393 -1.1611 -2.3427
 2085SOL     OW17713   0.793   3.983   6.048 -0.3828 -0.2117  0.4613
 2085SOL    HW117714   0.876   4.031   6.055 -0.8635  0.6586  0.1539
 2085SOL    HW217715   0.801   3.949   5.959 -0.4788 -0.6542  0.6191
 2086SOL     OW17716   4.585   2.319   3.053  0.3649 -0.3856 -0.2642
 2086SOL    HW117717   4.567   2.345   3.143  0.2501 -2.4541  0.3099
 2086SOL    HW217718   4.573   2.401   3.005  2.0515 -0.4379 -0.7818
 2087SOL     OW17719   0.652   0.929   6.761 -0.0915 -0.2411 -0.1916
 2087SOL    HW117720   0.678   0.997   6.824 -1.7857  0.1562  0.0868
 2087SOL    HW217721   0.557   0.941   6.771 -0.2434 -2.2716  0.7694
 2088SOL     OW17722   1.745   0.272   4.505  0.0949 -0.0551 -0.0726
 2088SOL    HW117723   1.759   0.244   4.415  1.9961 -0.1740  0.2606
 2088SOL    HW217724   1.783   0.360   4.501 -0.2484  0.1139  0.3383
 2089SOL     OW17725   1.930   1.871  10.627  0.7636  0.9017 -0.2451
 2089SOL    HW117726   1.872   1.843  10.557  0.0459  0.4692  0.5162
 2089SOL    HW217727   1.979   1.791  10.647  1.5646  0.5235 -3.6683
 2090SOL     OW17728   0.736   0.249  13.660 -0.1512  0.7794  0.1515
 2090SOL    HW117729   0.709   0.327  13.708  1.2197 -0.0202  2.2333
 2090SOL    HW217730   0.710   0.270  13.571 -0.4151 -1.2106 -0.2381
 2091SOL     OW17731   0.272   4.169   5.325 -0.3336  0.5619 -0.1282
 2091SOL    HW117732   0.353   4.124   5.350  0.2059  1.2572 -0.6224
 2091SOL    HW217733   0.288   4.254   5.365  0.2760  0.1467  0.4935
 2092SOL     OW17734   4.208   0.506   1.134 -0.4128  0.2801 -0.1578
 2092SOL    HW117735   4.213   0.602   1.124  0.5646 -0.1090 -3.5876
 2092SOL    HW217736   4.282   0.483   1.189  1.0072  0.9713 -1.7666
 2093SOL     OW17737   1.546   2.364   3.126  0.1430 -0.3421  0.5207
 2093SOL    HW117738   1.525   2.333   3.215  1.6567  1.4364  1.4765
 2093SOL    HW217739   1.611   2.431   3.143  0.5061 -0.8247  1.0519
 2094SOL     OW17740   2.329   3.581  13.283  0.0467  0.0143 -0.0585
 2094SOL    HW117741   2.326   3.538  13.368 -0.0342 -0.6629 -0.4031
 2094SOL    HW217742   2.275   3.656  13.310  1.7810  1.2900 -0.1202
 2095SOL     OW17743   1.518   3.153   4.832 -0.5692  0.1558 -0.2389
 2095SOL    HW117744   1.579   3.141   4.904 -1.9391 -0.0350  0.8983
 2095SOL    HW217745   1.581   3.193   4.773 -0.3893  1.4942  0.8624
 2096SOL     OW17746   1.448   2.062  12.173 -0.6142 -0.1639 -0.0047
 2096SOL    HW117747   1.466   2.000  12.102  0.1239 -2.1482  1.9604
 2096SOL    HW217748   1.478   2.015  12.250 -0.5079 -2.5395 -1.4703
 2097SOL     OW17749   3.974   4.329   9.280 -0.1602  0.4400 -0.3823
 2097SOL    HW117750   3.966   4.335   9.375  0.4366  0.5447 -0.3430
 2097SOL    HW217751   3.937   4.242   9.263  1.6898 -0.1140 -1.5413
 2098SOL     OW17752   0.424   2.102  11.577  0.4225  0.0110 -0.9749
 2098SOL    HW117753   0.461   2.136  11.659 -0.5600  2.2594 -1.4518
 2098SOL    HW217754   0.455   2.167  11.514 -0.9769  0.9226 -0.7272
 2099SOL     OW17755   0.234   2.698   7.688 -0.2114 -0.4188 -0.0712
 2099SOL    HW117756   0.283   2.616   7.676  0.3039  0.0159 -0.9185
 2099SOL    HW217757   0.191   2.688   7.603  0.3928  2.4303 -0.7083
 2100SOL     OW17758   4.662   2.069   3.352  0.1006  0.0620  0.3229
 2100SOL    HW117759   4.660   2.050   3.446 -0.6513  0.2752  0.3503
 2100SOL    HW217760   0.012   2.131   3.348 -1.4202  1.8409  0.3170
 2101SOL     OW17761   4.716   3.340   7.592  0.3511 -0.4322  0.5088
 2101SOL    HW117762   4.701   3.431   7.617 -0.3833 -0.4759  0.2235
 2101SOL    HW217763   0.087   3.353   7.583  0.3657 -0.5313  0.5223
 2102SOL     OW17764   3.419   2.244   8.236 -0.3795 -0.3561  0.3445
 2102SOL    HW117765   3.401   2.168   8.181 -0.5569  2.0953 -3.0167
 2102SOL    HW217766   3.418   2.317   8.173  0.2028 -0.2549  0.4500
 2103SOL     OW17767   1.767   2.688   2.053  0.1749 -0.1518 -0.1414
 2103SOL    HW117768   1.773   2.649   2.140 -1.9134  1.6188  0.7851
 2103SOL    HW217769   1.834   2.630   2.015  1.4308 -0.1743  2.0907
 2104SOL     OW17770   4.447   1.351  16.255 -0.3196 -0.4881  0.5366
 2104SOL    HW117771   4.434   1.445  16.253  2.5358 -0.1198  0.4114
 2104SOL    HW217772   4.474   1.328  16.166 -0.1974  1.9145 -0.0367
 2105SOL     OW17773   3.183   2.453  14.652  0.9638  0.1096  0.6163
 2105SOL    HW117774   3.268   2.473  14.613  0.7774  0.3380  0.3205
 2105SOL    HW217775   3.212   2.374  14.696  0.2040 -0.1854  0.5886
 2106SOL     OW17776   4.485   2.069   6.323 -0.2701  0.1609 -0.0854
 2106SOL    HW117777   4.565   2.068   6.271  0.5029  2.3241  1.0773
 2106SOL    HW217778   4.510   2.146   6.374 -0.3746  0.7231 -0.9006
 2107SOL     OW17779   2.548   1.295  17.547  0.1158 -0.0040  0.1329
 2107SOL    HW117780   2.569   1.202  17.538 -1.9168 -0.5361  0.8748
 2107SOL    HW217781   2.616   1.332  17.491  0.4861  1.0216  1.2737
 2108SOL     OW17782   0.030   1.971  12.444 -0.0935 -0.1756  0.1998
 2108SOL    HW117783   0.110   1.952  12.493 -0.7290 -1.5582  0.6959
 2108SOL    HW217784   0.029   1.915  12.367  1.3208  0.3221 -0.1970
 2109SOL     OW17785   3.508   3.555  12.749 -0.0325  0.3173 -0.5005
 2109SOL    HW117786   3.478   3.619  12.813  1.6730 -0.6369  1.2283
 2109SOL    HW217787   3.558   3.612  12.690  1.3435  1.1123  1.4468
 2110SOL     OW17788   4.532   3.270  12.195  0.5362 -0.2748 -0.5246
 2110SOL    HW117789   4.605   3.268  12.257 -0.8352  1.4385  1.1292
 2110SOL    HW217790   4.475   3.208  12.240  4.0860 -0.9336  3.0291
 2111SOL     OW17791   3.651   0.436   5.453  0.2402 -0.3150  0.0604
 2111SOL    HW117792   3.633   0.450   5.360 -1.8696 -0.3407  0.4658
 2111SOL    HW217793   3.593   0.503   5.490  1.5185 -0.8205  2.9075
 2112SOL     OW17794   1.786   1.314  16.356 -0.1283  0.3214 -0.1894
 2112SOL    HW117795   1.824   1.227  16.370  2.0765  1.3994  0.6650
 2112SOL    HW217796   1.832   1.320  16.272  0.7631 -3.4066  0.0468
 2113SOL     OW17797   1.432   0.927   2.636 -0.4391 -0.1121 -0.2361
 2113SOL    HW117798   1.517   0.968   2.619 -1.1348  1.0010 -1.0069
 2113SOL    HW217799   1.442   0.851   2.579 -2.2511  0.0357 -0.7657
 2114SOL     OW17800   1.030   2.298   3.873 -0.1303  0.2514 -0.5546
 2114SOL    HW117801   0.972   2.242   3.820 -2.0397  0.8530  0.8990
 2114SOL    HW217802   1.040   2.376   3.818  0.4391  1.1981  0.9074
 2115SOL     OW17803   2.306   4.159   2.152 -0.1883 -0.2532 -0.4942
 2115SOL    HW117804   2.371   4.101   2.113  0.4268 -0.7019  1.2007
 2115SOL    HW217805   2.247   4.174   2.078 -0.3822 -2.4875 -0.7756
 2116SOL     OW17806   0.180   3.284   6.727 -0.5090 -0.0318  0.3243
 2116SOL    HW117807   0.185   3.190   6.741  0.9982  0.0098  0.0870
 2116SOL    HW217808   0.222   3.286   6.641  3.1855  0.1686  2.0865
 2117SOL     OW17809   0.913   2.234   8.069  0.4893  0.8004 -1.0722
 2117SOL    HW117810   0.829   2.240   8.025 -1.2290  0.6858  2.1752
 2117SOL    HW217811   0.892   2.272   8.154  1.7419  0.1643 -0.4758
 2118SOL     OW17812   4.695   1.104  14.546 -0.4684 -0.1476  0.6277
 2118SOL    HW117813   0.022   1.094  14.627 -0.0370 -0.5099  0.3140
 2118SOL    HW217814   4.610   1.131  14.582 -1.1984  2.1757 -2.9157
 2119SOL     OW17815   4.113   0.803  15.233 -0.1463 -0.0514 -0.2676
 2119SOL    HW117816   4.145   0.828  15.146 -0.3821  1.9795  0.2149
 2119SOL    HW217817   4.076   0.715  15.232 -0.3009  0.0216 -0.8935
 2120SOL     OW17818   1.898   1.603   3.821  0.3011 -0.3105 -0.0100
 2120SOL    HW117819   1.872   1.612   3.729  1.5740 -1.0043 -0.4295
 2120SOL    HW217820   1.812   1.610   3.864  0.5599  0.2520  0.4217
 2121SOL     OW17821   4.384   0.169   3.946  0.2399  0.6331  0.6028
 2121SOL    HW117822   4.366   0.080   3.918  0.5231  0.2792  1.5619
 2121SOL    HW217823   4.315   0.194   4.007 -0.2059 -1.2705  0.8607
 2122SOL     OW17824   3.315   4.077   5.044 -0.4170 -0.5992 -0.0009
 2122SOL    HW117825   3.388   4.115   5.091 -2.7192  2.8099  0.8083
 2122SOL    HW217826   3.334   4.083   4.951 -1.8569 -4.5351 -0.5783
 2123SOL     OW17827   2.830   2.134   2.240  0.1719  0.1104 -0.5361
 2123SOL    HW117828   2.814   2.141   2.334 -0.5187  0.9306 -0.7152
 2123SOL    HW217829   2.744   2.148   2.200 -0.2858 -2.2375 -0.3757
 2124SOL     OW17830   3.965   2.762   9.684  0.6326  0.3146  0.4337
 2124SOL    HW117831   3.925   2.696   9.741 -0.7637 -0.5252 -1.5241
 2124SOL    HW217832   3.991   2.824   9.752  1.6968  0.6933 -0.3218
 2125SOL     OW17833   2.844   3.281  10.794  0.4542 -0.9390  0.0382
 2125SOL    HW117834   2.862   3.369  10.760 -0.2151 -1.3618 -1.4039
 2125SOL    HW217835   2.800   3.257  10.713 -0.2681  1.0604 -0.1676
 2126SOL     OW17836   2.124   4.439   6.254  0.2501 -0.1758 -0.0443
 2126SOL    HW117837   2.051   4.501   6.254  0.5067  0.1251 -0.6811
 2126SOL    HW217838   2.084   4.362   6.215 -2.1341  1.0792 -0.1065
 2127SOL     OW17839   3.428   1.688   8.588  0.4167 -0.2743 -0.0045
 2127SOL    HW117840   3.408   1.674   8.681 -1.5181 -0.0273 -0.3927
 2127SOL    HW217841   3.470   1.607   8.560 -2.5432 -2.2141  1.2223
 2128SOL     OW17842   3.197   1.761  12.180  0.6225 -0.5009 -0.2404
 2128SOL    HW117843   3.223   1.804  12.099 -1.3432  2.4380  0.7210
 2128SOL    HW217844   3.203   1.670  12.149 -1.6017 -0.8187  0.2775
 2129SOL     OW17845   0.474   2.321  10.807 -0.4906 -0.3702  0.1047
 2129SOL    HW117846   0.468   2.404  10.854 -1.7650 -0.6277  0.4005
 2129SOL    HW217847   0.568   2.302  10.814 -0.1125  1.6363  0.4110
 2130SOL     OW17848   3.306   4.101   1.339 -0.0361 -0.4236 -0.7045
 2130SOL    HW117849   3.390   4.148   1.341  0.6380 -1.6397 -0.6783
 2130SOL    HW217850   3.292   4.101   1.434 -0.7800  0.2545 -0.8147
 2131SOL     OW17851   1.827   3.935  11.600  0.1383 -0.3791 -0.6305
 2131SOL    HW117852   1.895   3.976  11.547  0.8880 -3.4572 -2.0477
 2131SOL    HW217853   1.746   3.969  11.564  0.3225 -0.7941 -1.4241
 2132SOL     OW17854   1.482   1.250   4.728  0.3307  0.3038  0.0476
 2132SOL    HW117855   1.436   1.166   4.726 -0.0833  0.5621 -1.0164
 2132SOL    HW217856   1.450   1.287   4.810 -0.6326 -0.4430  0.0017
 2133SOL     OW17857   2.325   0.327  15.171 -0.3170  0.2817 -0.2326
 2133SOL    HW117858   2.303   0.384  15.098  1.0733  3.9268  2.2050
 2133SOL    HW217859   2.247   0.273  15.161  0.8434 -1.0587 -2.1853
 2134SOL     OW17860   0.625   1.073  12.082 -0.3615  0.1906  0.1861
 2134SOL    HW117861   0.679   1.095  12.006  1.7052  0.2223  1.6486
 2134SOL    HW217862   0.680   1.010  12.129  0.7456  2.0407  1.3584
 2135SOL     OW17863   1.815   1.658   5.372  0.5848  0.7835 -0.3905
 2135SOL    HW117864   1.898   1.699   5.348  2.0897 -1.2423  1.1953
 2135SOL    HW217865   1.785   1.706   5.449 -1.3386  1.9054 -1.8491
 2136SOL     OW17866   1.127   2.909   4.799  0.2413 -0.3640 -0.7722
 2136SOL    HW117867   1.210   2.862   4.796  0.5198  0.1110 -0.5811
 2136SOL    HW217868   1.092   2.883   4.714  0.6831  1.1283 -1.4104
 2137SOL     OW17869   1.235   1.819   3.824 -0.0338 -0.0380 -0.3196
 2137SOL    HW117870   1.215   1.850   3.735  1.2007 -0.8660 -0.8788
 2137SOL    HW217871   1.213   1.893   3.882 -0.1619  1.9925 -2.9513
 2138SOL     OW17872   2.961   1.696   5.363 -0.0773 -0.2721  0.1421
 2138SOL    HW117873   3.048   1.688   5.323 -1.3621 -2.3493 -2.2047
 2138SOL    HW217874   2.973   1.658   5.450  0.2219  0.2370  0.3247
 2139SOL     OW17875   2.294   4.331   2.364 -0.2378  0.1669 -0.2743
 2139SOL    HW117876   2.223   4.380   2.323 -1.9704 -0.5062  1.9301
 2139SOL    HW217877   2.320   4.270   2.294 -0.3228 -0.3658  0.1575
 2140SOL     OW17878   4.680   1.390   6.676  0.1731 -0.5458  0.4077
 2140SOL    HW117879   4.668   1.469   6.728  1.4610 -1.0406  1.4692
 2140SOL    HW217880   4.603   1.397   6.620 -0.2380  0.0256  1.0601
 2141SOL     OW17881   0.129   4.229   6.454 -0.3798  0.1985  0.5812
 2141SOL    HW117882   0.143   4.163   6.386 -0.9012  0.7091 -0.0267
 2141SOL    HW217883   0.036   4.249   6.442 -0.3476  0.2090  0.3556
 2142SOL     OW17884   3.426   3.519   2.160 -0.0980 -0.3358  0.3249
 2142SOL    HW117885   3.487   3.502   2.232  2.9373  2.3614 -1.5900
 2142SOL    HW217886   3.347   3.498   2.209 -0.3266 -0.7124 -0.1956
 2143SOL     OW17887   1.351   0.075   4.348  0.0526 -0.0030  0.3571
 2143SOL    HW117888   1.283   0.093   4.283 -0.7802 -0.8457  0.9901
 2143SOL    HW217889   1.405   0.004   4.314  0.5942  0.3148  0.5578
 2144SOL     OW17890   0.398   4.642   8.327 -0.1071  0.1075 -0.2406
 2144SOL    HW117891   0.476   4.697   8.331  1.4915 -2.0134 -1.9043
 2144SOL    HW217892   0.350   4.686   8.258 -0.9280  0.3009  0.4616
 2145SOL     OW17893   0.731   0.343   7.383  0.1576  0.6303  0.2661
 2145SOL    HW117894   0.718   0.346   7.288  0.5418 -1.5884  0.1315
 2145SOL    HW217895   0.659   0.284   7.406 -1.0956  1.2992 -2.0578
 2146SOL     OW17896   1.917   0.656  16.310  0.1560  0.0221  0.4161
 2146SOL    HW117897   1.973   0.731  16.330  2.1977 -0.6536 -2.7177
 2146SOL    HW217898   1.862   0.698  16.244 -0.7394 -2.4287 -0.3963
 2147SOL     OW17899   4.554   1.971   6.616  0.6635 -0.6519 -0.3536
 2147SOL    HW117900   4.497   1.971   6.539  0.9324  1.2753 -0.5446
 2147SOL    HW217901   4.493   1.932   6.680  1.5036  1.0598  1.4884
 2148SOL     OW17902   1.391   0.528   0.657 -0.7104  0.0646  0.1832
 2148SOL    HW117903   1.442   0.542   0.736  1.9698 -1.6401 -1.2468
 2148SOL    HW217904   1.443   0.457   0.620 -0.0477  1.0507 -0.7864
 2149SOL     OW17905   3.019   2.471   3.075  0.5673  0.6807 -0.1592
 2149SOL    HW117906   3.071   2.443   2.999 -0.8569 -1.9434 -0.1699
 2149SOL    HW217907   2.941   2.416   3.073  2.4694 -2.0179 -0.0924
 2150SOL     OW17908   4.610   2.789  16.669 -0.3176  0.3569  0.9143
 2150SOL    HW117909   4.610   2.806  16.575 -1.0174  2.5362  1.3132
 2150SOL    HW217910   4.524   2.824  16.692 -0.3785  0.7050  0.1569
 2151SOL     OW17911   2.372   2.064  12.150 -0.3806 -0.1802 -0.5546
 2151SOL    HW117912   2.457   2.034  12.181 -1.8795 -3.2731  0.5379
 2151SOL    HW217913   2.349   2.133  12.214 -3.1203  2.8582 -4.8226
 2152SOL     OW17914   1.675   1.201   6.503 -0.1441 -0.0530 -0.0833
 2152SOL    HW117915   1.639   1.247   6.427  0.8821 -2.4786 -2.0206
 2152SOL    HW217916   1.767   1.227   6.502 -0.0125 -0.3925  2.1700
 2153SOL     OW17917   2.228   2.240   6.663  0.6297 -0.0665  1.6037
 2153SOL    HW117918   2.182   2.158   6.646  0.7727 -0.3022  2.3734
 2153SOL    HW217919   2.290   2.200   6.724  0.8960 -1.1315  0.6345
 2154SOL     OW17920   2.867   2.995   4.496  0.3779 -0.0105  0.0665
 2154SOL    HW117921   2.861   3.061   4.565  0.6247  0.3351 -0.2443
 2154SOL    HW217922   2.823   3.041   4.424 -0.1234 -0.3277  0.1714
 2155SOL     OW17923   2.139   4.554   1.721 -0.3860  0.1344 -0.0611
 2155SOL    HW117924   2.228   4.537   1.750 -1.0385 -0.0771  1.8345
 2155SOL    HW217925   2.098   4.509   1.795  0.9607 -0.2957  0.4272
 2156SOL     OW17926   0.428   4.344   6.043  0.2018 -0.4898 -0.6746
 2156SOL    HW117927   0.399   4.406   6.110  2.2247  1.4750 -1.6083
 2156SOL    HW217928   0.431   4.398   5.963  2.0304  0.2322 -0.1329
 2157SOL     OW17929   0.991   3.142  16.008  0.0496 -0.0899  0.1118
 2157SOL    HW117930   0.947   3.222  15.980  0.7163 -0.6616 -2.5217
 2157SOL    HW217931   1.005   3.145  16.103 -1.6228  0.1116  0.3511
 2158SOL     OW17932   3.611   3.668  14.450 -0.1694  0.2078 -0.4429
 2158SOL    HW117933   3.535   3.613  14.468  0.5799  0.0037  2.2509
 2158SOL    HW217934   3.632   3.646  14.359  0.9642 -1.4421  0.2127
 2159SOL     OW17935   0.766   3.286   4.690  0.1536  0.1645  0.0030
 2159SOL    HW117936   0.852   3.244   4.685  0.1585  0.0730  0.9161
 2159SOL    HW217937   0.726   3.252   4.610 -0.0806  0.9283 -0.2047
 2160SOL     OW17938   4.609   1.463   7.607 -0.3066 -0.0247 -0.5228
 2160SOL    HW117939   4.587   1.429   7.693 -0.8136  0.6030 -0.4011
 2160SOL    HW217940   4.590   1.393   7.544  0.6576 -0.6785 -0.0829
 2161SOL     OW17941   3.384   3.943   6.551  0.1055 -0.1781 -0.2256
 2161SOL    HW117942   3.289   3.952   6.553  0.3340  2.1498  0.7139
 2161SOL    HW217943   3.414   3.916   6.638  0.4554  0.9999  0.0337
 2162SOL     OW17944   1.010   2.679  16.601  0.2953 -0.1359 -0.5834
 2162SOL    HW117945   0.998   2.584  16.611 -4.1790  0.5387  0.7353
 2162SOL    HW217946   0.949   2.692  16.528  1.3022  0.2667 -1.3507
 2163SOL     OW17947   0.040   2.634  15.103  0.0869  0.0072  0.8069
 2163SOL    HW117948   0.083   2.716  15.081  0.2980 -0.7708 -1.6880
 2163SOL    HW217949   4.671   2.660  15.102 -0.7608 -3.0200 -0.4421
 2164SOL     OW17950   3.610   0.846  17.389 -0.2105  0.0561  0.4590
 2164SOL    HW117951   3.537   0.849  17.450  0.7865 -0.9533  1.6868
 2164SOL    HW217952   3.676   0.885  17.446  0.7688 -0.8751 -0.0418
 2165SOL     OW17953   1.651   0.106   8.916 -0.1884  0.2196 -0.0280
 2165SOL    HW117954   1.636   0.188   8.871 -0.6802 -0.5403 -1.2569
 2165SOL    HW217955   1.723   0.068   8.865 -0.2124  0.1409 -0.0045
 2166SOL     OW17956   1.823   1.027   1.548  0.3469  0.4468  0.2847
 2166SOL    HW117957   1.839   1.054   1.457 -0.2426 -0.8611 -0.2124
 2166SOL    HW217958   1.863   1.093   1.604 -1.8089  1.4128  0.7067
 2167SOL     OW17959   4.128   4.326  12.737 -0.3919  0.1504 -0.2667
 2167SOL    HW117960   4.161   4.305  12.825 -0.0066 -2.6666 -1.0787
 2167SOL    HW217961   4.157   4.418  12.734  0.3997 -0.0891  0.0598
 2168SOL     OW17962   2.569   1.181   7.062 -0.1017  0.0794  0.0835
 2168SOL    HW117963   2.490   1.234   7.053  0.4579  0.6818 -1.2700
 2168SOL    HW217964   2.601   1.229   7.139 -1.7694 -0.7283  1.2690
 2169SOL     OW17965   3.597   0.781   8.692  0.2076  0.2256 -0.0859
 2169SOL    HW117966   3.651   0.787   8.613 -0.1964  1.5714 -0.2643
 2169SOL    HW217967   3.667   0.787   8.757  0.4665 -0.2259 -0.3236
 2170SOL     OW17968   0.013   1.946  13.823 -0.5394 -0.1355 -0.6028
 2170SOL    HW117969   4.646   1.970  13.849  0.2636  1.2578  0.8695
 2170SOL    HW217970   0.020   1.991  13.739 -0.2369 -0.1086 -0.5632
 2171SOL     OW17971   2.281   3.273   3.478  0.3774 -0.0789 -0.0110
 2171SOL    HW117972   2.191   3.301   3.494  0.6260 -0.0857  1.3813
 2171SOL    HW217973   2.284   3.276   3.382 -0.7401 -0.6517 -0.0567
 2172SOL     OW17974   3.690   3.634   5.216  0.1104 -0.0642  0.9990
 2172SOL    HW117975   3.708   3.717   5.260 -0.0599  0.4564  0.0713
 2172SOL    HW217976   3.595   3.638   5.227  0.1497  0.8311  0.9817
 2173SOL     OW17977   4.654   3.148   4.720  0.9248 -0.1941 -0.8483
 2173SOL    HW117978   0.004   3.097   4.684  0.8288 -1.7170  1.0833
 2173SOL    HW217979   4.622   3.185   4.638  2.9855  3.0896 -0.1380
 2174SOL     OW17980   2.213   1.588   6.428  0.2180  0.3707 -0.0725
 2174SOL    HW117981   2.277   1.614   6.361  1.3098 -1.0563  0.4203
 2174SOL    HW217982   2.220   1.663   6.487  2.1007  0.5413 -0.5142
 2175SOL     OW17983   3.475   2.282   2.173  0.1836  0.0295 -0.5498
 2175SOL    HW117984   3.474   2.359   2.116  1.0025 -0.3521 -1.0792
 2175SOL    HW217985   3.398   2.228   2.153 -0.4872  0.6196  0.4058
 2176SOL     OW17986   3.975   4.194  17.591  0.2562 -0.5933 -0.4561
 2176SOL    HW117987   3.917   4.234  17.655 -0.0470 -2.2857  0.3302
 2176SOL    HW217988   4.038   4.155  17.651  0.8164  1.9227  0.6002
 2177SOL     OW17989   1.316   3.206  15.001  0.0333 -0.5552  0.2109
 2177SOL    HW117990   1.303   3.271  15.070  1.5670 -0.0239 -0.0066
 2177SOL    HW217991   1.226   3.172  14.996  0.0996 -0.5728 -0.7217
 2178SOL     OW17992   3.690   4.616   2.264 -0.0159  0.1093 -0.6416
 2178SOL    HW117993   3.779   4.590   2.243  0.3973  0.4000  0.7519
 2178SOL    HW217994   3.638   4.536   2.269  0.4723  0.0448  3.2095
 2179SOL     OW17995   3.888   2.626   7.448 -0.6869  0.8062  0.0521
 2179SOL    HW117996   3.851   2.702   7.403 -0.0892 -0.1464 -2.0491
 2179SOL    HW217997   3.871   2.652   7.538 -1.2975 -0.7134  0.3720
 2180SOL     OW17998   4.448   4.321   5.581  0.2755  0.2691  0.2078
 2180SOL    HW117999   4.407   4.374   5.512 -0.7164 -2.1470 -1.0742
 2180SOL    HW218000   4.540   4.335   5.558  0.3410 -0.4837  0.0273
 2181SOL     OW18001   2.378   4.720   8.790 -0.0287  0.6307 -0.0765
 2181SOL    HW118002   2.373   0.078   8.841  1.4130  0.5942  0.1216
 2181SOL    HW218003   2.362   0.026   8.700  1.6005  1.1419 -0.1916
 2182SOL     OW18004   3.059   4.001  13.113  0.1185 -0.2569 -0.6271
 2182SOL    HW118005   3.124   3.931  13.114  0.4783  0.0763 -0.4605
 2182SOL    HW218006   3.117   4.071  13.081  0.4357 -1.0461 -1.7828
 2183SOL     OW18007   3.364   3.567  15.531 -0.6054  0.0286 -0.1328
 2183SOL    HW118008   3.452   3.529  15.541 -0.4504  1.0034  2.2238
 2183SOL    HW218009   3.329   3.559  15.619 -2.3539  2.2658 -0.6342
 2184SOL     OW18010   2.337   0.605   9.459 -0.3795  0.0941 -0.0588
 2184SOL    HW118011   2.303   0.517   9.478  2.1007 -1.2962 -1.8986
 2184SOL    HW218012   2.267   0.662   9.489 -0.6345 -0.0309 -0.4166
 2185SOL     OW18013   3.041   0.908   2.710 -0.1322  0.4636 -0.2249
 2185SOL    HW118014   3.090   0.873   2.635  0.5258 -0.2757  0.5613
 2185SOL    HW218015   3.044   0.829   2.762  1.4108  1.6662  1.5174
 2186SOL     OW18016   1.903   1.971  14.719 -0.1410  0.5252  0.2079
 2186SOL    HW118017   1.879   2.005  14.805 -3.3070 -0.3262 -0.3644
 2186SOL    HW218018   1.982   2.023  14.703 -0.0461 -0.0834 -1.3267
 2187SOL     OW18019   0.041   3.141   8.065 -0.1609  0.3805  0.1851
 2187SOL    HW118020   0.079   3.171   8.148  0.1136 -0.2730  0.2954
 2187SOL    HW218021   0.062   3.048   8.062 -0.3483  0.2365  2.7990
 2188SOL     OW18022   3.121   4.237   0.087  0.1001  0.1180 -0.0365
 2188SOL    HW118023   3.083   4.196   0.009  0.2017 -2.2195  1.1529
 2188SOL    HW218024   3.064   4.312   0.103  0.6740  0.3934  0.6951
 2189SOL     OW18025   2.481   1.707   4.710 -0.2052 -0.0094  0.3817
 2189SOL    HW118026   2.575   1.728   4.708 -0.0888 -0.4955  0.6366
 2189SOL    HW218027   2.472   1.625   4.661 -1.5829 -0.3907  1.2696
 2190SOL     OW18028   1.907   2.713   3.302 -0.7277 -0.0322 -0.0322
 2190SOL    HW118029   1.950   2.686   3.221 -1.0326 -2.3410  0.5701
 2190SOL    HW218030   1.978   2.729   3.363 -0.6142  0.1219 -0.2047
 2191SOL     OW18031   0.381   1.694  11.766  0.1440  0.1108 -0.4033
 2191SOL    HW118032   0.421   1.730  11.845  1.4775 -0.2979 -0.8925
 2191SOL    HW218033   0.362   1.775  11.717 -0.8722  0.3850  0.4392
 2192SOL     OW18034   4.274   1.242   1.535  0.6360  0.1031 -0.1123
 2192SOL    HW118035   4.272   1.333   1.503  1.8913  0.3244  0.4446
 2192SOL    HW218036   4.341   1.243   1.603 -1.0708 -1.2531  1.5714
 2193SOL     OW18037   3.884   2.114  11.044  0.4585 -0.7467  0.0031
 2193SOL    HW118038   3.909   2.198  11.083  0.5427 -0.3507 -0.9074
 2193SOL    HW218039   3.920   2.045  11.100 -1.2407 -1.5970  0.0574
 2194SOL     OW18040   0.936   2.361   7.414  0.3403 -0.2115 -0.5502
 2194SOL    HW118041   0.888   2.414   7.477  2.3926  2.2941 -1.0698
 2194SOL    HW218042   0.904   2.398   7.331 -2.1564  1.0169  0.9708
 2195SOL     OW18043   3.855   3.911   6.157  0.1683 -0.0670 -0.1890
 2195SOL    HW118044   3.897   3.825   6.161 -2.0045 -1.2419 -2.2381
 2195SOL    HW218045   3.874   3.939   6.067 -1.9475 -0.8867 -0.8853
 2196SOL     OW18046   0.122   1.292   4.890  0.1409 -0.0139 -0.1195
 2196SOL    HW118047   0.156   1.296   4.801  0.9465 -2.7798  0.0634
 2196SOL    HW218048   0.155   1.372   4.931 -0.6338  0.6156 -0.7241
 2197SOL     OW18049   0.362   3.482   7.925 -0.0200 -0.7319  0.7240
 2197SOL    HW118050   0.289   3.507   7.982  0.9718 -0.9423  2.0842
 2197SOL    HW218051   0.416   3.558   7.944 -1.3608 -0.0985  2.0132
 2198SOL     OW18052   0.457   1.281  16.703 -0.9265  0.0578 -0.1030
 2198SOL    HW118053   0.413   1.237  16.629 -2.4183  0.8903  0.2847
 2198SOL    HW218054   0.518   1.338  16.657 -2.8362  1.4055 -0.9830
 2199SOL     OW18055   4.569   0.131   4.431  0.3796 -0.1147  0.3579
 2199SOL    HW118056   4.586   0.196   4.363  0.4739 -0.4380  0.0698
 2199SOL    HW218057   4.607   0.176   4.506 -0.9864  1.6169  0.0196
 2200SOL     OW18058   1.389   2.242  10.696  0.5690 -0.1288 -0.6765
 2200SOL    HW118059   1.332   2.255  10.771 -0.4358 -3.3627 -0.8923
 2200SOL    HW218060   1.352   2.310  10.639  1.7396  1.3513  0.3237
 2201SOL     OW18061   0.079   0.588  10.792  0.4126 -0.0146 -0.2877
 2201SOL    HW118062   0.015   0.591  10.862  0.6940  0.4710 -0.0544
 2201SOL    HW218063   0.025   0.632  10.726 -1.1861  0.1623  1.1427
 2202SOL     OW18064   1.853   1.690   1.700 -0.5054 -0.3695  0.7855
 2202SOL    HW118065   1.941   1.713   1.671 -0.2411 -1.7362  0.4969
 2202SOL    HW218066   1.800   1.702   1.622  0.7782  1.0742  0.1452
 2203SOL     OW18067   4.314   3.949  14.490 -0.4188 -0.2145  1.1353
 2203SOL    HW118068   4.291   3.892  14.563 -3.3052  0.9563  1.1277
 2203SOL    HW218069   4.227   3.978  14.465 -0.8170 -0.8985  1.7403
 2204SOL     OW18070   0.961   0.397   5.543 -0.5091 -0.0889  0.6462
 2204SOL    HW118071   0.939   0.481   5.582 -1.3406  0.3711 -0.8335
 2204SOL    HW218072   1.056   0.399   5.557 -0.5309  0.6098  0.6557
 2205SOL     OW18073   0.577   3.631  13.559 -0.0972  0.1425 -0.3619
 2205SOL    HW118074   0.611   3.563  13.617 -0.3211  1.5424  1.4009
 2205SOL    HW218075   0.509   3.676  13.608  1.7137  0.2460  2.0593
 2206SOL     OW18076   4.234   0.336  12.783  0.2197  0.1612 -0.0486
 2206SOL    HW118077   4.298   0.405  12.765 -1.1841  1.6713  0.7043
 2206SOL    HW218078   4.208   0.309  12.695 -1.7290  1.4659  0.1246
 2207SOL     OW18079   2.252   3.730   9.250 -0.9228  0.4096  0.4264
 2207SOL    HW118080   2.267   3.693   9.163 -1.2739  0.1705  0.4640
 2207SOL    HW218081   2.234   3.823   9.244 -0.2232  0.5999  1.3332
 2208SOL     OW18082   3.314   2.996   0.599 -0.0977 -0.0730  0.2136
 2208SOL    HW118083   3.261   2.955   0.668  1.0389 -0.4038  0.9000
 2208SOL    HW218084   3.370   2.923   0.571  0.6917  0.3788  0.6249
 2209SOL     OW18085   0.899   3.169  16.998 -0.3196 -0.6483  0.4939
 2209SOL    HW118086   0.942   3.089  16.967  0.1923 -0.7216  1.3657
 2209SOL    HW218087   0.852   3.136  17.074 -0.4099  1.5116  1.3818
 2210SOL     OW18088   0.556   3.671   7.993 -0.0382  0.2298 -0.1797
 2210SOL    HW118089   0.536   3.672   8.086  0.2177 -0.8331 -0.1123
 2210SOL    HW218090   0.650   3.686   8.004  0.2169 -1.5794  0.1497
 2211SOL     OW18091   1.239   3.119   4.548 -0.2872 -0.3200  0.7008
 2211SOL    HW118092   1.271   3.111   4.458  1.1098  1.5430  1.0396
 2211SOL    HW218093   1.300   3.058   4.589 -0.1980 -1.4265 -1.0549
 2212SOL     OW18094   2.638   2.664  15.102  0.4994 -0.4367 -0.4108
 2212SOL    HW118095   2.655   2.648  15.009  0.8501  0.9907 -0.6020
 2212SOL    HW218096   2.619   2.757  15.087  3.5864  0.7297  2.8380
 2213SOL     OW18097   1.716   1.733  17.392 -0.2843 -0.0854 -0.7279
 2213SOL    HW118098   1.731   1.828  17.387 -0.6355 -0.0570 -1.2418
 2213SOL    HW218099   1.787   1.706  17.450 -2.5918  1.5426  2.8900
 2214SOL     OW18100   2.496   0.696   7.441 -0.1759  0.3785 -0.9283
 2214SOL    HW118101   2.430   0.648   7.391  0.2839  1.9703 -3.1085
 2214SOL    HW218102   2.573   0.704   7.385 -1.5519 -0.9451 -2.9824
 2215SOL     OW18103   4.476   4.136  15.009 -0.4313  0.0840 -0.3452
 2215SOL    HW118104   4.541   4.206  15.000  0.1124 -0.4043 -0.1855
 2215SOL    HW218105   4.423   4.166  15.083  0.1920 -0.9679  0.5203
 2216SOL     OW18106   3.104   2.941   4.340  0.4689 -0.4938  0.2683
 2216SOL    HW118107   3.140   3.029   4.335 -1.0147 -0.0090 -2.0262
 2216SOL    HW218108   3.024   2.954   4.391 -0.5398  0.2627 -1.5145
 2217SOL     OW18109   4.432   3.392   9.057  0.6776  0.0160  0.2272
 2217SOL    HW118110   4.465   3.356   8.974  1.2385 -0.5373  0.6886
 2217SOL    HW218111   4.347   3.349   9.059  0.0652  1.1843 -0.7754
 2218SOL     OW18112   3.825   0.373   1.765 -0.4339 -0.2933 -0.7818
 2218SOL    HW118113   3.751   0.427   1.792  1.8492  1.6031  1.6571
 2218SOL    HW218114   3.865   0.347   1.848 -1.5217 -1.2415 -0.5609
 2219SOL     OW18115   4.663   1.079   7.248  0.1185 -0.7804 -0.0032
 2219SOL    HW118116   4.695   1.105   7.161 -0.0332 -0.6428 -0.0174
 2219SOL    HW218117   0.022   1.046   7.287  1.0714 -0.9483 -2.1329
 2220SOL     OW18118   0.561   3.098   7.091  0.0925  0.3506 -0.7062
 2220SOL    HW118119   0.616   3.160   7.139 -1.9566 -0.6353  2.8977
 2220SOL    HW218120   0.525   3.028   7.146 -1.5113  0.8617 -1.1036
 2221SOL     OW18121   4.661   2.484  12.920  0.0970 -0.5016  0.1144
 2221SOL    HW118122   4.706   2.467  12.837 -0.0609  0.2084 -0.1118
 2221SOL    HW218123   4.720   2.546  12.963 -0.3430 -0.5421  0.7725
 2222SOL     OW18124   4.411   2.001  17.321 -0.5350  0.6462 -0.1682
 2222SOL    HW118125   4.358   2.080  17.310 -1.4310  0.3713  2.3075
 2222SOL    HW218126   4.432   2.016  17.413  1.6332 -0.1901 -0.5140
 2223SOL     OW18127   2.508   2.903  10.909  0.5595 -0.7425  0.1218
 2223SOL    HW118128   2.585   2.952  10.938 -0.3858  0.2414  0.9727
 2223SOL    HW218129   2.553   2.823  10.882 -1.7803 -1.5961 -1.2295
 2224SOL     OW18130   1.484   2.750   3.127 -0.5168  0.0108 -0.1482
 2224SOL    HW118131   1.420   2.771   3.195  0.1122  0.9441  0.1622
 2224SOL    HW218132   1.548   2.714   3.189  1.2383  2.1711 -0.7293
 2225SOL     OW18133   4.660   2.426   3.509  0.5341  0.1247  0.0622
 2225SOL    HW118134   4.600   2.455   3.440 -0.4386  1.6390  1.5463
 2225SOL    HW218135   4.605   2.366   3.560 -1.2598  1.5601 -0.1690
 2226SOL     OW18136   0.761   2.472  16.581  0.2264 -0.0589  0.0472
 2226SOL    HW118137   0.796   2.510  16.501  0.7079  0.8916  0.7131
 2226SOL    HW218138   0.697   2.542  16.596  1.2799  1.5974 -3.2042
 2227SOL     OW18139   1.680   1.523  12.843 -0.5662 -0.0354 -0.4190
 2227SOL    HW118140   1.659   1.616  12.849 -0.5416 -0.0708  0.1464
 2227SOL    HW218141   1.707   1.511  12.752  0.7387  1.8593 -0.2883
 2228SOL     OW18142   2.111   3.160   6.895 -0.6565  0.1135 -0.2207
 2228SOL    HW118143   2.043   3.106   6.855  0.8900 -2.1076  0.1328
 2228SOL    HW218144   2.065   3.224   6.948  1.8102 -0.8509  3.1429
 2229SOL     OW18145   0.313   0.155   6.524  0.5645 -0.2605  0.2578
 2229SOL    HW118146   0.256   0.084   6.495 -0.3244 -0.5324  2.6878
 2229SOL    HW218147   0.269   0.191   6.601 -0.4610 -0.1026 -0.3957
 2230SOL     OW18148   4.571   3.821  12.643 -0.1482  0.2079  0.0516
 2230SOL    HW118149   4.644   3.837  12.701  0.7354 -1.2716 -0.6571
 2230SOL    HW218150   4.596   3.741  12.598 -1.0413  1.0019 -1.8722
 2231SOL     OW18151   4.085   2.732   6.677 -0.0319  0.4283  0.5850
 2231SOL    HW118152   3.994   2.722   6.705 -1.4868  4.1574 -2.7811
 2231SOL    HW218153   4.073   2.781   6.596  0.4847  1.2392  0.9905
 2232SOL     OW18154   1.665   0.069   3.563  0.3228  0.4752 -0.4214
 2232SOL    HW118155   1.593   0.128   3.538  0.0669 -1.1027 -3.3860
 2232SOL    HW218156   1.684   0.025   3.480 -0.9969 -0.3124 -0.3005
 2233SOL     OW18157   1.868   0.932   2.344 -0.6216 -0.3193 -0.1984
 2233SOL    HW118158   1.929   0.859   2.350 -1.0211 -0.8003 -2.2067
 2233SOL    HW218159   1.805   0.901   2.279 -0.5229  2.1441 -1.4528
 2234SOL     OW18160   1.370   0.373   8.089 -0.3872  0.1453  0.4850
 2234SOL    HW118161   1.368   0.418   8.174 -0.3037 -0.1214  0.6269
 2234SOL    HW218162   1.326   0.439   8.035 -3.0111 -1.5696  0.5319
 2235SOL     OW18163   3.843   3.668   3.982 -0.0533  0.4348 -0.2245
 2235SOL    HW118164   3.824   3.614   4.058 -2.2285  1.8424  0.2418
 2235SOL    HW218165   3.935   3.694   3.986  0.2727 -0.6522 -0.6485
 2236SOL     OW18166   1.976   2.846   1.775 -0.2084  0.2088 -0.2207
 2236SOL    HW118167   1.965   2.754   1.752 -0.0914  0.6161 -1.9389
 2236SOL    HW218168   1.916   2.893   1.717  0.0743  0.1158 -0.5907
 2237SOL     OW18169   1.737   2.188  10.543 -0.1762 -0.7312  0.3256
 2237SOL    HW118170   1.831   2.203  10.553 -0.9327  1.1840  4.6021
 2237SOL    HW218171   1.732   2.178  10.448  1.4287  3.2214 -0.1874
 2238SOL     OW18172   0.177   2.058   7.865  0.1013 -0.3394 -0.8318
 2238SOL    HW118173   0.161   1.971   7.829 -0.0814 -1.2810  1.5062
 2238SOL    HW218174   0.254   2.049   7.921  0.4053  2.2495 -0.8391
 2239SOL     OW18175   4.396   4.139   3.540  0.6959 -0.1132 -0.6202
 2239SOL    HW118176   4.458   4.208   3.562 -2.2648  2.5601 -0.6114
 2239SOL    HW218177   4.392   4.153   3.445  1.6773 -2.1411 -0.9594
 2240SOL     OW18178   0.581   1.577   1.888  0.5351  0.0599  0.1978
 2240SOL    HW118179   0.634   1.657   1.888 -0.8350  0.9681  0.7645
 2240SOL    HW218180   0.521   1.588   1.814 -1.1888  1.4852  1.8271
 2241SOL     OW18181   0.446   2.366   2.973 -0.0628 -0.7202 -0.4278
 2241SOL    HW118182   0.401   2.416   2.905 -2.3151 -0.2012  1.4490
 2241SOL    HW218183   0.427   2.275   2.949 -1.3221 -0.6595  0.3678
 2242SOL     OW18184   2.616   2.919   3.023 -0.3657 -0.9353 -0.0305
 2242SOL    HW118185   2.601   2.979   3.096 -3.5348 -1.2962 -0.3790
 2242SOL    HW218186   2.708   2.900   3.042  0.0646  0.1515 -0.9786
 2243SOL     OW18187   0.741   2.110   7.410  0.6289  0.5968 -0.1456
 2243SOL    HW118188   0.755   2.166   7.486  3.1208 -2.2052  1.5050
 2243SOL    HW218189   0.677   2.048   7.446  1.0853  0.8399  1.0970
 2244SOL     OW18190   2.430   3.332   5.107  0.0728 -0.4099  0.2886
 2244SOL    HW118191   2.507   3.384   5.085 -0.4457 -0.0360 -0.6593
 2244SOL    HW218192   2.441   3.308   5.199 -0.8628 -0.4267  0.3997
 2245SOL     OW18193   0.042   0.599   5.008 -0.0013 -0.1888 -0.3123
 2245SOL    HW118194   0.054   0.624   4.916  1.0245 -3.0293 -0.9621
 2245SOL    HW218195   4.674   0.570   5.005 -0.5565  1.5235  0.1969
 2246SOL     OW18196   2.292   1.916   4.672  0.2089  0.1149 -0.3144
 2246SOL    HW118197   2.381   1.881   4.680  0.2483  0.1679 -0.5243
 2246SOL    HW218198   2.281   1.917   4.767 -1.2926 -0.3765 -0.4826
 2247SOL     OW18199   1.491   0.085   2.542  0.4077  0.1232 -0.1867
 2247SOL    HW118200   1.416   0.128   2.503 -0.4583 -1.6238 -0.4690
 2247SOL    HW218201   1.442   0.019   2.592  0.5465  0.7789  0.8103
 2248SOL     OW18202   4.437   3.154   5.404 -0.0140  0.2309 -0.5882
 2248SOL    HW118203   4.463   3.199   5.324  0.2097  0.8256 -0.1775
 2248SOL    HW218204   4.524   3.139   5.440  0.3549 -1.5021 -2.2360
 2249SOL     OW18205   4.129   3.095   9.712 -0.7508  0.0251 -0.3219
 2249SOL    HW118206   4.182   3.123   9.638 -1.4257 -0.1115 -0.8572
 2249SOL    HW218207   4.178   3.018   9.739 -1.0422 -0.1522 -0.3008
 2250SOL     OW18208   2.215   0.067   4.432  0.0305 -0.0813  0.3169
 2250SOL    HW118209   2.206   0.090   4.524  1.0581  2.4716 -0.2399
 2250SOL    HW218210   2.294   0.115   4.406 -0.3795  0.4768  0.1024
 2251SOL     OW18211   4.149   2.942   4.004 -0.0745  0.1399 -0.3058
 2251SOL    HW118212   4.240   2.913   4.016 -0.4524  0.4658  3.4823
 2251SOL    HW218213   4.121   2.942   4.096  0.9230 -0.6807  0.0071
 2252SOL     OW18214   2.714   3.205   9.302  0.4068 -0.1286 -0.3648
 2252SOL    HW118215   2.779   3.136   9.289  0.1977 -0.8946  2.4852
 2252SOL    HW218216   2.709   3.209   9.398 -3.6023 -2.0556 -0.4959
 2253SOL     OW18217   3.701   2.596   4.465  0.1145 -0.6182 -0.9121
 2253SOL    HW118218   3.651   2.582   4.385  2.2060 -0.7278 -2.1935
 2253SOL    HW218219   3.628   2.633   4.515  1.1026  0.5235 -0.3229
 2254SOL     OW18220   1.973   1.447   6.353  0.5531  0.3966 -0.3631
 2254SOL    HW118221   2.057   1.485   6.378  0.1707  0.7258  0.4420
 2254SOL    HW218222   1.999   1.377   6.293  1.7600  0.8420 -0.3437
 2255SOL     OW18223   0.511   4.275   6.388 -0.1828 -0.0675  0.1951
 2255SOL    HW118224   0.460   4.215   6.442 -0.7721 -1.7976 -2.2892
 2255SOL    HW218225   0.444   4.342   6.372 -0.6886 -0.1967  1.8331
 2256SOL     OW18226   2.605   0.391   8.238 -0.6788  0.3239  0.1199
 2256SOL    HW118227   2.599   0.355   8.150  0.9184 -0.9048  0.5207
 2256SOL    HW218228   2.664   0.333   8.285  2.3247  3.5822  0.3562
 2257SOL     OW18229   0.189   3.203  14.528 -0.0464  0.3564  0.0163
 2257SOL    HW118230   0.188   3.161  14.614  1.5941 -0.9591 -0.6057
 2257SOL    HW218231   0.222   3.289  14.555 -0.4053  0.7144 -0.6628
 2258SOL     OW18232   2.771   4.416   7.793  0.3415  0.6055  0.0944
 2258SOL    HW118233   2.741   4.501   7.762  1.3224  0.9119 -0.0079
 2258SOL    HW218234   2.788   4.433   7.886  1.3764 -3.0078  0.5494
 2259SOL     OW18235   0.489   3.203   2.877  0.0279 -0.2365 -0.0729
 2259SOL    HW118236   0.427   3.160   2.936  1.4301 -1.4702  0.4741
 2259SOL    HW218237   0.463   3.159   2.796 -2.0376 -2.0978  1.5869
 2260SOL     OW18238   4.503   2.971  14.778 -0.3681  0.4609 -0.6340
 2260SOL    HW118239   4.547   3.046  14.818 -0.4961  0.7953 -1.1229
 2260SOL    HW218240   4.569   2.915  14.737 -4.0389 -3.9556 -0.5009
 2261SOL     OW18241   1.536   2.226  17.574  0.4630 -0.0377  0.4946
 2261SOL    HW118242   1.517   2.245  17.482  3.3756  0.1480 -0.0610
 2261SOL    HW218243   1.630   2.211  17.566  0.5441  0.0664  1.2480
 2262SOL     OW18244   1.975   0.391  15.233 -0.4405  0.1398 -0.0039
 2262SOL    HW118245   1.914   0.398  15.159 -2.7239  0.8103  1.9381
 2262SOL    HW218246   2.050   0.440  15.200  0.1797 -0.0931  1.0968
 2263SOL     OW18247   4.028   0.264   8.692  1.0289 -0.4992 -0.0750
 2263SOL    HW118248   3.964   0.213   8.741  1.2088 -1.4892 -0.8786
 2263SOL    HW218249   4.044   0.215   8.612 -1.1088  0.4071 -1.0471
 2264SOL     OW18250   1.114   2.608   8.264  0.0831 -0.2375  0.5284
 2264SOL    HW118251   1.160   2.657   8.332 -0.8287  0.1230  0.8811
 2264SOL    HW218252   1.111   2.522   8.307  0.0864  0.8566  2.6869
 2265SOL     OW18253   1.619   4.522   3.986 -0.3561  0.2114 -0.8358
 2265SOL    HW118254   1.582   4.570   3.912 -1.0455 -0.3323 -0.8413
 2265SOL    HW218255   1.711   4.549   3.982 -0.3030  0.2204  0.3186
 2266SOL     OW18256   4.402   2.681   1.502  0.2477 -0.0437  0.0398
 2266SOL    HW118257   4.407   2.724   1.416  1.4008  0.1459  0.2084
 2266SOL    HW218258   4.330   2.620   1.486 -0.4226  0.4415  1.2842
 2267SOL     OW18259   1.096   3.820  11.517 -0.0129  0.0589 -0.1162
 2267SOL    HW118260   1.073   3.911  11.536 -0.0729 -0.0758  0.4678
 2267SOL    HW218261   1.191   3.831  11.513  0.0541 -0.1824  0.8241
 2268SOL     OW18262   3.933   4.090   2.768  0.6522  0.3442  0.0351
 2268SOL    HW118263   3.948   4.100   2.674  2.4621  1.4559  0.4512
 2268SOL    HW218264   4.003   4.140   2.810  1.9912 -0.7541 -0.8872
 2269SOL     OW18265   0.112   2.861   4.759 -0.3842 -0.5119 -0.1192
 2269SOL    HW118266   0.174   2.789   4.765  0.1326 -0.2186 -1.9859
 2269SOL    HW218267   0.170   2.936   4.749 -0.3818 -0.4989 -0.0071
 2270SOL     OW18268   2.560   4.315  17.650 -0.2268  0.4860  0.4342
 2270SOL    HW118269   2.614   4.321   0.036 -0.8487 -2.0369  1.0514
 2270SOL    HW218270   2.502   4.245  17.679 -0.6014  0.1222 -1.1950
 2271SOL     OW18271   0.570   3.407   5.574  0.3408  0.0127  0.3040
 2271SOL    HW118272   0.585   3.455   5.493 -0.3164 -1.3110 -0.5991
 2271SOL    HW218273   0.652   3.415   5.622 -0.4330  3.0168  1.1301
 2272SOL     OW18274   0.013   3.598   7.161 -0.1205 -0.6134  0.4224
 2272SOL    HW118275   0.090   3.612   7.105 -1.0350 -0.8446 -0.8790
 2272SOL    HW218276   4.669   3.579   7.095 -0.7428  0.9858  0.5784
 2273SOL     OW18277   3.525   2.417   6.728 -0.1867  0.2412  0.0849
 2273SOL    HW118278   3.618   2.439   6.713  0.5766 -1.6394  2.1370
 2273SOL    HW218279   3.500   2.478   6.797  1.3269  1.4707 -0.4428
 2274SOL     OW18280   4.588   2.328  17.657 -0.3457 -0.0314 -0.1098
 2274SOL    HW118281   4.617   2.312   0.054 -0.5641  0.5465  0.0679
 2274SOL    HW218282   4.525   2.399  17.670  1.6116  1.9137 -1.1836
 2275SOL     OW18283   4.084   3.231   2.700 -0.3740  0.3830  0.5363
 2275SOL    HW118284   4.150   3.164   2.719 -0.0785  1.1852  2.3054
 2275SOL    HW218285   4.106   3.303   2.759 -0.0968  0.6898  0.0560
 2276SOL     OW18286   3.179   0.541  10.867 -0.3209 -0.4701  0.1313
 2276SOL    HW118287   3.218   0.624  10.841  0.5226 -0.7816  0.3978
 2276SOL    HW218288   3.105   0.527  10.808 -0.3116  0.9361 -0.2197
 2277SOL     OW18289   0.192   3.627   4.755  0.0438  0.9418 -0.0969
 2277SOL    HW118290   0.178   3.618   4.660  2.0452 -3.8878  0.0441
 2277SOL    HW218291   0.288   3.626   4.763 -0.0162 -1.0841  0.3947
 2278SOL     OW18292   1.362   0.676  15.335 -0.0145 -0.1696  0.3570
 2278SOL    HW118293   1.340   0.584  15.348  1.4681 -0.9760 -2.6518
 2278SOL    HW218294   1.308   0.718  15.402  1.4655  0.1723  1.3189
 2279SOL     OW18295   2.570   3.072  12.197 -0.5623 -0.3312  0.2976
 2279SOL    HW118296   2.548   3.120  12.276 -0.4076  0.6711 -0.2733
 2279SOL    HW218297   2.501   3.006  12.187 -0.4382 -0.6571  1.5859
 2280SOL     OW18298   0.075   2.444   5.814  0.3863 -0.2899  0.0632
 2280SOL    HW118299   0.050   2.364   5.769 -0.8398  0.7925 -1.1856
 2280SOL    HW218300   0.158   2.421   5.856 -0.1028  0.5566  1.5267
 2281SOL     OW18301   4.647   0.640   0.606  0.7268 -0.1864 -0.2626
 2281SOL    HW118302   4.612   0.709   0.550 -1.7535 -0.7460  0.5880
 2281SOL    HW218303   0.019   0.652   0.605  0.9050 -1.5165  1.0531
 2282SOL     OW18304   0.050   0.195  12.291 -0.1948 -0.1905  0.2421
 2282SOL    HW118305   0.141   0.198  12.262 -1.0373 -0.8681 -2.3986
 2282SOL    HW218306   0.020   0.285  12.277  1.0794 -0.0997 -1.9320
 2283SOL     OW18307   0.122   1.850   2.109 -0.3043  0.7315  0.7218
 2283SOL    HW118308   0.082   1.827   2.193  0.3040 -0.5522  0.6569
 2283SOL    HW218309   0.045   1.856   2.053 -1.9769  2.1088  3.1946
 2284SOL     OW18310   0.813   0.304   1.592  0.0180  0.6482 -0.2341
 2284SOL    HW118311   0.785   0.389   1.627  0.1731 -0.1966  1.9364
 2284SOL    HW218312   0.782   0.246   1.661 -0.8271 -0.0346 -1.1988
 2285SOL     OW18313   3.663   0.148   7.668 -0.2827  0.1413 -0.3676
 2285SOL    HW118314   3.573   0.121   7.683 -0.1262 -0.2694 -0.1539
 2285SOL    HW218315   3.683   0.209   7.739 -0.9223 -0.2488  0.1378
 2286SOL     OW18316   0.586   3.185   5.317 -0.1364 -0.1214 -0.3338
 2286SOL    HW118317   0.621   3.181   5.228 -1.2917  0.3995 -0.8103
 2286SOL    HW218318   0.660   3.152   5.367 -0.5738  0.5998  0.8075
 2287SOL     OW18319   1.155   0.179   1.246 -0.3294  0.4099  0.3156
 2287SOL    HW118320   1.061   0.162   1.256 -0.2791 -0.8665 -1.2798
 2287SOL    HW218321   1.178   0.199   1.336  1.1151  0.4507 -0.0688
 2288SOL     OW18322   1.262   2.777   4.050  0.5245  0.2251 -0.0741
 2288SOL    HW118323   1.221   2.699   4.089  0.3453  0.6136  0.5146
 2288SOL    HW218324   1.213   2.804   3.972  1.4190 -0.4583 -0.8669
 2289SOL     OW18325   0.123   4.096   3.368  0.1392 -0.2068  0.2489
 2289SOL    HW118326   0.195   4.037   3.351 -1.1100 -1.8051  0.5021
 2289SOL    HW218327   0.137   4.146   3.288 -1.0438 -0.0076  0.1613
 2290SOL     OW18328   0.690   4.360   3.542  0.3637  0.1948  0.0753
 2290SOL    HW118329   0.707   4.447   3.507  4.6007  0.3827  2.6595
 2290SOL    HW218330   0.611   4.390   3.588  0.2714  1.8735 -1.1830
 2291SOL     OW18331   4.684   4.454   7.658  0.6030 -0.2022 -0.1859
 2291SOL    HW118332   4.716   4.476   7.570  0.8757  0.5705  0.1117
 2291SOL    HW218333   4.636   4.374   7.636 -0.1569 -0.1811  1.4453
 2292SOL     OW18334   0.268   2.655  15.302 -0.4471  0.4839 -0.7464
 2292SOL    HW118335   0.216   2.659  15.221 -2.1515 -2.4849  0.2066
 2292SOL    HW218336   0.191   2.669  15.357  1.8308 -0.8694  2.7206
 2293SOL     OW18337   2.210   2.696   6.698  0.3699 -0.1804  0.0712
 2293SOL    HW118338   2.157   2.749   6.638 -1.0020  0.1631  1.5831
 2293SOL    HW218339   2.205   2.739   6.783  0.0543  1.2217 -0.6657
 2294SOL     OW18340   2.381   2.251   0.186 -0.1267 -0.4231 -0.2903
 2294SOL    HW118341   2.396   2.255   0.280 -1.7202  1.1691 -0.0950
 2294SOL    HW218342   2.319   2.182   0.164 -0.7504  0.3763 -1.0529
 2295SOL     OW18343   1.896   4.126   8.205  0.2753 -0.4517  0.0771
 2295SOL    HW118344   1.829   4.123   8.138 -0.7548  1.5886  1.0237
 2295SOL    HW218345   1.837   4.108   8.278  1.3960  0.6484  1.2627
 2296SOL     OW18346   1.106   1.856   8.372 -0.3855 -0.5258 -0.0292
 2296SOL    HW118347   1.085   1.800   8.297  0.1244 -0.4505 -0.2283
 2296SOL    HW218348   1.083   1.942   8.336 -2.4810 -0.8802  0.4430
 2297SOL     OW18349   3.119   2.825   6.768  0.1893 -0.4505 -0.1730
 2297SOL    HW118350   3.081   2.774   6.839  2.7501 -2.3454 -0.1519
 2297SOL    HW218351   3.064   2.904   6.766  0.4239 -0.3252 -2.0001
 2298SOL     OW18352   4.437   4.126   1.706 -0.2326  0.1423 -0.2002
 2298SOL    HW118353   4.473   4.121   1.795 -1.6962 -0.5672  0.3572
 2298SOL    HW218354   4.509   4.095   1.652  1.6183  0.7296  1.9001
 2299SOL     OW18355   3.438   2.365   6.049  0.8008 -1.0854 -0.1752
 2299SOL    HW118356   3.406   2.346   5.961 -3.0568  0.0202  0.9881
 2299SOL    HW218357   3.501   2.294   6.061  1.5812 -0.6048 -1.3598
 2300SOL     OW18358   1.301   4.608   9.097  0.3077  0.1006  0.1783
 2300SOL    HW118359   1.213   4.647   9.095 -0.5595 -1.8147  0.9086
 2300SOL    HW218360   1.333   4.662   9.169  0.4819  0.0457  0.1414
 2301SOL     OW18361   3.884   1.051   6.044 -0.1817  0.1622  0.0858
 2301SOL    HW118362   3.907   0.998   6.120 -1.3720  0.0373  0.3638
 2301SOL    HW218363   3.796   1.075   6.075 -0.8452 -1.1176 -0.7943
 2302SOL     OW18364   4.494   4.387   6.687  0.2197 -0.2620  0.4730
 2302SOL    HW118365   4.409   4.362   6.723 -1.3890  1.6965 -1.9309
 2302SOL    HW218366   4.542   4.332   6.748  0.2854  1.7242  2.2051
 2303SOL     OW18367   1.770   2.503   7.683 -0.3643 -0.3307 -0.0809
 2303SOL    HW118368   1.746   2.564   7.614 -1.2119 -1.6283 -0.9299
 2303SOL    HW218369   1.773   2.423   7.631  0.9599 -0.4142  0.1277
 2304SOL     OW18370   2.571   1.082  14.156 -0.3085 -0.2646  0.0695
 2304SOL    HW118371   2.576   0.988  14.143 -2.2257 -0.1395 -1.5380
 2304SOL    HW218372   2.481   1.088  14.187 -0.2491  2.5690 -0.2798
 2305SOL     OW18373   3.787   0.518   7.031  0.5727 -0.4225  0.4743
 2305SOL    HW118374   3.770   0.513   7.126 -2.3894  1.5436  0.0396
 2305SOL    HW218375   3.766   0.428   7.007  1.8996 -0.2978 -1.1087
 2306SOL     OW18376   0.234   3.079  10.786  1.2652 -0.0194  0.6331
 2306SOL    HW118377   0.300   3.023  10.745  0.0506 -0.3705 -0.8692
 2306SOL    HW218378   0.181   3.106  10.711  0.4212 -0.0917  1.2059
 2307SOL     OW18379   3.095   4.540   6.461  0.0960  0.1217 -0.1247
 2307SOL    HW118380   3.187   4.516   6.466 -0.3174 -1.3715  0.4289
 2307SOL    HW218381   3.061   4.451   6.471  0.2016  0.2591  1.6165
 2308SOL     OW18382   0.421   0.792   3.328 -0.3115 -0.3866 -0.2633
 2308SOL    HW118383   0.469   0.789   3.411 -2.7467 -0.9709  1.1359
 2308SOL    HW218384   0.494   0.774   3.270  0.8416 -1.4435  1.5166
 2309SOL     OW18385   1.253   4.491  12.643  0.3982 -0.5139 -0.3700
 2309SOL    HW118386   1.288   4.410  12.605  1.6490  0.0553 -0.4421
 2309SOL    HW218387   1.256   4.547  12.565  1.1761 -1.4447 -1.0219
 2310SOL     OW18388   0.478   3.733  10.570 -0.4425 -0.4429 -0.3049
 2310SOL    HW118389   0.560   3.777  10.550  0.7697 -1.3525  2.6524
 2310SOL    HW218390   0.450   3.705  10.483 -1.9944 -2.1260  0.7304
 2311SOL     OW18391   1.875   1.794   4.937 -0.3191 -0.3018  0.3610
 2311SOL    HW118392   1.910   1.821   4.851 -1.4222  1.4485  0.4762
 2311SOL    HW218393   1.882   1.873   4.989 -0.2334  0.5502 -0.9338
 2312SOL     OW18394   4.046   0.759  14.666  0.3780  0.3203  0.1644
 2312SOL    HW118395   4.139   0.751  14.689  0.9571  2.9361 -1.1847
 2312SOL    HW218396   4.007   0.675  14.643 -0.5352  0.8676 -0.2655
 2313SOL     OW18397   3.452   4.060   8.879  0.2275 -0.1175  0.1236
 2313SOL    HW118398   3.392   4.090   8.811 -0.6632  0.3854  1.1480
 2313SOL    HW218399   3.468   4.135   8.936 -0.5132 -0.2957  0.5692
 2314SOL     OW18400   3.220   2.666   5.010 -0.8499 -0.4540  0.1549
 2314SOL    HW118401   3.129   2.656   5.037 -0.9160  0.2448  0.2106
 2314SOL    HW218402   3.238   2.758   5.031 -0.7197 -0.0311 -1.8326
 2315SOL     OW18403   2.354   3.337   1.837  0.5193  0.1695  0.2280
 2315SOL    HW118404   2.431   3.374   1.794  0.6715 -1.5540 -0.9741
 2315SOL    HW218405   2.291   3.392   1.791  0.0228  0.5585  1.3577
 2316SOL     OW18406   2.454   1.504   4.528  0.1330 -0.7792 -0.3467
 2316SOL    HW118407   2.465   1.410   4.546 -0.9731 -0.9555 -0.5982
 2316SOL    HW218408   2.497   1.518   4.444  0.9525 -2.9804 -0.3019
 2317SOL     OW18409   0.268   1.354   6.284 -0.3141  0.0836  0.0296
 2317SOL    HW118410   0.282   1.426   6.346 -1.3401  1.5421 -1.4113
 2317SOL    HW218411   0.187   1.312   6.312 -0.8899  0.4353 -1.1268
 2318SOL     OW18412   4.040   2.549  13.598 -0.0541  0.0176  0.5365
 2318SOL    HW118413   3.961   2.584  13.556 -0.0495 -0.2938  0.2727
 2318SOL    HW218414   4.004   2.522  13.682 -0.0610  2.2483  1.2507
 2319SOL     OW18415   4.111   3.183   5.668 -0.0658  0.1427  0.5317
 2319SOL    HW118416   4.152   3.108   5.624 -0.0917  0.6189 -0.2877
 2319SOL    HW218417   4.127   3.253   5.605 -0.0957 -2.8619 -2.8219
 2320SOL     OW18418   3.052   2.924  13.696  0.0224  0.5528  0.5086
 2320SOL    HW118419   2.971   2.888  13.734 -0.2988  0.2434 -0.4538
 2320SOL    HW218420   3.037   3.018  13.689  1.5884  0.5137 -2.9917
 2321SOL     OW18421   0.188   2.367   2.383 -0.3509 -0.9138 -0.4926
 2321SOL    HW118422   0.279   2.351   2.358  0.2610 -0.8434  1.6552
 2321SOL    HW218423   0.146   2.294   2.337 -1.3603 -0.8892  0.3995
 2322SOL     OW18424   2.474   3.307  10.777  0.0074 -0.0980 -0.0872
 2322SOL    HW118425   2.526   3.250  10.721 -1.3267 -1.3447 -0.0763
 2322SOL    HW218426   2.407   3.243  10.800 -1.5976  0.5926 -2.8180
 2323SOL     OW18427   2.013   3.323   3.506  0.4501 -1.2964 -0.0629
 2323SOL    HW118428   2.009   3.418   3.491 -2.9378 -1.3629  0.2264
 2323SOL    HW218429   1.920   3.300   3.503 -0.0926  0.5317  2.0424
 2324SOL     OW18430   3.847   2.356   7.496 -0.2532  0.2465  0.3553
 2324SOL    HW118431   3.884   2.438   7.463 -1.1873  0.5614  0.0837
 2324SOL    HW218432   3.823   2.387   7.583  0.4183  0.0790  0.5998
 2325SOL     OW18433   3.805   0.475   5.890 -0.0236  0.2482  0.5921
 2325SOL    HW118434   3.770   0.550   5.939 -1.5528 -0.3971  0.4823
 2325SOL    HW218435   3.733   0.425   5.852 -0.0291  0.3070  0.5256
 2326SOL     OW18436   0.993   1.897  14.829  0.1752  1.1817  0.1406
 2326SOL    HW118437   1.075   1.880  14.874 -0.6031  2.3133  1.9603
 2326SOL    HW218438   0.999   1.987  14.799 -1.3020  1.7976  1.6917
 2327SOL     OW18439   2.618   3.811   7.334 -0.2843  0.1259 -0.0011
 2327SOL    HW118440   2.681   3.768   7.392  0.0193 -0.0523 -0.4573
 2327SOL    HW218441   2.538   3.781   7.376  0.6608 -0.0088  1.6772
 2328SOL     OW18442   0.265   3.822  16.461  0.2789 -0.2922 -0.3187
 2328SOL    HW118443   0.325   3.748  16.455 -0.0731 -0.4812 -1.4772
 2328SOL    HW218444   0.315   3.885  16.409 -2.5124 -0.0076 -2.6956
 2329SOL     OW18445   2.714   1.497   4.970  0.4582 -0.4159  0.3999
 2329SOL    HW118446   2.807   1.481   4.959  0.0761 -0.4997 -2.8046
 2329SOL    HW218447   2.718   1.548   5.051  1.0463 -0.6475  0.5132
 2330SOL     OW18448   4.099   3.477   1.139 -0.1459 -0.1583  0.8039
 2330SOL    HW118449   4.071   3.470   1.047  1.6905  1.6958  0.0958
 2330SOL    HW218450   4.194   3.479   1.130 -0.1418 -1.4696  0.5993
 2331SOL     OW18451   2.606   3.273  17.534 -0.2303  0.4048  0.0100
 2331SOL    HW118452   2.694   3.287  17.498  0.1239 -0.8871  0.3892
 2331SOL    HW218453   2.625   3.327  17.611  1.4244 -1.1063  0.6287
 2332SOL     OW18454   0.887   0.617   3.805  0.6655  0.5406  0.1849
 2332SOL    HW118455   0.855   0.608   3.715  0.8613  0.2686  0.1427
 2332SOL    HW218456   0.979   0.632   3.783  1.1826  0.4563  2.2465
 2333SOL     OW18457   1.935   1.284   2.570 -0.1885  0.1850 -0.3182
 2333SOL    HW118458   1.903   1.301   2.481  2.3753 -4.4517 -2.1323
 2333SOL    HW218459   2.017   1.332   2.562 -0.0186 -0.2548 -1.2353
 2334SOL     OW18460   1.162   1.116   1.006 -0.4080  0.7588  0.4912
 2334SOL    HW118461   1.144   1.186   1.069 -1.8433  0.4200  0.4647
 2334SOL    HW218462   1.109   1.046   1.045  0.8627 -0.4963 -0.0202
 2335SOL     OW18463   1.649   0.554   4.649  0.6075  1.1030 -0.1188
 2335SOL    HW118464   1.724   0.549   4.590 -0.1673  3.3685 -1.2875
 2335SOL    HW218465   1.589   0.606   4.596 -0.3436 -1.1850 -1.2689
 2336SOL     OW18466   4.246   2.132   6.100 -0.1084 -0.0459  0.1123
 2336SOL    HW118467   4.218   2.220   6.075  0.8747  0.1280 -0.3862
 2336SOL    HW218468   4.341   2.140   6.109 -0.3160  1.0001  1.2994
 2337SOL     OW18469   3.682   0.584   4.036 -0.8046 -0.2486 -0.5824
 2337SOL    HW118470   3.692   0.490   4.051 -3.2069 -0.1678  1.4422
 2337SOL    HW218471   3.682   0.606   4.129  2.7235  1.5255 -0.9658
 2338SOL     OW18472   2.835   1.098   6.621 -0.4603 -0.1061 -0.1075
 2338SOL    HW118473   2.770   1.154   6.664  0.0608  0.3990  0.0257
 2338SOL    HW218474   2.779   1.062   6.552 -2.6992  0.6119  1.3077
 2339SOL     OW18475   1.137   0.128   6.753 -0.0499  0.0079  0.4151
 2339SOL    HW118476   1.117   0.052   6.807  0.9543  0.4532  1.3924
 2339SOL    HW218477   1.195   0.173   6.814  1.8321 -1.2628 -0.4215
 2340SOL     OW18478   2.637   1.447   3.178  0.1386 -0.4161 -0.2167
 2340SOL    HW118479   2.582   1.413   3.249  0.7797 -3.6082 -1.2499
 2340SOL    HW218480   2.702   1.496   3.228 -0.2016  0.7193 -0.8833
 2341SOL     OW18481   3.492   3.400   3.374  0.0823 -0.2915 -0.1892
 2341SOL    HW118482   3.411   3.442   3.403  1.4407  1.0634  1.6346
 2341SOL    HW218483   3.558   3.450   3.420  1.5832 -0.6140 -1.9943
 2342SOL     OW18484   0.514   0.464   8.339  0.1214  0.0384  0.6425
 2342SOL    HW118485   0.463   0.479   8.419  0.1707 -0.4701  0.7711
 2342SOL    HW218486   0.521   0.546   8.292  1.3567 -0.8155 -0.6607
 2343SOL     OW18487   3.695   4.041   4.921  0.5827 -0.3741 -0.0497
 2343SOL    HW118488   3.644   3.976   4.873  0.7594 -0.9668  0.5657
 2343SOL    HW218489   3.753   4.076   4.853 -1.4281 -1.0240 -2.1244
 2344SOL     OW18490   0.054   4.054  14.087 -0.3099  0.3698 -0.6022
 2344SOL    HW118491   0.065   3.983  14.024  0.4517  0.0914 -0.1505
 2344SOL    HW218492   0.001   4.001  14.147  3.2324 -1.1034  1.1940
 2345SOL     OW18493   2.298   2.885  15.581  0.4652 -0.2059 -0.3764
 2345SOL    HW118494   2.338   2.847  15.502 -0.2634 -0.7668 -0.4794
 2345SOL    HW218495   2.273   2.805  15.627  2.4685  0.1192  1.2756
 2346SOL     OW18496   0.703   0.799   1.318 -0.6134 -0.0869 -0.3052
 2346SOL    HW118497   0.717   0.836   1.405 -1.3960 -4.0935  1.4988
 2346SOL    HW218498   0.772   0.733   1.321 -0.8873 -0.2715  1.6128
 2347SOL     OW18499   0.460   1.892  17.434  0.4034 -0.0616 -0.4648
 2347SOL    HW118500   0.374   1.869  17.401  1.2507 -3.1758 -0.5007
 2347SOL    HW218501   0.440   1.892  17.528  1.8651 -0.6536 -0.1476
 2348SOL     OW18502   3.807   3.460  17.026  0.0898  0.1570  0.0466
 2348SOL    HW118503   3.737   3.478  16.963  0.0325 -2.4307 -0.6203
 2348SOL    HW218504   3.766   3.463  17.112 -1.1659 -0.1729 -0.5488
 2349SOL     OW18505   3.020   2.496   2.380  0.1367  0.6217 -0.1289
 2349SOL    HW118506   2.927   2.518   2.373 -0.0604 -0.3460 -0.5573
 2349SOL    HW218507   3.055   2.564   2.437  0.0528  1.5354 -1.1698
 2350SOL     OW18508   3.591   3.044  10.476 -0.0583 -0.0432  0.4235
 2350SOL    HW118509   3.517   3.002  10.433 -0.1995  2.8842 -2.2136
 2350SOL    HW218510   3.660   2.986  10.443 -0.1503 -0.1947  0.4992
 2351SOL     OW18511   2.361   2.362   1.941  0.0098 -0.0888 -0.1708
 2351SOL    HW118512   2.322   2.284   1.980  1.7405 -1.2603 -0.7593
 2351SOL    HW218513   2.323   2.349   1.854 -1.3693 -2.5590  0.8093
 2352SOL     OW18514   3.911   1.548   2.021  0.0941 -0.2042 -0.0845
 2352SOL    HW118515   3.989   1.512   2.062  0.9091 -0.0251 -1.5046
 2352SOL    HW218516   3.937   1.640   2.027  3.0660 -1.1055  0.8715
 2353SOL     OW18517   0.715   3.735   3.423  0.0005  0.2221 -0.1226
 2353SOL    HW118518   0.700   3.814   3.476  0.3436 -0.8221  1.5468
 2353SOL    HW218519   0.755   3.772   3.345 -0.3376 -0.3011 -0.5379
 2354SOL     OW18520   3.295   1.837  12.939 -0.6805 -0.5138  0.8591
 2354SOL    HW118521   3.232   1.906  12.919 -1.6718 -1.1385  1.8763
 2354SOL    HW218522   3.270   1.762  12.886 -3.6819  2.2084 -1.6272
 2355SOL     OW18523   4.554   4.422   6.985 -0.1113  0.0538 -0.0070
 2355SOL    HW118524   4.615   4.348   6.976 -0.4907 -0.1264 -1.0054
 2355SOL    HW218525   4.585   4.428   7.076  1.9535  0.3874 -0.7224
 2356SOL     OW18526   3.234   2.340   5.455  0.0458 -0.5420  0.0410
 2356SOL    HW118527   3.241   2.393   5.375 -1.5376  0.2810  0.4253
 2356SOL    HW218528   3.207   2.411   5.514  4.0322  1.7059 -0.8549
 2357SOL     OW18529   3.341   3.230   1.252  0.5372  0.2565 -0.3181
 2357SOL    HW118530   3.346   3.268   1.339 -1.3424  0.6373 -0.3649
 2357SOL    HW218531   3.255   3.261   1.222 -0.4737 -2.3023 -0.0243
 2358SOL     OW18532   4.030   2.604  17.253 -0.2047  0.1491 -0.0982
 2358SOL    HW118533   3.967   2.629  17.321  0.5477 -0.5168  0.8359
 2358SOL    HW218534   4.034   2.676  17.190  0.7374  1.9726  2.0445
 2359SOL     OW18535   0.496   2.290  11.950 -0.6890  0.3431  0.0650
 2359SOL    HW118536   0.589   2.294  11.929 -0.9166  1.3257 -0.7650
 2359SOL    HW218537   0.497   2.348  12.027  0.5804 -0.3070  0.5407
 2360SOL     OW18538   4.705   3.023  15.714  0.2337 -0.0606 -0.6388
 2360SOL    HW118539   4.622   2.975  15.718 -0.2436  0.9655  1.4268
 2360SOL    HW218540   4.678   3.111  15.740 -3.7586 -0.8430 -2.1009
 2361SOL     OW18541   1.677   2.202   4.766  0.1594 -0.6048 -0.7680
 2361SOL    HW118542   1.751   2.196   4.705  0.0923  0.6528 -0.9654
 2361SOL    HW218543   1.616   2.131   4.748 -0.0432 -0.6183 -0.0170
 2362SOL     OW18544   1.909   2.260  15.209  0.0047  0.5102  0.2434
 2362SOL    HW118545   1.865   2.224  15.286  0.9731  2.0004  1.5146
 2362SOL    HW218546   2.001   2.240  15.229  0.4283  0.8288 -1.3865
 2363SOL     OW18547   1.851   3.460   6.812 -0.4915 -0.9391 -0.1194
 2363SOL    HW118548   1.818   3.370   6.812 -0.3888 -0.9766 -0.2194
 2363SOL    HW218549   1.771   3.511   6.820 -0.2682 -1.0470  2.9607
 2364SOL     OW18550   1.537   0.105   4.018 -0.5128 -0.6981 -0.6313
 2364SOL    HW118551   1.604   0.052   3.976 -0.1503  1.2371 -2.4227
 2364SOL    HW218552   1.458   0.052   4.000 -0.8511 -0.1125 -0.8568
 2365SOL     OW18553   3.129   1.152   0.040 -0.0555  0.3234 -0.4063
 2365SOL    HW118554   3.189   1.221   0.069 -0.5794  0.5964  0.0440
 2365SOL    HW218555   3.057   1.206   0.007  0.0753  0.6322 -0.1816
 2366SOL     OW18556   2.428   3.064   1.769  0.1728  0.3420 -1.0378
 2366SOL    HW118557   2.396   3.127   1.834  2.6728 -0.7337  1.2302
 2366SOL    HW218558   2.355   3.055   1.707  0.9737  0.8985 -2.0458
 2367SOL     OW18559   2.049   1.696  13.422 -0.4387  0.4074 -0.9352
 2367SOL    HW118560   2.134   1.730  13.394 -1.0508  2.8733  0.1987
 2367SOL    HW218561   2.003   1.774  13.455 -1.2157 -1.2334  1.8779
 2368SOL     OW18562   1.464   1.330   0.005 -0.0980 -0.5430  0.1781
 2368SOL    HW118563   1.526   1.358  17.630 -1.8636 -1.0830 -1.6770
 2368SOL    HW218564   1.391   1.391  17.685  1.9623  1.4144 -2.3245
 2369SOL     OW18565   2.820   0.399   9.447  0.1854 -0.0284 -0.3932
 2369SOL    HW118566   2.909   0.436   9.453  0.5723 -1.0705  0.2895
 2369SOL    HW218567   2.826   0.348   9.367  4.3210  0.7302 -0.5985
 2370SOL     OW18568   2.452   3.610   2.666 -0.1513  0.6720 -0.1801
 2370SOL    HW118569   2.371   3.657   2.645  0.0720  0.5127 -1.4005
 2370SOL    HW218570   2.418   3.530   2.705  2.6949 -0.6943 -0.5739
 2371SOL     OW18571   1.599   3.129   5.572  0.5317  0.4096 -0.1280
 2371SOL    HW118572   1.688   3.154   5.547  0.4857  0.3312 -0.3715
 2371SOL    HW218573   1.554   3.213   5.570 -0.6636 -0.2401 -0.4118
 2372SOL     OW18574   3.271   0.047   4.069  0.3504  0.5450  0.1220
 2372SOL    HW118575   3.230   4.700   4.018  1.4812  3.0760 -4.2199
 2372SOL    HW218576   3.265   0.013   4.159  2.2607  1.2394  0.5050
 2373SOL     OW18577   3.269   1.610   0.674 -0.1171  0.5411 -0.5032
 2373SOL    HW118578   3.350   1.587   0.630  0.5379  0.4320  0.7419
 2373SOL    HW218579   3.284   1.577   0.763  1.6957  1.4316 -0.4733
 2374SOL     OW18580   0.646   2.940   5.753 -0.0125  0.2100 -0.1896
 2374SOL    HW118581   0.645   2.961   5.660  2.3812  1.0709 -0.0341
 2374SOL    HW218582   0.583   2.869   5.765  1.1210 -0.4393  1.9333
 2375SOL     OW18583   2.663   0.500   2.878 -0.5761 -0.1100  0.2518
 2375SOL    HW118584   2.717   0.422   2.894  0.5473  0.3913 -1.1040
 2375SOL    HW218585   2.720   0.566   2.917 -1.7989 -0.6901  2.9805
 2376SOL     OW18586   1.664   2.143   0.326  0.8588  0.1692  0.2344
 2376SOL    HW118587   1.695   2.123   0.237 -0.4296  2.9399 -0.8338
 2376SOL    HW218588   1.636   2.234   0.320  2.0746  0.5612  0.5785
 2377SOL     OW18589   0.789   1.957  15.008 -0.0838 -0.5048 -0.5622
 2377SOL    HW118590   0.799   1.946  14.913 -1.7649  1.5589 -0.9677
 2377SOL    HW218591   0.871   2.003  15.024 -0.3828 -0.8459  1.8383
 2378SOL     OW18592   2.710   2.423  10.793  0.2061  0.1570 -0.0022
 2378SOL    HW118593   2.718   2.421  10.698 -0.4532  0.8885 -0.0701
 2378SOL    HW218594   2.801   2.406  10.817  0.8146  1.4789 -1.3940
 2379SOL     OW18595   4.303   1.081   2.742 -0.0765 -0.4991 -0.6887
 2379SOL    HW118596   4.339   1.033   2.816  1.2317 -2.4942 -2.5947
 2379SOL    HW218597   4.383   1.118   2.705  0.6929  0.9342  2.4958
 2380SOL     OW18598   1.899   4.338   5.117  0.2213 -0.1210  0.5508
 2380SOL    HW118599   1.825   4.320   5.175  0.2779 -1.7753  0.1077
 2380SOL    HW218600   1.976   4.315   5.169  2.1948  1.3278 -1.7390
 2381SOL     OW18601   1.495   3.392  14.887  0.1453  0.2644 -0.0694
 2381SOL    HW118602   1.447   3.327  14.938 -1.4253 -0.2884 -2.2675
 2381SOL    HW218603   1.506   3.348  14.803 -0.0646 -0.6518  0.3880
 2382SOL     OW18604   0.927   0.646   5.657 -0.0237 -0.0939  0.4835
 2382SOL    HW118605   0.992   0.683   5.597  0.7088 -1.2971  0.5398
 2382SOL    HW218606   0.893   0.729   5.691  0.4371 -0.5008  1.9174
 2383SOL     OW18607   0.911   2.019   3.625 -0.2753  0.2595 -0.3943
 2383SOL    HW118608   0.861   2.085   3.673  0.2066 -0.1570  0.6762
 2383SOL    HW218609   0.884   1.939   3.671  3.0148 -0.7529 -0.2455
 2384SOL     OW18610   4.235   2.174   1.510 -0.4366  0.5357  0.1023
 2384SOL    HW118611   4.271   2.156   1.423 -0.7589 -2.0264  0.5191
 2384SOL    HW218612   4.166   2.109   1.513 -0.8802  1.1206  3.1877
 2385SOL     OW18613   2.653   3.209   8.915  0.1477  0.4926  0.6207
 2385SOL    HW118614   2.746   3.212   8.894  0.0327  0.1504  0.0522
 2385SOL    HW218615   2.650   3.273   8.986  0.0145  0.2091  0.8686
 2386SOL     OW18616   3.858   1.240  13.738 -0.0928  0.0927  0.5758
 2386SOL    HW118617   3.858   1.225  13.832 -0.8496 -1.3001  0.3572
 2386SOL    HW218618   3.767   1.227  13.710 -0.9060  1.4205  2.6310
 2387SOL     OW18619   1.215   3.973  10.090  0.2236 -0.0064 -0.2964
 2387SOL    HW118620   1.215   4.030  10.012  1.1704 -1.2259 -1.1846
 2387SOL    HW218621   1.310   3.966  10.095  0.2879  1.0264  0.0516
 2388SOL     OW18622   4.675   4.198   6.889  0.1919  0.1465 -0.3955
 2388SOL    HW118623   4.672   4.140   6.813  2.0995 -0.6442  0.1331
 2388SOL    HW218624   0.033   4.241   6.859 -0.2049 -0.8181 -2.8404
 2389SOL     OW18625   1.629   1.268   3.523  0.2662 -0.2584 -0.1402
 2389SOL    HW118626   1.571   1.256   3.448 -0.2973  0.4641  0.1941
 2389SOL    HW218627   1.663   1.179   3.536 -3.1489 -1.4634  0.5479
 2390SOL     OW18628   3.667   4.514   7.564 -0.2940 -0.1435  0.0350
 2390SOL    HW118629   3.577   4.534   7.539 -0.5014  3.1978  3.5580
 2390SOL    HW218630   3.713   4.506   7.481 -1.1499  0.1520 -0.4642
 2391SOL     OW18631   0.207   1.100   1.257  0.3240 -0.4525 -0.2970
 2391SOL    HW118632   0.233   1.056   1.176  0.0979  0.2813 -0.7684
 2391SOL    HW218633   0.231   1.039   1.326  0.4470  0.2514  0.2805
 2392SOL     OW18634   2.314   1.871   3.718  0.2892  0.7319 -0.2349
 2392SOL    HW118635   2.400   1.844   3.750 -0.5721  0.9136  2.2344
 2392SOL    HW218636   2.316   1.838   3.629  0.0933  1.9324 -0.6915
 2393SOL     OW18637   0.318   1.520   4.895 -0.6952  0.6589  0.0524
 2393SOL    HW118638   0.391   1.470   4.859  0.1503  1.6765  0.3521
 2393SOL    HW218639   0.373   1.553   4.966  1.0792 -0.7739 -0.6444
 2394SOL     OW18640   2.999   4.089   7.007 -0.1039  0.2714 -0.9469
 2394SOL    HW118641   2.911   4.059   7.030  0.8069 -1.4651  0.3170
 2394SOL    HW218642   2.984   4.144   6.930  1.1596 -0.4290 -1.7076
 2395SOL     OW18643   2.805   2.392   1.796  0.5067  0.1976  0.4434
 2395SOL    HW118644   2.822   2.471   1.745 -0.3314 -0.4565 -0.8236
 2395SOL    HW218645   2.896   2.365   1.810  0.7969  0.9709  0.0922
 2396SOL     OW18646   3.601   0.300   4.429 -0.2777 -0.1349  0.0820
 2396SOL    HW118647   3.645   0.244   4.493 -1.8141 -0.6342  0.6916
 2396SOL    HW218648   3.643   0.379   4.461 -2.9572  1.8964 -1.5002
 2397SOL     OW18649   4.174   3.630   7.564  0.2720  0.2258  0.5849
 2397SOL    HW118650   4.188   3.720   7.592 -1.1777  0.0927  1.7295
 2397SOL    HW218651   4.117   3.634   7.487  1.6648  0.2675 -0.4389
 2398SOL     OW18652   3.568   4.530  13.059  0.2184  0.0236  0.0400
 2398SOL    HW118653   3.581   4.542  13.153 -0.3345  2.9627 -0.2563
 2398SOL    HW218654   3.533   4.618  13.043 -0.4979 -0.4422 -0.9670
 2399SOL     OW18655   3.917   4.670   3.809  0.7976 -0.2163  0.5521
 2399SOL    HW118656   3.982   4.702   3.747 -1.1615 -1.5782 -2.1965
 2399SOL    HW218657   3.940   4.718   3.888  1.1260 -1.0832  0.9860
 2400SOL     OW18658   1.141   3.981   8.456  0.1607  0.5410  0.3844
 2400SOL    HW118659   1.219   3.966   8.403 -0.6143 -0.8753 -0.3877
 2400SOL    HW218660   1.173   3.992   8.545  1.6553  1.0118 -0.2074
 2401SOL     OW18661   1.574   2.485  12.498  0.1250 -0.4655  0.9987
 2401SOL    HW118662   1.586   2.425  12.425 -0.0826  0.5928  0.0972
 2401SOL    HW218663   1.662   2.522  12.506  0.6171 -1.2063 -1.3152
 2402SOL     OW18664   1.357   1.717   0.528 -0.0543  0.2410 -0.1347
 2402SOL    HW118665   1.385   1.692   0.440  0.7084 -0.4587  0.3120
 2402SOL    HW218666   1.430   1.688   0.583  0.8653  1.2544 -0.8076
 2403SOL     OW18667   2.410   1.044   8.723 -0.2136  0.4292 -0.2203
 2403SOL    HW118668   2.487   1.071   8.674 -1.3921 -0.0071 -2.3173
 2403SOL    HW218669   2.333   1.083   8.682 -0.9344  1.6224  2.2667
 2404SOL     OW18670   2.312   3.636  15.537  0.0852  0.2180  0.3261
 2404SOL    HW118671   2.331   3.677  15.452 -0.7916 -1.6631 -0.7785
 2404SOL    HW218672   2.269   3.560  15.499  1.7219 -0.3674 -0.3266
 2405SOL     OW18673   1.238   2.613   5.769 -0.3086  0.3074 -0.0480
 2405SOL    HW118674   1.227   2.654   5.683  0.6601 -2.2213 -1.3679
 2405SOL    HW218675   1.316   2.559   5.764 -0.4078  0.2281 -0.8006
 2406SOL     OW18676   0.969   3.837  12.095  0.4380  0.4707 -0.8640
 2406SOL    HW118677   1.002   3.752  12.125  0.7498  0.0976 -2.2763
 2406SOL    HW218678   0.997   3.823  12.005  0.3858 -0.6958 -0.7026
 2407SOL     OW18679   3.298   0.532   0.512 -0.3003 -0.0952  0.6216
 2407SOL    HW118680   3.313   0.533   0.606  0.8024 -0.4406  0.4440
 2407SOL    HW218681   3.340   0.448   0.498 -0.8174 -0.6496  2.3789
 2408SOL     OW18682   1.418   3.043   8.199 -0.1011  0.2385 -0.1623
 2408SOL    HW118683   1.499   3.001   8.231  1.0088  2.4340 -0.1022
 2408SOL    HW218684   1.362   3.031   8.276 -1.4000 -0.0090 -1.1609
 2409SOL     OW18685   3.991   3.776   2.278 -0.8148 -0.2524  0.6577
 2409SOL    HW118686   3.942   3.800   2.200  2.9672 -1.9933 -2.2184
 2409SOL    HW218687   4.076   3.816   2.263 -0.8072 -0.6233 -0.2638
 2410SOL     OW18688   1.088   4.609   8.579  0.0915  0.0354 -0.1033
 2410SOL    HW118689   1.014   4.625   8.520  0.1296  3.3551  0.7697
 2410SOL    HW218690   1.160   4.659   8.541  1.0103 -0.5475  0.8848
 2411SOL     OW18691   2.837   1.602  11.151  0.1316  0.0519 -0.0868
 2411SOL    HW118692   2.873   1.691  11.151 -1.4530  0.6859 -1.0001
 2411SOL    HW218693   2.843   1.579  11.059 -2.4013 -2.8578  0.4988
 2412SOL     OW18694   2.665   1.414   1.186 -0.4995  0.0844 -0.1110
 2412SOL    HW118695   2.606   1.450   1.252  1.3382  0.2658  1.4340
 2412SOL    HW218696   2.622   1.444   1.106  0.4312 -0.9095 -0.9959
 2413SOL     OW18697   4.205   1.507  11.054 -0.4831 -0.2355  0.0396
 2413SOL    HW118698   4.141   1.445  11.089 -1.2783  0.2425 -0.5785
 2413SOL    HW218699   4.211   1.573  11.123  2.2861  0.7651 -1.1701
 2414SOL     OW18700   1.627   1.667   4.861  0.1110  0.2000 -0.2656
 2414SOL    HW118701   1.713   1.672   4.903  0.0849  1.3852 -0.3551
 2414SOL    HW218702   1.649   1.694   4.772  0.1467 -0.0546 -0.3352
 2415SOL     OW18703   3.848   3.858  15.682 -0.2072 -0.7267  0.4581
 2415SOL    HW118704   3.802   3.883  15.762  0.6739 -0.6891  0.9540
 2415SOL    HW218705   3.801   3.778  15.657 -0.2740 -0.6785  0.4306
 2416SOL     OW18706   0.244   3.842   4.340  0.1956 -1.0596 -0.5405
 2416SOL    HW118707   0.313   3.808   4.397  1.7169  2.1455 -0.4719
 2416SOL    HW218708   0.231   3.757   4.298 -4.0746  0.0081 -1.4347
 2417SOL     OW18709   2.451   3.419   7.862 -0.2218  0.2621  0.7428
 2417SOL    HW118710   2.369   3.370   7.862 -0.4945  0.7222  0.5959
 2417SOL    HW218711   2.431   3.494   7.917 -0.6295  0.3020  0.5346
 2418SOL     OW18712   4.157   1.938   1.083  0.2255  0.0293  0.3264
 2418SOL    HW118713   4.209   2.018   1.075 -2.3126  1.8067  1.3956
 2418SOL    HW218714   4.172   1.896   0.998  1.6789 -2.4521  1.8521
 2419SOL     OW18715   1.412   2.738  13.153 -0.6193 -0.2654 -0.6558
 2419SOL    HW118716   1.501   2.771  13.159 -0.2214 -1.3726 -0.4684
 2419SOL    HW218717   1.428   2.648  13.179  0.8284  0.7529  1.8951
 2420SOL     OW18718   1.280   2.045   6.397 -0.2740 -0.0186  0.1758
 2420SOL    HW118719   1.349   2.037   6.463 -1.8379  1.0681  1.9157
 2420SOL    HW218720   1.264   2.139   6.404 -0.0263 -0.2642  4.1806
 2421SOL     OW18721   0.097   4.614   1.940  0.5721  0.0948 -0.0266
 2421SOL    HW118722   0.174   4.627   1.884  1.0545 -2.9790 -0.0521
 2421SOL    HW218723   0.053   4.699   1.932  2.9332  1.4144  0.9739
 2422SOL     OW18724   0.358   2.105   2.961  0.4508 -0.0520 -0.2240
 2422SOL    HW118725   0.323   2.099   3.049 -0.3015  0.2615 -0.4992
 2422SOL    HW218726   0.284   2.072   2.910  0.1984 -0.8751  0.7000
 2423SOL     OW18727   2.984   0.542  15.333  0.3281  0.6576 -0.0781
 2423SOL    HW118728   2.898   0.508  15.359  1.4371 -1.3996  0.9008
 2423SOL    HW218729   3.023   0.463  15.296 -0.1808  0.2352  0.2893
 2424SOL     OW18730   3.541   4.575   7.942 -0.0909  0.5381 -0.6588
 2424SOL    HW118731   3.557   4.532   8.026 -0.1523 -1.0786 -1.4708
 2424SOL    HW218732   3.553   4.667   7.967 -1.9602  0.3771  0.8806
 2425SOL     OW18733   4.462   0.452   8.644 -0.6138  0.3102 -0.1690
 2425SOL    HW118734   4.488   0.494   8.562  1.1555  0.7190  0.5956
 2425SOL    HW218735   4.368   0.450   8.629 -0.7782  2.1980  0.6121
 2426SOL     OW18736   0.309   4.655   1.795  0.1795 -0.5636  0.0482
 2426SOL    HW118737   0.348   0.020   1.794  1.0094 -0.9393  0.7419
 2426SOL    HW218738   0.382   4.600   1.769  1.5198  0.7541  1.0691
 2427SOL     OW18739   2.072   2.771  12.563  0.1259  0.0788 -0.3383
 2427SOL    HW118740   2.113   2.761  12.649  1.2224  0.5482 -0.8074
 2427SOL    HW218741   2.039   2.861  12.566  0.0137  0.0491 -0.8146
 2428SOL     OW18742   1.199   2.979   6.565  0.2147  0.4510  0.0060
 2428SOL    HW118743   1.234   2.910   6.623  1.2412  1.6007  0.7472
 2428SOL    HW218744   1.250   3.051   6.602 -0.4683  0.7791  0.2932
 2429SOL     OW18745   2.538   2.553   1.763 -0.1029  0.0996  0.1189
 2429SOL    HW118746   2.453   2.563   1.720  0.7436 -3.3189 -2.3299
 2429SOL    HW218747   2.561   2.644   1.783  0.8690  0.1195 -1.1447
 2430SOL     OW18748   1.215   0.310  13.197 -0.0702 -0.3052  0.4901
 2430SOL    HW118749   1.197   0.397  13.235  0.4192 -0.3431  0.8129
 2430SOL    HW218750   1.308   0.325  13.179  0.0760 -2.7759 -0.8055
 2431SOL     OW18751   1.582   0.679  12.214  0.3608 -0.2329  0.3669
 2431SOL    HW118752   1.663   0.682  12.163  0.6253  3.8805  1.0689
 2431SOL    HW218753   1.576   0.586  12.239 -1.3999 -0.2232 -0.0306
 2432SOL     OW18754   0.992   3.815   5.140 -0.3735 -0.0803 -0.3244
 2432SOL    HW118755   0.933   3.743   5.163 -1.3338  0.7511 -0.1438
 2432SOL    HW218756   1.006   3.853   5.227 -2.8539 -0.6209  0.3129
 2433SOL     OW18757   4.088   2.379   6.014  0.0785 -0.4976  0.0560
 2433SOL    HW118758   4.099   2.427   5.932 -2.0749 -2.4864 -1.3949
 2433SOL    HW218759   4.117   2.441   6.081 -1.7426 -0.4562  0.8151
 2434SOL     OW18760   3.008   3.856   4.808  0.0183 -0.5083 -0.3848
 2434SOL    HW118761   2.954   3.793   4.759 -0.4243 -0.1026 -0.4302
 2434SOL    HW218762   3.063   3.881   4.733 -0.3562  1.3713 -0.0366
 2435SOL     OW18763   4.568   0.317   6.000  0.4516 -0.0617  0.1662
 2435SOL    HW118764   4.518   0.332   6.081  0.7280  0.6696  0.2007
 2435SOL    HW218765   4.599   0.227   6.000  2.3897  0.6185 -1.3524
 2436SOL     OW18766   2.221   3.754   2.747  0.2766  0.2124  0.5012
 2436SOL    HW118767   2.163   3.700   2.802 -0.1737  1.2576  1.0628
 2436SOL    HW218768   2.188   3.842   2.767 -0.5400 -0.8521  3.8372
 2437SOL     OW18769   1.911   3.112   4.287 -0.5163  0.3194  0.0174
 2437SOL    HW118770   1.987   3.078   4.334  0.1292 -1.9113 -2.6487
 2437SOL    HW218771   1.840   3.105   4.352  0.4919  0.4851  1.1314
 2438SOL     OW18772   2.417   0.948   3.353  0.0693 -0.1037  0.0174
 2438SOL    HW118773   2.427   0.916   3.264 -0.5449  2.8396 -1.0805
 2438SOL    HW218774   2.404   0.859   3.386  0.2565 -0.7559 -1.6906
 2439SOL     OW18775   2.895   1.874   7.588 -0.1799 -0.4736 -0.0069
 2439SOL    HW118776   2.825   1.937   7.572  1.8855  1.7620 -0.1634
 2439SOL    HW218777   2.917   1.884   7.680 -1.7911 -0.3542  0.3714
 2440SOL     OW18778   3.570   1.344  13.095 -0.0616  1.3194  0.2130
 2440SOL    HW118779   3.608   1.256  13.087 -4.0421 -0.3635 -0.0343
 2440SOL    HW218780   3.570   1.353  13.191  1.8978 -3.4878  0.6864
 2441SOL     OW18781   0.734   2.743  13.715 -0.5225 -0.0569  0.0378
 2441SOL    HW118782   0.709   2.721  13.625 -1.0734 -0.2419  0.2332
 2441SOL    HW218783   0.649   2.767  13.753 -0.3729 -1.7716  1.4643
 2442SOL     OW18784   0.272   1.627  13.762 -0.3882 -0.1224 -0.1321
 2442SOL    HW118785   0.254   1.668  13.678  0.3570  0.4642 -0.0093
 2442SOL    HW218786   0.365   1.647  13.773 -0.0994 -1.9971  0.7845
 2443SOL     OW18787   2.352   4.185   3.427  0.2066 -0.2302  0.3421
 2443SOL    HW118788   2.288   4.204   3.358  0.3369  1.2154  0.6288
 2443SOL    HW218789   2.436   4.206   3.388  0.4408 -0.1726  0.8849
 2444SOL     OW18790   3.412   2.923  10.900 -0.2243  0.5089 -0.0714
 2444SOL    HW118791   3.478   2.992  10.891  1.1132 -0.6495  0.9256
 2444SOL    HW218792   3.362   2.949  10.977 -0.4891  1.9175 -0.7196
 2445SOL     OW18793   0.261   0.151   5.110  0.4577 -0.3582  0.5826
 2445SOL    HW118794   0.291   0.240   5.130  0.3916 -0.1115 -0.4167
 2445SOL    HW218795   0.323   0.099   5.162  0.9378  0.7649  1.1506
 2446SOL     OW18796   1.541   1.227  11.542 -0.0699 -0.0150  0.1682
 2446SOL    HW118797   1.494   1.145  11.528 -0.3229  0.0942  0.3719
 2446SOL    HW218798   1.472   1.292  11.558 -0.0453  0.2518 -0.8344
 2447SOL     OW18799   2.334   2.416  10.309 -0.3086 -0.0406 -0.1497
 2447SOL    HW118800   2.318   2.506  10.338  0.7584 -0.2917  1.2366
 2447SOL    HW218801   2.428   2.420  10.330 -0.2485 -0.1553 -0.3975
 2448SOL     OW18802   3.906   4.677   5.432 -0.8697 -0.8673 -0.2642
 2448SOL    HW118803   3.960   0.009   5.375  0.2804  0.0247  1.6756
 2448SOL    HW218804   3.889   0.014   5.504  0.0065 -0.0301 -0.7625
 2449SOL     OW18805   1.489   0.872   0.631  0.3965  0.0411 -0.3826
 2449SOL    HW118806   1.553   0.809   0.665  1.7945  1.3687 -0.5266
 2449SOL    HW218807   1.458   0.904   0.715  0.6647 -0.2895 -0.1584
 2450SOL     OW18808   0.629   4.635  15.030 -0.3469  0.0936 -1.0287
 2450SOL    HW118809   0.534   4.639  15.016 -0.7550 -0.3575  1.5813
 2450SOL    HW218810   0.661   4.718  14.994 -0.4814  0.0470 -1.2601
 2451SOL     OW18811   1.196   0.571   7.981 -0.9034  0.0655  0.4001
 2451SOL    HW118812   1.187   0.639   8.048 -1.9666  1.5848 -1.2753
 2451SOL    HW218813   1.196   0.626   7.903  1.5194 -1.3015 -0.5585
 2452SOL     OW18814   3.063   1.620  16.759 -0.1368  0.7650  0.2075
 2452SOL    HW118815   3.127   1.584  16.697  0.4579  0.7763  0.8051
 2452SOL    HW218816   3.103   1.704  16.783 -0.8510  1.2299 -0.2445
 2453SOL     OW18817   0.982   4.713   4.515  0.2775 -0.0863  0.2439
 2453SOL    HW118818   0.938   0.072   4.536  0.8428  0.5275 -0.9471
 2453SOL    HW218819   0.976   4.712   4.419  0.1305  1.6733  0.2280
 2454SOL     OW18820   1.932   2.988   6.792  0.0593  0.1697  0.3775
 2454SOL    HW118821   1.896   2.909   6.831 -1.2840  0.6745  0.1824
 2454SOL    HW218822   1.956   2.962   6.703 -2.1630  1.8004 -0.7251
 2455SOL     OW18823   0.255   0.442   8.991  0.4667  0.6411  0.1369
 2455SOL    HW118824   0.300   0.506   8.936  3.7748 -1.9383 -0.1851
 2455SOL    HW218825   0.327   0.411   9.047  0.1725 -0.6090 -0.1800
 2456SOL     OW18826   3.750   4.143   3.764  0.6674 -0.1643 -0.0305
 2456SOL    HW118827   3.790   4.230   3.762  0.2755  0.0420  0.8755
 2456SOL    HW218828   3.792   4.113   3.684 -0.9466 -1.9361 -0.2134
 2457SOL     OW18829   4.388   0.570  16.719  0.1129  0.3797  0.0868
 2457SOL    HW118830   4.303   0.601  16.688 -0.5888 -1.4114  0.2378
 2457SOL    HW218831   4.363   0.567  16.811 -0.9850 -2.8111 -0.3146
 2458SOL     OW18832   4.202   3.299  15.238  0.3117  0.8180  0.0335
 2458SOL    HW118833   4.239   3.338  15.159  1.0826 -1.9226 -0.9644
 2458SOL    HW218834   4.195   3.381  15.286 -2.0398  0.5641  0.1045
 2459SOL     OW18835   2.646   2.523  15.361 -0.4598  0.1657 -0.1140
 2459SOL    HW118836   2.709   2.569  15.416  1.2336 -1.3442 -0.7816
 2459SOL    HW218837   2.636   2.589  15.293  0.1697  0.0162 -0.3593
 2460SOL     OW18838   1.171   2.914   0.761 -0.6578 -0.0763  0.0460
 2460SOL    HW118839   1.245   2.956   0.805 -1.3228 -0.3609  1.4457
 2460SOL    HW218840   1.137   2.845   0.818  0.1535 -0.6706 -0.1921
 2461SOL     OW18841   2.542   1.258   9.545 -0.1215  0.2572 -0.1118
 2461SOL    HW118842   2.560   1.176   9.590  0.3333 -0.0044 -0.7723
 2461SOL    HW218843   2.549   1.318   9.619  2.2450  1.6743 -1.4704
 2462SOL     OW18844   1.503   0.605   6.050  0.3018  0.4090 -0.2342
 2462SOL    HW118845   1.505   0.513   6.024 -2.0895  0.3863 -0.3455
 2462SOL    HW218846   1.488   0.587   6.143 -1.4812  0.5771 -0.5002
 2463SOL     OW18847   3.736   2.160   6.336  0.0603  0.3353  0.2794
 2463SOL    HW118848   3.703   2.097   6.272  2.0873  0.7347 -1.1471
 2463SOL    HW218849   3.828   2.163   6.313  0.3385 -1.2386  1.2143
 2464SOL     OW18850   0.756   4.313   7.982  0.4671  0.2882 -0.2719
 2464SOL    HW118851   0.661   4.303   7.992  0.3618  0.1321 -1.4787
 2464SOL    HW218852   0.776   4.332   8.074 -1.8504  1.5868 -0.0318
 2465SOL     OW18853   3.468   4.669   7.037 -0.3364 -0.1115 -0.2501
 2465SOL    HW118854   3.535   0.007   7.068 -0.6973  0.7110 -1.0590
 2465SOL    HW218855   3.515   4.586   7.044  0.0422  0.1135 -0.1088
 2466SOL     OW18856   1.324   4.456  12.058 -0.2905 -0.1097  0.4471
 2466SOL    HW118857   1.318   4.534  12.113  0.3286  0.1656  0.1186
 2466SOL    HW218858   1.306   4.388  12.123 -2.0092 -0.4662 -0.4161
 2467SOL     OW18859   3.035   2.441   8.687  0.1870 -0.3088  0.6647
 2467SOL    HW118860   3.129   2.454   8.703  0.0141 -0.1011  1.4801
 2467SOL    HW218861   3.008   2.522   8.729  2.9596  0.3558  1.2070
 2468SOL     OW18862   2.257   4.446   4.793  0.1499 -0.6123  0.4194
 2468SOL    HW118863   2.349   4.423   4.808  1.4384  3.7684 -0.6777
 2468SOL    HW218864   2.211   4.371   4.830 -0.0599  0.3686  2.1380
 2469SOL     OW18865   4.274   0.599   5.937  0.4275 -0.1661 -0.2959
 2469SOL    HW118866   4.207   0.666   5.944  0.1982 -0.4014 -0.2333
 2469SOL    HW218867   4.331   0.630   5.866  0.6159 -1.3191 -0.6494
 2470SOL     OW18868   3.088   4.233  10.316  0.4203  0.2209 -0.1363
 2470SOL    HW118869   3.176   4.255  10.285  0.7645  0.0067  0.6949
 2470SOL    HW218870   3.054   4.322  10.318 -3.3953 -1.2505  0.1912
 2471SOL     OW18871   1.557   3.950   8.672 -0.3185 -0.2843  0.0049
 2471SOL    HW118872   1.473   3.990   8.649  1.3106  1.1493 -3.4735
 2471SOL    HW218873   1.538   3.926   8.762 -0.0566 -1.3079 -0.2125
 2472SOL     OW18874   3.526   2.954  16.383  0.4740 -0.0458 -0.3580
 2472SOL    HW118875   3.453   2.896  16.362 -1.2227  0.8289  3.1476
 2472SOL    HW218876   3.488   3.030  16.426 -1.1834 -0.7143 -0.6566
 2473SOL     OW18877   1.252   0.710  16.326  0.1257  0.0322  0.6612
 2473SOL    HW118878   1.194   0.690  16.252  0.7291  2.1093 -0.3648
 2473SOL    HW218879   1.342   0.693  16.297 -1.3002 -2.0515 -2.5479
 2474SOL     OW18880   1.161   2.995  15.420  0.2657 -0.5397  0.1068
 2474SOL    HW118881   1.221   2.920  15.412 -0.3413 -1.1979  1.6778
 2474SOL    HW218882   1.146   2.990  15.514  0.7194 -0.8998  0.1629
 2475SOL     OW18883   0.308   0.600   7.496  0.1984  0.4061 -0.0459
 2475SOL    HW118884   0.221   0.615   7.534 -0.2687 -1.8949 -0.1991
 2475SOL    HW218885   0.305   0.642   7.410  0.4668  0.2801 -0.1149
 2476SOL     OW18886   1.812   1.931   2.851  0.1939 -0.0941 -0.6279
 2476SOL    HW118887   1.865   1.995   2.803 -0.2426 -0.3042 -1.3734
 2476SOL    HW218888   1.847   1.850   2.816 -1.0907 -0.8000 -0.2633
 2477SOL     OW18889   3.172   3.511  16.667  0.0263  0.4321  0.0594
 2477SOL    HW118890   3.189   3.417  16.669 -1.3245  0.1927  0.1327
 2477SOL    HW218891   3.105   3.533  16.732 -1.3790 -0.8956 -0.9631
 2478SOL     OW18892   3.153   1.545   8.158 -0.2110  0.1930  0.2817
 2478SOL    HW118893   3.063   1.521   8.177 -0.1521 -1.7486 -1.7572
 2478SOL    HW218894   3.201   1.506   8.231  0.7665  0.3476 -0.2754
 2479SOL     OW18895   1.645   3.070   1.146  0.1689  0.6620  0.2764
 2479SOL    HW118896   1.624   3.134   1.214  0.3551  0.2477  0.7296
 2479SOL    HW218897   1.608   3.102   1.064 -3.0049 -1.2735  0.9404
 2480SOL     OW18898   1.312   2.800   2.366  0.0780 -0.2504 -0.4233
 2480SOL    HW118899   1.313   2.829   2.457 -0.5334 -0.4539 -0.3517
 2480SOL    HW218900   1.346   2.872   2.313 -0.7923 -0.1802 -0.8931
 2481SOL     OW18901   3.857   2.463  16.245 -0.0688 -0.5083  0.2014
 2481SOL    HW118902   3.944   2.423  16.249  0.6838  1.1543  0.4752
 2481SOL    HW218903   3.821   2.430  16.163 -2.1885  0.2852  0.8096
 2482SOL     OW18904   0.794   1.427   4.878  0.1387 -0.8839 -0.1511
 2482SOL    HW118905   0.732   1.494   4.907  1.2350  0.5728 -1.1657
 2482SOL    HW218906   0.825   1.458   4.793 -0.9167  1.8078  0.4611
 2483SOL     OW18907   4.517   3.019  17.095  0.2239 -0.4025  0.6459
 2483SOL    HW118908   4.557   3.067  17.022  1.7219 -3.9565 -0.8773
 2483SOL    HW218909   4.433   3.065  17.102  0.6361  0.9541 -3.0091
 2484SOL     OW18910   4.141   4.616   2.174 -0.1447  0.3616  0.6442
 2484SOL    HW118911   4.089   4.686   2.214 -0.8322 -0.0726  0.4997
 2484SOL    HW218912   4.227   4.657   2.185 -0.8610  1.7449  1.1707
 2485SOL     OW18913   2.752   1.643   0.508 -0.0265  0.4214  0.1624
 2485SOL    HW118914   2.827   1.663   0.564  1.5025 -1.9277 -1.0319
 2485SOL    HW218915   2.720   1.729   0.481 -1.2138 -0.5852 -1.6562
 2486SOL     OW18916   2.335   3.289   6.383  0.3080 -0.0213  0.1885
 2486SOL    HW118917   2.268   3.349   6.352  0.0027 -1.3235 -1.6523
 2486SOL    HW218918   2.406   3.346   6.413  0.6156 -1.1380  1.5952
 2487SOL     OW18919   3.395   2.169   0.570  0.0642  0.1045  0.2566
 2487SOL    HW118920   3.336   2.094   0.562 -0.7833  0.9262 -1.1661
 2487SOL    HW218921   3.404   2.200   0.480  1.5160  1.1002  0.7467
 2488SOL     OW18922   2.993   2.767  11.994  0.4769  0.0007 -0.2781
 2488SOL    HW118923   3.058   2.837  11.998 -0.8536  1.1717  0.8883
 2488SOL    HW218924   2.916   2.805  12.038 -0.5267 -1.8109 -0.4808
 2489SOL     OW18925   0.439   3.495   7.501  0.2275  0.3369  0.4318
 2489SOL    HW118926   0.518   3.455   7.539 -0.5293 -0.7818  0.8167
 2489SOL    HW218927   0.382   3.485   7.577  0.8802 -2.9307  0.5217
 2490SOL     OW18928   1.806   0.213   6.096  0.1676 -0.3166 -0.2430
 2490SOL    HW118929   1.772   0.129   6.129 -1.7365 -0.0592 -1.5506
 2490SOL    HW218930   1.745   0.232   6.024  0.3777 -0.3781 -0.4345
 2491SOL     OW18931   1.248   2.712   7.976 -0.7673  0.8690  0.1730
 2491SOL    HW118932   1.164   2.680   8.009 -0.2325 -0.1977  0.4705
 2491SOL    HW218933   1.276   2.790   8.025  1.1462 -0.9884  2.0260
 2492SOL     OW18934   3.876   1.513   7.828 -0.2160  0.0854 -0.0189
 2492SOL    HW118935   3.802   1.454   7.844  0.9165 -0.7487  2.1987
 2492SOL    HW218936   3.932   1.467   7.891 -1.9501 -0.7610  0.8955
 2493SOL     OW18937   2.152   1.975   5.188 -0.1585 -0.1994 -0.1919
 2493SOL    HW118938   2.077   2.024   5.223 -0.0218 -1.9075  2.5193
 2493SOL    HW218939   2.213   1.996   5.259  0.6248 -4.2313  0.3503
 2494SOL     OW18940   1.141   4.450   6.916  0.0696  0.0552  0.0925
 2494SOL    HW118941   1.194   4.406   6.850  0.7883  0.5400  0.3559
 2494SOL    HW218942   1.048   4.429   6.904  0.1684 -1.0306  1.2264
 2495SOL     OW18943   0.530   0.189  12.759  1.0573  0.8179 -0.0917
 2495SOL    HW118944   0.579   0.187  12.841 -0.2383  0.6530  0.6699
 2495SOL    HW218945   0.446   0.228  12.781  0.3089 -0.4431 -0.7706
 2496SOL     OW18946   3.629   0.744  17.015  0.2248 -0.2533 -0.0183
 2496SOL    HW118947   3.700   0.703  16.965  0.3076  1.2965 -1.2095
 2496SOL    HW218948   3.557   0.687  16.992  0.5865 -0.6328 -0.2154
 2497SOL     OW18949   2.657   4.585   9.534  0.2304  0.1711 -0.0459
 2497SOL    HW118950   2.575   4.594   9.582  0.0705 -0.0182 -0.2912
 2497SOL    HW218951   2.690   4.503   9.571 -0.4039  0.7592  1.8223
 2498SOL     OW18952   1.223   2.738  15.380  0.4848 -0.3021  0.6986
 2498SOL    HW118953   1.172   2.681  15.322 -0.9396  0.2070  1.4522
 2498SOL    HW218954   1.212   2.688  15.462  1.0055 -2.1979 -0.3771
 2499SOL     OW18955   2.103   0.153  16.540  0.5554  0.4506 -0.4087
 2499SOL    HW118956   2.040   0.083  16.554  0.5806  0.5549  0.2482
 2499SOL    HW218957   2.171   0.123  16.600 -1.7828 -0.4125  1.8099
 2500SOL     OW18958   0.246   0.847  15.941  0.1858  0.0436  0.5006
 2500SOL    HW118959   0.309   0.911  15.973 -0.7731  1.3239 -0.1419
 2500SOL    HW218960   0.278   0.814  15.857 -1.4412  0.5366 -0.3023
 2501SOL     OW18961   2.245   4.285   7.054 -0.3264 -0.0048  0.4743
 2501SOL    HW118962   2.243   4.202   7.006 -0.2194  0.2984 -0.0541
 2501SOL    HW218963   2.281   4.251   7.136  3.4301 -1.3323 -1.7644
 2502SOL     OW18964   2.923   1.571   7.946 -0.3223 -0.2762  0.5290
 2502SOL    HW118965   2.918   1.657   7.987 -0.6989  0.6769 -1.4986
 2502SOL    HW218966   2.919   1.512   8.021 -2.3474  1.3437  1.7098
 2503SOL     OW18967   2.962   0.422   1.834 -0.0034  0.3620  0.3809
 2503SOL    HW118968   3.029   0.353   1.832  1.4488  1.7518  0.7799
 2503SOL    HW218969   2.945   0.433   1.927  1.4046  0.1633  0.6744
 2504SOL     OW18970   0.940   3.884   9.085 -0.1986  0.1909  0.3944
 2504SOL    HW118971   1.012   3.924   9.035 -1.4842  1.3756 -0.5241
 2504SOL    HW218972   0.983   3.807   9.121 -1.9877 -0.3015  1.4355
 2505SOL     OW18973   1.489   2.360  15.316 -0.1132  0.1093  0.0270
 2505SOL    HW118974   1.441   2.377  15.397 -2.0826  1.5747 -1.4250
 2505SOL    HW218975   1.476   2.442  15.268  2.2913  0.3050 -0.2879
 2506SOL     OW18976   0.602   1.763   4.223  0.4107 -0.1194  0.3653
 2506SOL    HW118977   0.560   1.677   4.229 -0.0370 -0.0709 -2.0366
 2506SOL    HW218978   0.545   1.809   4.162  0.0419 -1.3133 -0.2067
 2507SOL     OW18979   0.273   0.137   5.420  0.5915 -0.0201 -0.5252
 2507SOL    HW118980   0.243   0.207   5.361 -0.6797  1.2120  1.5810
 2507SOL    HW218981   0.258   0.186   5.501 -3.1269 -0.9410 -0.6382
 2508SOL     OW18982   2.936   3.420   8.736 -0.6668 -0.1486  0.0783
 2508SOL    HW118983   2.943   3.470   8.655  0.2298  2.5702  1.8412
 2508SOL    HW218984   2.907   3.489   8.795  0.3522 -0.3395  0.8049
 2509SOL     OW18985   2.061   4.401   8.702 -0.3812 -0.2653  0.3966
 2509SOL    HW118986   2.047   4.410   8.796  0.9603 -0.7289  0.6375
 2509SOL    HW218987   1.973   4.384   8.670 -0.5744  2.6930 -0.7080
 2510SOL     OW18988   0.330   2.697   4.812  0.4499  0.3082 -0.4913
 2510SOL    HW118989   0.390   2.763   4.777  0.8675  0.9557  1.4439
 2510SOL    HW218990   0.363   2.692   4.901 -1.1013  0.2302  0.0858
 2511SOL     OW18991   3.050   3.586  14.417  0.2292  0.4973  0.0348
 2511SOL    HW118992   2.961   3.564  14.446  0.4063 -1.2523 -0.7547
 2511SOL    HW218993   3.101   3.519  14.462  0.4948  1.4380  1.1419
 2512SOL     OW18994   1.172   2.288  17.062  0.8569 -0.2422  0.0336
 2512SOL    HW118995   1.119   2.363  17.089  0.3386 -0.6228  0.0709
 2512SOL    HW218996   1.184   2.297  16.968  2.7501 -1.4448  0.1594
 2513SOL     OW18997   0.398   2.395  14.266  0.3469 -0.1446  0.1810
 2513SOL    HW118998   0.445   2.313  14.246  0.6913  0.0667  0.1215
 2513SOL    HW218999   0.347   2.406  14.186 -0.0746  0.2531  0.5066
 2514SOL     OW19000   4.004   3.243  13.933 -0.0001  0.2164 -0.4280
 2514SOL    HW119001   4.053   3.264  13.854 -1.2567  2.1715 -0.7039
 2514SOL    HW219002   4.052   3.169  13.970  0.2618  1.2750  1.3403
 2515SOL     OW19003   1.603   4.547   3.111 -0.4371  0.2929  0.2680
 2515SOL    HW119004   1.559   4.569   3.029  0.0374  0.4609  0.0553
 2515SOL    HW219005   1.686   4.515   3.075 -1.9141 -0.7181 -2.2202
 2516SOL     OW19006   2.371   4.008  12.804  0.1727 -0.2290 -0.3699
 2516SOL    HW119007   2.409   4.085  12.762  0.2753 -0.3466 -0.4886
 2516SOL    HW219008   2.387   3.942  12.738 -0.8348 -1.3183  0.4697
 2517SOL     OW19009   0.522   2.622   4.143  0.7803  0.5670  0.5070
 2517SOL    HW119010   0.525   2.681   4.068 -0.1384 -0.7704 -0.5763
 2517SOL    HW219011   0.439   2.575   4.133  1.3365 -0.2108 -0.4463
 2518SOL     OW19012   3.964   0.547  14.198 -0.4372  0.0904 -0.0368
 2518SOL    HW119013   4.051   0.581  14.221 -0.6865 -0.5220  1.7700
 2518SOL    HW219014   3.964   0.468  14.252 -2.8591  0.5053  0.5259
 2519SOL     OW19015   1.636   1.626   0.038  0.5492  0.3171  0.0995
 2519SOL    HW119016   1.625   1.583  17.646  1.5742  1.6779 -0.7019
 2519SOL    HW219017   1.588   1.707   0.024 -1.0148 -0.5247  0.5378
 2520SOL     OW19018   4.680   4.166   2.375  0.3100  0.8507 -0.0109
 2520SOL    HW119019   4.696   4.230   2.444 -0.8747  0.5155  0.5665
 2520SOL    HW219020   4.721   4.085   2.404 -0.4694  0.1662 -0.8042
 2521SOL     OW19021   0.505   1.997   2.177 -0.5739  0.0121  0.2639
 2521SOL    HW119022   0.482   1.904   2.175 -1.4710  0.1760  2.5055
 2521SOL    HW219023   0.434   2.045   2.135  1.0762  1.7047 -0.5563
 2522SOL     OW19024   2.428   4.224   7.687 -0.8091 -0.4744 -0.1158
 2522SOL    HW119025   2.376   4.178   7.622 -0.7235  0.8683 -1.1524
 2522SOL    HW219026   2.495   4.262   7.629 -1.0406  0.7287  0.3939
 2523SOL     OW19027   3.297   4.381  16.652  0.2948  0.1126 -0.3524
 2523SOL    HW119028   3.262   4.425  16.730 -1.1786 -0.7970 -0.5069
 2523SOL    HW219029   3.263   4.436  16.582  2.2417  2.5755  0.6165
 2524SOL     OW19030   3.345   4.268  11.635  0.1043  0.0589 -0.2894
 2524SOL    HW119031   3.428   4.259  11.682  0.8321  3.7490 -0.8789
 2524SOL    HW219032   3.345   4.182  11.591 -0.3402 -0.2928  0.4063
 2525SOL     OW19033   0.745   3.588  14.653  0.1550  0.3193  0.0429
 2525SOL    HW119034   0.711   3.503  14.680 -0.2778  0.7826  0.9681
 2525SOL    HW219035   0.708   3.648  14.717 -0.0658  0.6162 -0.3636
 2526SOL     OW19036   4.720   4.587   2.692  0.8001  0.1809  0.2148
 2526SOL    HW119037   4.639   4.598   2.743 -0.2791 -1.0650 -1.2105
 2526SOL    HW219038   0.054   4.652   2.733  0.6408  1.4499 -1.5787
 2527SOL     OW19039   0.952   1.950   7.502  0.1528 -0.2373  0.8752
 2527SOL    HW119040   0.897   1.904   7.564  2.2724 -0.8483  2.2948
 2527SOL    HW219041   0.887   2.011   7.467  2.0596  1.1600 -0.2803
 2528SOL     OW19042   1.014   3.370   4.898 -0.1327 -0.3721 -0.3202
 2528SOL    HW119043   1.095   3.389   4.850 -0.6464 -0.9408 -1.4003
 2528SOL    HW219044   0.993   3.289   4.852  1.3416 -2.4748  2.6523
 2529SOL     OW19045   0.231   1.595   6.778  0.1918 -0.1923  0.0119
 2529SOL    HW119046   0.291   1.660   6.740 -0.7577  0.0145 -1.1411
 2529SOL    HW219047   0.183   1.636   6.851 -0.2717  0.9910 -0.9546
 2530SOL     OW19048   3.873   1.104   8.693 -0.2377  0.4780 -0.1053
 2530SOL    HW119049   3.880   1.010   8.706  0.9029  0.4287 -1.1637
 2530SOL    HW219050   3.791   1.100   8.645 -1.6050 -0.2469  2.3017
 2531SOL     OW19051   2.378   0.231   3.417  0.3739 -0.2253  0.3353
 2531SOL    HW119052   2.304   0.288   3.395  0.7048 -1.3415 -3.5153
 2531SOL    HW219053   2.370   0.178   3.338 -1.0892 -0.8383  0.8842
 2532SOL     OW19054   3.118   1.860   5.031 -0.1931 -0.1697  0.1286
 2532SOL    HW119055   3.192   1.917   5.056  0.3489 -0.8083 -0.0281
 2532SOL    HW219056   3.112   1.812   5.113  1.3032  0.4610  0.6208
 2533SOL     OW19057   0.807   0.225  10.428 -0.1491  0.2478 -0.5069
 2533SOL    HW119058   0.889   0.274  10.434 -0.9037  1.0683  3.4598
 2533SOL    HW219059   0.747   0.283  10.475  0.9702  0.8632  0.1794
 2534SOL     OW19060   1.724   2.197   8.082  0.1332  0.1368  0.5867
 2534SOL    HW119061   1.702   2.209   8.174 -1.5203 -0.9538  0.3323
 2534SOL    HW219062   1.680   2.274   8.045  0.8289  0.2122 -0.0836
 2535SOL     OW19063   4.152   3.641  10.374  0.2527 -0.6069  0.0172
 2535SOL    HW119064   4.140   3.726  10.331  0.1011  0.5352  2.3538
 2535SOL    HW219065   4.143   3.667  10.465  0.0361  2.0562 -0.7575
 2536SOL     OW19066   0.336   1.705  12.509 -0.0689  0.5764  0.0631
 2536SOL    HW119067   0.363   1.700  12.600 -0.7630 -2.5639  0.1090
 2536SOL    HW219068   0.311   1.797  12.510  0.7428  0.8178 -0.9744
 2537SOL     OW19069   3.310   0.940  15.160  0.1404  0.3762 -0.5796
 2537SOL    HW119070   3.255   0.867  15.130  0.1637 -0.0889  0.5146
 2537SOL    HW219071   3.281   1.012  15.104  3.2451  0.7308 -1.7021
 2538SOL     OW19072   3.081   1.092   8.554  0.0149 -0.1592 -0.2601
 2538SOL    HW119073   3.098   1.131   8.640 -0.2150 -0.3575 -0.1285
 2538SOL    HW219074   3.073   1.000   8.578  3.0786 -0.0970  0.9537
 2539SOL     OW19075   1.631   2.211   5.242  0.2373  0.1079 -0.0044
 2539SOL    HW119076   1.675   2.294   5.260 -2.1190  0.6193  3.2611
 2539SOL    HW219077   1.557   2.236   5.186 -1.2404  1.3280  2.5123
 2540SOL     OW19078   1.819   1.594   4.211  0.3636 -0.0192  0.3093
 2540SOL    HW119079   1.894   1.622   4.158  0.8664 -0.8495  0.5746
 2540SOL    HW219080   1.755   1.615   4.143  1.1613 -0.1634 -0.4902
 2541SOL     OW19081   0.408   2.315   4.260  0.2011  0.3167  0.0487
 2541SOL    HW119082   0.365   2.320   4.346  1.7661  0.5751  0.8059
 2541SOL    HW219083   0.334   2.364   4.225 -0.4292 -1.3211 -0.9079
 2542SOL     OW19084   0.414   1.778   6.200  0.6195  0.2151 -0.2826
 2542SOL    HW119085   0.362   1.838   6.146 -0.3181 -0.2974  0.0501
 2542SOL    HW219086   0.425   1.826   6.282  0.6797 -1.4796  0.6851
 2543SOL     OW19087   3.194   2.777   7.756  0.4889 -0.3243  0.3933
 2543SOL    HW119088   3.201   2.847   7.821  2.6586  0.6434 -0.9006
 2543SOL    HW219089   3.243   2.812   7.682  1.2581  0.9683  1.4866
 2544SOL     OW19090   3.101   2.975  12.386  0.0163  0.0906  0.1930
 2544SOL    HW119091   3.050   2.898  12.363 -0.0355 -0.7649  3.1409
 2544SOL    HW219092   3.032   3.041  12.379 -0.0397  0.1837  1.5209
 2545SOL     OW19093   2.021   2.922   8.336  0.1346  0.2672 -0.6955
 2545SOL    HW119094   2.006   3.017   8.334 -1.4789 -0.0449 -3.2241
 2545SOL    HW219095   2.058   2.919   8.424  0.7293 -1.3464 -1.0015
 2546SOL     OW19096   2.812   1.311  14.246  0.9477  0.0177  0.0658
 2546SOL    HW119097   2.748   1.242  14.264 -0.9112  2.2506  1.9118
 2546SOL    HW219098   2.846   1.316  14.336 -0.7766 -0.6395  0.7461
 2547SOL     OW19099   1.507   2.515   5.008  0.1707  0.0077 -0.2258
 2547SOL    HW119100   1.510   2.592   5.065 -0.8693 -0.2714  0.2136
 2547SOL    HW219101   1.521   2.557   4.923 -0.4521  0.1329 -0.2703
 2548SOL     OW19102   4.485   3.372  14.486 -0.5118 -0.1347 -0.1213
 2548SOL    HW119103   4.488   3.448  14.429 -0.2674 -1.1344 -1.4429
 2548SOL    HW219104   4.547   3.315  14.441 -2.6542 -1.1197 -1.7825
 2549SOL     OW19105   2.125   2.200  12.764 -0.1349  0.5148 -0.9885
 2549SOL    HW119106   2.149   2.108  12.775  0.3193  0.5361 -1.8029
 2549SOL    HW219107   2.182   2.230  12.834 -1.9097  0.1470  0.6145
 2550SOL     OW19108   4.081   2.980  15.288  0.0587 -1.0926 -0.7964
 2550SOL    HW119109   4.067   2.914  15.356 -1.2442  0.1225  0.1155
 2550SOL    HW219110   4.029   2.941  15.219  0.1380  0.5869 -1.8140
 2551SOL     OW19111   3.694   2.953   4.023  0.4647  0.1211  0.2420
 2551SOL    HW119112   3.705   3.002   4.104 -0.3398 -1.4666  1.3172
 2551SOL    HW219113   3.671   2.865   4.053  1.2466 -0.4802 -0.9197
 2552SOL     OW19114   0.708   3.075  11.134 -0.0246 -0.2865 -0.2424
 2552SOL    HW119115   0.700   3.002  11.196 -1.6685 -1.7784 -2.1946
 2552SOL    HW219116   0.667   3.149  11.179 -0.1485  1.5205 -3.3045
 2553SOL     OW19117   2.453   2.098   2.381 -0.3371  0.4311 -0.4409
 2553SOL    HW119118   2.365   2.081   2.347 -0.7217 -0.4933  0.9923
 2553SOL    HW219119   2.496   2.111   2.297  2.5572  0.2162  1.0100
 2554SOL     OW19120   4.059   1.817  11.129  0.1750  0.3516 -0.6952
 2554SOL    HW119121   4.111   1.755  11.180 -0.4466  1.5549  1.3807
 2554SOL    HW219122   4.121   1.890  11.134  1.7952 -1.0220 -0.4541
 2555SOL     OW19123   4.605   0.379  17.693 -0.3491 -0.5874  0.2088
 2555SOL    HW119124   4.634   0.290  17.672  0.0858 -0.3047 -0.3885
 2555SOL    HW219125   4.576   0.407  17.606 -0.8450  0.6375  0.7605
 2556SOL     OW19126   4.694   0.038   9.973 -0.7100  0.2451 -0.7310
 2556SOL    HW119127   4.655   0.126   9.974 -0.6786  0.2169  2.3944
 2556SOL    HW219128   0.064   0.060   9.973 -0.7341  0.3388 -0.3592
 2557SOL     OW19129   3.731   1.920   0.383 -0.2955 -0.3435 -0.0073
 2557SOL    HW119130   3.809   1.879   0.345  0.1476 -1.2055  1.7961
 2557SOL    HW219131   3.708   1.978   0.311  2.4486  0.7903  0.0094
 2558SOL     OW19132   3.353   2.841  13.754 -0.6313 -0.2947  0.0058
 2558SOL    HW119133   3.266   2.854  13.717 -0.1423  1.1070 -0.6392
 2558SOL    HW219134   3.355   2.905  13.825 -2.0981  0.2386 -0.4208
 2559SOL     OW19135   4.123   1.212   1.829 -0.7925  0.0369 -0.5824
 2559SOL    HW119136   4.157   1.301   1.835 -0.8335  0.1437 -1.9529
 2559SOL    HW219137   4.068   1.210   1.750  0.7716  0.3291 -1.6705
 2560SOL     OW19138   0.519   3.828   3.930 -0.0730  0.2345 -0.1619
 2560SOL    HW119139   0.454   3.762   3.903 -0.4557  0.0627  1.1891
 2560SOL    HW219140   0.505   3.825   4.024  0.4571 -0.1323 -0.0913
 2561SOL     OW19141   1.424   2.127   8.470 -0.0273 -0.1980 -0.0396
 2561SOL    HW119142   1.347   2.163   8.515 -1.0813 -0.3148 -1.7504
 2561SOL    HW219143   1.411   2.036   8.444  1.8314 -0.3991 -0.2352
 2562SOL     OW19144   0.514   1.596   3.141  0.1984  0.3015 -0.0304
 2562SOL    HW119145   0.573   1.562   3.074  1.1648 -1.1453  1.5203
 2562SOL    HW219146   0.429   1.593   3.098 -0.3850  0.0267  1.1189
 2563SOL     OW19147   4.549   2.074  12.097  0.3570 -0.2138  0.0014
 2563SOL    HW119148   4.508   2.104  12.179 -1.7569 -1.2744 -0.6537
 2563SOL    HW219149   4.574   1.986  12.123 -1.7487 -1.0248 -0.6939
 2564SOL     OW19150   2.455   0.973   5.076  0.0435 -0.5541  0.3936
 2564SOL    HW119151   2.409   0.894   5.050 -0.9897  0.9634 -2.3845
 2564SOL    HW219152   2.389   1.043   5.077 -0.1318 -0.7131 -0.3113
 2565SOL     OW19153   3.472   3.455   6.484 -0.3941 -0.3824 -0.0929
 2565SOL    HW119154   3.418   3.386   6.446 -0.4230 -0.0239 -0.6938
 2565SOL    HW219155   3.474   3.415   6.571 -0.9741  0.0919  0.1360
 2566SOL     OW19156   4.146   4.170  16.515  0.3365 -0.3062  0.4508
 2566SOL    HW119157   4.061   4.130  16.536  0.4599 -0.3808  0.7957
 2566SOL    HW219158   4.168   4.103  16.450  0.1806 -1.3371  1.4558
 2567SOL     OW19159   0.435   4.634  15.225 -0.0487 -0.2549  0.2260
 2567SOL    HW119160   0.452   4.580  15.303 -2.0730 -0.4318  0.5391
 2567SOL    HW219161   0.509   4.606  15.171  0.8328 -0.8360  1.7210
 2568SOL     OW19162   2.734   1.837  17.326  0.4269  0.1108 -0.3444
 2568SOL    HW119163   2.688   1.901  17.380 -0.7057 -1.0064  0.0140
 2568SOL    HW219164   2.698   1.757  17.366  1.3154  0.9920  2.2669
 2569SOL     OW19165   3.091   1.569  13.663 -0.2585  0.2243 -0.0165
 2569SOL    HW119166   3.062   1.531  13.746  0.7180 -1.8950 -0.6594
 2569SOL    HW219167   3.021   1.535  13.609 -1.6410  1.3083  1.0701
 2570SOL     OW19168   0.608   1.350   3.289 -0.2629  0.2402  0.6077
 2570SOL    HW119169   0.607   1.296   3.211 -0.1647 -2.4950  2.5078
 2570SOL    HW219170   0.595   1.439   3.256 -0.9463  0.2496  0.8981
 2571SOL     OW19171   4.205   1.058  11.703  0.1686 -0.0882  0.3987
 2571SOL    HW119172   4.297   1.033  11.704  0.2986  0.4261  1.9257
 2571SOL    HW219173   4.164   0.975  11.726  1.0456 -0.0879  1.9723
 2572SOL     OW19174   0.039   4.217   8.013  0.4087  0.6585  0.1934
 2572SOL    HW119175   4.713   4.142   8.048  0.0950 -0.4737 -2.6185
 2572SOL    HW219176   4.696   4.285   8.022 -0.0669 -0.1066  2.5310
 2573SOL     OW19177   3.101   4.527   3.014 -0.6661 -0.1626 -0.1750
 2573SOL    HW119178   3.018   4.572   2.996 -0.6504 -0.7928 -1.8460
 2573SOL    HW219179   3.110   4.548   3.106 -0.6137  0.5860 -0.3527
 2574SOL     OW19180   0.495   1.347   4.769 -0.8614 -0.1972 -0.2162
 2574SOL    HW119181   0.579   1.301   4.774 -0.9959 -0.5730 -1.6006
 2574SOL    HW219182   0.508   1.408   4.697  0.9215 -2.3690 -1.7141
 2575SOL     OW19183   0.592   2.316   6.108 -0.0518  0.6238 -0.0656
 2575SOL    HW119184   0.551   2.296   6.193 -1.4331  2.5038 -0.3001
 2575SOL    HW219185   0.633   2.400   6.128  2.2866 -0.2647 -1.1294
 2576SOL     OW19186   3.597   3.699   3.831  0.5315 -0.3386 -0.1302
 2576SOL    HW119187   3.677   3.651   3.851  0.5109 -0.6417 -0.7882
 2576SOL    HW219188   3.612   3.761   3.902  1.0185 -1.1696  0.4961
 2577SOL     OW19189   3.283   0.294  10.831 -0.2068 -1.1068  0.1619
 2577SOL    HW119190   3.353   0.275  10.894  1.7618  2.1160 -1.0396
 2577SOL    HW219191   3.244   0.374  10.866  0.2026 -1.1625  0.7342
 2578SOL     OW19192   1.565   1.116  11.130  0.0512  0.0581  0.5621
 2578SOL    HW119193   1.477   1.091  11.160 -0.5778  0.7019 -0.7001
 2578SOL    HW219194   1.600   1.153  11.210  1.9593 -1.0068  0.2100
 2579SOL     OW19195   1.840   3.071   3.017  0.1412 -0.1802 -0.0699
 2579SOL    HW119196   1.888   3.132   2.961 -1.1805  2.5588  1.7733
 2579SOL    HW219197   1.848   3.124   3.097  0.5628  0.8584 -0.7987
 2580SOL     OW19198   0.399   3.341  14.652 -0.1545 -0.7587  0.0142
 2580SOL    HW119199   0.491   3.331  14.675  0.3981  0.2739 -1.7316
 2580SOL    HW219200   0.417   3.408  14.586 -0.5846  0.8718  1.5782
 2581SOL     OW19201   2.668   4.242  14.310 -0.0113 -0.2471  0.2567
 2581SOL    HW119202   2.666   4.313  14.373 -0.2674  0.4744 -0.5661
 2581SOL    HW219203   2.577   4.215  14.316 -0.5959  1.4383 -1.0882
 2582SOL     OW19204   1.605   1.341   5.996  0.3673  0.0561  0.4104
 2582SOL    HW119205   1.689   1.377   5.970 -0.1848  0.6746 -0.5268
 2582SOL    HW219206   1.630   1.249   5.991 -1.1229 -0.3723  0.8334
 2583SOL     OW19207   1.048   1.206   0.411  0.2914  0.0183  0.3184
 2583SOL    HW119208   1.014   1.135   0.356  0.6085  0.6863 -0.7402
 2583SOL    HW219209   1.121   1.160   0.453  0.6856  0.5048  0.1653
 2584SOL     OW19210   4.623   4.006   5.343 -0.4270 -0.1273  0.3707
 2584SOL    HW119211   4.612   4.051   5.427  0.7696 -1.0065  1.0095
 2584SOL    HW219212   4.659   4.078   5.293 -0.5375 -0.2053  0.1793
 2585SOL     OW19213   0.704   2.350   8.628  0.1748  0.3406  0.3174
 2585SOL    HW119214   0.670   2.261   8.616  0.5938 -0.1064  2.2795
 2585SOL    HW219215   0.654   2.383   8.702  1.1422  0.4934  0.9079
 2586SOL     OW19216   1.451   3.798   2.126 -0.0496 -0.2554 -0.0722
 2586SOL    HW119217   1.533   3.846   2.122 -0.0167 -0.4524 -1.8470
 2586SOL    HW219218   1.485   3.709   2.131 -0.0319 -0.2664 -0.3977
 2587SOL     OW19219   3.655   4.100   8.523 -0.3746  0.4316  0.2021
 2587SOL    HW119220   3.623   4.180   8.565 -1.9309 -0.7251  1.2016
 2587SOL    HW219221   3.582   4.088   8.462 -0.0356 -0.1051 -0.0936
 2588SOL     OW19222   2.251   2.530   5.579  0.2088  0.2813 -0.0117
 2588SOL    HW119223   2.266   2.447   5.534  0.0589 -0.8247  1.9583
 2588SOL    HW219224   2.216   2.594   5.517 -0.9539  0.4447  0.8120
 2589SOL     OW19225   2.131   0.198  11.726  0.1620 -0.3745  0.2976
 2589SOL    HW119226   2.184   0.233  11.797  2.7351 -0.3897 -1.5929
 2589SOL    HW219227   2.168   0.110  11.718 -1.9203 -1.3715  1.5391
 2590SOL     OW19228   0.120   0.266   3.498 -0.6255  0.3921 -0.2476
 2590SOL    HW119229   0.142   0.250   3.406  0.3188  0.9938 -0.1255
 2590SOL    HW219230   0.190   0.225   3.549  0.0332 -1.1171 -2.3567
 2591SOL     OW19231   2.584   3.103   5.847  0.2638 -0.5309 -0.0421
 2591SOL    HW119232   2.522   3.091   5.775 -0.1705 -0.0411  0.2512
 2591SOL    HW219233   2.589   3.012   5.878 -2.4859 -0.0857  1.6658
 2592SOL     OW19234   0.819   2.595   4.598  0.2132  0.7760  0.5910
 2592SOL    HW119235   0.825   2.625   4.689 -0.4424  0.3576  0.7712
 2592SOL    HW219236   0.729   2.565   4.596  0.7091 -0.7686  1.0114
 2593SOL     OW19237   3.925   1.173  12.034  0.7894  0.9716  0.1893
 2593SOL    HW119238   3.937   1.184  11.940  2.1154  2.2853  0.5187
 2593SOL    HW219239   3.940   1.080  12.053  0.3736  1.4458  2.7563
 2594SOL     OW19240   0.313   0.834   8.707  0.4217  0.6269 -0.0739
 2594SOL    HW119241   0.342   0.824   8.616  0.9088 -1.9325  0.3605
 2594SOL    HW219242   0.289   0.927   8.703  0.7950  0.7011 -0.5681
 2595SOL     OW19243   0.603   3.603  15.301 -0.1292  0.1580  0.9643
 2595SOL    HW119244   0.582   3.693  15.326  0.1370 -0.0203  1.8105
 2595SOL    HW219245   0.531   3.595  15.238  0.1359  0.1441  0.6601
 2596SOL     OW19246   0.076   4.379  11.673 -0.7192 -0.0731 -0.2211
 2596SOL    HW119247   0.089   4.395  11.766 -0.9822  3.7682 -0.8642
 2596SOL    HW219248   0.004   4.321  11.695 -0.0471 -1.3612 -1.3743
 2597SOL     OW19249   3.404   2.684   7.165  0.1537 -0.2296  0.4502
 2597SOL    HW119250   3.396   2.760   7.223 -0.3781 -0.2076  0.3477
 2597SOL    HW219251   3.446   2.629   7.232  0.1511 -1.0114 -0.1946
 2598SOL     OW19252   4.562   0.526  10.032 -0.3082 -0.3392 -0.2199
 2598SOL    HW119253   4.656   0.513  10.045 -0.0398  1.3559 -0.5132
 2598SOL    HW219254   4.551   0.442   9.987 -1.7323 -0.8699  1.1233
 2599SOL     OW19255   4.167   0.398   5.393 -0.3662 -0.0646 -0.5359
 2599SOL    HW119256   4.081   0.363   5.415  0.6433 -1.8141  0.6263
 2599SOL    HW219257   4.204   0.321   5.349  1.1611  1.2189 -1.5212
 2600SOL     OW19258   2.277   4.448   3.516  0.3201  0.2030  0.5529
 2600SOL    HW119259   2.294   4.491   3.600 -1.1797  1.0771  0.4228
 2600SOL    HW219260   2.342   4.378   3.519  0.4088  0.2861  0.5908
 2601SOL     OW19261   3.849   3.998   7.765  0.3890 -0.2961 -0.2926
 2601SOL    HW119262   3.844   4.060   7.838 -0.4248  0.0591 -0.6429
 2601SOL    HW219263   3.771   4.032   7.720  1.2224 -1.5720 -2.6870
 2602SOL     OW19264   2.835   1.588   3.305 -0.3281  0.2174 -0.6242
 2602SOL    HW119265   2.813   1.616   3.394 -0.0054  2.9392 -1.3907
 2602SOL    HW219266   2.911   1.534   3.324  0.0764  1.6568  1.8151
 2603SOL     OW19267   2.973   2.639   6.171  0.3005  0.0849  0.0473
 2603SOL    HW119268   3.040   2.580   6.139 -1.8381 -0.9871 -2.4296
 2603SOL    HW219269   3.019   2.677   6.246 -0.5879  0.7832  0.2391
 2604SOL     OW19270   0.200   0.649   4.069 -0.3599 -0.2735 -0.1085
 2604SOL    HW119271   0.120   0.675   4.116  0.3498 -0.4320  1.1871
 2604SOL    HW219272   0.251   0.607   4.138 -1.3497  0.3295  1.0062
 2605SOL     OW19273   1.887   4.012   7.167  0.4350  0.1188 -0.3288
 2605SOL    HW119274   1.917   4.103   7.161  1.3029 -0.2212 -1.0769
 2605SOL    HW219275   1.945   3.964   7.108  0.2679 -0.2625 -0.1840
 2606SOL     OW19276   0.328   3.168  14.867  0.7639  0.0268 -0.8146
 2606SOL    HW119277   0.275   3.095  14.836 -1.4715  0.3237  2.3939
 2606SOL    HW219278   0.353   3.200  14.780  1.7901  3.2164  0.6500
 2607SOL     OW19279   3.850   0.964  17.513 -0.4432  0.6449  0.1048
 2607SOL    HW119280   3.933   0.919  17.493  0.4675  1.6639  1.5958
 2607SOL    HW219281   3.870   1.036  17.454  0.6090  0.2208 -0.0631
 2608SOL     OW19282   0.781   1.273   6.187  0.2731  0.2506  0.3162
 2608SOL    HW119283   0.742   1.237   6.106 -0.7226  1.3622  0.2949
 2608SOL    HW219284   0.704   1.269   6.244 -0.8709 -1.3989 -1.3233
 2609SOL     OW19285   1.225   1.312   4.882 -0.0787 -0.5925 -0.5192
 2609SOL    HW119286   1.300   1.369   4.899 -1.6667  1.4326 -0.3833
 2609SOL    HW219287   1.177   1.321   4.964  0.0537 -1.0396 -0.3883
 2610SOL     OW19288   0.939   2.204   1.095 -0.0200 -0.6303  0.3317
 2610SOL    HW119289   0.931   2.298   1.110 -0.3903 -0.1768 -2.5725
 2610SOL    HW219290   0.845   2.182   1.101 -0.2533 -0.5100 -2.7636
 2611SOL     OW19291   3.049   2.727   7.445 -0.7222  0.4425  0.4666
 2611SOL    HW119292   3.026   2.804   7.497 -0.8224  0.3957  0.4925
 2611SOL    HW219293   2.969   2.675   7.454  0.7688 -2.1721 -1.6008
 2612SOL     OW19294   3.905   1.131   3.341 -0.5250  0.2123 -0.5328
 2612SOL    HW119295   3.925   1.224   3.353 -1.0594  0.0841  1.2955
 2612SOL    HW219296   3.815   1.140   3.308 -0.9211  0.9847  0.7527
 2613SOL     OW19297   3.175   0.845   5.829  0.3880 -0.4681  0.1599
 2613SOL    HW119298   3.101   0.828   5.771 -0.8436 -0.0008  1.5665
 2613SOL    HW219299   3.223   0.911   5.781 -2.0945  0.3114 -1.2440
 2614SOL     OW19300   1.380   0.584   4.999 -0.1452 -0.1445 -0.7171
 2614SOL    HW119301   1.364   0.632   4.918  0.6046 -0.5033 -1.0853
 2614SOL    HW219302   1.458   0.534   4.974  1.6854  1.8344  1.0213
 2615SOL     OW19303   2.734   1.813   1.906  0.2117 -0.3615  0.5028
 2615SOL    HW119304   2.723   1.808   1.811 -1.2795  1.7057  0.5655
 2615SOL    HW219305   2.778   1.729   1.916 -1.2720 -1.2578 -0.5073
 2616SOL     OW19306   0.493   2.439   8.895 -0.0872  0.1274 -0.5343
 2616SOL    HW119307   0.425   2.397   8.842 -1.1216  1.4845 -0.2882
 2616SOL    HW219308   0.459   2.432   8.985  1.1138  0.2323 -0.0805
 2617SOL     OW19309   0.841   3.399   6.925 -0.8845  0.5819 -0.6183
 2617SOL    HW119310   0.813   3.478   6.879 -1.4799  0.5719 -0.2811
 2617SOL    HW219311   0.851   3.437   7.013 -0.2853 -3.1921  0.9095
 2618SOL     OW19312   1.644   0.722   7.182 -0.4802  0.1165  0.2866
 2618SOL    HW119313   1.706   0.708   7.110 -0.2529  1.6494  0.1852
 2618SOL    HW219314   1.673   0.807   7.215 -1.3655 -0.0911  1.5861
 2619SOL     OW19315   3.745   1.855   8.410 -0.0588 -0.1002 -0.4610
 2619SOL    HW119316   3.749   1.945   8.375 -1.3665 -0.1988 -0.8531
 2619SOL    HW219317   3.666   1.839   8.358 -1.1279 -1.4371  1.5845
 2620SOL     OW19318   0.555   3.109   6.593  0.3842  0.1677 -0.3349
 2620SOL    HW119319   0.478   3.165   6.604 -0.7238 -1.5955  0.7395
 2620SOL    HW219320   0.625   3.155   6.641  1.8710  0.4309 -2.7598
 2621SOL     OW19321   0.996   3.158   4.717  0.1383 -0.0538 -0.3034
 2621SOL    HW119322   1.028   3.069   4.732 -1.1150 -0.4292  0.1076
 2621SOL    HW219323   1.070   3.174   4.659  0.0543 -0.1242 -0.4277
 2622SOL     OW19324   2.678   0.934   1.153 -0.0860 -0.5596  0.1625
 2622SOL    HW119325   2.658   1.010   1.208  1.9283  0.2503 -0.2469
 2622SOL    HW219326   2.762   0.907   1.190  1.0875  2.9470  0.0338
 2623SOL     OW19327   0.501   1.013   0.324  0.0532 -0.2479  0.3927
 2623SOL    HW119328   0.521   0.936   0.378 -1.9836 -0.5252  0.7682
 2623SOL    HW219329   0.590   1.046   0.308  0.5744 -1.0267  1.6942
 2624SOL     OW19330   3.108   1.179  10.255  0.1828 -0.1181  0.2861
 2624SOL    HW119331   3.048   1.185  10.181 -0.6154 -2.7965  0.6862
 2624SOL    HW219332   3.178   1.233  10.219  0.7264 -1.7440 -1.0777
 2625SOL     OW19333   3.656   0.394   8.286  0.4058  0.1461 -0.3717
 2625SOL    HW119334   3.658   0.460   8.356 -0.4852 -0.2770  0.0618
 2625SOL    HW219335   3.730   0.421   8.232  1.0576 -2.1884 -0.6551
 2626SOL     OW19336   4.015   0.509   5.681 -0.2323 -0.1097 -0.1416
 2626SOL    HW119337   3.947   0.513   5.749  0.8668 -0.9562  1.0059
 2626SOL    HW219338   3.967   0.463   5.612 -1.1477 -0.2443  0.5772
 2627SOL     OW19339   0.127   0.960  15.188 -0.5255  0.3121 -0.4074
 2627SOL    HW119340   0.170   1.037  15.224 -1.4741  0.7860 -0.3011
 2627SOL    HW219341   0.037   0.986  15.168 -0.7636 -1.9129 -2.3377
 2628SOL     OW19342   4.585   3.203   2.696 -0.0896 -0.0987 -0.7554
 2628SOL    HW119343   4.590   3.132   2.760 -0.6930  0.9917  0.4964
 2628SOL    HW219344   4.537   3.157   2.626  2.0853  1.9354 -3.5879
 2629SOL     OW19345   3.541   2.783   4.598 -0.0777  0.1531 -0.7279
 2629SOL    HW119346   3.446   2.773   4.609 -0.2456  1.6190 -0.8857
 2629SOL    HW219347   3.546   2.858   4.539  1.2283  0.8304  0.2607
 2630SOL     OW19348   2.012   3.432   7.670  0.7691 -0.1048  0.0464
 2630SOL    HW119349   2.089   3.467   7.624 -0.2435 -1.2514 -2.4621
 2630SOL    HW219350   2.003   3.497   7.740 -0.7679  0.4355 -0.6697
 2631SOL     OW19351   0.628   2.939   6.904  0.1605  0.3498  0.3652
 2631SOL    HW119352   0.654   3.016   6.853 -0.2554  1.1315  1.3204
 2631SOL    HW219353   0.609   2.985   6.986  0.1659 -0.9738  1.1049
 2632SOL     OW19354   1.859   2.153   6.653 -0.0230  0.5138 -0.3263
 2632SOL    HW119355   1.778   2.120   6.693  0.3308 -0.4945 -0.4497
 2632SOL    HW219356   1.828   2.220   6.591  1.3350 -1.6059 -3.2786
 2633SOL     OW19357   0.196   3.773   6.991 -0.5399 -0.6322  0.0471
 2633SOL    HW119358   0.158   3.785   6.904  3.9741  0.8449 -1.6930
 2633SOL    HW219359   0.218   3.680   6.986  0.0406 -0.4238 -1.1035
 2634SOL     OW19360   1.779   1.549   7.435  0.7041 -0.2236  1.0227
 2634SOL    HW119361   1.760   1.634   7.476  2.4331  0.7870 -0.2398
 2634SOL    HW219362   1.831   1.580   7.361  0.6184 -1.5490  0.4273
 2635SOL     OW19363   1.564   3.222   6.388  0.7441 -0.1147 -0.5260
 2635SOL    HW119364   1.632   3.268   6.436 -1.0081 -0.8332  2.7233
 2635SOL    HW219365   1.549   3.157   6.458 -1.8404  1.8949  0.8099
 2636SOL     OW19366   2.770   4.048   7.442 -0.4108 -0.1251  0.1891
 2636SOL    HW119367   2.700   4.109   7.418 -0.8268 -0.9877 -0.8207
 2636SOL    HW219368   2.752   3.980   7.377 -0.7465  2.4431 -2.4069
 2637SOL     OW19369   1.054   2.964   9.335 -0.1219  0.2585  0.2423
 2637SOL    HW119370   1.116   3.014   9.387 -1.3233 -0.8448  2.7599
 2637SOL    HW219371   1.004   2.922   9.406  2.1669 -2.0937  0.4390
 2638SOL     OW19372   0.168   3.495   6.244  0.3813  0.1390  0.3518
 2638SOL    HW119373   0.250   3.543   6.255  0.4430 -0.1760  1.2467
 2638SOL    HW219374   0.201   3.412   6.209 -1.5841  0.8677 -3.2945
 2639SOL     OW19375   4.031   2.926   7.429 -0.0621  0.1940 -0.2369
 2639SOL    HW119376   3.991   2.856   7.481 -0.1946  1.2672  1.1029
 2639SOL    HW219377   4.089   2.965   7.494  2.2478  1.0335 -2.8020
 2640SOL     OW19378   4.332   4.167   7.051  0.2573  0.3064 -0.0546
 2640SOL    HW119379   4.266   4.198   7.114  0.5538  0.0895  0.3631
 2640SOL    HW219380   4.304   4.206   6.968  0.5355 -0.5125 -0.5341
 2641SOL     OW19381   3.407   1.644   4.701 -0.6078  0.0768  0.2152
 2641SOL    HW119382   3.493   1.640   4.660 -0.8199 -1.8808 -0.0236
 2641SOL    HW219383   3.362   1.700   4.638  2.7075  1.3954 -0.9986
 2642SOL     OW19384   2.434   2.222   7.459  0.0179  0.0510  0.2285
 2642SOL    HW119385   2.454   2.313   7.437 -0.3534  0.6523  2.3318
 2642SOL    HW219386   2.346   2.238   7.492 -0.5113 -1.1879 -0.6063
 2643SOL     OW19387   3.813   2.881   8.064  0.2117  0.1213  0.2798
 2643SOL    HW119388   3.822   2.976   8.050 -0.5594 -0.2122 -2.3351
 2643SOL    HW219389   3.888   2.858   8.120  1.4259  0.6916 -1.1049
 2644SOL     OW19390   4.627   3.191  16.596 -0.1427  0.1899 -0.0822
 2644SOL    HW119391   4.652   3.279  16.570  0.2089 -0.3740 -1.6340
 2644SOL    HW219392   4.534   3.195  16.574  0.0541  2.3011 -0.5502
 2645SOL     OW19393   2.244   0.381   4.652  0.1875 -0.5368 -0.0091
 2645SOL    HW119394   2.201   0.296   4.644 -1.9654  0.6985 -1.7066
 2645SOL    HW219395   2.296   0.384   4.571  1.4593  0.0002  0.8319
 2646SOL     OW19396   2.698   2.015   8.007  0.3320 -0.0983 -0.7817
 2646SOL    HW119397   2.607   1.985   8.010  0.6442 -0.9096  0.9326
 2646SOL    HW219398   2.683   2.090   8.065  1.2474 -2.1091  2.0888
 2647SOL     OW19399   0.627   1.965   3.969  0.2668  0.5064  0.2180
 2647SOL    HW119400   0.549   2.020   3.970  0.5508  0.9102 -0.0180
 2647SOL    HW219401   0.577   1.887   3.942 -0.4629  1.2168 -0.4701
 2648SOL     OW19402   2.672   1.344   1.807 -0.1602 -0.5048  0.1915
 2648SOL    HW119403   2.737   1.333   1.877  0.2834  0.2637 -0.0986
 2648SOL    HW219404   2.613   1.403   1.853  0.7569  1.3158 -1.0030
 2649SOL     OW19405   1.839   4.264   1.158 -0.3435  0.2105 -0.0058
 2649SOL    HW119406   1.894   4.285   1.083  0.2243  1.4424  0.7607
 2649SOL    HW219407   1.868   4.325   1.226  2.7202 -1.2219 -0.0619
 2650SOL     OW19408   0.467   3.938   5.928 -0.3467  0.2164 -0.5018
 2650SOL    HW119409   0.529   3.873   5.960 -0.6242 -0.2571 -0.9373
 2650SOL    HW219410   0.478   3.918   5.835  4.1947  2.0232 -0.3739
 2651SOL     OW19411   2.895   3.037   1.900  0.1528 -0.5293 -0.2614
 2651SOL    HW119412   2.824   3.061   1.841  0.0062  0.2660  0.2465
 2651SOL    HW219413   2.914   2.948   1.870 -2.0376 -0.6326 -1.3875
 2652SOL     OW19414   1.061   2.337  16.194  0.0083 -0.6754 -0.0478
 2652SOL    HW119415   1.030   2.264  16.248  0.5163  0.5337  1.8620
 2652SOL    HW219416   1.149   2.304  16.175 -0.9648 -2.1148 -2.0511
 2653SOL     OW19417   3.550   3.037   1.555  0.4220  0.1810  0.8600
 2653SOL    HW119418   3.517   3.083   1.632 -0.7629  0.7748  0.0040
 2653SOL    HW219419   3.643   3.036   1.574  0.4138 -0.0853  0.8787
 2654SOL     OW19420   3.355   3.992   3.872  0.0506  0.2059 -0.4859
 2654SOL    HW119421   3.400   3.910   3.894  0.2935  0.0710 -1.4738
 2654SOL    HW219422   3.264   3.965   3.864  0.1658 -0.6015  0.7948
 2655SOL     OW19423   4.212   0.999   7.091 -0.3581 -0.5875  0.1696
 2655SOL    HW119424   4.170   1.065   7.146 -0.3543  1.6872 -2.5500
 2655SOL    HW219425   4.289   1.043   7.054  0.3482 -1.3535  0.7265
 2656SOL     OW19426   1.117   1.310   2.795 -0.3654  0.5327 -0.1409
 2656SOL    HW119427   1.093   1.361   2.717  3.4444  0.0427 -1.6466
 2656SOL    HW219428   1.118   1.222   2.758  0.6798  1.2637 -1.8566
 2657SOL     OW19429   0.053   0.677  13.573 -0.0926  0.5908  0.1385
 2657SOL    HW119430   0.021   0.726  13.497  2.5170  0.8165 -0.7974
 2657SOL    HW219431   0.092   0.746  13.626  0.3622  0.3917  0.0616
 2658SOL     OW19432   0.061   0.495   8.249 -0.0894  0.3747  0.1065
 2658SOL    HW119433   0.008   0.427   8.289 -2.1071  2.7432  1.5142
 2658SOL    HW219434   0.141   0.489   8.302  0.5467  1.6610 -0.7096
 2659SOL     OW19435   2.616   3.940  14.359  0.4741  0.5532  0.3915
 2659SOL    HW119436   2.539   3.893  14.325 -0.2230  1.3533  0.8695
 2659SOL    HW219437   2.569   4.013  14.398 -0.3447  0.5955 -0.6716
 2660SOL     OW19438   3.580   3.124   3.307  0.4426 -0.1622 -0.3338
 2660SOL    HW119439   3.561   3.208   3.349  4.0543 -0.0158  0.9842
 2660SOL    HW219440   3.552   3.052   3.364  0.5304  1.5960  1.9057
 2661SOL     OW19441   4.704   0.183   5.406 -0.4872  0.4588 -0.5757
 2661SOL    HW119442   0.031   0.265   5.410 -0.9821  0.8326 -2.0672
 2661SOL    HW219443   4.660   0.172   5.490 -0.3648 -1.1275 -0.7348
 2662SOL     OW19444   0.392   1.988   8.009 -0.1546  0.0979 -0.7056
 2662SOL    HW119445   0.345   1.972   8.091  0.9495  1.3465  0.1681
 2662SOL    HW219446   0.388   1.898   7.976  1.1641 -0.4693  0.6702
 2663SOL     OW19447   3.453   4.214   1.669  0.5255 -0.0458  0.5425
 2663SOL    HW119448   3.526   4.249   1.720 -0.3316  0.0863  1.6770
 2663SOL    HW219449   3.505   4.174   1.599  1.0409 -0.0618  0.9343
 2664SOL     OW19450   2.847   1.754   5.712  0.3840  0.4244  0.1144
 2664SOL    HW119451   2.890   1.750   5.797 -0.4845  2.4008  0.6553
 2664SOL    HW219452   2.893   1.822   5.663  0.8073  1.0975  1.4643
 2665SOL     OW19453   3.576   1.322  13.709 -0.2044 -0.4948  0.4551
 2665SOL    HW119454   3.577   1.415  13.684 -2.5314 -0.4112  0.7278
 2665SOL    HW219455   3.497   1.290  13.667 -0.7073  0.3000  0.7909
 2666SOL     OW19456   3.854   1.647   3.110 -0.8494  0.5899  0.2194
 2666SOL    HW119457   3.820   1.714   3.051 -0.1553 -0.7247 -1.6646
 2666SOL    HW219458   3.904   1.702   3.171  1.1711 -0.9483 -0.0896
 2667SOL     OW19459   4.552   2.529  11.053 -0.1462  0.1956  0.1370
 2667SOL    HW119460   4.474   2.582  11.069 -0.5783 -0.3788 -0.0617
 2667SOL    HW219461   4.525   2.437  11.052 -1.2815  0.5566 -0.9633
 2668SOL     OW19462   4.499   1.923   4.768  0.2527 -0.7559  0.3151
 2668SOL    HW119463   4.428   1.988   4.768  3.1021  2.3331  0.5669
 2668SOL    HW219464   4.453   1.840   4.758 -0.2716 -0.3005 -1.1297
 2669SOL     OW19465   1.137   0.921   4.284  0.6355  0.0097 -0.3952
 2669SOL    HW119466   1.145   0.925   4.380  1.6102  0.5837 -0.4935
 2669SOL    HW219467   1.142   0.826   4.277 -0.2065 -0.1599  1.4705
 2670SOL     OW19468   0.266   1.980   6.660  0.2332  0.4069  0.5320
 2670SOL    HW119469   0.335   1.923   6.695  0.0479 -0.8936 -1.2571
 2670SOL    HW219470   0.232   1.921   6.593 -0.1781  1.1402  0.0890
 2671SOL     OW19471   0.814   1.327   3.783 -0.2266 -0.1940  0.3322
 2671SOL    HW119472   0.840   1.254   3.838 -3.1051 -1.0793  0.5382
 2671SOL    HW219473   0.739   1.293   3.735  0.1457  1.2784 -1.3070
 2672SOL     OW19474   4.454   1.134   3.784 -0.4376  0.1498  0.1261
 2672SOL    HW119475   4.447   1.162   3.693 -0.9409 -0.5036 -0.0358
 2672SOL    HW219476   4.386   1.068   3.794 -0.0432 -0.3867 -0.6933
 2673SOL     OW19477   2.840   1.179  10.381  0.8270 -0.2818  0.2958
 2673SOL    HW119478   2.770   1.236  10.349  0.1114 -0.4755  1.5101
 2673SOL    HW219479   2.917   1.225  10.348  0.4851  2.6477  3.6164
 2674SOL     OW19480   2.320   0.512   1.192 -0.4275  0.5483 -0.1336
 2674SOL    HW119481   2.416   0.505   1.192 -0.4726  0.1240  1.1539
 2674SOL    HW219482   2.297   0.432   1.238 -1.6355  2.5353  2.6779
 2675SOL     OW19483   1.241   0.416   5.693  0.4132  0.6477 -0.4026
 2675SOL    HW119484   1.321   0.406   5.641  1.7933  2.1794  1.4406
 2675SOL    HW219485   1.247   0.500   5.737  1.7555  0.2062  0.2594
 2676SOL     OW19486   4.424   1.443   0.878 -0.0491  0.0523  0.1022
 2676SOL    HW119487   4.450   1.469   0.790  0.6285  0.8276  0.5290
 2676SOL    HW219488   4.506   1.403   0.907 -0.1269  1.1654  1.8637
 2677SOL     OW19489   0.286   4.305  15.135 -0.1341  0.5899  0.3852
 2677SOL    HW119490   0.305   4.250  15.059 -0.3096  0.0422  0.7314
 2677SOL    HW219491   0.271   4.244  15.208 -1.9127 -1.2717 -1.5254
 2678SOL     OW19492   2.512   3.229   4.650 -0.0248  0.2370 -0.1038
 2678SOL    HW119493   2.433   3.266   4.689  0.1829  2.2145 -1.5614
 2678SOL    HW219494   2.573   3.300   4.665 -0.4356  0.1572  1.9016
 2679SOL     OW19495   3.953   1.167   9.891  0.3361  0.1456  0.0321
 2679SOL    HW119496   4.038   1.188   9.930  1.3181 -1.3136 -1.2558
 2679SOL    HW219497   3.890   1.205   9.951  1.2306  0.8469  0.5307
 2680SOL     OW19498   2.186   0.804  12.633  0.2681  0.3482  0.0971
 2680SOL    HW119499   2.091   0.793  12.623  0.2589  0.7487 -0.2795
 2680SOL    HW219500   2.202   0.883  12.581  0.2192  1.6157  2.0204
 2681SOL     OW19501   2.857   0.108   4.225  0.1520 -0.4611 -0.3885
 2681SOL    HW119502   2.889   0.045   4.290  0.7926  0.1840 -0.0824
 2681SOL    HW219503   2.832   0.174   4.289  1.6616  0.2659 -0.5431
 2682SOL     OW19504   3.260   3.882   4.321 -0.1766  0.8059  0.1363
 2682SOL    HW119505   3.180   3.850   4.279  1.1701  0.7700 -2.4109
 2682SOL    HW219506   3.279   3.956   4.264 -0.8892  1.4189  0.7147
 2683SOL     OW19507   2.361   2.413   2.232  0.3744 -0.0099 -0.1865
 2683SOL    HW119508   2.401   2.439   2.149 -0.1525 -0.0015 -0.4391
 2683SOL    HW219509   2.326   2.327   2.211  3.5695 -1.3721 -0.0096
 2684SOL     OW19510   3.575   4.521   5.944 -0.3883  0.2178  0.2493
 2684SOL    HW119511   3.659   4.550   5.981  0.1515  2.1911 -2.4990
 2684SOL    HW219512   3.595   4.518   5.851 -1.1173 -1.0225  0.1367
 2685SOL     OW19513   2.036   1.412   5.264 -0.5333  0.0700  0.4866
 2685SOL    HW119514   2.131   1.420   5.257 -0.4898 -0.8187  0.0358
 2685SOL    HW219515   2.019   1.437   5.173 -0.9455  1.7475  1.0238
 2686SOL     OW19516   2.918   1.364   3.838  0.1531  0.1339  0.0849
 2686SOL    HW119517   2.915   1.271   3.817 -1.6402 -0.1360  1.4809
 2686SOL    HW219518   2.844   1.387   3.782  0.4510 -1.0312 -0.7677
 2687SOL     OW19519   3.167   0.037  10.836  0.1986  0.2601  0.0632
 2687SOL    HW119520   3.103   0.088  10.885 -2.1594 -1.0202 -1.6619
 2687SOL    HW219521   3.228   0.109  10.821 -0.7705  0.6876 -1.9546
 2688SOL     OW19522   0.847   3.217   7.669  0.4103  0.3931 -0.5952
 2688SOL    HW119523   0.897   3.298   7.678  1.6702 -0.5760  1.1676
 2688SOL    HW219524   0.899   3.160   7.726  0.2855 -1.1877 -2.0606
 2689SOL     OW19525   0.014   2.316   4.029 -0.0570  0.1514 -0.1120
 2689SOL    HW119526   0.088   2.280   3.980 -0.5836 -0.9255 -0.1255
 2689SOL    HW219527   4.679   2.324   3.953 -1.3632 -1.4154  0.7115
 2690SOL     OW19528   0.080   2.808   0.545 -0.0160 -0.1941  0.0475
 2690SOL    HW119529   4.715   2.834   0.571 -0.2357  1.1938 -2.0167
 2690SOL    HW219530   0.070   2.713   0.546  1.7679 -0.4267 -3.0761
 2691SOL     OW19531   2.225   0.884   2.505 -0.1003 -0.0019 -0.3367
 2691SOL    HW119532   2.232   0.789   2.504 -3.3899 -0.2671 -1.0264
 2691SOL    HW219533   2.317   0.908   2.516  0.2517 -1.5634  0.0210
 2692SOL     OW19534   3.922   2.596   4.234 -0.5573  0.1296  0.0538
 2692SOL    HW119535   3.968   2.677   4.257  0.0959 -0.2701  0.1729
 2692SOL    HW219536   3.908   2.548   4.315 -0.5408  0.3811  0.2029
 2693SOL     OW19537   3.452   0.604   1.277  0.2151 -0.0065 -0.3738
 2693SOL    HW119538   3.390   0.570   1.212 -1.8649 -0.6073  1.9199
 2693SOL    HW219539   3.516   0.536   1.296  1.5625  2.0009  2.1370
 2694SOL     OW19540   2.488   2.976   4.719 -0.1752  0.3313  0.0439
 2694SOL    HW119541   2.445   3.013   4.797  0.2279  0.2856  0.2901
 2694SOL    HW219542   2.498   3.059   4.673  2.6257 -0.3283 -0.4887
 2695SOL     OW19543   4.259   2.083   2.992  0.1187 -0.0807  0.2417
 2695SOL    HW119544   4.255   2.173   3.022  0.9356 -0.0588  0.2807
 2695SOL    HW219545   4.281   2.091   2.899  0.3438 -1.8683  0.1344
 2696SOL     OW19546   1.707   3.895   7.976 -0.5575 -0.0281  0.8224
 2696SOL    HW119547   1.718   3.896   7.881  0.6103  0.8615  0.9769
 2696SOL    HW219548   1.724   3.987   7.995 -0.4667  0.4348 -1.5689
 2697SOL     OW19549   0.621   4.016   7.692 -0.0785  0.0243 -0.0920
 2697SOL    HW119550   0.667   3.932   7.688  2.3880  1.3983 -0.5386
 2697SOL    HW219551   0.553   4.008   7.759 -1.2314  0.1822 -1.2277
 2698SOL     OW19552   0.158   0.175   4.588  0.2947 -0.1269 -0.4929
 2698SOL    HW119553   0.144   0.203   4.678 -3.1357 -0.8259 -0.7888
 2698SOL    HW219554   0.221   0.104   4.604 -0.1355 -0.3669  0.1126
 2699SOL     OW19555   3.336   1.256  10.091 -0.2381  0.4115 -0.3394
 2699SOL    HW119556   3.374   1.172  10.063 -2.2255 -1.3787  2.4003
 2699SOL    HW219557   3.414   1.310  10.098  1.0907 -1.4394 -0.7401
 2700SOL     OW19558   1.788   1.958   7.959 -0.2500 -0.0493  0.2278
 2700SOL    HW119559   1.757   2.038   8.001 -0.6157 -0.1692  0.1842
 2700SOL    HW219560   1.838   1.998   7.888  1.7864 -2.3276  0.3563
 2701SOL     OW19561   3.578   2.990   8.936  0.0005 -0.5699 -0.2904
 2701SOL    HW119562   3.563   2.900   8.909 -1.1429 -0.6211  0.5025
 2701SOL    HW219563   3.574   3.043   8.856  1.5915  0.7724  0.5216
 2702SOL     OW19564   4.398   3.846   7.960  0.4535  0.0063 -0.1724
 2702SOL    HW119565   4.429   3.901   7.888 -0.5666  1.0267  0.1652
 2702SOL    HW219566   4.306   3.872   7.967  0.9224  1.8676 -0.8834
 2703SOL     OW19567   3.085   4.497   4.090  0.0552 -0.3527 -0.8426
 2703SOL    HW119568   3.152   4.531   4.150 -0.2187 -0.1329 -0.6624
 2703SOL    HW219569   3.022   4.466   4.156  0.6444 -0.2489 -0.2243
 2704SOL     OW19570   3.529   0.547   7.480  0.0046 -0.2309 -0.2306
 2704SOL    HW119571   3.452   0.492   7.492 -0.0228 -0.2822 -0.6466
 2704SOL    HW219572   3.528   0.606   7.556  1.3601  0.5218 -0.7960
 2705SOL     OW19573   1.096   1.419   8.863 -0.0759  0.7362 -0.0068
 2705SOL    HW119574   1.011   1.444   8.828  0.3701  0.4446 -1.3011
 2705SOL    HW219575   1.131   1.414   8.774  0.4567 -2.0830  0.3568
 2706SOL     OW19576   4.079   2.436   2.443 -0.1682  0.4210 -0.2767
 2706SOL    HW119577   4.164   2.430   2.399  0.0519  3.4763 -0.2767
 2706SOL    HW219578   4.080   2.526   2.476 -2.5074  0.5929 -0.6419
 2707SOL     OW19579   2.589   1.242   0.836 -0.2935  0.3249  0.2813
 2707SOL    HW119580   2.512   1.294   0.859  0.7083  2.0333 -0.2228
 2707SOL    HW219581   2.610   1.274   0.748  0.4067 -0.0379  0.3153
 2708SOL     OW19582   3.491   3.851   7.460  0.0506 -0.2442  0.1013
 2708SOL    HW119583   3.458   3.934   7.425  0.8329 -0.7854 -1.9198
 2708SOL    HW219584   3.421   3.808   7.509 -0.2605 -0.5954 -0.6558
 2709SOL     OW19585   2.322   1.540   9.081 -0.3269  0.4569 -0.0543
 2709SOL    HW119586   2.325   1.448   9.054 -1.0206  1.3574 -3.2135
 2709SOL    HW219587   2.405   1.554   9.127  0.4167  0.3480 -1.3716
 2710SOL     OW19588   4.537   0.224   3.726 -0.0084  0.5000 -0.1827
 2710SOL    HW119589   4.507   0.315   3.719 -0.8319  0.3900  1.9777
 2710SOL    HW219590   4.479   0.199   3.797  1.5850 -1.3415  0.4644
 2711SOL     OW19591   4.251   2.113   5.295 -0.3411  0.4796  0.5150
 2711SOL    HW119592   4.206   2.111   5.210 -1.0801  2.3878  0.8475
 2711SOL    HW219593   4.315   2.043   5.294 -1.4032 -0.4800 -0.1269
 2712SOL     OW19594   2.955   2.938   7.600  0.3042 -0.5869 -0.3044
 2712SOL    HW119595   3.019   3.009   7.600 -0.9083  0.5128  0.5055
 2712SOL    HW219596   2.907   2.960   7.680 -1.2931  1.0462 -1.7106
 2713SOL     OW19597   2.078   1.664   7.487  0.2737  0.2386  0.1679
 2713SOL    HW119598   2.157   1.698   7.445 -0.5555  0.3832 -1.2637
 2713SOL    HW219599   2.003   1.680   7.430  0.4809 -1.9747 -0.7408
 2714SOL     OW19600   2.882   0.961   7.111  0.6302 -0.2248 -0.4245
 2714SOL    HW119601   2.928   0.880   7.091 -0.3500 -0.7270 -0.6301
 2714SOL    HW219602   2.950   1.020   7.144 -1.1838  0.7109  1.6021
 2715SOL     OW19603   1.989   3.747  15.587 -0.2124  0.0168 -0.3592
 2715SOL    HW119604   2.082   3.768  15.599 -0.2366 -2.1582  3.5771
 2715SOL    HW219605   1.988   3.652  15.595  2.0304 -0.2272 -3.1197
 2716SOL     OW19606   2.676   1.852  16.313  0.5997 -0.4922 -0.0759
 2716SOL    HW119607   2.629   1.871  16.232  0.8599  1.5518  0.2387
 2716SOL    HW219608   2.755   1.808  16.284  1.4679  0.6083  0.6264
 2717SOL     OW19609   1.130   3.889   4.907  0.0423 -0.3055  0.2027
 2717SOL    HW119610   1.078   3.890   4.987 -1.3729 -0.0646 -0.7003
 2717SOL    HW219611   1.174   3.973   4.913  1.1415 -0.8919  0.3046
 2718SOL     OW19612   4.142   4.325   5.809  1.0182 -0.3829 -0.1802
 2718SOL    HW119613   4.149   4.324   5.713 -1.9593 -0.6111 -0.3935
 2718SOL    HW219614   4.059   4.280   5.819  0.5913  0.6498  0.8354
 2719SOL     OW19615   3.888   0.852  15.388 -0.2345 -0.0324 -0.1025
 2719SOL    HW119616   3.844   0.767  15.390  0.9076 -0.6291 -0.2837
 2719SOL    HW219617   3.977   0.825  15.363 -1.0255 -2.9611  0.2633
 2720SOL     OW19618   2.272   3.047   8.489 -0.1040  0.5081  0.1133
 2720SOL    HW119619   2.309   2.959   8.486 -2.0728 -0.3740  1.8597
 2720SOL    HW219620   2.332   3.081   8.556  0.9401 -1.3266  0.1045
 2721SOL     OW19621   1.682   3.433   0.592 -0.8960 -0.1239 -0.0794
 2721SOL    HW119622   1.767   3.476   0.579 -1.0535 -0.0052 -0.7063
 2721SOL    HW219623   1.623   3.484   0.538  1.0218 -0.0774 -2.1435
 2722SOL     OW19624   4.198   3.214   2.228  0.4560  0.3399 -0.2435
 2722SOL    HW119625   4.153   3.254   2.303  2.5699  0.1446  1.1239
 2722SOL    HW219626   4.288   3.246   2.234  0.6502  0.1388 -2.1591
 2723SOL     OW19627   4.597   3.596   4.027  0.3058 -0.1936  0.8817
 2723SOL    HW119628   4.597   3.683   3.988 -0.8944 -0.6077 -0.0694
 2723SOL    HW219629   4.579   3.539   3.951  0.0280  0.3474  0.5438
 2724SOL     OW19630   3.726   1.064   4.231 -0.4203  0.2816 -0.7697
 2724SOL    HW119631   3.758   1.020   4.152 -0.3931  0.1292 -0.6739
 2724SOL    HW219632   3.763   1.012   4.302  0.8338  1.3312 -0.6677
 2725SOL     OW19633   0.600   4.506   4.625 -0.4641  0.1852 -0.1134
 2725SOL    HW119634   0.693   4.527   4.613 -1.0319  2.7851  0.0801
 2725SOL    HW219635   0.587   4.411   4.631  0.6974  0.0961  1.1600
 2726SOL     OW19636   4.248   4.199   9.441  0.4287 -0.7850 -0.4795
 2726SOL    HW119637   4.227   4.276   9.389  1.2540 -0.6451 -0.6126
 2726SOL    HW219638   4.336   4.222   9.471 -0.6881 -1.0257  2.9317
 2727SOL     OW19639   2.125   1.449  11.568 -0.1368  0.1991  0.3938
 2727SOL    HW119640   2.215   1.430  11.594 -0.5398 -2.6141 -0.2654
 2727SOL    HW219641   2.076   1.400  11.634  0.5877 -1.8968 -0.6207
 2728SOL     OW19642   0.310   1.437   2.413 -0.0016  0.7603 -0.1009
 2728SOL    HW119643   0.336   1.429   2.321 -0.9372 -0.6953 -0.2461
 2728SOL    HW219644   0.281   1.351   2.445  1.3396 -0.7331 -2.9163
 2729SOL     OW19645   3.452   1.865   0.363  0.4193  0.2156 -0.4664
 2729SOL    HW119646   3.421   1.824   0.444 -0.2611 -1.5568 -1.6209
 2729SOL    HW219647   3.547   1.863   0.367  0.3484 -1.0607  0.5092
 2730SOL     OW19648   1.470   1.635   1.140  0.1856 -0.5050 -0.1417
 2730SOL    HW119649   1.394   1.669   1.187 -0.6310 -1.0867 -1.0463
 2730SOL    HW219650   1.539   1.621   1.205  0.0930  0.8803  0.2638
 2731SOL     OW19651   3.779   2.508   2.910 -0.1944  0.1383 -0.1990
 2731SOL    HW119652   3.752   2.423   2.944  1.0189 -0.6418 -1.1760
 2731SOL    HW219653   3.841   2.465   2.851  1.3776  0.5393  1.1613
 2732SOL     OW19654   2.538   0.734  14.104  0.2428 -0.2293 -0.1328
 2732SOL    HW119655   2.443   0.733  14.112  0.1557  1.7246 -0.8208
 2732SOL    HW219656   2.557   0.649  14.144 -0.3105 -0.0644  0.4756
 2733SOL     OW19657   1.194   1.658   6.743 -0.3757  0.3358  0.3591
 2733SOL    HW119658   1.253   1.726   6.774 -0.1208  0.2217  0.1232
 2733SOL    HW219659   1.209   1.674   6.650 -0.2301  2.0143  0.6783
 2734SOL     OW19660   1.788   1.304  12.312  0.4518  0.3657  0.5368
 2734SOL    HW119661   1.840   1.270  12.239  0.4857  0.9278  0.2948
 2734SOL    HW219662   1.857   1.308  12.378  0.4361 -0.5092  0.5971
 2735SOL     OW19663   2.998   0.078   2.348 -0.1262  0.0611  0.3694
 2735SOL    HW119664   3.003   0.132   2.427  1.4136  1.3837 -0.6229
 2735SOL    HW219665   3.030   0.141   2.282 -0.1394  0.0956  0.3960
 2736SOL     OW19666   4.692   3.030   0.137  0.3223 -0.5216  0.4295
 2736SOL    HW119667   0.037   3.052   0.073 -0.6070  0.7323 -0.1316
 2736SOL    HW219668   0.020   2.976   0.198 -1.5369 -2.2715  0.4131
 2737SOL     OW19669   3.595   4.358   4.252  0.2590  0.0614  0.3924
 2737SOL    HW119670   3.614   4.276   4.208  1.6495  0.9284 -0.6437
 2737SOL    HW219671   3.548   4.402   4.181 -2.4551 -3.9831 -0.2737
 2738SOL     OW19672   3.367   1.213  14.566 -0.0513 -0.0587  0.6332
 2738SOL    HW119673   3.272   1.224  14.557 -0.1462  1.5837  3.5627
 2738SOL    HW219674   3.384   1.166  14.485 -0.1983  2.9194 -1.1091
 2739SOL     OW19675   2.084   0.771  13.382  0.7290  0.2233  1.0579
 2739SOL    HW119676   2.099   0.761  13.288 -0.5897  2.2423  0.6394
 2739SOL    HW219677   2.125   0.689  13.408  2.1499  0.1714 -1.2385
 2740SOL     OW19678   0.732   3.265   9.540  0.5463  0.1172 -0.3075
 2740SOL    HW119679   0.822   3.246   9.515  1.0174 -0.3473  1.7341
 2740SOL    HW219680   0.706   3.315   9.463  1.4041  1.1870  0.1109
 2741SOL     OW19681   3.807   3.697   3.107  0.0654  0.0309 -0.1656
 2741SOL    HW119682   3.821   3.737   3.193  0.2465  0.5415 -0.4334
 2741SOL    HW219683   3.830   3.767   3.046  0.8470  0.6907  0.8944
 2742SOL     OW19684   2.509   2.474   4.999 -0.2208  0.0970 -0.1419
 2742SOL    HW119685   2.508   2.418   5.077  0.7105  0.4180  0.0995
 2742SOL    HW219686   2.466   2.420   4.932  0.2540  0.1776 -0.5062
 2743SOL     OW19687   0.342   3.918   6.210 -0.0309 -0.7929 -0.1439
 2743SOL    HW119688   0.373   3.931   6.121 -0.3872 -1.3497 -0.3477
 2743SOL    HW219689   0.424   3.938   6.255 -0.3060 -1.2210  0.5483
 2744SOL     OW19690   0.626   3.715   4.738 -0.1350 -0.4671  0.8219
 2744SOL    HW119691   0.688   3.647   4.763  0.9743  0.2399 -0.0114
 2744SOL    HW219692   0.671   3.788   4.781 -1.2362  0.8880 -0.3488
 2745SOL     OW19693   0.214   4.094   5.673 -0.3019  0.2752  0.2084
 2745SOL    HW119694   0.263   4.164   5.629 -1.0791 -0.2654 -1.4910
 2745SOL    HW219695   0.243   4.104   5.764  1.3513  2.3011 -0.5476
 2746SOL     OW19696   3.786   1.702  11.664  0.3268 -0.4482 -0.3646
 2746SOL    HW119697   3.806   1.650  11.586 -0.8349 -2.2079  0.5040
 2746SOL    HW219698   3.699   1.732  11.637  1.2288  2.3074 -0.1704
 2747SOL     OW19699   2.243   4.118   6.671 -0.2312 -0.0293 -0.0283
 2747SOL    HW119700   2.172   4.113   6.735 -0.4426 -0.6106 -0.3134
 2747SOL    HW219701   2.233   4.029   6.638  0.6125  0.3808 -1.3910
 2748SOL     OW19702   3.736   3.232   6.135  0.0943 -0.3203  0.1752
 2748SOL    HW119703   3.787   3.277   6.202  0.3901  1.8387 -1.5004
 2748SOL    HW219704   3.728   3.294   6.063  2.1357 -0.3367 -0.0678
 2749SOL     OW19705   1.143   2.758  16.824 -0.2341  0.0915  0.5791
 2749SOL    HW119706   1.092   2.728  16.749 -1.7334  0.1562  1.5599
 2749SOL    HW219707   1.229   2.780  16.788  0.1203 -1.9847  0.1553
 2750SOL     OW19708   1.239   3.660   4.097 -0.2558 -0.7687 -0.0835
 2750SOL    HW119709   1.287   3.597   4.043  0.1706 -1.7178  1.4340
 2750SOL    HW219710   1.305   3.692   4.159 -0.4550 -0.6400  0.0620
 2751SOL     OW19711   4.106   3.258   6.857  0.0873  0.0363  0.4356
 2751SOL    HW119712   4.090   3.278   6.764 -0.6703 -0.1599  0.5212
 2751SOL    HW219713   4.181   3.314   6.874  0.2003  0.4188 -1.2942
 2752SOL     OW19714   2.221   1.327   2.363 -0.4438 -0.3992  0.5242
 2752SOL    HW119715   2.169   1.248   2.348  2.5690 -2.3942  0.4598
 2752SOL    HW219716   2.177   1.398   2.316 -2.2250 -1.2609  0.9002
 2753SOL     OW19717   0.477   1.368  12.500 -0.0423  0.4079 -0.3297
 2753SOL    HW119718   0.497   1.279  12.473 -1.8930  0.0013 -0.3082
 2753SOL    HW219719   0.452   1.368  12.593 -1.7513  1.6148 -0.8110
 2754SOL     OW19720   2.538   2.721  16.274  0.1600 -0.4169  0.6372
 2754SOL    HW119721   2.623   2.759  16.252 -0.3424  0.5062  0.3122
 2754SOL    HW219722   2.488   2.766  16.207  0.4234  0.0841  0.7782
 2755SOL     OW19723   3.483   0.461   5.991 -0.0954  0.1012 -0.7097
 2755SOL    HW119724   3.493   0.490   5.900 -2.1788  2.6420 -0.1058
 2755SOL    HW219725   3.398   0.417   5.992 -0.2808  0.4220 -1.5423
 2756SOL     OW19726   0.241   2.999   6.639  0.2360  0.0984  0.1737
 2756SOL    HW119727   0.269   2.962   6.723 -1.3168 -0.9429  0.2344
 2756SOL    HW219728   0.259   2.931   6.574 -0.4796 -0.8194  0.9334
 2757SOL     OW19729   4.046   0.003  11.035  0.0915 -0.0106 -0.2429
 2757SOL    HW119730   4.123   4.691  10.990  1.3510  1.4481  0.8074
 2757SOL    HW219731   4.095   0.070  11.081  1.2239  0.0396 -1.5253
 2758SOL     OW19732   4.048   3.922   8.418  0.3542  1.1684  0.3518
 2758SOL    HW119733   3.985   3.897   8.486 -1.1222  2.8664 -0.3879
 2758SOL    HW219734   4.011   4.004   8.386 -0.2670  0.3721 -0.9833
 2759SOL     OW19735   4.503   3.383   4.218  0.3020 -0.2025 -0.0649
 2759SOL    HW119736   4.564   3.445   4.178  0.4075  0.4666  1.1344
 2759SOL    HW219737   4.429   3.440   4.239 -1.0856 -1.5071 -1.4242
 2760SOL     OW19738   1.754   2.243  17.068 -0.5630 -0.1884 -0.0967
 2760SOL    HW119739   1.785   2.177  17.130  0.6761 -0.2813 -0.7976
 2760SOL    HW219740   1.789   2.320  17.113  2.5042 -2.3895  1.3443
 2761SOL     OW19741   3.197   4.687   8.710  0.5025 -0.0479 -0.0383
 2761SOL    HW119742   3.205   4.680   8.805  3.3488 -0.5614 -0.3116
 2761SOL    HW219743   3.207   4.593   8.691  1.0113 -0.1455  0.7131
 2762SOL     OW19744   0.888   1.334   6.442  0.5496  0.1890 -0.8054
 2762SOL    HW119745   0.983   1.328   6.434  0.9023  2.5233  1.4796
 2762SOL    HW219746   0.854   1.300   6.359 -0.6823 -1.3345  0.3036
 2763SOL     OW19747   1.180   0.350   4.978  0.0204  0.3887 -0.2878
 2763SOL    HW119748   1.105   0.341   5.036  0.1394 -0.6636 -0.2956
 2763SOL    HW219749   1.233   0.410   5.031  0.4532 -0.3722  0.1288
 2764SOL     OW19750   1.994   4.434  11.222  0.1082 -0.0903 -0.0412
 2764SOL    HW119751   2.001   4.488  11.143  2.6603  0.8466  0.8317
 2764SOL    HW219752   1.898   4.424  11.222  0.1161 -0.1982 -1.4347
 2765SOL     OW19753   1.871   0.799  14.401 -0.4112  0.2462  0.7238
 2765SOL    HW119754   1.791   0.788  14.452 -0.7595 -1.9636 -0.3120
 2765SOL    HW219755   1.931   0.849  14.457 -0.4682  0.2821  0.7526
 2766SOL     OW19756   0.824   1.610  11.602 -0.1297  0.6465  0.3256
 2766SOL    HW119757   0.863   1.545  11.661  0.5626 -0.3231 -1.1822
 2766SOL    HW219758   0.732   1.589  11.617  0.1278 -1.9332 -1.7392
 2767SOL     OW19759   1.620   3.641   8.188  0.0662 -0.4642  0.4658
 2767SOL    HW119760   1.568   3.721   8.198 -0.5466 -0.8968  0.7086
 2767SOL    HW219761   1.560   3.573   8.220 -1.7054  1.1184  0.5034
 2768SOL     OW19762   0.491   1.138   7.740 -0.2247 -0.4010 -0.4129
 2768SOL    HW119763   0.501   1.226   7.778 -1.1433 -0.2218 -0.5936
 2768SOL    HW219764   0.489   1.164   7.648  1.5154  0.7845 -0.1087
 2769SOL     OW19765   3.418   0.830  13.629 -0.2972 -0.0714  0.0376
 2769SOL    HW119766   3.491   0.792  13.678 -0.6873 -1.0790 -0.1697
 2769SOL    HW219767   3.444   0.922  13.638 -0.6821  0.2162 -1.6438
 2770SOL     OW19768   2.293   3.926   4.694 -0.0999 -0.4006 -0.1498
 2770SOL    HW119769   2.345   3.976   4.758 -0.5338  0.1320 -0.2083
 2770SOL    HW219770   2.205   3.949   4.725 -0.1621 -2.2461  0.9948
 2771SOL     OW19771   3.858   2.949  12.061 -0.1674 -0.0216 -0.6770
 2771SOL    HW119772   3.841   2.877  12.001 -0.4424 -0.1297 -0.4708
 2771SOL    HW219773   3.902   2.904  12.133 -2.6614 -1.1364  0.1684
 2772SOL     OW19774   1.021   1.885  11.434  0.6691 -0.4508 -0.4471
 2772SOL    HW119775   1.080   1.855  11.504 -1.8795 -2.8702  0.6559
 2772SOL    HW219776   1.045   1.824  11.365 -3.1675 -0.2580 -1.9500
 2773SOL     OW19777   1.770   3.782   6.120 -0.3261 -0.1589 -0.2619
 2773SOL    HW119778   1.809   3.722   6.184  1.1574  1.9311  0.7869
 2773SOL    HW219779   1.830   3.763   6.048 -1.7376  0.1871 -1.5146
 2774SOL     OW19780   3.976   3.176  11.950 -0.2167  0.1049 -0.0376
 2774SOL    HW119781   3.953   3.083  11.961  1.6528 -0.6222 -2.2558
 2774SOL    HW219782   3.984   3.176  11.855  1.8728  1.3659  0.1362
 2775SOL     OW19783   2.570   2.133   2.137 -0.5897  1.2993  1.0108
 2775SOL    HW119784   2.481   2.167   2.128 -0.8014  0.8488  1.4860
 2775SOL    HW219785   2.597   2.132   2.045  0.4972 -0.7637  1.3501
 2776SOL     OW19786   4.086   0.425   8.019  0.0074 -0.1311 -0.0042
 2776SOL    HW119787   4.068   0.486   7.947  2.0413  2.4436  1.6860
 2776SOL    HW219788   4.180   0.440   8.024  0.3314 -1.5828 -1.8246
 2777SOL     OW19789   2.313   1.190  10.391 -0.3575 -0.2802  0.1231
 2777SOL    HW119790   2.235   1.201  10.445 -0.0322 -3.0039  1.1443
 2777SOL    HW219791   2.349   1.122  10.448 -1.0069  1.5167  2.6781
 2778SOL     OW19792   0.916   3.946   3.838 -0.1649  0.2566  0.5275
 2778SOL    HW119793   0.889   4.031   3.872 -0.1702  0.7393 -0.6664
 2778SOL    HW219794   0.895   3.888   3.911 -0.0002 -1.3801 -0.7153
 2779SOL     OW19795   1.324   1.347   7.531  0.0303  0.0865 -0.0286
 2779SOL    HW119796   1.332   1.394   7.448 -0.4182  1.0530  0.4866
 2779SOL    HW219797   1.384   1.398   7.585  0.3858 -0.3735  0.0165
 2780SOL     OW19798   2.348   1.610   5.272 -0.4598  0.1751  0.1039
 2780SOL    HW119799   2.334   1.522   5.237  2.7793 -0.7998  1.2805
 2780SOL    HW219800   2.265   1.658   5.266 -0.7295 -0.3031 -0.0394
 2781SOL     OW19801   1.299   4.439   6.107  0.4818  0.0753  0.3483
 2781SOL    HW119802   1.251   4.493   6.170 -1.2692 -2.1289  0.8961
 2781SOL    HW219803   1.273   4.487   6.028 -1.0260 -1.7046 -0.2376
 2782SOL     OW19804   0.047   3.651  11.035  0.8042 -1.0389  0.6457
 2782SOL    HW119805   4.698   3.642  11.097  3.4182 -0.5532  3.7530
 2782SOL    HW219806   0.004   3.697  10.963 -2.5832 -1.3253  2.5318
 2783SOL     OW19807   4.103   2.685   8.167  0.0817 -0.0976  0.3518
 2783SOL    HW119808   4.087   2.659   8.257 -1.5489  0.5789  0.2655
 2783SOL    HW219809   4.160   2.761   8.179  2.1722 -2.0104  2.3122
 2784SOL     OW19810   2.253   1.980   8.934  0.2169  0.6116 -0.0860
 2784SOL    HW119811   2.175   1.959   8.984 -0.8229  3.4681 -0.5099
 2784SOL    HW219812   2.227   2.069   8.907 -0.6867  0.6178  0.8096
 2785SOL     OW19813   3.080   2.906   8.959  0.5950  0.0975 -0.8911
 2785SOL    HW119814   3.114   2.880   9.045  2.9685  2.1048 -1.1921
 2785SOL    HW219815   3.034   2.831   8.923  0.0555  0.5474 -1.1352
 2786SOL     OW19816   0.480   1.499   7.546  0.7372  0.7935  0.7947
 2786SOL    HW119817   0.479   1.494   7.641  2.2320  0.8228  0.8172
 2786SOL    HW219818   0.491   1.407   7.519 -2.5999 -0.1521  2.7599
 2787SOL     OW19819   1.332   0.048   3.716  0.0485  0.2247 -0.3280
 2787SOL    HW119820   1.352   0.142   3.711 -1.7741  0.8547  4.1026
 2787SOL    HW219821   1.309   0.046   3.809 -1.9764 -0.0874 -0.8267
 2788SOL     OW19822   3.525   2.083  14.787  0.6542 -0.2076  0.5281
 2788SOL    HW119823   3.581   2.007  14.801  0.3141 -0.2643  1.6209
 2788SOL    HW219824   3.571   2.127  14.716 -3.0940  0.3096 -1.5751
 2789SOL     OW19825   2.265   4.031   6.976 -0.5099 -0.2527  0.3169
 2789SOL    HW119826   2.276   3.957   6.917 -3.3095 -0.0128 -0.5093
 2789SOL    HW219827   2.279   3.986   7.060  1.0600 -1.0556 -0.3823
 2790SOL     OW19828   0.299   4.447   6.297 -0.4392  0.3148  0.0602
 2790SOL    HW119829   0.251   4.501   6.361  1.3425  2.5490 -0.4876
 2790SOL    HW219830   0.237   4.375   6.284 -1.5307  1.0550  1.1385
 2791SOL     OW19831   3.695   2.956  16.134  0.0633 -0.0088  0.0316
 2791SOL    HW119832   3.679   2.944  16.228 -0.7385  0.8285 -0.0040
 2791SOL    HW219833   3.679   2.869  16.098 -2.3040  0.5770 -0.3267
 2792SOL     OW19834   1.513   4.504  10.905  0.4028  0.3200  0.7111
 2792SOL    HW119835   1.525   4.493  10.811 -0.9545  1.7380  0.3763
 2792SOL    HW219836   1.589   4.558  10.926  1.6011 -0.1934 -2.4159
 2793SOL     OW19837   3.802   0.017   5.159  0.0707 -0.1514  0.3177
 2793SOL    HW119838   3.849   0.090   5.119  0.6574 -0.9693 -0.4918
 2793SOL    HW219839   3.865   4.687   5.209 -0.9797 -0.5588  1.2101
 2794SOL     OW19840   1.823   1.166  10.729 -0.0781 -0.3306  0.4620
 2794SOL    HW119841   1.907   1.121  10.734  0.1251 -0.0934 -0.8860
 2794SOL    HW219842   1.771   1.096  10.689  0.1652  0.2989 -0.9613
 2795SOL     OW19843   1.102   1.517   6.948 -0.0279 -0.0705 -0.0919
 2795SOL    HW119844   1.091   1.595   7.003 -0.8780  0.6537 -1.2890
 2795SOL    HW219845   1.124   1.563   6.867 -1.6891 -1.4191 -1.2960
 2796SOL     OW19846   2.916   4.668   6.302  0.7103  0.0200  0.7234
 2796SOL    HW119847   2.984   4.633   6.359  0.1611  2.6904  3.0310
 2796SOL    HW219848   2.861   4.593   6.281 -0.0893  0.2040  2.1967
 2797SOL     OW19849   3.540   4.619   8.704 -0.0311 -0.6387 -0.2173
 2797SOL    HW119850   3.537   4.705   8.745 -1.5985 -0.7212 -0.1858
 2797SOL    HW219851   3.513   4.642   8.615 -1.0038 -3.2733 -0.6055
 2798SOL     OW19852   2.666   0.403   4.383  0.2222 -0.1569 -0.0132
 2798SOL    HW119853   2.608   0.447   4.445  0.4238  2.3764 -1.6062
 2798SOL    HW219854   2.692   0.474   4.324 -3.3100  1.2384  0.1264
 2799SOL     OW19855   4.518   3.314   8.201 -0.1854 -0.1794 -1.1449
 2799SOL    HW119856   4.463   3.251   8.155  1.8736 -1.0309 -2.4568
 2799SOL    HW219857   4.458   3.339   8.272  0.4149 -0.5141 -0.5195
 2800SOL     OW19858   0.915   0.828   6.755  0.1143  0.5706  0.3052
 2800SOL    HW119859   0.939   0.910   6.712 -0.9365  0.7042 -0.0187
 2800SOL    HW219860   0.822   0.849   6.753 -0.4983 -2.0236  0.9498
 2801SOL     OW19861   1.139   3.436   2.122  0.3950 -0.3831 -0.4570
 2801SOL    HW119862   1.107   3.524   2.143 -0.9178 -0.7033 -1.1221
 2801SOL    HW219863   1.232   3.452   2.134  0.3201 -0.4409  0.2012
 2802SOL     OW19864   0.115   3.111   2.531  0.3352 -0.7550  0.1783
 2802SOL    HW119865   0.065   3.152   2.602 -0.6277  0.2623 -1.0845
 2802SOL    HW219866   0.092   3.170   2.459  3.0512 -0.0587 -0.1215
 2803SOL     OW19867   2.669   4.421   5.815 -0.2586 -0.6220 -0.4041
 2803SOL    HW119868   2.666   4.326   5.825  0.6592 -0.6778 -0.7088
 2803SOL    HW219869   2.577   4.441   5.796 -0.9249 -0.5706  2.8644
 2804SOL     OW19870   3.518   3.435   7.737 -0.1775 -0.2942 -0.6771
 2804SOL    HW119871   3.503   3.340   7.745  1.6972 -0.6123 -0.9401
 2804SOL    HW219872   3.545   3.468   7.822  0.2311  0.2147 -1.0061
 2805SOL     OW19873   3.857   1.491   8.868 -0.0454  0.2213 -0.0993
 2805SOL    HW119874   3.809   1.532   8.796  0.5469 -4.5160 -3.2017
 2805SOL    HW219875   3.784   1.478   8.929 -0.2506  0.9620 -0.1854
 2806SOL     OW19876   3.609   1.983  17.555 -0.8749  0.4048  0.3312
 2806SOL    HW119877   3.591   2.029  17.472 -1.4263  0.8762  0.7082
 2806SOL    HW219878   3.573   1.897  17.532 -1.1930  0.5162  0.4023
 2807SOL     OW19879   1.923   1.079   2.733 -0.3267  0.6576  0.6455
 2807SOL    HW119880   1.898   1.113   2.818  1.1543  1.0029  0.9395
 2807SOL    HW219881   1.925   1.151   2.670 -0.0428  0.3295  0.2774
 2808SOL     OW19882   4.007   1.150   7.543  0.3561 -0.6615 -0.1221
 2808SOL    HW119883   3.924   1.120   7.582 -0.2451  0.8672 -0.2460
 2808SOL    HW219884   3.980   1.222   7.487 -0.7101 -0.6388  0.4256
 2809SOL     OW19885   1.180   0.684   9.243 -0.3134  0.1606  0.2346
 2809SOL    HW119886   1.262   0.647   9.211 -1.0114 -1.6939  0.5900
 2809SOL    HW219887   1.158   0.617   9.308 -2.4100  0.7291  0.1038
 2810SOL     OW19888   1.618   2.798   5.075  0.5810 -0.0880  0.5562
 2810SOL    HW119889   1.697   2.745   5.063  0.3743 -0.6536  1.6671
 2810SOL    HW219890   1.597   2.831   4.988  0.9301  1.0345  0.9014
 2811SOL     OW19891   3.248   3.661   3.214  0.4640  0.2562  0.2430
 2811SOL    HW119892   3.335   3.645   3.250  0.2507 -0.1097  0.6079
 2811SOL    HW219893   3.207   3.610   3.284  2.2328 -0.7103  0.5486
 2812SOL     OW19894   4.427   0.991   2.956  0.2111  0.0775 -0.0427
 2812SOL    HW119895   4.522   0.979   2.965  0.3661  0.7789 -0.7586
 2812SOL    HW219896   4.394   1.065   3.006 -0.3451 -1.6982  2.2169
 2813SOL     OW19897   1.247   2.304   3.549  0.2040  0.0775 -0.3507
 2813SOL    HW119898   1.282   2.386   3.515  2.0507  0.2710  2.0329
 2813SOL    HW219899   1.167   2.293   3.497  0.2715 -0.5921 -0.3055
 2814SOL     OW19900   3.397   0.605   1.673  0.2017  0.4720 -0.0281
 2814SOL    HW119901   3.310   0.567   1.658 -0.1742  1.7948 -1.2079
 2814SOL    HW219902   3.428   0.637   1.588 -0.8241  3.1487  0.5899
 2815SOL     OW19903   2.558   1.357   5.333 -0.0466  0.5516  0.3512
 2815SOL    HW119904   2.553   1.449   5.309 -0.4296 -0.1770 -2.4330
 2815SOL    HW219905   2.472   1.317   5.319 -0.1807  0.6712  0.8506
 2816SOL     OW19906   0.723   0.163   1.839 -0.0542 -0.2817 -0.1993
 2816SOL    HW119907   0.703   0.157   1.932  2.8264  2.4897  0.5947
 2816SOL    HW219908   0.750   0.074   1.817  0.8147  0.3742 -1.7999
 2817SOL     OW19909   4.702   4.143   0.627 -0.0713 -0.0618  0.1460
 2817SOL    HW119910   4.607   4.153   0.622 -0.5574 -5.3024 -0.4420
 2817SOL    HW219911   0.016   4.218   0.579 -0.3488 -2.2058 -3.3602
 2818SOL     OW19912   1.377   2.151   2.791  0.6099 -0.1146  0.0826
 2818SOL    HW119913   1.356   2.198   2.871 -1.2337 -2.8617  1.2257
 2818SOL    HW219914   1.357   2.060   2.811  0.7866 -0.1464  0.1120
 2819SOL     OW19915   1.510   4.707   1.017 -0.5779 -0.1081 -0.1166
 2819SOL    HW119916   1.546   4.620   1.035 -0.2084  0.2868  1.0099
 2819SOL    HW219917   1.524   4.717   0.923  0.3603 -1.4055 -0.1192
 2820SOL     OW19918   4.281   2.593  12.680  0.1648 -0.2961  0.4020
 2820SOL    HW119919   4.374   2.572  12.674  0.5334  0.9566  1.8862
 2820SOL    HW219920   4.245   2.505  12.670 -1.1389  0.5500 -2.3972
 2821SOL     OW19921   2.705   4.638   5.427 -0.1337  0.1783  0.1219
 2821SOL    HW119922   2.713   4.543   5.422 -0.2810  0.0893  1.6100
 2821SOL    HW219923   2.764   4.657   5.353  0.7035  0.3555  0.8368
 2822SOL     OW19924   0.181   1.556   2.993  0.0870 -0.0037  0.1090
 2822SOL    HW119925   0.136   1.526   3.072  1.0023 -1.1152  0.2136
 2822SOL    HW219926   0.129   1.629   2.960 -0.5232 -1.1683 -1.4909
 2823SOL     OW19927   0.406   3.988   7.998  0.5076 -0.3514  1.0742
 2823SOL    HW119928   0.386   3.973   8.090 -0.5966  2.3805  1.2825
 2823SOL    HW219929   0.371   3.911   7.952 -2.1857  0.5856  1.5444
 2824SOL     OW19930   2.019   0.447   9.250  0.0200  0.6598 -0.7387
 2824SOL    HW119931   1.959   0.403   9.309  0.9282 -2.5392 -2.2232
 2824SOL    HW219932   2.075   0.375   9.223  1.5791  0.6506  2.4788
 2825SOL     OW19933   2.139   4.489   6.875  0.0841  0.2096  0.2726
 2825SOL    HW119934   2.206   4.551   6.904  0.9013 -1.5419  2.0955
 2825SOL    HW219935   2.157   4.411   6.927 -1.0251  0.1949  0.6378
 2826SOL     OW19936   0.064   2.515  14.753  0.3585 -0.1476  0.1423
 2826SOL    HW119937   0.095   2.469  14.675 -0.2226 -2.3380  1.1955
 2826SOL    HW219938   0.147   2.551  14.786  0.0992  0.2675  0.3337
 2827SOL     OW19939   3.953   2.793  15.987  0.0564 -0.5288 -0.1707
 2827SOL    HW119940   3.916   2.881  15.987  1.6869  0.1485 -1.9799
 2827SOL    HW219941   3.982   2.795  15.895 -1.4871 -1.6040 -0.6761
 2828SOL     OW19942   2.681   0.272   5.329  0.5673 -0.1953  0.4372
 2828SOL    HW119943   2.607   0.224   5.293  1.4276 -1.4943  0.3855
 2828SOL    HW219944   2.684   0.358   5.287 -1.6864 -0.1578  0.3748
 2829SOL     OW19945   4.340   1.033   6.082 -0.2810  1.1046 -0.5635
 2829SOL    HW119946   4.363   1.079   6.163  0.3000 -4.4519  2.3716
 2829SOL    HW219947   4.273   1.094   6.051 -0.6456  1.3000  0.6351
 2830SOL     OW19948   1.891   2.520   3.023  0.0647 -0.2440 -0.3630
 2830SOL    HW119949   1.970   2.524   2.969 -1.6081  1.2178 -2.7025
 2830SOL    HW219950   1.867   2.610   3.046  3.4663  0.1801  1.4746
 2831SOL     OW19951   4.267   4.562  12.132 -0.5087  0.0251  0.1369
 2831SOL    HW119952   4.353   4.550  12.171 -1.1099 -1.8696  0.8718
 2831SOL    HW219953   4.205   4.567  12.204 -0.3101 -1.4471  0.4105
 2832SOL     OW19954   2.706   4.568  11.371  0.0994 -0.1080  0.3891
 2832SOL    HW119955   2.728   4.638  11.433  1.0085  1.0309 -1.1945
 2832SOL    HW219956   2.764   4.496  11.396  1.0116 -0.0678 -1.5465
 2833SOL     OW19957   3.451   2.961  12.171  0.4219  0.0815 -0.4947
 2833SOL    HW119958   3.490   2.874  12.168 -0.7373 -0.4077 -1.4806
 2833SOL    HW219959   3.533   3.010  12.165 -0.7375  2.0411 -0.3583
 2834SOL     OW19960   2.184   1.585   7.937 -0.2057 -0.0485 -0.2694
 2834SOL    HW119961   2.145   1.602   7.851  0.7712  1.1907 -0.4767
 2834SOL    HW219962   2.103   1.574   7.987 -0.4708 -1.6729 -1.0924
 2835SOL     OW19963   3.669   4.582  16.426  0.1746 -0.0302  0.1555
 2835SOL    HW119964   3.609   4.652  16.452 -1.4112 -0.7796 -1.4794
 2835SOL    HW219965   3.626   4.540  16.351  1.0934  2.0285 -1.5553
 2836SOL     OW19966   3.474   1.452   7.703 -0.3683  0.6093  0.0995
 2836SOL    HW119967   3.449   1.365   7.672 -1.3623  1.5439 -1.7691
 2836SOL    HW219968   3.387   1.489   7.717 -0.2209  0.5892  1.0439
 2837SOL     OW19969   4.164   2.868   1.788 -0.0425 -0.0319  0.1897
 2837SOL    HW119970   4.126   2.955   1.775  0.9072  0.3056 -0.3052
 2837SOL    HW219971   4.255   2.886   1.766 -0.2757  0.1679 -0.5865
 2838SOL     OW19972   2.723   0.872  13.982 -0.3661  0.2600  0.2173
 2838SOL    HW119973   2.671   0.807  14.030 -0.5006 -0.1212 -0.4407
 2838SOL    HW219974   2.805   0.867  14.032  0.8290  0.2650 -1.7640
 2839SOL     OW19975   4.393   1.645   0.663 -0.5842  0.0095 -0.7998
 2839SOL    HW119976   4.406   1.717   0.725 -0.1706 -0.3695 -0.4412
 2839SOL    HW219977   4.447   1.659   0.585 -0.5087 -0.4932 -0.8401
 2840SOL     OW19978   1.053   4.520  11.558 -0.0313 -0.2062  0.0100
 2840SOL    HW119979   1.123   4.506  11.495  0.3951  2.2376 -0.0757
 2840SOL    HW219980   1.056   4.616  11.568 -0.1380 -0.2660  0.6688
 2841SOL     OW19981   2.383   0.010   4.778 -0.5508  0.5729 -0.4991
 2841SOL    HW119982   2.374   0.100   4.809 -0.9609  0.6759 -0.9267
 2841SOL    HW219983   2.357   4.684   4.857  0.1896 -1.7298 -1.6850
 2842SOL     OW19984   1.355   0.232   5.225 -0.0881  0.0231  0.4027
 2842SOL    HW119985   1.331   0.142   5.206  0.5824  0.4039 -2.2707
 2842SOL    HW219986   1.448   0.215   5.211  0.6632  4.3097  0.2347
 2843SOL     OW19987   4.346   1.618  15.791  0.0356 -0.5429 -0.3553
 2843SOL    HW119988   4.362   1.527  15.766  0.9866 -0.6453  0.6361
 2843SOL    HW219989   4.301   1.616  15.876  0.2762  0.6355 -0.2103
 2844SOL     OW19990   1.158   0.749  15.604 -0.0366  0.7975  0.4861
 2844SOL    HW119991   1.121   0.817  15.548  1.2159  1.0892 -0.0018
 2844SOL    HW219992   1.076   0.710  15.632 -0.1178  0.9275  0.4276
 2845SOL     OW19993   4.519   0.126   9.032  0.5090 -0.7323 -0.8126
 2845SOL    HW119994   4.609   0.160   9.026 -0.0370  1.3122  2.6262
 2845SOL    HW219995   4.537   0.054   9.093  0.7807 -0.0742 -0.1100
 2846SOL     OW19996   3.580   2.220  12.459  0.1329 -0.2264  0.4396
 2846SOL    HW119997   3.584   2.138  12.410  2.0588  0.7572 -1.0197
 2846SOL    HW219998   3.521   2.267  12.399  0.1873  0.0466  0.6015
 2847SOL     OW19999   3.206   2.508   2.166 -0.2160  0.2920  0.1986
 2847SOL    HW120000   3.129   2.490   2.221 -0.5947 -2.1514 -1.1424
 2847SOL    HW220001   3.272   2.460   2.215  0.1619  0.1941 -0.4193
 2848SOL     OW20002   1.837   0.639   1.821  0.0947  0.0650 -0.3893
 2848SOL    HW120003   1.904   0.651   1.754  0.0680 -3.0539 -0.9722
 2848SOL    HW220004   1.863   0.711   1.879 -0.1656 -0.2768  0.1573
 2849SOL     OW20005   3.267   0.965   6.302  0.6557 -0.0471 -0.6680
 2849SOL    HW120006   3.248   0.909   6.226  0.5064 -1.5743  0.5134
 2849SOL    HW220007   3.349   0.926   6.331 -0.1412 -1.1528  0.0792
 2850SOL     OW20008   2.445   2.149   6.142 -0.2701 -0.1035  0.3118
 2850SOL    HW120009   2.539   2.152   6.157 -0.5420 -1.3812  2.2850
 2850SOL    HW220010   2.414   2.194   6.221  0.1091 -0.4255  0.6429
 2851SOL     OW20011   3.593   1.112   6.130 -0.2500 -0.1011  0.0065
 2851SOL    HW120012   3.588   1.086   6.222  2.2739  1.2529  0.5102
 2851SOL    HW220013   3.506   1.077   6.112  0.3596 -1.2463 -0.7678
 2852SOL     OW20014   2.038   2.906   7.237  0.3274  0.3764  0.1360
 2852SOL    HW120015   2.037   2.823   7.189 -1.1609  0.3282  0.2288
 2852SOL    HW220016   2.111   2.939   7.185 -0.2077  0.1511 -0.7613
 2853SOL     OW20017   3.352   0.394   7.006  0.5372 -0.4686  0.3223
 2853SOL    HW120018   3.304   0.356   6.932 -1.0546  1.6556  0.2771
 2853SOL    HW220019   3.333   0.323   7.068 -2.0447 -0.3563 -0.3254
 2854SOL     OW20020   3.522   2.443   8.936 -0.1691 -0.3328 -0.1271
 2854SOL    HW120021   3.513   2.365   8.991  0.7566  0.4246  1.1117
 2854SOL    HW220022   3.441   2.440   8.886 -0.7611 -0.5535  0.8313
 2855SOL     OW20023   2.813   0.242   7.634  0.0785  0.5892  0.5786
 2855SOL    HW120024   2.742   0.290   7.676 -1.4619 -0.8467 -0.4034
 2855SOL    HW220025   2.783   0.224   7.545  0.2223 -0.4077  0.7270
 2856SOL     OW20026   3.653   0.811   1.353  0.2144 -0.9162 -0.4036
 2856SOL    HW120027   3.576   0.768   1.315 -0.9920 -0.6951  1.7662
 2856SOL    HW220028   3.629   0.903   1.344  3.2600 -0.1488 -0.4257
 2857SOL     OW20029   3.453   2.280  15.971  0.0432  0.0949 -0.1311
 2857SOL    HW120030   3.377   2.321  15.929  0.4500 -0.0610 -1.0327
 2857SOL    HW220031   3.477   2.223  15.898  3.6206  3.6869 -1.8122
 2858SOL     OW20032   2.226   2.591   7.915 -0.2772 -0.0499 -0.1990
 2858SOL    HW120033   2.185   2.644   7.846 -1.8173 -0.7275  0.2047
 2858SOL    HW220034   2.201   2.644   7.990 -0.0322 -0.6673  0.3136
 2859SOL     OW20035   0.036   2.856   2.508 -0.6372 -0.1755  0.0589
 2859SOL    HW120036   4.690   2.853   2.440 -2.4174 -1.6580  1.9049
 2859SOL    HW220037   0.050   2.950   2.515  0.7225 -0.3503 -0.4242
 2860SOL     OW20038   1.495   4.717   7.943 -0.3867  0.2122 -0.0696
 2860SOL    HW120039   1.539   0.058   7.887  1.6170 -2.2970 -1.3756
 2860SOL    HW220040   1.493   4.645   7.880  0.7288 -0.5838  0.8036
 2861SOL     OW20041   0.307   3.279   9.549  0.5613  0.1883 -0.5546
 2861SOL    HW120042   0.360   3.270   9.628  0.6504  1.0768 -0.5089
 2861SOL    HW220043   0.326   3.195   9.508 -0.6835 -0.1684 -0.3926
 2862SOL     OW20044   2.858   1.421  13.997  0.2765  0.1995  0.1955
 2862SOL    HW120045   2.847   1.369  14.076  4.1132  0.0618  0.6481
 2862SOL    HW220046   2.948   1.399  13.973  0.5400 -0.9464  2.2986
 2863SOL     OW20047   0.383   3.032   9.422  0.2055  0.0686  0.4457
 2863SOL    HW120048   0.340   2.948   9.435  0.7185 -0.8217 -3.3754
 2863SOL    HW220049   0.467   2.997   9.391  0.6210  1.1478  0.3561
 2864SOL     OW20050   0.556   0.422   7.771 -0.3375 -0.2639  0.3021
 2864SOL    HW120051   0.635   0.379   7.740 -0.3043  1.4572 -2.0244
 2864SOL    HW220052   0.600   0.498   7.809  0.6404 -1.5387  1.7185
 2865SOL     OW20053   3.811   2.456   6.768  0.1057  0.1769 -0.0547
 2865SOL    HW120054   3.891   2.439   6.819 -0.0723 -0.4894 -0.0004
 2865SOL    HW220055   3.844   2.431   6.681  0.9909 -1.8667  0.8505
 2866SOL     OW20056   1.766   3.194  17.012 -0.3295 -0.3575 -0.1352
 2866SOL    HW120057   1.802   3.107  17.025  1.8981  0.5607 -0.1644
 2866SOL    HW220058   1.791   3.241  17.091  0.4064 -0.3505 -0.3658
 2867SOL     OW20059   2.788   3.533   1.444 -0.0308  0.6795 -0.2094
 2867SOL    HW120060   2.880   3.533   1.417  0.1425 -0.7331  0.3900
 2867SOL    HW220061   2.790   3.600   1.513 -0.8029  1.1714 -0.6639
 2868SOL     OW20062   1.030   3.685   9.292  0.0137  0.0769  0.5486
 2868SOL    HW120063   1.072   3.604   9.322  0.9051 -0.0629 -1.0564
 2868SOL    HW220064   1.095   3.746   9.328  0.7689 -0.0411 -0.6275
 2869SOL     OW20065   3.726   3.551   3.410 -0.0711 -0.2590  0.0844
 2869SOL    HW120066   3.746   3.644   3.418  0.9228 -0.3691 -1.0015
 2869SOL    HW220067   3.803   3.508   3.447 -1.2292 -0.1655  2.5694
 2870SOL     OW20068   0.827   0.729   4.039 -0.1994  0.1970 -0.3068
 2870SOL    HW120069   0.856   0.691   3.956  1.3394 -0.6041  0.5838
 2870SOL    HW220070   0.747   0.770   4.008  0.4387  0.1924 -1.9854
 2871SOL     OW20071   0.447   4.205  13.121  0.2363 -0.5952 -0.8012
 2871SOL    HW120072   0.391   4.265  13.072 -0.2291 -0.4081 -0.0242
 2871SOL    HW220073   0.507   4.180  13.050  0.9140 -0.5726 -0.2365
 2872SOL     OW20074   1.457   3.208  12.435 -0.5681  0.2194 -0.5962
 2872SOL    HW120075   1.420   3.138  12.489 -1.0308 -0.3277 -1.6272
 2872SOL    HW220076   1.383   3.228  12.378 -0.3537  2.4762 -0.0925
 2873SOL     OW20077   0.149   0.719  16.688 -0.0163 -0.1669  0.3129
 2873SOL    HW120078   0.232   0.712  16.736 -0.2593 -2.9851  0.3044
 2873SOL    HW220079   0.079   0.727  16.752  1.3885  2.7322  1.4672
 2874SOL     OW20080   4.621   3.331   1.761  0.5513 -0.4348 -0.1787
 2874SOL    HW120081   4.533   3.347   1.729 -0.9156  0.9517  4.4975
 2874SOL    HW220082   4.666   3.359   1.681 -0.5352  2.1161  0.0895
 2875SOL     OW20083   0.741   3.082   5.505  0.1544  0.1095 -0.1654
 2875SOL    HW120084   0.740   3.164   5.554  1.4000  1.0830 -1.8113
 2875SOL    HW220085   0.831   3.060   5.480  0.5156  1.6034 -0.1317
 2876SOL     OW20086   2.731   2.842  14.205 -0.5505 -0.3100 -0.3633
 2876SOL    HW120087   2.691   2.755  14.209  0.6641 -0.9327 -2.0596
 2876SOL    HW220088   2.661   2.890  14.161 -0.6417  0.7961  0.9964
 2877SOL     OW20089   2.359   0.633   2.877 -0.6132 -1.0052 -0.0454
 2877SOL    HW120090   2.411   0.670   2.806  0.5666  0.5505  1.6268
 2877SOL    HW220091   2.408   0.553   2.895  0.9149 -0.3510 -1.3160
 2878SOL     OW20092   2.894   1.029   4.959 -0.2192 -1.1075  0.0815
 2878SOL    HW120093   2.841   0.951   4.972 -0.3230 -1.4291 -2.2310
 2878SOL    HW220094   2.855   1.091   5.021 -1.0131 -0.5527 -0.9808
 2879SOL     OW20095   3.393   3.828   9.032 -0.2987  0.6372 -0.5658
 2879SOL    HW120096   3.410   3.914   8.993 -0.0274  0.7536 -0.1803
 2879SOL    HW220097   3.469   3.781   8.997 -0.6949  0.1439 -0.7690
 2880SOL     OW20098   3.559   4.324   8.633 -0.0553 -0.1076 -0.2255
 2880SOL    HW120099   3.465   4.343   8.639  0.2262  1.2351 -0.1722
 2880SOL    HW220100   3.593   4.402   8.678 -0.8480  1.2097 -1.9150
 2881SOL     OW20101   3.894   2.901  17.319 -0.1577 -0.1079 -0.8672
 2881SOL    HW120102   3.846   2.853  17.387 -0.5636  0.0334 -1.0554
 2881SOL    HW220103   3.878   2.854  17.238 -1.3573 -1.5038  0.1833
 2882SOL     OW20104   4.020   0.730   2.752 -0.0963  0.4305  0.1784
 2882SOL    HW120105   3.996   0.714   2.660  0.6466 -0.3757  0.1273
 2882SOL    HW220106   4.103   0.771   2.727  1.9292 -3.5587  0.4226
 2883SOL     OW20107   3.912   0.030  15.429  0.0826  0.1985 -0.6077
 2883SOL    HW120108   3.904   0.067  15.517 -0.5826 -5.0576  1.5010
 2883SOL    HW220109   3.931   4.661  15.445 -1.0585 -0.0670 -0.7663
 2884SOL     OW20110   1.133   1.978   2.551 -0.4121  0.4452 -0.2559
 2884SOL    HW120111   1.203   2.043   2.557  0.6561 -0.8577  1.7366
 2884SOL    HW220112   1.151   1.933   2.468  0.6898  1.8472 -0.7718
 2885SOL     OW20113   4.410   2.693   2.184 -0.1481 -0.3862 -0.6673
 2885SOL    HW120114   4.317   2.696   2.164  0.0441  0.3430 -1.4408
 2885SOL    HW220115   4.440   2.752   2.115  0.0806  1.0618  0.6722
 2886SOL     OW20116   0.053   3.486   5.936  0.3578 -0.2182  0.2248
 2886SOL    HW120117   0.106   3.566   5.940 -0.4359  0.3900 -1.2046
 2886SOL    HW220118   0.112   3.417   5.964 -2.0208 -1.9649  0.9039
 2887SOL     OW20119   2.868   1.339   3.077 -0.3778 -0.3193 -0.3591
 2887SOL    HW120120   2.780   1.358   3.109 -0.5253  0.9779 -1.5241
 2887SOL    HW220121   2.857   1.244   3.068  0.5824 -0.4692  0.0501
 2888SOL     OW20122   4.615   2.737   0.855 -0.1699  0.1932  0.1942
 2888SOL    HW120123   4.668   2.670   0.898 -0.1865 -0.3051 -0.5681
 2888SOL    HW220124   4.633   2.739   0.761 -0.2982 -1.9444  0.1226
 2889SOL     OW20125   0.364   2.585   6.171 -0.6156  0.0949  0.2887
 2889SOL    HW120126   0.328   2.663   6.214  1.4123  0.1136  1.9554
 2889SOL    HW220127   0.333   2.513   6.227 -0.8564 -0.6991 -0.8665
 2890SOL     OW20128   0.167   3.777  14.990  0.1584  0.0489 -0.0040
 2890SOL    HW120129   0.250   3.788  15.036 -0.5118  2.3370  0.6761
 2890SOL    HW220130   0.196   3.722  14.918 -0.4601 -1.1171  0.6446
 2891SOL     OW20131   1.734   2.561  13.421 -0.4052  0.4881 -0.1306
 2891SOL    HW120132   1.792   2.625  13.379  1.3799 -1.0127  0.0383
 2891SOL    HW220133   1.757   2.583  13.511  1.7948 -1.2384 -0.2557
 2892SOL     OW20134   0.326   3.640   5.207  0.8037  0.4383  0.2684
 2892SOL    HW120135   0.277   3.592   5.273 -0.2975 -0.3468 -1.1143
 2892SOL    HW220136   0.261   3.649   5.137  1.0660 -0.9769 -0.1546
 2893SOL     OW20137   3.069   1.988   5.721  0.1078  0.4195 -0.8422
 2893SOL    HW120138   3.047   2.078   5.700 -0.5033  0.3091 -0.6732
 2893SOL    HW220139   3.106   1.953   5.640  0.8345 -0.4463 -0.1431
 2894SOL     OW20140   4.527   2.502  12.696  0.6428 -0.2371  0.6095
 2894SOL    HW120141   4.538   2.521  12.790 -1.1545  0.5101  0.6781
 2894SOL    HW220142   4.577   2.423  12.679 -0.4965 -0.5780 -1.1175
 2895SOL     OW20143   0.083   1.125  13.362  0.0357  0.1936 -0.4693
 2895SOL    HW120144   0.024   1.167  13.299  0.5450  2.3424  0.4788
 2895SOL    HW220145   0.028   1.117  13.440  0.3312 -1.0172 -0.3900
 2896SOL     OW20146   2.312   2.231  12.366  0.3540  0.4336 -0.2053
 2896SOL    HW120147   2.308   2.310  12.419  0.4142  0.1692  0.1885
 2896SOL    HW220148   2.374   2.176  12.413  1.7160  4.0256  2.1733
 2897SOL     OW20149   3.943   4.321   9.596  0.3303  0.2424 -0.3097
 2897SOL    HW120150   4.015   4.334   9.657 -0.7893 -0.5456  1.1956
 2897SOL    HW220151   3.882   4.378   9.642 -0.5710  1.0332 -2.4566
 2898SOL     OW20152   2.053   2.007  11.442 -0.4708 -0.1905 -0.2285
 2898SOL    HW120153   2.027   2.024  11.351  1.3612 -0.9870 -0.9019
 2898SOL    HW220154   2.046   2.094  11.482 -2.6762  0.2864 -1.6036
 2899SOL     OW20155   2.669   2.158  14.773  0.0467  0.2774 -0.2508
 2899SOL    HW120156   2.706   2.156  14.861 -0.2240  2.8314 -0.0997
 2899SOL    HW220157   2.732   2.213  14.727 -1.8286  1.5263 -1.3219
 2900SOL     OW20158   1.350   2.111   6.982  0.2005  0.1367  0.6965
 2900SOL    HW120159   1.260   2.117   7.014 -0.8349 -2.7457 -1.6635
 2900SOL    HW220160   1.400   2.131   7.061  1.6699  1.1043 -0.4810
 2901SOL     OW20161   4.317   1.806   3.030  0.0277  0.2410 -0.5850
 2901SOL    HW120162   4.224   1.795   3.050  0.4092  0.6874  1.4866
 2901SOL    HW220163   4.339   1.896   3.052 -0.2105  1.1219 -3.9094
 2902SOL     OW20164   0.124   0.502  10.137 -0.1099  0.0654 -0.2455
 2902SOL    HW120165   0.120   0.415  10.177 -3.0231  0.9271  1.3084
 2902SOL    HW220166   0.212   0.495  10.099  0.3845 -1.9016  1.2588
 2903SOL     OW20167   3.086   3.737   5.373  0.1522 -0.1732  0.1235
 2903SOL    HW120168   3.125   3.776   5.451  1.7068 -0.4971 -0.5052
 2903SOL    HW220169   3.103   3.798   5.301  2.7306 -1.7405 -0.5773
 2904SOL     OW20170   4.686   0.398  14.004 -0.0689  0.3233 -0.5577
 2904SOL    HW120171   4.658   0.477  14.049 -3.2215 -1.8264  1.2650
 2904SOL    HW220172   0.037   0.417  13.946  0.6011  3.6393  1.4306
 2905SOL     OW20173   3.562   0.588   6.882  0.1298 -0.4015 -0.2448
 2905SOL    HW120174   3.511   0.526   6.935 -2.3922  1.8241 -0.0692
 2905SOL    HW220175   3.645   0.588   6.930  0.8479  0.2175 -1.4809
 2906SOL     OW20176   0.330   2.527   8.498  0.2784  0.2059 -0.6519
 2906SOL    HW120177   0.304   2.576   8.576 -0.4950 -2.1363  0.5528
 2906SOL    HW220178   0.252   2.549   8.446 -1.2578 -1.6274  0.8920
 2907SOL     OW20179   2.667   2.575  12.208  0.4620 -0.1489  0.7805
 2907SOL    HW120180   2.670   2.481  12.223  1.4109 -0.3998 -0.9643
 2907SOL    HW220181   2.756   2.593  12.239  0.8207  0.1454 -0.3873
 2908SOL     OW20182   4.464   0.582   5.098  0.5910  0.2853 -0.1915
 2908SOL    HW120183   4.460   0.558   5.191 -2.2911  0.8371 -0.1849
 2908SOL    HW220184   4.485   0.675   5.097 -1.0096  0.6913  2.6071
 2909SOL     OW20185   2.553   3.545   1.751  0.0861  0.1377  0.2054
 2909SOL    HW120186   2.542   3.607   1.823  1.6781 -0.3959  0.8925
 2909SOL    HW220187   2.512   3.596   1.681 -0.7186  1.0418  1.3403
 2910SOL     OW20188   3.733   0.426   3.026  0.0121 -0.0208 -0.4508
 2910SOL    HW120189   3.686   0.353   2.986 -0.7391  0.3105 -0.1703
 2910SOL    HW220190   3.802   0.433   2.960 -1.0342 -1.0854 -1.6618
 2911SOL     OW20191   2.337   4.590   5.359 -0.1658  0.4769  0.4020
 2911SOL    HW120192   2.273   4.646   5.404  0.5755  2.7812 -1.4110
 2911SOL    HW220193   2.378   4.533   5.424  1.1840 -0.2791 -1.1210
 2912SOL     OW20194   4.232   2.712  13.778 -0.6718 -0.1337  0.4137
 2912SOL    HW120195   4.189   2.797  13.766 -0.0989 -0.0596 -1.0794
 2912SOL    HW220196   4.215   2.669  13.694  0.9188 -0.6419  0.3472
 2913SOL     OW20197   0.301   4.241  17.566 -0.6348  0.0645 -0.1685
 2913SOL    HW120198   0.372   4.179  17.549 -0.7655  0.3549 -1.8552
 2913SOL    HW220199   0.275   4.254  17.474 -1.3994 -0.1204  0.0215
 2914SOL     OW20200   3.531   2.147   8.459 -0.2297  0.1006  0.6634
 2914SOL    HW120201   3.502   2.196   8.382 -2.0764  1.9915  2.5589
 2914SOL    HW220202   3.485   2.065   8.439 -0.5429  0.4665 -0.1380
 2915SOL     OW20203   3.387   2.605   3.606  0.4019  0.4872 -0.2129
 2915SOL    HW120204   3.301   2.565   3.598 -0.0833  1.7553 -1.5119
 2915SOL    HW220205   3.416   2.591   3.696 -2.9650 -1.5404  0.5453
 2916SOL     OW20206   3.467   1.286   1.192 -0.5216 -0.0636  0.3257
 2916SOL    HW120207   3.464   1.326   1.105 -1.3139  2.2511  1.4055
 2916SOL    HW220208   3.517   1.357   1.232  0.6372 -0.6100 -0.1447
 2917SOL     OW20209   3.690   4.206   3.443 -0.0686 -0.2565  0.3398
 2917SOL    HW120210   3.745   4.145   3.492  1.6211  1.4845  0.5780
 2917SOL    HW220211   3.702   4.285   3.495 -0.6862  0.7758 -1.0686
 2918SOL     OW20212   0.973   3.482  17.393  0.1935 -0.0009 -0.4782
 2918SOL    HW120213   0.971   3.401  17.341  2.0597 -0.2120 -0.2571
 2918SOL    HW220214   0.880   3.501  17.400  0.2910  0.2923 -0.0048
 2919SOL     OW20215   0.462   2.719  11.689  0.1301 -0.1044 -0.4028
 2919SOL    HW120216   0.495   2.747  11.775 -0.9583 -1.5550  0.4817
 2919SOL    HW220217   0.435   2.629  11.705  0.2811 -0.4091 -1.9712
 2920SOL     OW20218   4.630   3.857  15.296 -0.2612 -0.6155 -0.7980
 2920SOL    HW120219   4.660   3.872  15.207  0.5190 -2.4032 -0.8246
 2920SOL    HW220220   4.542   3.891  15.284 -0.4220 -0.3896  0.9785
 2921SOL     OW20221   3.036   0.213  15.503  0.4540  0.4996 -0.0924
 2921SOL    HW120222   3.066   0.252  15.422  0.0537  0.6122 -0.1891
 2921SOL    HW220223   3.070   0.268  15.573 -1.5119 -0.1152  1.3504
 2922SOL     OW20224   2.404   1.243   2.983 -0.1842  0.6976  0.1036
 2922SOL    HW120225   2.393   1.204   3.070  0.1253  0.5421  0.0729
 2922SOL    HW220226   2.456   1.174   2.943  0.5436  0.4881  1.4080
 2923SOL     OW20227   0.626   2.471   4.913 -0.6301  0.1336  0.4298
 2923SOL    HW120228   0.707   2.520   4.901 -0.3994 -0.4198 -0.2202
 2923SOL    HW220229   0.628   2.472   5.009  0.3667 -2.1499  0.4422
 2924SOL     OW20230   3.399   3.235  11.381 -0.3838  0.6197 -0.5010
 2924SOL    HW120231   3.358   3.299  11.323  1.0843 -1.1098 -3.4815
 2924SOL    HW220232   3.472   3.204  11.327 -1.5350 -1.3742 -0.8953
 2925SOL     OW20233   0.822   4.302  17.059 -0.1793 -0.0614 -0.0450
 2925SOL    HW120234   0.750   4.323  17.001  0.8274  0.7155 -1.0161
 2925SOL    HW220235   0.821   4.379  17.116 -1.3461 -0.9903  1.1903
 2926SOL     OW20236   4.105   2.399   7.800 -0.0299  0.3512 -0.1311
 2926SOL    HW120237   4.152   2.321   7.770 -1.1022  0.5136 -2.2271
 2926SOL    HW220238   4.170   2.467   7.778  0.1668  0.3620  0.4696
 2927SOL     OW20239   4.151   0.653  16.116  0.1942  0.7051  0.4231
 2927SOL    HW120240   4.167   0.649  16.021  1.9096  3.0806  0.6137
 2927SOL    HW220241   4.238   0.621  16.142  0.7616  1.1117 -0.9449
 2928SOL     OW20242   0.694   4.674   1.482  0.0380  0.2593  0.0498
 2928SOL    HW120243   0.733   4.590   1.458 -0.3576  1.1292 -3.6173
 2928SOL    HW220244   0.663   4.697   1.395 -0.9069 -1.7414 -0.1243
 2929SOL     OW20245   0.106   3.199   3.942 -0.0659  0.0492 -0.2214
 2929SOL    HW120246   0.011   3.185   3.950  0.1181 -0.1601  1.6207
 2929SOL    HW220247   0.106   3.274   4.002 -0.1599 -0.1635  0.0474
 2930SOL     OW20248   4.703   1.868   3.173  0.0883  0.4913  0.1752
 2930SOL    HW120249   0.054   1.876   3.112 -0.2444 -1.6758 -0.5243
 2930SOL    HW220250   4.688   1.959   3.201 -1.7125  0.3147 -0.2194
 2931SOL     OW20251   1.811   2.763   6.879 -0.5581 -0.1943  0.0002
 2931SOL    HW120252   1.875   2.713   6.930 -0.2605 -0.8805 -1.0544
 2931SOL    HW220253   1.808   2.706   6.802  1.6226 -1.3294  0.7537
 2932SOL     OW20254   2.733   2.515   8.002 -0.5373  0.0999 -0.1597
 2932SOL    HW120255   2.725   2.477   7.915 -0.2712  0.9120 -0.5458
 2932SOL    HW220256   2.810   2.571   7.988 -0.7233  0.5022  0.3911
 2933SOL     OW20257   4.173   3.659   5.658  0.0135  0.2639 -0.2066
 2933SOL    HW120258   4.135   3.589   5.711 -1.1435  0.4616 -0.7637
 2933SOL    HW220259   4.137   3.730   5.712 -0.3297  0.3996 -0.6038
 2934SOL     OW20260   2.600   2.876   5.962  0.4273 -0.0070 -0.4822
 2934SOL    HW120261   2.671   2.837   6.013 -0.6580 -0.2769  0.8267
 2934SOL    HW220262   2.531   2.810   5.958  1.7959 -1.4555 -0.4379
 2935SOL     OW20263   4.297   2.699   5.818  0.1314 -0.0120 -0.4188
 2935SOL    HW120264   4.262   2.785   5.798  1.5203  1.3487  2.9499
 2935SOL    HW220265   4.301   2.654   5.734 -0.6500 -1.5583  0.3666
 2936SOL     OW20266   0.380   3.641   6.294  0.0542 -0.0854 -0.3800
 2936SOL    HW120267   0.360   3.632   6.387  1.6876 -1.1860 -0.1279
 2936SOL    HW220268   0.349   3.729   6.272  0.8719  0.3676  0.2834
 2937SOL     OW20269   2.966   2.283   5.937 -0.3483 -0.6404  0.3100
 2937SOL    HW120270   2.996   2.319   6.021 -0.5442  0.8401 -0.2526
 2937SOL    HW220271   2.900   2.350   5.921 -0.7392 -1.5223 -1.6820
 2938SOL     OW20272   3.728   1.395   5.318  0.2696  0.2640 -0.6904
 2938SOL    HW120273   3.802   1.334   5.314  0.4927  0.5132 -0.2758
 2938SOL    HW220274   3.681   1.362   5.241  0.9278 -1.9593 -0.1519
 2939SOL     OW20275   2.360   0.332   2.457 -0.0252  0.3056  0.0980
 2939SOL    HW120276   2.302   0.261   2.428  0.5800  0.3292 -1.1927
 2939SOL    HW220277   2.336   0.338   2.549 -0.0709  0.8515  0.0496
 2940SOL     OW20278   1.275   3.539  11.913  0.2077  0.0246  0.5079
 2940SOL    HW120279   1.274   3.452  11.873 -0.4184 -0.5374  1.7477
 2940SOL    HW220280   1.342   3.594  11.873  0.6767 -1.1358 -0.3286
 2941SOL     OW20281   0.742   2.204   2.755  0.6392  0.3175 -0.4960
 2941SOL    HW120282   0.802   2.148   2.705  1.3049 -0.6447  1.3624
 2941SOL    HW220283   0.710   2.139   2.817 -0.5062  0.9782 -0.4037
 2942SOL     OW20284   3.075   4.237   8.174  0.3145 -0.2195  0.2171
 2942SOL    HW120285   3.065   4.173   8.103  2.5864 -1.1847  0.7524
 2942SOL    HW220286   2.991   4.282   8.171  0.4932  0.2301  2.2880
 2943SOL     OW20287   1.660   4.126   1.888 -0.0878  0.3308  0.1107
 2943SOL    HW120288   1.622   4.047   1.849  0.9366  0.4812 -1.1720
 2943SOL    HW220289   1.612   4.197   1.845  0.6522  0.2105 -0.8981
 2944SOL     OW20290   3.796   4.186  16.533 -0.1036 -0.5110 -0.6670
 2944SOL    HW120291   3.701   4.192  16.540  0.0818 -1.2753  2.3777
 2944SOL    HW220292   3.822   4.158  16.621  1.9774 -1.2529 -1.5167
 2945SOL     OW20293   0.464   0.613   6.244  0.4476 -0.0114 -0.2930
 2945SOL    HW120294   0.375   0.622   6.210 -1.1524 -0.5128  3.8311
 2945SOL    HW220295   0.472   0.681   6.310 -1.1502 -0.0886 -0.0116
 2946SOL     OW20296   2.317   0.919  13.320 -0.5498 -0.0127 -0.0316
 2946SOL    HW120297   2.265   0.921  13.240  1.1489 -2.1442 -1.1806
 2946SOL    HW220298   2.310   0.824  13.329  0.0438 -0.0352  0.1506
 2947SOL     OW20299   1.392   0.218  14.329 -0.0516  0.0670  0.1982
 2947SOL    HW120300   1.308   0.264  14.337 -0.2866 -0.5369  1.3582
 2947SOL    HW220301   1.353   0.134  14.304  1.3928 -0.1810 -1.1818
 2948SOL     OW20302   3.558   0.019   9.890 -0.1381 -0.3191 -0.0833
 2948SOL    HW120303   3.623   0.054   9.830  0.1078 -2.4798 -1.0823
 2948SOL    HW220304   3.611   0.007   9.968 -0.2438  2.1690  0.3678
 2949SOL     OW20305   2.594   0.459   3.172  0.4935 -0.1188 -0.2635
 2949SOL    HW120306   2.610   0.497   3.086 -0.4780  0.2530 -0.2839
 2949SOL    HW220307   2.501   0.479   3.181  0.3805 -0.8293  0.1231
 2950SOL     OW20308   0.615   2.615   8.193 -0.3992  0.3901 -0.4037
 2950SOL    HW120309   0.565   2.673   8.136  0.1698  0.3713 -0.9176
 2950SOL    HW220310   0.702   2.656   8.192  0.0885 -0.6302 -0.6096
 2951SOL     OW20311   3.108   3.196   7.336  0.5295  0.2343  0.6124
 2951SOL    HW120312   3.030   3.250   7.350 -0.6533 -1.6988  1.4381
 2951SOL    HW220313   3.124   3.189   7.430 -0.8145 -1.9635  0.6657
 2952SOL     OW20314   3.018   0.076   5.734  0.0888 -0.2934  0.2987
 2952SOL    HW120315   3.058   0.057   5.649  1.2331 -2.5876  1.3399
 2952SOL    HW220316   3.056   0.004   5.786  2.0087 -0.0432 -0.7656
 2953SOL     OW20317   2.938   1.477  12.357 -0.5759 -0.1660  0.0172
 2953SOL    HW120318   2.887   1.421  12.415 -0.8409  0.9935  0.8992
 2953SOL    HW220319   2.894   1.463  12.273 -1.8896 -2.3831  1.0846
 2954SOL     OW20320   2.688   3.833   4.669 -0.1671  0.6912  0.0626
 2954SOL    HW120321   2.756   3.768   4.653 -0.3427  0.2076  1.2970
 2954SOL    HW220322   2.646   3.785   4.740  1.8385 -0.8031  0.2239
 2955SOL     OW20323   1.928   3.454  17.219  0.3925  0.2390 -0.0977
 2955SOL    HW120324   1.982   3.455  17.299  2.5807  0.9932 -1.5795
 2955SOL    HW220325   1.942   3.364  17.189  0.3125  0.7003 -1.5139
 2956SOL     OW20326   1.068   3.166   6.143  0.6306  0.2234 -0.1203
 2956SOL    HW120327   1.029   3.161   6.230 -0.3696  0.6785 -0.5452
 2956SOL    HW220328   1.098   3.076   6.138  0.5807  0.3001 -1.8853
 2957SOL     OW20329   2.146   1.187  16.350 -0.4491  0.2285  0.1812
 2957SOL    HW120330   2.139   1.178  16.255  0.3848  1.1792  0.0287
 2957SOL    HW220331   2.052   1.179  16.371 -0.8296 -0.7204 -1.9533
 2958SOL     OW20332   1.885   3.963   5.317  0.2043 -0.3163  0.4738
 2958SOL    HW120333   1.927   3.880   5.338  2.2484  0.4989 -0.4781
 2958SOL    HW220334   1.816   3.918   5.269 -0.1512  0.6302  0.0998
 2959SOL     OW20335   2.692   4.289   0.863 -0.4399 -0.2146 -0.2093
 2959SOL    HW120336   2.699   4.216   0.925 -0.0204 -0.4238 -0.5058
 2959SOL    HW220337   2.607   4.322   0.892  0.3116  3.9325 -2.6821
 2960SOL     OW20338   3.047   3.983   1.368 -0.5537  0.1239 -0.7174
 2960SOL    HW120339   3.131   3.994   1.322  0.8004  1.4943  2.0381
 2960SOL    HW220340   3.084   4.011   1.452 -1.8736  1.3427 -0.5531
 2961SOL     OW20341   1.926   2.319   2.387 -0.5012 -0.7991 -0.2073
 2961SOL    HW120342   1.904   2.408   2.359 -0.8648 -0.1819  1.9750
 2961SOL    HW220343   2.009   2.327   2.435 -0.0775  0.4826 -1.1539
 2962SOL     OW20344   0.448   0.385   1.592 -0.3661 -0.2933 -0.0452
 2962SOL    HW120345   0.528   0.432   1.570 -0.3406  0.0033  0.7093
 2962SOL    HW220346   0.407   0.374   1.506  2.4393 -0.0443 -1.4174
 2963SOL     OW20347   3.254   2.109   2.100 -0.1496 -0.3733  0.4626
 2963SOL    HW120348   3.289   2.122   2.012 -1.4503 -0.6242 -0.0934
 2963SOL    HW220349   3.160   2.120   2.082  0.5315  1.7971 -1.7452
 2964SOL     OW20350   3.881   3.432   5.272  0.1420 -0.3787 -0.1407
 2964SOL    HW120351   3.871   3.351   5.223 -2.0273 -1.0365  1.3930
 2964SOL    HW220352   3.810   3.485   5.234  1.5937  0.9132 -1.0353
 2965SOL     OW20353   0.641   0.815  16.762  0.6859  0.6902  0.0837
 2965SOL    HW120354   0.607   0.904  16.777 -1.2959 -0.0347 -0.0404
 2965SOL    HW220355   0.734   0.832  16.753  0.9716  0.8422  3.4842
 2966SOL     OW20356   2.998   0.127   9.011  0.1443 -0.2826 -0.0115
 2966SOL    HW120357   3.007   0.047   8.959  0.0560 -1.0789  1.2019
 2966SOL    HW220358   3.083   0.125   9.055 -0.3278 -0.5020  0.8824
 2967SOL     OW20359   3.795   4.057  16.281  0.3213  0.3052 -0.7312
 2967SOL    HW120360   3.809   4.092  16.369 -1.2004 -1.0064  0.0279
 2967SOL    HW220361   3.704   4.057  16.252  0.3951  1.0516 -0.9793
 2968SOL     OW20362   2.534   2.925   7.962  0.4062  0.1097  0.4407
 2968SOL    HW120363   2.605   2.965   7.913  0.6720 -0.4181  0.3907
 2968SOL    HW220364   2.532   2.836   7.927  1.0185  0.1361  0.3465
 2969SOL     OW20365   2.141   3.105   5.654 -0.4855 -0.1960 -0.8937
 2969SOL    HW120366   2.059   3.067   5.621 -0.4927 -1.7046  0.8488
 2969SOL    HW220367   2.129   3.095   5.748 -1.1067  0.8636 -0.8532
 2970SOL     OW20368   2.388   3.690  17.620 -0.1890  0.1659  0.1752
 2970SOL    HW120369   2.376   3.615  17.678  1.9401  0.8928  1.5692
 2970SOL    HW220370   2.449   3.740  17.674  0.6091 -1.6789  0.9765
 2971SOL     OW20371   1.346   1.416   6.109  0.4523  0.0223 -0.0566
 2971SOL    HW120372   1.432   1.432   6.070  0.7491 -0.1169  0.5343
 2971SOL    HW220373   1.303   1.383   6.031  0.3079 -2.9526  1.2759
 2972SOL     OW20374   3.788   4.468   8.429  0.2327  0.1446  0.6076
 2972SOL    HW120375   3.701   4.460   8.467  0.6612  3.1956  2.1989
 2972SOL    HW220376   3.843   4.423   8.494 -2.5128 -1.4635  1.8165
 2973SOL     OW20377   0.369   0.835   2.798  0.3988 -0.1812  0.7993
 2973SOL    HW120378   0.286   0.878   2.778 -1.0948 -2.4213  2.1836
 2973SOL    HW220379   0.388   0.874   2.884  0.4384 -0.6331  0.9967
 2974SOL     OW20380   3.416   0.923   0.487  0.0212  0.4882 -0.2538
 2974SOL    HW120381   3.460   0.939   0.404  3.0368  0.2970  1.3312
 2974SOL    HW220382   3.358   0.999   0.492 -0.0450  0.3238  1.4103
 2975SOL     OW20383   1.072   4.208  12.813 -0.3635  0.2297  0.0392
 2975SOL    HW120384   1.056   4.200  12.907 -3.0098 -0.0544 -0.4333
 2975SOL    HW220385   0.989   4.176  12.777  0.5384 -2.4468  0.4065
 2976SOL     OW20386   3.652   2.511   5.714  0.6976 -0.0410  0.2254
 2976SOL    HW120387   3.668   2.547   5.801  2.4144  2.3338 -1.0741
 2976SOL    HW220388   3.690   2.423   5.720 -3.2304 -1.7306 -0.0213
 2977SOL     OW20389   3.589   0.495  13.519  0.5338  0.2355 -0.4098
 2977SOL    HW120390   3.505   0.491  13.566 -0.0320  1.9491 -1.2650
 2977SOL    HW220391   3.641   0.431  13.568  1.4325  1.3484  0.0839
 2978SOL     OW20392   0.074   3.388   9.644 -0.5769 -0.0938  0.0920
 2978SOL    HW120393   0.122   3.436   9.712 -0.5590 -0.5443  0.3934
 2978SOL    HW220394   0.145   3.339   9.604 -0.2404  0.7808 -0.3962
 2979SOL     OW20395   2.831   4.034   2.604  0.4433 -0.6205 -0.1175
 2979SOL    HW120396   2.855   4.090   2.531 -1.4435  0.3327 -0.0057
 2979SOL    HW220397   2.737   4.051   2.610  0.7621  1.6592 -1.5317
 2980SOL     OW20398   3.009   3.127   2.470 -0.1756  0.0366  0.4714
 2980SOL    HW120399   3.054   3.143   2.387 -1.9990 -4.1940 -1.3676
 2980SOL    HW220400   3.070   3.153   2.538  0.2973 -1.3579  0.5950
 2981SOL     OW20401   3.468   2.647   0.885 -0.1717  0.2398 -0.5480
 2981SOL    HW120402   3.508   2.599   0.958  1.2645  1.1955 -0.7267
 2981SOL    HW220403   3.378   2.615   0.896 -0.9661  2.1764 -1.3766
 2982SOL     OW20404   2.986   2.975   0.756  0.0842  1.0528  0.5783
 2982SOL    HW120405   3.070   2.967   0.801  0.1406 -1.7167 -0.0169
 2982SOL    HW220406   2.957   3.062   0.782 -0.2388  0.6038  1.7146
 2983SOL     OW20407   4.049   0.901   3.273  0.2613 -0.5809 -0.0292
 2983SOL    HW120408   3.980   0.965   3.291  0.2469 -0.9443  1.2152
 2983SOL    HW220409   4.019   0.852   3.197 -1.9291  0.0234  0.4377
 2984SOL     OW20410   4.229   1.496   1.460  0.4191 -0.0171 -0.7623
 2984SOL    HW120411   4.299   1.518   1.398  0.1386 -2.6689 -2.0341
 2984SOL    HW220412   4.166   1.477   1.390  0.6086 -0.2350 -0.8704
 2985SOL     OW20413   4.621   3.282   9.833 -0.1401  0.3976  0.0605
 2985SOL    HW120414   4.681   3.327   9.774  0.5078 -2.0655 -1.1557
 2985SOL    HW220415   4.645   3.191   9.815  0.7242  0.5039  0.6655
 2986SOL     OW20416   3.498   2.459   7.478 -0.0066  0.0171  0.1998
 2986SOL    HW120417   3.408   2.481   7.501 -0.0849  0.1542 -0.2438
 2986SOL    HW220418   3.544   2.536   7.510 -0.8365 -0.4150  2.4468
 2987SOL     OW20419   2.576   2.995   2.412 -0.0583  0.5088 -0.4979
 2987SOL    HW120420   2.598   3.013   2.321 -4.2501 -0.2254 -1.6569
 2987SOL    HW220421   2.638   3.053   2.456  0.3103  1.0261 -1.6833
 2988SOL     OW20422   3.570   2.699   6.064  0.1778  0.2908 -0.2700
 2988SOL    HW120423   3.619   2.778   6.087  3.5273 -2.0394  0.5622
 2988SOL    HW220424   3.638   2.645   6.025 -1.9522  0.1813 -3.8018
 2989SOL     OW20425   4.243   0.758   2.516 -0.5516  0.1505  0.3250
 2989SOL    HW120426   4.205   0.842   2.541  1.5760  1.4689 -0.8496
 2989SOL    HW220427   4.255   0.778   2.423 -0.8003  2.4746  0.7860
 2990SOL     OW20428   3.774   3.853   3.392 -0.8619 -0.0629  0.1050
 2990SOL    HW120429   3.783   3.920   3.325  2.7596 -1.3548 -0.6829
 2990SOL    HW220430   3.802   3.895   3.474 -0.7466 -2.3648  1.2392
 2991SOL     OW20431   4.300   0.069  15.878 -0.5759 -0.3519 -0.2626
 2991SOL    HW120432   4.228   0.079  15.940  1.6707 -2.1078  2.5815
 2991SOL    HW220433   4.364   0.028  15.935  1.6209  1.7809 -1.1948
 2992SOL     OW20434   2.498   1.152   4.262  0.0877 -0.0594 -0.5733
 2992SOL    HW120435   2.402   1.152   4.267  0.0817  0.6844 -0.7787
 2992SOL    HW220436   2.520   1.070   4.217 -0.8245 -0.4665 -0.2819
 2993SOL     OW20437   4.508   1.265   1.706 -0.0286  0.1255 -0.2178
 2993SOL    HW120438   4.575   1.278   1.639 -0.1282  0.5198 -0.2410
 2993SOL    HW220439   4.572   1.245   1.775 -0.4223  0.9594  0.3811
 2994SOL     OW20440   4.654   2.083   1.998 -0.3303  0.0416  0.2147
 2994SOL    HW120441   4.622   2.006   1.950  0.5199 -0.5682  0.6236
 2994SOL    HW220442   4.578   2.141   2.003 -0.2576  0.1386  0.1746
 2995SOL     OW20443   0.244   2.010   6.070 -0.1651 -0.3385  0.2703
 2995SOL    HW120444   0.212   1.993   5.981  0.2543 -0.9226  0.2291
 2995SOL    HW220445   0.294   2.090   6.052 -0.6758  0.0563  0.6178
 2996SOL     OW20446   1.387   1.414  11.197 -0.1220 -0.4515 -0.3778
 2996SOL    HW120447   1.382   1.509  11.209 -2.5632 -0.7026  0.4368
 2996SOL    HW220448   1.366   1.412  11.103 -2.2096 -0.4936  0.0956
 2997SOL     OW20449   0.085   4.028   3.733 -0.3597 -0.1098  0.0312
 2997SOL    HW120450   4.722   4.007   3.696 -0.4940  0.7729 -0.1677
 2997SOL    HW220451   0.070   4.000   3.823  0.7109 -0.5308  0.0696
 2998SOL     OW20452   0.048   2.535   6.366  0.1791  0.7601 -0.0927
 2998SOL    HW120453   0.074   2.553   6.276 -0.0807  0.8248 -0.1543
 2998SOL    HW220454   4.698   2.595   6.384 -0.8058 -0.3568 -0.3339
 2999SOL     OW20455   3.999   0.292   1.451  0.3400  0.4259  0.3401
 2999SOL    HW120456   4.028   0.277   1.360  1.9196 -1.1781  1.0996
 2999SOL    HW220457   4.024   0.383   1.466  0.7779  0.4301 -0.3920
 3000SOL     OW20458   0.478   0.972   3.048 -0.0907 -0.6704 -0.4432
 3000SOL    HW120459   0.536   0.914   3.098 -0.2034  0.6869  1.2531
 3000SOL    HW220460   0.530   1.052   3.046 -0.1655 -0.6337 -1.0138
 3001SOL     OW20461   1.881   2.933   0.319 -0.5490 -0.8680  0.1082
 3001SOL    HW120462   1.809   2.931   0.382 -0.7236 -3.0005 -0.1799
 3001SOL    HW220463   1.842   2.986   0.249 -1.6606  0.5785  1.8124
 3002SOL     OW20464   3.666   4.112   5.612  0.0138  0.4233 -0.2254
 3002SOL    HW120465   3.628   4.200   5.607 -0.2841  0.1629 -2.5820
 3002SOL    HW220466   3.596   4.056   5.578  0.5602 -1.5561  1.9600
 3003SOL     OW20467   3.675   0.946   6.729 -0.0659  0.0922  0.2735
 3003SOL    HW120468   3.702   0.863   6.690  0.1870 -0.1227  0.9117
 3003SOL    HW220469   3.684   0.925   6.822 -0.4301 -1.8156 -0.1076
 3004SOL     OW20470   4.692   4.489  10.022 -0.1230  0.4895 -0.5691
 3004SOL    HW120471   4.712   4.581  10.002  0.4659  1.0126  2.4459
 3004SOL    HW220472   4.616   4.496  10.080  1.4813 -2.1876  1.8372
 3005SOL     OW20473   3.756   1.115   7.721  0.0942  0.0986  0.3451
 3005SOL    HW120474   3.763   1.201   7.763 -1.1084  1.2173 -1.7463
 3005SOL    HW220475   3.662   1.119   7.707  0.2209 -2.7209 -1.2341
 3006SOL     OW20476   0.660   1.382  16.487  0.5772 -0.4679  0.0517
 3006SOL    HW120477   0.712   1.393  16.408  2.0900 -1.3295  0.9146
 3006SOL    HW220478   0.727   1.350  16.548  0.3417 -0.5774  0.2573
 3007SOL     OW20479   0.162   1.590   4.225  0.0053 -0.3142 -0.0701
 3007SOL    HW120480   0.152   1.500   4.194 -1.9133 -0.0940 -0.0632
 3007SOL    HW220481   0.089   1.593   4.287  0.3535 -0.8505  0.3734
 3008SOL     OW20482   3.136   0.387   4.791 -0.3288  0.3503  0.9596
 3008SOL    HW120483   3.128   0.328   4.865 -0.5831 -0.4189  0.3208
 3008SOL    HW220484   3.046   0.396   4.759 -0.2639 -1.5735  0.2434
 3009SOL     OW20485   1.899   0.178  13.560 -0.4521 -0.0124 -0.2385
 3009SOL    HW120486   1.951   0.098  13.557 -1.3676 -0.6254  0.2817
 3009SOL    HW220487   1.925   0.223  13.480 -1.0644 -1.2996 -1.1653
 3010SOL     OW20488   2.653   3.130  10.622  0.2062  0.1557  0.1267
 3010SOL    HW120489   2.656   3.041  10.655  1.6141  0.2852  0.3608
 3010SOL    HW220490   2.686   3.112  10.534 -0.4194 -0.6807  0.0710
 3011SOL     OW20491   3.636   1.594   6.473  0.5236 -0.4841  0.2710
 3011SOL    HW120492   3.643   1.553   6.559 -3.0057  1.0410  1.2985
 3011SOL    HW220493   3.642   1.513   6.423  1.4590 -1.0008  1.2403
 3012SOL     OW20494   1.995   3.852  11.216  0.1270  0.2504  0.2308
 3012SOL    HW120495   1.928   3.796  11.176  0.5864  0.0381 -0.2406
 3012SOL    HW220496   2.059   3.798  11.261  1.3108  0.4470 -1.2205
 3013SOL     OW20497   1.218   3.425   6.543 -0.5161 -0.2721 -0.2804
 3013SOL    HW120498   1.183   3.382   6.465 -1.9985  0.1885  0.1247
 3013SOL    HW220499   1.304   3.438   6.504 -1.3803 -1.3234 -2.5568
 3014SOL     OW20500   0.859   4.635   5.566 -0.6037 -1.1161 -0.0165
 3014SOL    HW120501   0.813   4.708   5.525  1.6313  1.1221  1.3758
 3014SOL    HW220502   0.887   4.593   5.485  0.8084 -2.3590  1.1111
 3015SOL     OW20503   1.142   0.447   3.483  0.4960 -0.1609 -0.0454
 3015SOL    HW120504   1.139   0.486   3.570 -1.6654 -1.2271  0.3393
 3015SOL    HW220505   1.214   0.384   3.490  0.8415  0.3717  1.2001
 3016SOL     OW20506   3.227   3.189   2.628  0.4582 -0.2051  0.1914
 3016SOL    HW120507   3.255   3.276   2.656  0.1118 -0.0167 -0.0538
 3016SOL    HW220508   3.309   3.142   2.643  0.6338 -0.4297 -1.4462
 3017SOL     OW20509   2.228   0.284  10.296 -0.0493 -0.7765  0.0146
 3017SOL    HW120510   2.240   0.340  10.219 -2.2138 -0.7168 -0.2832
 3017SOL    HW220511   2.202   0.353  10.358 -0.7723 -2.0145  1.0791
 3018SOL     OW20512   0.601   1.093  14.038 -0.0755 -0.2568  0.0945
 3018SOL    HW120513   0.532   1.143  13.996  0.1124 -1.0299 -1.1342
 3018SOL    HW220514   0.573   1.103  14.129 -1.4264  0.2564 -0.3703
 3019SOL     OW20515   4.120   0.479  16.801 -0.3186 -0.2766  0.6074
 3019SOL    HW120516   4.066   0.408  16.766 -0.1733 -0.5595  0.9599
 3019SOL    HW220517   4.050   0.536  16.834 -0.2284  0.0831  0.1684
 3020SOL     OW20518   2.320   3.873   7.216  0.2479  0.0726 -0.0345
 3020SOL    HW120519   2.342   3.875   7.309 -0.8169  0.2329  0.2087
 3020SOL    HW220520   2.309   3.781   7.195 -2.9953  0.3419  0.3926
 3021SOL     OW20521   0.553   4.567   2.697  0.1156  0.1321 -0.3187
 3021SOL    HW120522   0.521   4.548   2.785  0.0671  1.5261 -0.0357
 3021SOL    HW220523   0.524   4.490   2.648  1.0022  0.8949 -2.0465
 3022SOL     OW20524   2.065   3.610   5.950 -0.6712 -0.0221  0.2953
 3022SOL    HW120525   2.038   3.518   5.950  1.1027 -0.5529  4.0047
 3022SOL    HW220526   2.006   3.652   5.888 -2.8860  0.4052  2.6861
 3023SOL     OW20527   1.238   4.689  14.391  0.8661  0.7884 -0.3696
 3023SOL    HW120528   1.166   4.715  14.334  0.0907  0.3806  0.4136
 3023SOL    HW220529   1.298   4.632  14.343  1.7593  0.1871  1.4378
 3024SOL     OW20530   1.400   0.149   0.107 -0.7044 -0.1414 -0.2851
 3024SOL    HW120531   1.409   0.098   0.187 -1.6950  0.6296  0.3181
 3024SOL    HW220532   1.431   0.235   0.135 -0.7170 -1.2380  3.0622
 3025SOL     OW20533   4.252   1.298  16.559  0.2156 -0.1970  0.1090
 3025SOL    HW120534   4.251   1.248  16.640  0.3596 -1.0240 -0.4012
 3025SOL    HW220535   4.308   1.373  16.582  0.0097  0.2965 -0.9463
 3026SOL     OW20536   2.332   1.064   6.048 -0.4897  0.6364 -0.6868
 3026SOL    HW120537   2.281   1.140   6.076 -1.4184 -0.5840  0.9796
 3026SOL    HW220538   2.410   1.092   6.000  1.1844 -2.5983  0.1386
 3027SOL     OW20539   3.719   3.940  15.918 -0.5889 -0.5133 -0.1760
 3027SOL    HW120540   3.684   4.015  15.869 -0.0125  0.0032  0.1967
 3027SOL    HW220541   3.641   3.892  15.945 -1.2002  0.3443 -0.4225
 3028SOL     OW20542   2.859   3.023   6.204 -0.0197 -0.0747 -0.1193
 3028SOL    HW120543   2.783   2.979   6.166 -0.0016  0.7312 -1.0909
 3028SOL    HW220544   2.923   3.016   6.132 -0.3174 -0.5256 -0.3446
 3029SOL     OW20545   2.762   1.243   5.152  0.1285 -0.2314 -0.4102
 3029SOL    HW120546   2.675   1.249   5.193  0.3539 -2.0131  0.3072
 3029SOL    HW220547   2.771   1.320   5.095  1.4713  1.4093  1.9799
 3030SOL     OW20548   1.955   2.371  10.786  0.1094  0.1535 -0.4980
 3030SOL    HW120549   1.967   2.277  10.771  2.1642  0.8098 -2.9008
 3030SOL    HW220550   2.025   2.404  10.730 -1.5781  1.1055 -2.0671
 3031SOL     OW20551   3.043   3.235   3.002 -0.2255 -0.4249 -0.0946
 3031SOL    HW120552   2.953   3.206   3.019  0.5037 -2.2941  0.6368
 3031SOL    HW220553   3.034   3.318   2.955  1.1615  0.2380  0.8434
 3032SOL     OW20554   0.959   2.410   4.336  0.1384 -0.2485  0.1155
 3032SOL    HW120555   0.864   2.416   4.326  0.0935 -0.7863  0.1976
 3032SOL    HW220556   0.961   2.315   4.345 -1.3316 -0.2053  0.8614
 3033SOL     OW20557   1.071   2.773   6.256 -0.2175 -0.0156 -0.0444
 3033SOL    HW120558   1.025   2.838   6.203 -0.9950 -0.5955 -0.0790
 3033SOL    HW220559   1.102   2.710   6.191  0.6557 -0.1313  0.4773
 3034SOL     OW20560   2.628   0.040   4.632 -0.4475  0.7331  0.1147
 3034SOL    HW120561   2.566   4.720   4.691 -0.2911 -0.5096 -0.6088
 3034SOL    HW220562   2.594   0.129   4.633 -0.9286  0.5505  0.1997
 3035SOL     OW20563   0.239   1.093   8.718  0.2139 -0.1470 -0.5344
 3035SOL    HW120564   0.264   1.104   8.809  2.4952 -2.4060 -0.9090
 3035SOL    HW220565   0.310   1.145   8.681 -0.6399  0.7116 -0.9845
 3036SOL     OW20566   2.967   2.258   5.653 -0.1615  0.2142 -0.1380
 3036SOL    HW120567   2.971   2.276   5.746 -2.2058 -0.0727  0.0082
 3036SOL    HW220568   3.006   2.339   5.621  0.1238  0.0643 -0.1724
 3037SOL     OW20569   1.613   2.830   0.493 -0.7508  0.8437 -0.1560
 3037SOL    HW120570   1.559   2.827   0.572 -2.8878  0.9451 -1.5877
 3037SOL    HW220571   1.590   2.747   0.450 -0.2136 -0.2620  1.6820
 3038SOL     OW20572   1.922   3.707   5.392 -0.3860  0.2101  0.4380
 3038SOL    HW120573   1.864   3.642   5.432 -2.1386  1.6565  0.2803
 3038SOL    HW220574   1.998   3.659   5.361  1.0049  2.3649  0.4719
 3039SOL     OW20575   0.168   2.637  11.736  0.0434  0.0511  0.1302
 3039SOL    HW120576   0.112   2.623  11.660 -1.0676 -0.0860  0.9769
 3039SOL    HW220577   0.139   2.564  11.791  0.4049  0.8329  1.3519
 3040SOL     OW20578   2.198   4.000   6.130  0.4723 -0.3333 -0.2727
 3040SOL    HW120579   2.202   3.906   6.148 -0.7458 -0.6660 -1.7371
 3040SOL    HW220580   2.270   4.029   6.186  0.7048  0.8192 -1.1679
 3041SOL     OW20581   0.851   0.577   8.616  0.6348 -0.5653 -0.0742
 3041SOL    HW120582   0.878   0.664   8.585  0.0352 -1.0837 -2.0531
 3041SOL    HW220583   0.907   0.563   8.692  0.8729  0.6792 -0.0094
 3042SOL     OW20584   2.508   3.539   1.339 -0.1679  0.7454 -0.3255
 3042SOL    HW120585   2.590   3.492   1.349 -0.5368  0.5546  1.7622
 3042SOL    HW220586   2.543   3.627   1.352 -1.4820  1.4227 -1.2903
 3043SOL     OW20587   0.583   1.450   8.092 -1.1500  0.1786 -0.7832
 3043SOL    HW120588   0.510   1.417   8.143  0.0742 -1.1381  0.1061
 3043SOL    HW220589   0.648   1.427   8.158  0.7084 -0.5097 -2.8273
 3044SOL     OW20590   1.902   0.328  17.557  0.3320 -0.2105  0.0320
 3044SOL    HW120591   1.983   0.351  17.511  1.3805  0.1035  2.0175
 3044SOL    HW220592   1.925   0.312  17.649 -2.6142  1.3658  1.0336
 3045SOL     OW20593   1.874   4.674   7.664 -0.5889  0.0060  0.1569
 3045SOL    HW120594   1.873   0.005   7.743  1.1854 -0.9501  0.8423
 3045SOL    HW220595   1.888   4.589   7.707  0.5740 -0.7619 -1.7315
 3046SOL     OW20596   4.053   3.964  10.830 -0.0158 -0.0164 -0.0373
 3046SOL    HW120597   3.978   3.914  10.861 -0.4149  0.4229 -0.3085
 3046SOL    HW220598   4.017   3.997  10.748 -1.7801 -0.7549  0.4374
 3047SOL     OW20599   2.690   2.820   8.328  1.3633 -0.2326 -0.3704
 3047SOL    HW120600   2.700   2.851   8.417  0.0414 -1.3749  0.1812
 3047SOL    HW220601   2.647   2.735   8.340  2.0665 -0.8567 -2.1632
 3048SOL     OW20602   0.943   1.725   6.476  0.2453 -0.1153  0.4126
 3048SOL    HW120603   1.035   1.752   6.480 -0.3399  2.0613 -1.2894
 3048SOL    HW220604   0.959   1.655   6.412  0.6657 -0.3565  0.7794
 3049SOL     OW20605   4.355   1.950   3.635 -0.3839  0.0441  0.0438
 3049SOL    HW120606   4.430   1.907   3.595 -0.0057  0.8506 -0.0897
 3049SOL    HW220607   4.391   2.001   3.707  0.0314 -0.2875  0.0749
 3050SOL     OW20608   3.949   1.232  11.748  0.2813 -0.5299  0.0459
 3050SOL    HW120609   4.036   1.254  11.715 -0.7738  0.8261 -1.8367
 3050SOL    HW220610   3.892   1.231  11.671  1.8368 -0.3468 -1.1099
 3051SOL     OW20611   2.325   3.916   8.495  0.4010  0.5669  0.5052
 3051SOL    HW120612   2.279   3.999   8.482  1.3928  0.8011 -1.7043
 3051SOL    HW220613   2.341   3.899   8.588  0.7554 -1.5464  0.0729
 3052SOL     OW20614   3.631   0.521   0.175  0.0226  0.6070  0.2985
 3052SOL    HW120615   3.699   0.458   0.153 -1.1439 -0.2850 -0.7829
 3052SOL    HW220616   3.634   0.582   0.101  1.6211 -0.0349 -0.1652
 3053SOL     OW20617   3.982   3.849   0.692 -0.1919 -0.0006  0.4498
 3053SOL    HW120618   4.016   3.761   0.673  0.5815  1.2211 -3.9074
 3053SOL    HW220619   3.961   3.874   0.602  1.5855 -0.4118 -0.0917
 3054SOL     OW20620   0.459   0.832   1.442 -0.6947 -0.4170 -0.0394
 3054SOL    HW120621   0.404   0.754   1.435  0.1022 -1.0446  0.6301
 3054SOL    HW220622   0.523   0.809   1.373 -1.1319 -0.9470 -0.2699
 3055SOL     OW20623   1.476   2.348   6.187 -0.3334 -0.3734 -0.0710
 3055SOL    HW120624   1.405   2.350   6.124  0.6840 -1.1901 -1.2364
 3055SOL    HW220625   1.437   2.319   6.270  0.9555  2.2943  1.4591
 3056SOL     OW20626   3.187   0.629   8.333  0.7778  0.2123  0.7925
 3056SOL    HW120627   3.235   0.546   8.333  2.6687  1.2984 -2.1839
 3056SOL    HW220628   3.198   0.650   8.240 -0.0225  0.6481  0.8036
 3057SOL     OW20629   2.285   4.102   5.228  0.0571  0.1662 -0.8968
 3057SOL    HW120630   2.364   4.116   5.279  0.1407  0.9751 -1.2398
 3057SOL    HW220631   2.237   4.185   5.222 -1.4113 -0.5998  0.4718
 3058SOL     OW20632   4.544   2.519   4.284 -0.2334  0.6382 -0.2440
 3058SOL    HW120633   4.465   2.469   4.264  0.6646  0.1771 -2.6749
 3058SOL    HW220634   4.522   2.534   4.376  0.3314  0.4913 -0.0840
 3059SOL     OW20635   1.353   4.234   4.355  0.2822 -0.3983 -0.4573
 3059SOL    HW120636   1.355   4.264   4.264 -0.5466  0.9570 -0.0250
 3059SOL    HW220637   1.259   4.224   4.369  0.1245 -0.4987 -1.6238
 3060SOL     OW20638   3.209   3.412   5.607  0.2215  0.3227 -0.5568
 3060SOL    HW120639   3.213   3.332   5.658  0.7358 -0.5967 -2.0434
 3060SOL    HW220640   3.162   3.465   5.672 -0.9785 -1.5069  0.0707
 3061SOL     OW20641   4.441   1.661   2.066 -0.1065  0.3685  0.5576
 3061SOL    HW120642   4.432   1.566   2.058  0.5832  0.3562 -0.1087
 3061SOL    HW220643   4.431   1.677   2.160  0.5823  1.0572  0.5166
 3062SOL     OW20644   0.966   2.863   5.264  0.3511  0.9396  0.1298
 3062SOL    HW120645   0.922   2.914   5.196  1.7028  0.8743 -0.7979
 3062SOL    HW220646   0.997   2.930   5.324  3.1160 -1.3723  1.3077
 3063SOL     OW20647   3.964   0.183  12.068 -0.1238 -0.0470 -0.4060
 3063SOL    HW120648   3.901   0.162  11.999  1.5593  0.8106 -2.2153
 3063SOL    HW220649   3.950   0.277  12.085  4.0834  0.2362  1.5961
 3064SOL     OW20650   1.816   3.090   9.219 -0.3032  0.2809 -0.1567
 3064SOL    HW120651   1.895   3.140   9.198 -0.9114  2.0087  1.7376
 3064SOL    HW220652   1.847   3.001   9.233 -3.1755 -1.0308 -2.2203
 3065SOL     OW20653   1.389   3.131   5.748 -0.9137  0.0374  0.3655
 3065SOL    HW120654   1.332   3.054   5.750 -1.6762  0.5808 -0.6109
 3065SOL    HW220655   1.458   3.096   5.691  0.1901  0.3615  1.5001
 3066SOL     OW20656   2.917   4.232  11.695  0.3150  0.0165  0.4145
 3066SOL    HW120657   2.945   4.237  11.603  2.4976 -1.7307  0.9980
 3066SOL    HW220658   2.827   4.200  11.683  0.4286 -0.3150  0.4463
 3067SOL     OW20659   1.321   3.106  15.879 -0.1289 -0.0335  0.6891
 3067SOL    HW120660   1.304   3.060  15.961 -1.7113  1.0736  0.9777
 3067SOL    HW220661   1.351   3.035  15.822  2.4661  0.3337  1.6210
 3068SOL     OW20662   3.612   1.305  11.697  0.1247  0.0031 -0.6397
 3068SOL    HW120663   3.702   1.290  11.669  1.8411  0.1754  4.7585
 3068SOL    HW220664   3.580   1.215  11.691 -0.2286 -0.0848  2.5822
 3069SOL     OW20665   0.449   1.256   8.633 -0.1412  0.4416  0.2629
 3069SOL    HW120666   0.487   1.315   8.698  0.3091 -1.1130  1.4352
 3069SOL    HW220667   0.520   1.194   8.614 -1.3004 -1.0900  0.9308
 3070SOL     OW20668   1.452   0.717  16.676  0.2015  0.1615  0.2123
 3070SOL    HW120669   1.408   0.678  16.601  1.2280  2.8774 -1.7726
 3070SOL    HW220670   1.386   0.782  16.701 -0.0703  0.4633 -1.2873
 3071SOL     OW20671   4.417   1.890   5.251  0.1572  0.2095  0.0744
 3071SOL    HW120672   4.358   1.824   5.212 -0.5531  1.9215 -1.7804
 3071SOL    HW220673   4.478   1.911   5.180 -0.6024  1.4414 -0.2207
 3072SOL     OW20674   3.012   4.144  10.875 -0.2440  0.0684 -0.2275
 3072SOL    HW120675   3.061   4.200  10.934  0.0394  1.9459 -2.2455
 3072SOL    HW220676   3.068   4.067  10.889 -0.8872  0.0396  2.1509
 3073SOL     OW20677   2.283   0.761   4.920  0.6209  0.8487 -0.4156
 3073SOL    HW120678   2.260   0.721   4.836 -1.4914  0.2201  0.4686
 3073SOL    HW220679   2.244   0.847   4.902  1.2131  1.2346  0.1310
 3074SOL     OW20680   1.339   0.141   7.665 -0.4613 -0.3526 -0.0913
 3074SOL    HW120681   1.310   0.228   7.636  0.4917  0.0154  0.0424
 3074SOL    HW220682   1.430   0.156   7.693 -0.0190 -1.4050 -0.9620
 3075SOL     OW20683   2.945   2.178  14.114 -0.2723 -0.4700  0.0814
 3075SOL    HW120684   2.959   2.222  14.198 -2.5183 -2.6930  1.6480
 3075SOL    HW220685   3.024   2.210  14.072 -1.1946  0.3712 -0.9905
 3076SOL     OW20686   3.513   0.023   2.108  0.6194 -0.1670 -0.2347
 3076SOL    HW120687   3.571   4.690   2.159  0.4235 -0.2578 -0.1110
 3076SOL    HW220688   3.437   4.689   2.106 -0.4962  1.1698  3.4110
 3077SOL     OW20689   3.937   1.169   2.007  0.0195  0.5163 -0.9375
 3077SOL    HW120690   3.878   1.216   1.948  0.1869  3.4229  1.2060
 3077SOL    HW220691   4.021   1.173   1.961  0.5379 -0.7279 -0.0841
 3078SOL     OW20692   2.815   0.445  10.178 -0.1729 -0.2579  0.1554
 3078SOL    HW120693   2.891   0.435  10.236  0.0788 -0.4263 -0.2052
 3078SOL    HW220694   2.752   0.499  10.226 -1.2505  0.1337 -1.7011
 3079SOL     OW20695   2.017   4.214   2.958  0.2272 -0.3067 -0.2179
 3079SOL    HW120696   1.966   4.289   2.928  0.5820  0.1451  0.3029
 3079SOL    HW220697   2.036   4.228   3.051 -1.1947  0.9216 -0.0995
 3080SOL     OW20698   4.173   1.977   4.731  0.2612 -0.5026 -0.5440
 3080SOL    HW120699   4.103   1.929   4.774  0.7703 -1.8869 -1.2722
 3080SOL    HW220700   4.173   1.925   4.651  0.2239  1.2968 -1.7187
 3081SOL     OW20701   2.496   2.944   2.121  0.5644  0.1003  0.3415
 3081SOL    HW120702   2.449   2.861   2.127  0.3405  0.2689  0.8866
 3081SOL    HW220703   2.418   2.989   2.088  0.7383  1.0723  1.2904
 3082SOL     OW20704   1.887   3.371  17.525 -0.2360  0.1965 -0.4972
 3082SOL    HW120705   1.867   3.463  17.544  3.7434  0.0933  3.8761
 3082SOL    HW220706   1.981   3.371  17.505  0.2251 -3.4016  1.8240
 3083SOL     OW20707   3.554   3.826  11.387  0.0200  0.1112 -0.4089
 3083SOL    HW120708   3.583   3.869  11.467  1.5347  1.4108 -1.6573
 3083SOL    HW220709   3.629   3.843  11.329  0.1892 -0.1427 -0.2654
 3084SOL     OW20710   2.194   3.751   2.081  0.5166 -0.1196 -0.4308
 3084SOL    HW120711   2.174   3.657   2.073 -1.7036  0.5600 -2.7920
 3084SOL    HW220712   2.280   3.740   2.122  0.5203  1.0687 -0.1374
 3085SOL     OW20713   4.596   3.460   4.597  1.1118 -0.6405  0.7866
 3085SOL    HW120714   4.685   3.448   4.566  1.3331  1.3635  0.6052
 3085SOL    HW220715   4.613   3.554   4.609 -3.7183  0.4097 -0.5296
 3086SOL     OW20716   2.969   3.307   4.346  0.4379  0.1259 -0.0011
 3086SOL    HW120717   3.003   3.311   4.436 -0.4321  0.5610  0.3137
 3086SOL    HW220718   2.875   3.298   4.364  0.6956  0.1631  1.3443
 3087SOL     OW20719   4.156   2.921   8.288  0.0549 -0.1331 -0.0997
 3087SOL    HW120720   4.071   2.889   8.317  0.1459 -0.3463 -0.0641
 3087SOL    HW220721   4.120   2.991   8.233 -0.8844 -0.9652 -0.5501
 3088SOL     OW20722   3.683   1.250   2.152  0.7174  0.2844 -0.1011
 3088SOL    HW120723   3.774   1.224   2.140  0.6830  0.2893 -0.3755
 3088SOL    HW220724   3.659   1.174   2.205  1.0237 -0.2061 -0.6629
 3089SOL     OW20725   2.690   0.465  12.864 -0.4490  1.1689 -1.0661
 3089SOL    HW120726   2.744   0.536  12.829  0.2797  0.7995 -0.6688
 3089SOL    HW220727   2.702   0.406  12.790 -1.2658 -1.2256  0.6946
 3090SOL     OW20728   2.599   0.391  12.151 -0.5807 -0.1112 -0.4512
 3090SOL    HW120729   2.509   0.373  12.176 -0.6635  2.2012  0.8824
 3090SOL    HW220730   2.643   0.306  12.160  1.4711  1.0841  0.7133
 3091SOL     OW20731   1.275   4.009   3.933 -0.1906  0.3588  0.1739
 3091SOL    HW120732   1.234   4.022   4.018 -1.1191  1.2128 -0.3947
 3091SOL    HW220733   1.278   4.101   3.905 -0.3238 -0.1696 -1.5716
 3092SOL     OW20734   0.781   3.673   2.654  0.5116 -0.8632  0.4681
 3092SOL    HW120735   0.762   3.584   2.625 -1.9955  0.5904 -2.3219
 3092SOL    HW220736   0.875   3.669   2.632  0.8454 -0.3625  1.8075
 3093SOL     OW20737   0.342   3.584   3.891  1.2027  0.2460  0.5437
 3093SOL    HW120738   0.266   3.642   3.894  1.9990  1.2472  1.4425
 3093SOL    HW220739   0.359   3.576   3.797 -0.1873  0.3077  0.2871
 3094SOL     OW20740   1.709   3.262  11.204 -0.5000 -0.4575  0.4257
 3094SOL    HW120741   1.773   3.192  11.221  0.8625  0.9312  1.0175
 3094SOL    HW220742   1.717   3.266  11.108 -0.8136 -2.7695  0.2970
 3095SOL     OW20743   3.523   3.199  14.777  0.3074 -0.0107 -0.7869
 3095SOL    HW120744   3.563   3.113  14.761  3.7204  1.1138  1.7329
 3095SOL    HW220745   3.524   3.226  14.685 -0.2602  0.7224 -0.5748
 3096SOL     OW20746   4.067   2.335  14.976  0.1668  0.4713  0.0331
 3096SOL    HW120747   4.162   2.321  14.974  0.1332  0.1673  0.5145
 3096SOL    HW220748   4.046   2.364  14.887 -1.6184 -0.2813  0.2235
 3097SOL     OW20749   3.273   2.964   4.705 -0.6649  0.8445 -0.4093
 3097SOL    HW120750   3.254   2.874   4.680  3.5592 -0.0048 -0.5211
 3097SOL    HW220751   3.355   2.987   4.660 -1.0285 -0.1495 -1.5811
 3098SOL     OW20752   3.536   1.251   8.707 -0.1216 -0.1820 -0.6109
 3098SOL    HW120753   3.528   1.159   8.684  1.2164  0.4051 -3.3742
 3098SOL    HW220754   3.545   1.242   8.802  0.3142 -0.6014 -0.6958
 3099SOL     OW20755   3.875   0.643   2.485  0.0318  0.7443 -0.2371
 3099SOL    HW120756   3.872   0.712   2.419 -0.7185  0.0257 -0.9556
 3099SOL    HW220757   3.798   0.664   2.539 -0.4694 -0.5578 -0.4495
 3100SOL     OW20758   2.314   4.246   8.980 -0.6009  0.1967  0.0632
 3100SOL    HW120759   2.229   4.280   8.951 -1.5216 -2.3826 -0.2533
 3100SOL    HW220760   2.327   4.176   8.916  1.3368 -0.3509  1.0431
 3101SOL     OW20761   4.145   1.982   2.428 -0.1955  0.5576 -0.0666
 3101SOL    HW120762   4.219   1.930   2.459  0.5458  1.1589 -0.8417
 3101SOL    HW220763   4.154   1.968   2.334 -1.8364 -2.6802  0.2615
 3102SOL     OW20764   3.369   3.469   4.277 -0.1128  0.9572  0.5343
 3102SOL    HW120765   3.410   3.384   4.257 -0.3728  0.3645  2.5387
 3102SOL    HW220766   3.310   3.476   4.202  0.3164 -0.1390  0.0842
 3103SOL     OW20767   2.132   3.953   8.205 -0.5588 -0.0733 -0.2451
 3103SOL    HW120768   2.044   3.988   8.214 -0.2931  0.5674 -0.1696
 3103SOL    HW220769   2.170   3.982   8.288  2.7420 -2.9986 -0.7540
 3104SOL     OW20770   1.713   0.504   3.816  0.4871  0.0345 -0.0881
 3104SOL    HW120771   1.711   0.599   3.801  1.9028 -0.0988 -1.1262
 3104SOL    HW220772   1.689   0.483   3.726  0.0884 -1.2476  0.3154
 3105SOL     OW20773   0.152   1.274   7.387 -0.3145 -0.0234 -0.4533
 3105SOL    HW120774   0.215   1.204   7.402 -2.2295 -1.4726  0.9463
 3105SOL    HW220775   0.206   1.325   7.327  0.8124 -1.1556 -0.4114
 3106SOL     OW20776   0.773   3.831  11.556  0.6216 -0.1152  0.4912
 3106SOL    HW120777   0.864   3.814  11.579  0.6957 -0.2143  0.1216
 3106SOL    HW220778   0.778   3.840  11.461  1.5258 -1.7139  0.4027
 3107SOL     OW20779   0.928   1.675   3.588  0.3627  0.4221 -0.3098
 3107SOL    HW120780   0.901   1.716   3.670  1.1611 -1.3286  0.8394
 3107SOL    HW220781   0.998   1.737   3.567  0.7363  0.3655  0.7978
 3108SOL     OW20782   3.110   2.167   7.211  0.1488  0.7974  0.0420
 3108SOL    HW120783   3.192   2.154   7.163 -0.1645 -0.0714 -0.2502
 3108SOL    HW220784   3.060   2.104   7.159 -0.2123  2.0020 -1.0751
 3109SOL     OW20785   0.437   1.543   4.183 -0.5803 -0.3850 -0.1519
 3109SOL    HW120786   0.418   1.506   4.097  2.1575 -2.7987  0.2648
 3109SOL    HW220787   0.355   1.589   4.197 -0.7456 -0.3739 -1.1444
 3110SOL     OW20788   1.266   0.297  16.360 -0.6958 -0.3178  0.7307
 3110SOL    HW120789   1.263   0.205  16.336  0.6856 -0.2701  0.3444
 3110SOL    HW220790   1.345   0.324  16.312  0.4011 -1.8030  1.7104
 3111SOL     OW20791   0.808   1.654   7.023  0.5892  0.3930  0.3961
 3111SOL    HW120792   0.742   1.614   6.967  1.1057  0.6109 -0.3711
 3111SOL    HW220793   0.849   1.705   6.953  1.4001 -0.0370  0.5626
 3112SOL     OW20794   3.793   3.357   7.078  0.2952 -0.1393 -0.2648
 3112SOL    HW120795   3.886   3.378   7.082 -0.0766  1.4613 -0.1434
 3112SOL    HW220796   3.761   3.393   7.161 -0.7727 -2.5226  0.3638
 3113SOL     OW20797   0.576   0.064  10.377  0.3857  0.5921 -0.0299
 3113SOL    HW120798   0.670   0.084  10.376  0.7931 -1.1788  0.8420
 3113SOL    HW220799   0.584   4.691  10.388 -0.1644  0.5234 -0.2407
 3114SOL     OW20800   4.649   1.675  16.248 -0.2990  0.7056 -0.3168
 3114SOL    HW120801   4.557   1.680  16.223 -0.5571 -0.6080  0.3585
 3114SOL    HW220802   4.694   1.652  16.166 -1.5072  0.9167 -1.0407
 3115SOL     OW20803   1.683   2.438   1.057  0.1460 -0.2721 -0.5298
 3115SOL    HW120804   1.601   2.400   1.025 -0.5335 -0.3972  1.3978
 3115SOL    HW220805   1.673   2.525   1.017  0.1215  1.0896  2.4711
 3116SOL     OW20806   2.857   2.870  13.868 -0.3623  0.4603  0.6657
 3116SOL    HW120807   2.917   2.890  13.940 -0.2715 -0.6017  0.8773
 3116SOL    HW220808   2.813   2.791  13.899  0.0954  0.6562  1.8135
 3117SOL     OW20809   2.220   3.310   9.925 -0.1122 -0.1210 -0.0265
 3117SOL    HW120810   2.258   3.239   9.875 -1.6077 -0.3693 -0.8198
 3117SOL    HW220811   2.294   3.337   9.979 -0.0042  2.5532 -1.5314
 3118SOL     OW20812   3.003   1.793   2.079 -0.6232  0.3519  0.0406
 3118SOL    HW120813   3.059   1.820   2.007 -1.0894  2.2282  0.3908
 3118SOL    HW220814   2.946   1.742   2.022 -0.0016 -0.3323  0.0268
 3119SOL     OW20815   2.117   1.265  10.553  0.2869  0.0645  0.2187
 3119SOL    HW120816   2.044   1.326  10.554  0.0076 -0.2644 -0.2829
 3119SOL    HW220817   2.171   1.315  10.615  1.5873 -0.0656 -0.8031
 3120SOL     OW20818   2.195   0.152   2.964 -0.0030 -0.0572  0.3815
 3120SOL    HW120819   2.145   0.221   2.921 -0.5001  0.8261  2.3982
 3120SOL    HW220820   2.174   0.078   2.907  1.9560 -0.9451  0.7941
 3121SOL     OW20821   3.585   3.153   1.308  0.4686 -0.0621 -0.1350
 3121SOL    HW120822   3.560   3.104   1.386  1.4648 -0.5847 -0.1460
 3121SOL    HW220823   3.499   3.180   1.276  0.1681 -1.9405 -0.8637
 3122SOL     OW20824   0.424   0.381   2.689 -0.0123 -0.3222  0.4940
 3122SOL    HW120825   0.394   0.292   2.672 -2.6713  0.6924 -0.2077
 3122SOL    HW220826   0.516   0.360   2.679  0.1553  0.7648 -0.3485
 3123SOL     OW20827   1.763   2.819   8.627 -0.4360  0.5764 -0.2830
 3123SOL    HW120828   1.678   2.862   8.638 -1.2173 -0.5559 -2.0605
 3123SOL    HW220829   1.821   2.849   8.697 -0.5625  3.5563 -1.4593
 3124SOL     OW20830   0.003   0.646   4.268  0.2640 -0.3176 -0.5177
 3124SOL    HW120831   4.650   0.701   4.284 -0.5249 -1.4806 -0.2349
 3124SOL    HW220832   4.718   0.589   4.344 -2.3505 -1.3759 -1.5887
 3125SOL     OW20833   3.089   1.681   6.289 -0.2347  0.1067 -0.2340
 3125SOL    HW120834   3.056   1.767   6.263 -3.1483 -2.3440 -4.7946
 3125SOL    HW220835   3.020   1.649   6.346  1.0201 -1.0921  0.6091
 3126SOL     OW20836   1.344   3.552   2.687  0.1878 -0.6084 -0.3655
 3126SOL    HW120837   1.283   3.482   2.714 -0.4974  0.3176  0.4827
 3126SOL    HW220838   1.329   3.548   2.593  1.7044 -1.8064 -0.5613
 3127SOL     OW20839   3.015   3.245  15.944  0.0396  0.0131 -0.2010
 3127SOL    HW120840   3.086   3.258  16.007  1.0880  1.6263 -1.6982
 3127SOL    HW220841   2.972   3.329  15.956 -0.0605  0.0429 -0.7690
 3128SOL     OW20842   0.698   2.558   0.991 -0.0944  0.2931  0.1064
 3128SOL    HW120843   0.756   2.565   1.067 -0.1819 -1.7013  0.3556
 3128SOL    HW220844   0.762   2.543   0.922  0.9931 -2.9462  1.8304
 3129SOL     OW20845   2.085   2.699   0.434  0.5877 -0.3464  0.3202
 3129SOL    HW120846   2.118   2.659   0.514 -1.4242 -1.2806  0.6753
 3129SOL    HW220847   2.001   2.659   0.410  0.7830 -1.8210  2.0700
 3130SOL     OW20848   2.597   2.872  12.427  0.3055  0.5101  0.3195
 3130SOL    HW120849   2.591   2.877  12.522  3.1490  2.6982  0.3802
 3130SOL    HW220850   2.687   2.848  12.403  0.2802  2.1733 -1.4104
 3131SOL     OW20851   1.988   3.712  17.145 -0.2774  0.3275  0.0594
 3131SOL    HW120852   2.064   3.721  17.203  0.7634  1.7896 -1.5188
 3131SOL    HW220853   1.964   3.622  17.167  0.7656  0.2030  0.6814
 3132SOL     OW20854   1.254   4.156   6.069  0.5834 -0.4674 -0.0590
 3132SOL    HW120855   1.297   4.241   6.086  1.5741 -1.7797  4.0436
 3132SOL    HW220856   1.159   4.167   6.061  0.5793 -2.0736 -2.0706
 3133SOL     OW20857   1.794   1.025   9.453  0.7187  0.0076 -0.3343
 3133SOL    HW120858   1.801   1.004   9.546 -1.3563 -1.9272 -0.5989
 3133SOL    HW220859   1.740   1.104   9.451 -1.3373 -1.3805  0.7620
 3134SOL     OW20860   2.892   3.691   7.813 -0.1454  0.1664 -0.3852
 3134SOL    HW120861   2.833   3.620   7.787  0.0410  0.5190 -1.7577
 3134SOL    HW220862   2.832   3.766   7.815 -0.1671  0.1521 -0.5253
 3135SOL     OW20863   1.662   3.730   2.620 -0.0348 -0.0983 -0.3258
 3135SOL    HW120864   1.626   3.648   2.653  2.6406 -0.6911  1.1878
 3135SOL    HW220865   1.671   3.709   2.527  0.7391  1.0327 -0.5038
 3136SOL     OW20866   1.409   1.442   3.310  0.6100 -0.0208 -0.3182
 3136SOL    HW120867   1.431   1.471   3.222  0.8542  1.0215  0.0931
 3136SOL    HW220868   1.313   1.446   3.312  0.5754 -0.8388 -0.2958
 3137SOL     OW20869   3.088   3.325   4.632 -0.6052 -0.0998 -1.0445
 3137SOL    HW120870   2.998   3.292   4.635 -0.8436  0.4649 -2.1857
 3137SOL    HW220871   3.097   3.360   4.721  0.7570 -0.8038 -0.9082
 3138SOL     OW20872   1.032   3.286  17.198  0.3274 -0.8207 -0.3787
 3138SOL    HW120873   0.989   3.279  17.113 -2.4115  0.1971  0.9178
 3138SOL    HW220874   1.125   3.280  17.176  0.6269  2.7965 -0.0656
 3139SOL     OW20875   3.047   3.337   3.472  0.2675  0.1352  0.1143
 3139SOL    HW120876   3.097   3.281   3.531 -0.7603 -0.7305  0.1692
 3139SOL    HW220877   3.115   3.395   3.439  1.2359 -1.4783 -0.7115
 3140SOL     OW20878   1.164   3.602   9.862 -0.2376 -0.1342  0.0474
 3140SOL    HW120879   1.206   3.636   9.942 -1.6330 -1.3253  1.2935
 3140SOL    HW220880   1.155   3.681   9.810  1.2572 -0.3284 -0.5077
 3141SOL     OW20881   4.629   1.827   1.948  0.2505  0.2153  0.3057
 3141SOL    HW120882   4.559   1.763   1.963 -0.8016  1.5944  1.2840
 3141SOL    HW220883   4.673   1.785   1.875  0.1347 -0.2959  0.5314
 3142SOL     OW20884   3.397   2.353  12.301 -0.4612  0.0494  0.0309
 3142SOL    HW120885   3.354   2.425  12.348  2.2497  0.7174  1.4681
 3142SOL    HW220886   3.326   2.292  12.279 -1.4007  1.0578  0.2435
 3143SOL     OW20887   1.163   3.713   2.861 -0.4828  0.1193  0.2158
 3143SOL    HW120888   1.254   3.693   2.837 -0.8488  0.1075 -1.1492
 3143SOL    HW220889   1.175   3.803   2.891  0.6301  0.8254 -2.3317
 3144SOL     OW20890   2.999   4.671   4.405 -0.0399  0.5367 -0.0694
 3144SOL    HW120891   2.957   4.684   4.490  0.9297  0.5748  0.3974
 3144SOL    HW220892   3.068   4.607   4.420 -0.5432 -0.3171 -1.3579
 3145SOL     OW20893   4.572   3.705  14.184 -0.1391  0.0185 -0.3041
 3145SOL    HW120894   4.506   3.754  14.135 -0.2902  2.0428  1.9015
 3145SOL    HW220895   4.619   3.779  14.222  1.8503 -1.7407  0.6586
 3146SOL     OW20896   3.418   1.515  11.671  0.7061  0.5388 -0.0584
 3146SOL    HW120897   3.492   1.574  11.664  1.0604  0.2116  0.8742
 3146SOL    HW220898   3.468   1.434  11.669 -3.3159 -2.0225  1.9730
 3147SOL     OW20899   2.693   0.639   8.278 -0.2197  0.3485  0.2763
 3147SOL    HW120900   2.652   0.552   8.278  0.1694  0.1635  0.8457
 3147SOL    HW220901   2.621   0.702   8.285  0.9419  1.4900  1.7053
 3148SOL     OW20902   2.573   0.937   5.778 -0.7674 -0.2759  0.7621
 3148SOL    HW120903   2.627   0.861   5.797 -0.0916 -0.1549 -0.6401
 3148SOL    HW220904   2.602   1.004   5.839  0.6934 -1.0612  0.9199
 3149SOL     OW20905   3.895   0.350   4.309 -0.1236  0.0957 -0.1505
 3149SOL    HW120906   3.930   0.273   4.354 -1.1343  0.1443  0.7109
 3149SOL    HW220907   3.867   0.300   4.232  0.3256 -2.5508  1.3932
 3150SOL     OW20908   0.804   0.120   8.647  0.0011 -0.8577 -0.5458
 3150SOL    HW120909   0.886   0.125   8.598  0.6247  0.9193  0.6759
 3150SOL    HW220910   0.754   0.193   8.614 -0.4774 -0.9955 -0.1288
 3151SOL     OW20911   3.236   1.675   5.283 -0.1611  0.1085 -0.0696
 3151SOL    HW120912   3.240   1.630   5.367  0.6713  0.6844  0.1919
 3151SOL    HW220913   3.297   1.747   5.296 -1.0786  1.1661 -1.6304
 3152SOL     OW20914   4.530   2.891   2.334 -0.5654 -0.2447  0.2098
 3152SOL    HW120915   4.535   2.934   2.248 -0.7734 -0.5248  0.0583
 3152SOL    HW220916   4.486   2.812   2.303 -0.6102 -0.6316  1.2814
 3153SOL     OW20917   0.773   0.713   6.366  0.1838  0.1254  0.3214
 3153SOL    HW120918   0.846   0.704   6.305  0.3906 -0.9610  0.7403
 3153SOL    HW220919   0.769   0.800   6.407  1.4812  0.7749 -0.9323
 3154SOL     OW20920   1.957   4.245  10.851 -0.2069  0.3932 -0.4666
 3154SOL    HW120921   1.945   4.185  10.925 -1.5830  1.2046 -0.0245
 3154SOL    HW220922   2.046   4.276  10.864  0.2324 -1.5011  1.0447
 3155SOL     OW20923   0.094   3.806   6.732 -0.2173 -0.4072  0.0367
 3155SOL    HW120924   0.118   3.746   6.662 -0.2668 -0.3175 -0.0566
 3155SOL    HW220925   0.047   3.873   6.682 -2.5334 -1.3834  0.9470
 3156SOL     OW20926   0.631   2.024   6.048  0.0011  0.1751  0.2806
 3156SOL    HW120927   0.626   2.071   6.132  1.7405  1.8765 -0.5686
 3156SOL    HW220928   0.630   2.097   5.986  1.9975  1.3416  1.6056
 3157SOL     OW20929   0.463   2.741   5.759  0.0252  0.9028 -0.1810
 3157SOL    HW120930   0.382   2.739   5.810  0.4796  0.8683  0.5417
 3157SOL    HW220931   0.463   2.666   5.699 -0.2490 -0.5052  1.5775
 3158SOL     OW20932   4.174   3.550  14.545  0.4067  0.1156 -0.0829
 3158SOL    HW120933   4.259   3.569  14.505  0.0381 -0.3103 -1.0627
 3158SOL    HW220934   4.107   3.606  14.507  0.3232  0.3746  0.4448
 3159SOL     OW20935   2.500   2.808  16.746  0.5604 -0.5487  0.4141
 3159SOL    HW120936   2.575   2.827  16.689 -0.3218  0.4244 -0.4308
 3159SOL    HW220937   2.428   2.793  16.685  0.1932 -1.8126  1.1637
 3160SOL     OW20938   1.679   0.348   3.145  0.3540 -0.8523  0.4144
 3160SOL    HW120939   1.605   0.288   3.139 -1.5187  1.5494 -0.3337
 3160SOL    HW220940   1.735   0.306   3.212  1.2741  0.7434  0.6429
 3161SOL     OW20941   0.375   4.393  11.675  0.1686 -0.0823  0.1775
 3161SOL    HW120942   0.413   4.474  11.709  0.2124  0.0817 -0.2547
 3161SOL    HW220943   0.301   4.392  11.735  0.4462 -2.8865  0.4754
 3162SOL     OW20944   4.405   0.011   2.371 -0.5513 -0.2762 -0.3338
 3162SOL    HW120945   4.361   0.087   2.408 -1.1493 -0.3038 -0.9880
 3162SOL    HW220946   4.412   0.028   2.277  0.5142  0.8654 -0.0382
 3163SOL     OW20947   2.901   0.283   5.597 -0.5457 -0.4355 -0.8661
 3163SOL    HW120948   2.917   0.202   5.646 -1.8903 -0.7936 -0.9994
 3163SOL    HW220949   2.851   0.251   5.522  0.4676 -0.1472 -1.6594
 3164SOL     OW20950   4.662   1.276   8.379 -0.1183  0.1563 -0.2436
 3164SOL    HW120951   4.696   1.216   8.445  3.7991 -0.1467 -2.5569
 3164SOL    HW220952   4.661   1.359   8.428  1.2408  0.1300 -0.1772
 3165SOL     OW20953   0.874   0.281   8.207 -0.3549 -0.3977 -0.2972
 3165SOL    HW120954   0.791   0.287   8.161 -0.8722 -2.0757  0.3967
 3165SOL    HW220955   0.905   0.371   8.203 -1.0162 -0.1862 -0.5891
 3166SOL     OW20956   1.465   1.184   3.301 -0.2600 -0.2445 -0.1103
 3166SOL    HW120957   1.381   1.143   3.321 -1.1019  1.2542 -0.5201
 3166SOL    HW220958   1.448   1.279   3.303  0.1114 -0.1939  0.6437
 3167SOL     OW20959   1.186   3.828   8.005 -0.1882  0.0992 -0.2874
 3167SOL    HW120960   1.227   3.742   7.991  0.2524  0.0780  1.1883
 3167SOL    HW220961   1.150   3.835   7.917 -1.9397 -3.0662  0.1608
 3168SOL     OW20962   2.063   3.022   4.465 -0.0165 -0.2843 -0.1184
 3168SOL    HW120963   2.043   3.044   4.556  0.2147  1.8679 -0.5977
 3168SOL    HW220964   2.138   2.964   4.479 -0.4104 -0.8426 -0.3250
 3169SOL     OW20965   3.241   3.801  13.116  0.3915  0.3421 -0.0383
 3169SOL    HW120966   3.323   3.768  13.080  0.3421 -0.7711  0.8573
 3169SOL    HW220967   3.210   3.717  13.152  1.8808 -0.1620  0.0836
 3170SOL     OW20968   2.988   1.942  15.146  0.1423  0.4627  0.5898
 3170SOL    HW120969   3.044   1.886  15.091  0.3897 -1.1273  2.4598
 3170SOL    HW220970   3.048   2.012  15.172  1.6544 -1.1079  1.3762
 3171SOL     OW20971   2.128   0.132   4.669 -0.0623 -0.1832 -0.3369
 3171SOL    HW120972   2.038   0.154   4.694 -0.5721 -2.0109 -0.5576
 3171SOL    HW220973   2.134   0.045   4.709  0.9830  0.7255  1.4876
 3172SOL     OW20974   4.167   0.296   5.760 -0.2477 -0.0608  0.2920
 3172SOL    HW120975   4.129   0.376   5.723  0.2496 -0.1750 -0.4669
 3172SOL    HW220976   4.089   0.258   5.800 -0.2177 -2.4307 -1.9527
 3173SOL     OW20977   4.697   3.794   5.678  0.2464 -0.5570 -0.3776
 3173SOL    HW120978   0.040   3.842   5.628  1.2401  0.0728  1.5051
 3173SOL    HW220979   4.630   3.788   5.611  0.2221  0.0957 -0.4070
 3174SOL     OW20980   4.485   1.396   7.000 -0.1824  0.0302 -0.5697
 3174SOL    HW120981   4.402   1.422   6.960 -1.0946 -0.7547  0.8217
 3174SOL    HW220982   4.540   1.458   6.952 -1.8508  1.5056 -0.5681
 3175SOL     OW20983   2.657   1.859   2.314 -0.2190 -0.1031 -0.1658
 3175SOL    HW120984   2.609   1.878   2.395  0.3545 -2.5288  0.7525
 3175SOL    HW220985   2.660   1.947   2.276 -0.9687  0.2233  0.5223
 3176SOL     OW20986   2.058   2.035   9.449 -0.2336 -0.0928 -0.4199
 3176SOL    HW120987   1.983   2.059   9.505  1.7774  1.8501  1.4471
 3176SOL    HW220988   2.128   2.084   9.493 -0.0193  0.0898 -0.9668
 3177SOL     OW20989   1.630   3.122   9.035  0.3003  0.8208 -0.1971
 3177SOL    HW120990   1.664   3.125   9.125 -1.0316 -2.5532  0.4200
 3177SOL    HW220991   1.656   3.211   9.009  1.3592  0.5113 -0.2016
 3178SOL     OW20992   1.611   2.644   4.767 -0.0731  0.0813 -0.3586
 3178SOL    HW120993   1.584   2.562   4.726 -0.9078 -0.8969  2.1095
 3178SOL    HW220994   1.707   2.637   4.764 -0.0095 -0.3129  2.1958
 3179SOL     OW20995   3.188   0.690   4.898  0.0028  0.3335 -0.1220
 3179SOL    HW120996   3.103   0.657   4.871  0.1736 -1.0406  0.9979
 3179SOL    HW220997   3.214   0.728   4.814 -0.5478  0.1770 -0.3595
 3180SOL     OW20998   2.704   2.212   6.578  0.0641 -0.2689 -0.7080
 3180SOL    HW120999   2.669   2.268   6.647 -0.4091 -0.4806 -0.7743
 3180SOL    HW221000   2.787   2.189   6.619 -0.4393 -1.0200 -0.1164
 3181SOL     OW21001   3.754   3.144   5.489  0.3061  0.0392 -0.2698
 3181SOL    HW121002   3.731   3.070   5.433  1.2729  0.4857 -1.2553
 3181SOL    HW221003   3.778   3.099   5.570  0.7506  0.3537 -0.2287
 3182SOL     OW21004   4.280   1.151   7.554  0.5196  0.2465 -0.2409
 3182SOL    HW121005   4.296   1.215   7.484  2.2785 -1.4391 -1.3746
 3182SOL    HW221006   4.189   1.131   7.534  0.4525  0.9851 -0.6913
 3183SOL     OW21007   4.201   3.883   5.864 -0.0536  0.2459 -0.2183
 3183SOL    HW121008   4.284   3.920   5.897 -0.1472  0.8123 -0.6197
 3183SOL    HW221009   4.189   3.810   5.925 -0.0608  0.2672 -0.1937
 3184SOL     OW21010   1.773   1.941   6.908 -0.3948  0.2989  0.1836
 3184SOL    HW121011   1.827   1.982   6.976  0.7936 -1.7611  0.4583
 3184SOL    HW221012   1.714   1.883   6.955  2.6724 -1.5625  1.7502
 3185SOL     OW21013   1.949   0.732  10.278 -0.0735 -0.1136  0.2734
 3185SOL    HW121014   1.932   0.801  10.341  0.0006  0.2040 -0.0557
 3185SOL    HW221015   1.980   0.665  10.340  1.1523 -1.4734 -1.7966
 3186SOL     OW21016   2.270   1.802  13.362  0.3902 -0.0889  0.9929
 3186SOL    HW121017   2.328   1.750  13.418 -0.9930 -0.1928  2.3308
 3186SOL    HW221018   2.317   1.885  13.372 -0.3619  0.5047 -0.4487
 3187SOL     OW21019   0.706   2.476   4.286  0.3862 -0.1154  0.1696
 3187SOL    HW121020   0.635   2.519   4.239 -0.3786  0.5926  1.9936
 3187SOL    HW221021   0.664   2.489   4.371 -1.2404 -3.7986 -0.0745
 3188SOL     OW21022   1.177   3.000   7.990 -0.4407 -0.0682  0.0356
 3188SOL    HW121023   1.108   3.017   8.053 -1.2548 -1.1679 -0.5698
 3188SOL    HW221024   1.143   3.050   7.915  2.0614  1.8930  0.2027
 3189SOL     OW21025   3.608   1.939   6.754 -0.4667  0.2435  0.1687
 3189SOL    HW121026   3.572   1.969   6.837  1.3941  0.6555  0.8249
 3189SOL    HW221027   3.651   2.022   6.731  0.4275 -0.1487  0.4273
 3190SOL     OW21028   1.145   1.899   3.577  0.1217 -0.3190  0.0881
 3190SOL    HW121029   1.061   1.940   3.598  0.4197  0.2707  0.1532
 3190SOL    HW221030   1.165   1.952   3.499 -1.3372 -0.2169 -0.2167
 3191SOL     OW21031   0.082   1.107  15.654  0.1113 -0.1418  0.0676
 3191SOL    HW121032   0.025   1.114  15.729 -1.5463 -1.5319 -1.0637
 3191SOL    HW221033   0.045   1.027  15.616 -0.1869  0.2568 -0.4840
 3192SOL     OW21034   0.024   1.813  12.215 -0.4092 -0.1010  0.2004
 3192SOL    HW121035   0.024   1.719  12.233 -1.8015 -0.0061  0.6428
 3192SOL    HW221036   0.043   1.813  12.121 -0.7613  0.7994  0.1249
 3193SOL     OW21037   4.277   2.803   4.670 -0.1282  0.6773  0.6146
 3193SOL    HW121038   4.307   2.839   4.586  0.3193 -1.4671 -0.1464
 3193SOL    HW221039   4.297   2.711   4.655  1.6051  1.0421  0.6749
 3194SOL     OW21040   3.911   0.946  15.091  0.3113 -0.0455  0.0756
 3194SOL    HW121041   3.870   0.907  15.168 -1.0242  1.6290  0.2137
 3194SOL    HW221042   3.871   0.900  15.017 -1.1415  0.2861  0.6544
 3195SOL     OW21043   3.949   4.547  10.046  0.5167  0.3651 -0.0562
 3195SOL    HW121044   3.922   4.636  10.023 -0.0826 -0.2866 -1.9175
 3195SOL    HW221045   3.977   4.519   9.958  4.6491 -0.5240  1.5569
 3196SOL     OW21046   1.495   2.383   1.696  0.2711  0.2276 -0.1287
 3196SOL    HW121047   1.421   2.338   1.739  0.3890  0.3486  0.2015
 3196SOL    HW221048   1.500   2.464   1.747  1.1856  0.3876 -0.4766
 3197SOL     OW21049   3.942   3.379   3.373 -0.4258 -0.3904 -0.4159
 3197SOL    HW121050   3.899   3.321   3.437  0.0577 -2.6078 -2.1179
 3197SOL    HW221051   3.904   3.343   3.293 -0.0967 -2.5509  0.3906
 3198SOL     OW21052   2.173   1.479   0.144  0.0901  0.1961 -0.4348
 3198SOL    HW121053   2.228   1.461   0.067 -1.6708 -1.0347 -1.3977
 3198SOL    HW221054   2.088   1.463   0.104 -1.2582  2.7021  1.5008
 3199SOL     OW21055   0.647   4.681   7.286 -0.4472  0.2095 -0.0323
 3199SOL    HW121056   0.732   4.642   7.307  0.2095  3.2685  2.9889
 3199SOL    HW221057   0.601   4.655   7.366  2.3159  0.5283  1.6439
 3200SOL     OW21058   3.016   3.108   8.035  0.2831  0.2392  0.2229
 3200SOL    HW121059   3.111   3.095   8.039  0.4890  2.0029  0.9471
 3200SOL    HW221060   2.986   3.020   8.061  1.9532  0.3308  2.5197
 3201SOL     OW21061   3.983   3.126   5.969 -0.5598 -0.4880 -0.1860
 3201SOL    HW121062   3.910   3.184   5.993 -0.8257 -0.1288 -1.8641
 3201SOL    HW221063   4.057   3.162   6.019 -2.3097  0.2065  1.9109
 3202SOL     OW21064   3.531   1.570  11.381  0.2227  0.0348  0.0240
 3202SOL    HW121065   3.518   1.628  11.456 -0.5020 -1.3196  0.9512
 3202SOL    HW221066   3.470   1.605  11.317  1.6768  0.8243 -0.9161
 3203SOL     OW21067   0.361   3.362   7.287 -0.7646  0.2281  0.0553
 3203SOL    HW121068   0.383   3.405   7.370 -1.8031  0.3916  0.2399
 3203SOL    HW221069   0.369   3.267   7.296  0.8049  0.5274  1.8827
 3204SOL     OW21070   0.846   2.368   8.308  0.2280  0.4870 -0.0068
 3204SOL    HW121071   0.762   2.413   8.319  0.5393  0.4805  2.4153
 3204SOL    HW221072   0.902   2.424   8.361 -0.4275  1.9958 -0.9305
 3205SOL     OW21073   3.462   4.689   6.433 -0.3119  0.0382 -0.2706
 3205SOL    HW121074   3.489   4.627   6.366  1.4989  1.9297 -1.2648
 3205SOL    HW221075   3.495   0.054   6.415 -0.8314  0.2532 -0.1904
 3206SOL     OW21076   0.688   3.235   5.051 -0.2591  0.0856 -0.2244
 3206SOL    HW121077   0.684   3.299   4.980  1.5523 -0.3092 -0.6975
 3206SOL    HW221078   0.774   3.256   5.089  0.9107 -1.8303 -1.7944
 3207SOL     OW21079   2.418   1.161  13.427  0.7324 -0.5173  0.6525
 3207SOL    HW121080   2.471   1.184  13.351 -1.3164  0.7726 -0.3970
 3207SOL    HW221081   2.401   1.067  13.423  1.4846 -0.5680 -0.9105
 3208SOL     OW21082   2.345   0.934   6.334  0.5325 -0.3450  0.2192
 3208SOL    HW121083   2.279   1.002   6.317  0.2155 -0.7181 -0.0528
 3208SOL    HW221084   2.391   0.978   6.406 -0.1305  3.1315 -1.4803
 3209SOL     OW21085   0.805   2.503   3.508  0.0109 -0.0415 -0.3362
 3209SOL    HW121086   0.835   2.519   3.597  2.5218 -0.1376 -1.1488
 3209SOL    HW221087   0.852   2.422   3.487  0.3149 -0.1374  0.7099
 3210SOL     OW21088   4.549   2.184   7.340  0.4534 -0.6926 -0.2982
 3210SOL    HW121089   4.619   2.179   7.405 -0.6987 -0.7866  0.9324
 3210SOL    HW221090   4.473   2.198   7.397  0.8597 -1.4629  0.4289
 3211SOL     OW21091   1.801   0.565   4.419  0.2354  0.1221  0.5713
 3211SOL    HW121092   1.848   0.553   4.336 -0.9262 -0.5656  0.0054
 3211SOL    HW221093   1.871   0.600   4.473 -0.9146  1.5852  1.1134
 3212SOL     OW21094   4.540   2.268   3.814 -0.1856  0.0416 -0.2644
 3212SOL    HW121095   4.551   2.175   3.797 -0.0775  0.1032 -0.5269
 3212SOL    HW221096   4.499   2.312   3.740  1.5969  0.8838 -0.7699
 3213SOL     OW21097   3.964   0.543  10.984 -0.6922  0.2281  0.4679
 3213SOL    HW121098   3.920   0.498  10.912  0.6120 -1.0428  0.4623
 3213SOL    HW221099   4.023   0.472  11.010 -1.1867 -0.9821 -1.7004
 3214SOL     OW21100   3.621   2.378  11.032  0.1916 -0.0767 -0.1471
 3214SOL    HW121101   3.698   2.432  11.012  0.6140 -1.4200 -2.1836
 3214SOL    HW221102   3.634   2.326  11.112 -2.6561 -0.6661 -0.0847
 3215SOL     OW21103   0.328   4.409   7.397  0.2584  0.1065  0.1939
 3215SOL    HW121104   0.390   4.373   7.462  1.6174 -1.3440 -1.8872
 3215SOL    HW221105   0.302   4.326   7.357 -0.1694  0.0323  0.6228
 3216SOL     OW21106   1.375   0.617   0.928 -0.3164 -0.1554  0.3653
 3216SOL    HW121107   1.286   0.620   0.964 -0.6488 -1.3042 -0.3585
 3216SOL    HW221108   1.405   0.704   0.952 -0.0874 -0.4881  1.2843
 3217SOL     OW21109   2.916   2.738   7.166  0.1007  0.0967  0.2773
 3217SOL    HW121110   2.988   2.717   7.225  0.0020  0.6054  0.5725
 3217SOL    HW221111   2.924   2.833   7.165 -1.0692  0.2016  0.6030
 3218SOL     OW21112   4.413   2.613  14.771 -0.8641 -0.5952 -0.1012
 3218SOL    HW121113   4.356   2.579  14.701 -1.0551 -0.2540 -0.1079
 3218SOL    HW221114   4.462   2.683  14.728 -1.1017 -0.4307 -0.1041
 3219SOL     OW21115   0.443   3.939   5.320  0.2599  0.0490  0.3496
 3219SOL    HW121116   0.480   3.899   5.241 -0.7884 -1.0920  0.4385
 3219SOL    HW221117   0.353   3.938   5.288  0.4650 -2.7278 -0.1391
 3220SOL     OW21118   4.190   1.847   1.337 -0.7449 -0.3169 -0.1756
 3220SOL    HW121119   4.188   1.884   1.248 -2.5836  0.1308  0.0664
 3220SOL    HW221120   4.274   1.801   1.340  0.9311  3.0009  4.1097
 3221SOL     OW21121   4.531   1.280   4.157 -0.0215  0.1715  0.0901
 3221SOL    HW121122   4.548   1.355   4.101 -1.0703  1.7871  1.9493
 3221SOL    HW221123   4.446   1.294   4.199  0.0632 -3.3770  1.4267
 3222SOL     OW21124   2.884   4.319   8.972 -0.2703  0.8056 -0.3550
 3222SOL    HW121125   2.795   4.297   8.945  0.0329 -1.6916  0.7007
 3222SOL    HW221126   2.889   4.286   9.061 -1.2830 -0.1209 -0.6378
 3223SOL     OW21127   4.386   1.664   0.349 -0.3313  0.6037  0.2477
 3223SOL    HW121128   4.337   1.583   0.334  0.0101  0.1184  1.7236
 3223SOL    HW221129   4.314   1.725   0.363 -0.1105  1.0246 -0.4933
 3224SOL     OW21130   0.329   3.031   2.690  0.0683  0.7000 -0.1197
 3224SOL    HW121131   0.390   2.996   2.626 -0.6182  2.2031 -1.5861
 3224SOL    HW221132   0.253   3.049   2.636  0.3719 -2.2376 -1.5414
 3225SOL     OW21133   1.643   0.814   6.400 -0.1291  0.4285  0.5361
 3225SOL    HW121134   1.645   0.855   6.314 -0.9213 -0.8350 -0.0928
 3225SOL    HW221135   1.594   0.734   6.382  0.1619 -0.4176  3.4322
 3226SOL     OW21136   0.022   3.643   9.552  0.0481  0.5240 -0.0018
 3226SOL    HW121137   0.052   3.556   9.578 -3.0275 -0.9557 -1.5080
 3226SOL    HW221138   0.059   3.698   9.621 -1.9086  0.8011  0.8300
 3227SOL     OW21139   0.006   3.990  10.967  0.2380 -0.2843 -0.0064
 3227SOL    HW121140   0.066   4.063  10.949  0.4477 -0.9304 -1.8695
 3227SOL    HW221141   0.059   3.961  11.041 -0.8994  0.2427  1.0205
 3228SOL     OW21142   3.373   0.597  12.649 -0.1176 -0.3284  0.1380
 3228SOL    HW121143   3.397   0.689  12.653 -0.1002 -0.3638  0.8557
 3228SOL    HW221144   3.304   0.595  12.715  0.2919  0.5518  0.5949
 3229SOL     OW21145   1.000   3.159   6.414 -1.1913 -1.0367  0.1954
 3229SOL    HW121146   0.946   3.213   6.472  0.0878  0.3519  0.0650
 3229SOL    HW221147   1.048   3.105   6.476 -0.4279  1.6682  1.9593
 3230SOL     OW21148   2.431   0.543  10.654  0.6801 -0.0454  0.1493
 3230SOL    HW121149   2.364   0.518  10.591  1.0508 -1.8621  0.4868
 3230SOL    HW221150   2.441   0.637  10.634  2.7314 -0.0255  1.1991
 3231SOL     OW21151   2.544   0.745   4.774 -0.0175 -0.0600 -0.5408
 3231SOL    HW121152   2.625   0.795   4.766 -0.4040  0.5333 -0.7146
 3231SOL    HW221153   2.490   0.800   4.832 -0.4791  0.7911 -1.7775
 3232SOL     OW21154   3.054   2.527  14.397 -0.5721 -0.0194 -0.1798
 3232SOL    HW121155   3.097   2.477  14.466 -0.1144 -1.0932 -1.2399
 3232SOL    HW221156   3.124   2.512  14.333  0.0503  1.4396  0.1745
 3233SOL     OW21157   0.665   2.687   7.194  0.1672  0.1517  0.3082
 3233SOL    HW121158   0.594   2.634   7.231 -0.0611 -0.6357 -1.2487
 3233SOL    HW221159   0.619   2.754   7.143 -0.8721  0.5487  1.7592
 3234SOL     OW21160   4.405   2.978   6.006  0.0139  0.6011  0.2734
 3234SOL    HW121161   4.476   2.977   5.942 -0.3378 -0.2994 -0.1081
 3234SOL    HW221162   4.325   2.967   5.954 -0.3464  0.8130  0.7843
 3235SOL     OW21163   1.496   4.354  13.741  0.3386  0.0130 -0.2763
 3235SOL    HW121164   1.466   4.363  13.650  1.8372  0.9342 -0.6789
 3235SOL    HW221165   1.472   4.441  13.772 -0.7275  0.1721 -1.5356
 3236SOL     OW21166   0.964   0.916   5.722 -0.3695 -0.4040  0.0815
 3236SOL    HW121167   0.979   0.963   5.641  2.3098 -0.3461  0.5942
 3236SOL    HW221168   1.035   0.948   5.778 -1.0339  0.1471  0.6102
 3237SOL     OW21169   3.766   1.831   6.387 -0.3264  0.4213 -0.6831
 3237SOL    HW121170   3.681   1.804   6.424  0.9585 -2.3331  0.2331
 3237SOL    HW221171   3.785   1.753   6.335 -0.5678  0.3950 -0.7327
 3238SOL     OW21172   3.229   1.946   7.904 -0.1575  0.3103  0.4307
 3238SOL    HW121173   3.288   1.960   7.830 -0.3156 -2.1285 -0.1279
 3238SOL    HW221174   3.288   1.908   7.969  0.3168  1.5126  0.7241
 3239SOL     OW21175   0.337   3.041   3.927  0.3440  0.0567 -0.0756
 3239SOL    HW121176   0.255   3.089   3.939 -0.4231 -1.9193  2.4365
 3239SOL    HW221177   0.330   2.974   3.995  1.0438 -1.1125 -1.1370
 3240SOL     OW21178   0.666   2.471  11.589 -0.0515 -0.3868 -0.0470
 3240SOL    HW121179   0.578   2.444  11.614  0.8516 -2.2378  1.1012
 3240SOL    HW221180   0.711   2.397  11.630  1.4371  0.7577  0.3522
 3241SOL     OW21181   3.902   1.428   8.096 -0.2825 -0.0221 -0.2652
 3241SOL    HW121182   3.890   1.435   8.191 -0.1738  0.6370 -0.3009
 3241SOL    HW221183   3.957   1.504   8.077 -0.7805 -0.1204 -2.1164
 3242SOL     OW21184   2.005   1.472   0.382 -0.0946 -0.1175  0.2261
 3242SOL    HW121185   1.926   1.449   0.335 -1.2969  0.6943  1.8394
 3242SOL    HW221186   2.068   1.455   0.312  1.7230  1.4338  1.4595
 3243SOL     OW21187   2.976   3.810  11.503 -0.3493  0.1763 -0.4969
 3243SOL    HW121188   2.902   3.758  11.472 -0.5529  0.7687 -1.0076
 3243SOL    HW221189   2.935   3.838  11.585  0.6510  0.6409 -0.1540
 3244SOL     OW21190   3.229   2.189  14.060 -0.5019 -0.3489 -0.1188
 3244SOL    HW121191   3.271   2.109  14.092 -1.7486 -2.3167 -3.3629
 3244SOL    HW221192   3.284   2.258  14.097 -0.3532 -0.2478 -0.5258
 3245SOL     OW21193   2.817   0.766   6.825  0.0722 -0.4429  0.3068
 3245SOL    HW121194   2.774   0.843   6.860 -0.3368 -0.8651  0.7340
 3245SOL    HW221195   2.769   0.741   6.746  0.7798  0.0563 -0.2919
 3246SOL     OW21196   2.956   2.462   4.456 -0.1321 -0.4497 -0.8597
 3246SOL    HW121197   2.939   2.552   4.483 -1.7727 -0.1228 -2.9167
 3246SOL    HW221198   2.876   2.409   4.461  0.0973 -0.6980  0.1095
 3247SOL     OW21199   4.279   3.415   5.520 -0.0176 -0.1817  0.2414
 3247SOL    HW121200   4.232   3.432   5.439  0.0576  0.9846  0.4445
 3247SOL    HW221201   4.252   3.480   5.585  2.4869  2.7625 -1.6513
 3248SOL     OW21202   4.008   3.102   7.043 -0.3373  0.1289  0.0156
 3248SOL    HW121203   3.959   3.060   6.972 -0.8349  0.7110  0.0175
 3248SOL    HW221204   4.043   3.176   6.994  0.8436 -0.9799 -0.8124
 3249SOL     OW21205   3.688   1.756   5.237  0.1363 -0.2868  0.2879
 3249SOL    HW121206   3.716   1.666   5.220 -0.4438 -0.5646  0.8404
 3249SOL    HW221207   3.739   1.776   5.315  0.1957 -0.1875  0.2247
 3250SOL     OW21208   3.286   3.760   7.592  0.4332 -0.2304 -0.2587
 3250SOL    HW121209   3.318   3.795   7.675  0.1215  0.1729 -0.3101
 3250SOL    HW221210   3.232   3.686   7.619 -0.6341  0.5692 -0.1988
 3251SOL     OW21211   1.740   3.224   0.778  0.0022  0.9227 -0.1998
 3251SOL    HW121212   1.663   3.199   0.830  0.2701  2.0600  0.7604
 3251SOL    HW221213   1.715   3.293   0.716  1.8092  2.2644  0.5555
 3252SOL     OW21214   3.428   1.000   9.970 -0.4953  0.1659  0.2199
 3252SOL    HW121215   3.372   0.971  10.043 -1.7310 -0.9546 -1.1683
 3252SOL    HW221216   3.377   0.961   9.899 -1.8281  2.2231  0.0434
 3253SOL     OW21217   3.751   0.596   0.577 -0.1776  0.3376  0.2128
 3253SOL    HW121218   3.791   0.566   0.658 -1.0905  1.6701  1.1782
 3253SOL    HW221219   3.810   0.551   0.517 -2.2246  0.4347 -1.8813
 3254SOL     OW21220   3.331   0.918   3.110  0.6061  0.1126  0.1000
 3254SOL    HW121221   3.238   0.910   3.133  0.2550 -0.2522 -1.4379
 3254SOL    HW221222   3.326   0.945   3.019 -0.1591  0.5357  0.2735
 3255SOL     OW21223   3.724   0.145   9.210  0.3447 -0.3567  0.6153
 3255SOL    HW121224   3.767   0.227   9.188 -0.3787  0.0738  0.8099
 3255SOL    HW221225   3.798   0.084   9.211  0.3896 -0.2948  1.1818
 3256SOL     OW21226   3.390   2.722   6.308  0.0928  0.0610  0.2341
 3256SOL    HW121227   3.296   2.740   6.316  0.5169  1.8990  1.1375
 3256SOL    HW221228   3.412   2.736   6.216  0.1814 -0.6272  0.1493
 3257SOL     OW21229   1.737   2.486  16.644  0.0146  0.1271  0.2002
 3257SOL    HW121230   1.762   2.397  16.620 -0.1196 -0.0042  0.5411
 3257SOL    HW221231   1.668   2.494  16.579  0.5784 -1.0612 -0.5369
 3258SOL     OW21232   1.629   2.401   7.894  0.1914  0.1918  0.3527
 3258SOL    HW121233   1.588   2.485   7.913 -0.5925 -0.3865  1.2095
 3258SOL    HW221234   1.707   2.421   7.842 -0.6313 -0.3087 -1.0422
 3259SOL     OW21235   0.750   3.665  10.580  0.1920 -0.3564 -0.0946
 3259SOL    HW121236   0.692   3.594  10.554  0.0971  0.0326 -0.9733
 3259SOL    HW221237   0.796   3.619  10.650  0.8444 -1.5560 -1.3302
 3260SOL     OW21238   3.073   0.248   2.532 -0.0083 -0.3608  0.0643
 3260SOL    HW121239   3.163   0.280   2.522 -0.6515  1.6096  0.5514
 3260SOL    HW221240   3.065   0.259   2.627  0.0403 -2.4194  0.3124
 3261SOL     OW21241   3.670   2.297   4.374 -0.2121  0.0695 -0.1687
 3261SOL    HW121242   3.580   2.302   4.407  0.6069 -1.2706  2.2433
 3261SOL    HW221243   3.699   2.389   4.375  0.2813 -0.1182  1.4082
 3262SOL     OW21244   0.252   4.447   8.151  0.1647 -0.4837  0.4263
 3262SOL    HW121245   0.283   4.495   8.074  1.5698  2.5206  2.8576
 3262SOL    HW221246   0.203   4.372   8.116 -1.7628  0.6154  0.7835
 3263SOL     OW21247   0.257   1.733   5.754 -0.3611 -0.1163  0.1669
 3263SOL    HW121248   0.308   1.696   5.826 -1.7717  0.3314  1.4090
 3263SOL    HW221249   0.201   1.807   5.780 -0.3353 -0.1992  0.4574
 3264SOL     OW21250   3.104   1.202   1.580 -0.0511  0.2984  0.5622
 3264SOL    HW121251   3.138   1.115   1.563  0.2736  0.8957 -1.7965
 3264SOL    HW221252   3.012   1.206   1.605 -0.7435  1.4289 -2.2167
 3265SOL     OW21253   2.385   3.451   6.130  0.1869  0.6554  0.7860
 3265SOL    HW121254   2.417   3.361   6.133 -2.2423 -0.3008 -1.1462
 3265SOL    HW221255   2.291   3.433   6.129  0.4766 -0.8301  1.0518
 3266SOL     OW21256   4.397   2.258   1.712 -0.5477  0.5969 -0.0066
 3266SOL    HW121257   4.345   2.247   1.632  0.3323 -1.4674 -0.3200
 3266SOL    HW221258   4.425   2.347   1.692  0.8800  0.3112  0.6880
 3267SOL     OW21259   1.279   1.042   4.814 -0.1757  0.4445  0.0163
 3267SOL    HW121260   1.196   0.996   4.830  1.3805 -2.9570 -1.9777
 3267SOL    HW221261   1.255   1.133   4.834 -0.9936  0.1787  0.2747
 3268SOL     OW21262   1.694   1.839   6.524 -0.2767 -0.4556 -0.0497
 3268SOL    HW121263   1.641   1.769   6.484 -0.6199  1.2823 -2.5815
 3268SOL    HW221264   1.710   1.894   6.447 -0.2504 -0.4749 -0.0580
 3269SOL     OW21265   0.644   3.172   3.421 -0.1702  0.0649  0.3732
 3269SOL    HW121266   0.598   3.185   3.504 -2.7667 -1.8529 -0.7462
 3269SOL    HW221267   0.733   3.179   3.454 -0.7811  0.2190  1.9920
 3270SOL     OW21268   4.429   1.144   6.745  0.3936  0.4969 -0.2302
 3270SOL    HW121269   4.377   1.218   6.712  1.0662  1.3105  0.5438
 3270SOL    HW221270   4.378   1.071   6.709 -0.3885  0.7340  0.3821
 3271SOL     OW21271   0.521   4.400   3.988  0.0658  0.2206 -0.0607
 3271SOL    HW121272   0.477   4.421   3.906  0.5078 -1.6426 -0.7879
 3271SOL    HW221273   0.530   4.305   3.995 -0.0522  0.2981  1.1449
 3272SOL     OW21274   1.205   1.194  11.796 -0.3076  0.1011 -0.3696
 3272SOL    HW121275   1.148   1.209  11.871 -0.2877 -2.8634  0.2453
 3272SOL    HW221276   1.246   1.113  11.827 -2.1388 -0.3759  0.8052
 3273SOL     OW21277   1.698   0.658  16.812  0.5679  0.2280 -0.2929
 3273SOL    HW121278   1.644   0.593  16.856  0.5760 -2.0924 -3.7477
 3273SOL    HW221279   1.640   0.682  16.739  2.2347 -0.0972 -1.7145
 3274SOL     OW21280   0.302   2.348  13.565 -0.2888  0.4269  0.7615
 3274SOL    HW121281   0.259   2.271  13.527  2.9841  0.2693 -2.6060
 3274SOL    HW221282   0.263   2.363  13.651  1.1790 -1.8970  1.8322
 3275SOL     OW21283   3.009   2.034  13.084  0.5922  0.2139 -0.3186
 3275SOL    HW121284   3.013   2.020  13.178 -2.3456 -1.2579 -0.4306
 3275SOL    HW221285   2.980   1.946  13.062  1.3607 -0.1140 -0.0024
 3276SOL     OW21286   2.821   1.456   4.567  0.3671 -0.0703 -0.3058
 3276SOL    HW121287   2.913   1.476   4.548  0.9204 -0.5600  1.8093
 3276SOL    HW221288   2.824   1.371   4.611 -0.9262 -0.6975 -1.4343
 3277SOL     OW21289   2.736   3.508  11.971 -0.3647  0.0489 -0.9372
 3277SOL    HW121290   2.697   3.539  11.890 -0.2718  1.5371 -0.4031
 3277SOL    HW221291   2.699   3.420  11.979 -2.3934  0.8883 -1.1642
 3278SOL     OW21292   1.219   0.527  12.932 -0.4142 -0.2032  0.3591
 3278SOL    HW121293   1.195   0.434  12.936  0.1812 -0.3172  1.1570
 3278SOL    HW221294   1.235   0.541  12.839  1.8346  0.8122  0.9095
 3279SOL     OW21295   1.175   4.247   5.325 -0.3520 -0.1580 -0.6481
 3279SOL    HW121296   1.209   4.265   5.413  1.0840 -0.5586 -1.1132
 3279SOL    HW221297   1.199   4.331   5.286 -1.2813 -0.0059 -0.8764
 3280SOL     OW21298   1.137   3.473   3.534 -0.0535  0.2500  0.6057
 3280SOL    HW121299   1.154   3.510   3.621  1.0626  0.6640  0.2027
 3280SOL    HW221300   1.042   3.485   3.538 -0.1845 -0.3731 -0.7562
 3281SOL     OW21301   2.514   2.722   4.777 -0.4279 -0.0493 -0.0676
 3281SOL    HW121302   2.503   2.726   4.872 -0.7287 -0.6709 -0.0756
 3281SOL    HW221303   2.502   2.816   4.764 -2.1663 -0.1269  1.0393
 3282SOL     OW21304   2.153   2.124   4.557  0.2345  0.1329 -0.0263
 3282SOL    HW121305   2.184   2.049   4.607  1.3984  0.1292 -0.7398
 3282SOL    HW221306   2.222   2.125   4.490  2.0261  1.0334  1.8221
 3283SOL     OW21307   0.685   1.940   4.409 -0.0080  0.1536 -0.3649
 3283SOL    HW121308   0.679   1.898   4.323  2.7928 -1.1789  0.0911
 3283SOL    HW221309   0.686   2.032   4.383  0.0311  1.2972  3.7745
 3284SOL     OW21310   2.149   0.433   9.542 -0.3426 -0.2645 -0.7196
 3284SOL    HW121311   2.063   0.411   9.505 -0.6367 -1.9348  0.9554
 3284SOL    HW221312   2.140   0.389   9.626  0.6445 -1.9300 -1.4703
 3285SOL     OW21313   3.627   3.276   5.297 -0.3127  0.2846 -0.2033
 3285SOL    HW121314   3.550   3.304   5.347  0.3661  0.2182  0.8700
 3285SOL    HW221315   3.685   3.253   5.370 -0.5637  0.2711 -0.0105
 3286SOL     OW21316   2.239   1.211   6.919 -0.8215  0.4997 -0.2707
 3286SOL    HW121317   2.193   1.287   6.953  0.7423  0.9580  0.8555
 3286SOL    HW221318   2.196   1.139   6.965  1.6071  0.6641  2.3021
 3287SOL     OW21319   1.853   0.150  11.048 -0.1644  0.0264  0.3093
 3287SOL    HW121320   1.931   0.114  11.005  1.2525  1.1086  1.9921
 3287SOL    HW221321   1.886   0.221  11.103 -1.3108  0.5131  0.3512
 3288SOL     OW21322   4.296   4.052   3.896 -0.6382  0.3789 -0.0187
 3288SOL    HW121323   4.216   4.003   3.876  0.4114 -0.9839 -0.9081
 3288SOL    HW221324   4.321   4.079   3.808  0.1616 -1.2385 -0.2956
 3289SOL     OW21325   1.819   4.198  13.123  0.0288  0.6758 -0.4836
 3289SOL    HW121326   1.895   4.156  13.163  0.2083  2.1967  0.7792
 3289SOL    HW221327   1.798   4.138  13.052  0.4302 -0.8839  0.7149
 3290SOL     OW21328   4.452   3.657   5.280  0.0886  0.3199 -0.1952
 3290SOL    HW121329   4.456   3.671   5.375 -0.5832  2.2517 -0.4553
 3290SOL    HW221330   4.404   3.574   5.284  1.5223 -0.3946  2.3303
 3291SOL     OW21331   1.199   1.288   1.950 -0.0990  0.2454 -0.4641
 3291SOL    HW121332   1.258   1.276   1.876  0.3929 -0.6036  0.0571
 3291SOL    HW221333   1.232   1.225   2.015  2.1356  1.3979 -0.4704
 3292SOL     OW21334   4.635   1.115   8.155  0.4170  0.4076 -0.3156
 3292SOL    HW121335   4.654   1.174   8.228 -1.7205 -0.0107  0.5721
 3292SOL    HW221336   4.540   1.121   8.142 -0.0177 -2.6992  1.4892
 3293SOL     OW21337   4.124   1.102  15.022  0.4468  1.0063  0.4500
 3293SOL    HW121338   4.043   1.072  15.065 -0.3464 -1.1211 -2.5571
 3293SOL    HW221339   4.128   1.059  14.937 -0.8382  0.9812  0.3916
 3294SOL     OW21340   0.795   4.531   4.227 -0.6142  0.4770  0.0097
 3294SOL    HW121341   0.741   4.601   4.262 -2.6402 -1.6167  1.1263
 3294SOL    HW221342   0.761   4.539   4.138  1.3122  0.4784 -0.7218
 3295SOL     OW21343   0.094   2.888   5.731 -0.2772 -0.0977  0.0976
 3295SOL    HW121344   0.153   2.909   5.658  0.6927  0.3753  1.0121
 3295SOL    HW221345   0.049   2.972   5.741  1.7109  0.9182  0.5283
 3296SOL     OW21346   3.277   3.000   3.826 -0.4701 -0.1766 -0.2969
 3296SOL    HW121347   3.349   2.937   3.823 -0.8826 -0.7618  2.2885
 3296SOL    HW221348   3.220   2.939   3.873  1.2321 -0.9875  0.7102
 3297SOL     OW21349   2.406   1.552   8.439  0.0595 -0.6935 -0.2038
 3297SOL    HW121350   2.362   1.619   8.387 -1.4361 -1.0709  0.5675
 3297SOL    HW221351   2.483   1.594   8.476 -1.2554 -0.8813  2.7905
 3298SOL     OW21352   1.769   4.242  13.553 -0.5052 -0.2098 -0.5465
 3298SOL    HW121353   1.840   4.250  13.490  1.5743 -2.6861  1.4596
 3298SOL    HW221354   1.744   4.152  13.533 -0.2773 -0.1883 -0.9143
 3299SOL     OW21355   3.906   1.686   5.868 -0.1436  0.5498  0.2714
 3299SOL    HW121356   3.871   1.773   5.848  2.9372  1.9381  0.8719
 3299SOL    HW221357   3.920   1.639   5.786 -0.9105  0.1186  0.3841
 3300SOL     OW21358   0.421   4.665   7.453 -0.2264  0.4442 -0.0395
 3300SOL    HW121359   0.374   4.674   7.536 -0.7401 -2.3656 -0.0305
 3300SOL    HW221360   0.369   4.597   7.409  1.5904 -1.5133  0.8299
 3301SOL     OW21361   3.962   2.136   5.954 -0.7616 -0.1039 -0.2220
 3301SOL    HW121362   3.958   2.063   6.016 -0.1542 -1.4479 -1.7590
 3301SOL    HW221363   4.047   2.178   5.966  0.5161 -2.4446 -1.1875
 3302SOL     OW21364   3.024   4.094   7.530  0.6114  0.3440  0.4789
 3302SOL    HW121365   2.941   4.076   7.486  0.8574  3.6867 -1.3858
 3302SOL    HW221366   3.010   4.173   7.582 -2.1101  0.8325 -1.0541
 3303SOL     OW21367   3.837   2.665   6.305 -0.2898 -0.5198  0.6669
 3303SOL    HW121368   3.762   2.722   6.321  0.1282  0.3268 -0.4004
 3303SOL    HW221369   3.814   2.583   6.349  2.1938 -0.8210  1.4013
 3304SOL     OW21370   1.090   2.208   7.065 -0.8827  0.0656 -0.1985
 3304SOL    HW121371   1.051   2.294   7.049  0.8920  1.1066  1.1093
 3304SOL    HW221372   1.157   2.237   7.127 -0.1679 -3.3602  0.5879
 3305SOL     OW21373   1.103   2.842   3.839  0.0811  0.3908  0.2770
 3305SOL    HW121374   1.143   2.859   3.754 -0.4231  0.1038 -0.0134
 3305SOL    HW221375   1.043   2.916   3.844 -0.3001  0.1625 -0.9983
 3306SOL     OW21376   2.738   0.049   4.941 -0.2495  0.0105  0.1634
 3306SOL    HW121377   2.720   4.679   4.924  2.2236 -0.0296 -2.1225
 3306SOL    HW221378   2.769   0.047   5.031  0.0386  0.0180  0.0647
 3307SOL     OW21379   0.388   0.507   3.259  0.7326  0.1122 -0.1091
 3307SOL    HW121380   0.481   0.519   3.278  1.5003 -3.0249 -2.0082
 3307SOL    HW221381   0.347   0.592   3.276  0.5904  0.2969 -1.3822
 3308SOL     OW21382   0.584   4.183  12.886  0.6433 -0.1044  0.2223
 3308SOL    HW121383   0.570   4.089  12.879 -1.0584  0.1959 -0.5222
 3308SOL    HW221384   0.674   4.188  12.854  0.2497  2.4245 -0.5326
 3309SOL     OW21385   0.151   0.326   2.159  0.4349  0.4803 -0.0036
 3309SOL    HW121386   0.115   0.409   2.126 -0.2341 -0.5530 -1.8566
 3309SOL    HW221387   0.074   0.279   2.192  0.8603  0.2660  0.6871
 3310SOL     OW21388   0.648   3.737   7.678 -0.0582 -0.4549  0.3188
 3310SOL    HW121389   0.587   3.728   7.605  1.3152  2.2956 -1.1222
 3310SOL    HW221390   0.631   3.662   7.737  0.9476 -1.1499 -0.2892
 3311SOL     OW21391   0.299   0.056  10.325  0.1445  0.1947 -0.2173
 3311SOL    HW121392   0.259   4.719  10.261 -1.7133 -1.7593  2.7739
 3311SOL    HW221393   0.392   0.067  10.304  0.7355 -0.3153  2.0995
 3312SOL     OW21394   3.803   0.782   8.524  0.2420  0.6401 -0.0699
 3312SOL    HW121395   3.812   0.862   8.471 -0.3269  0.3564 -0.5848
 3312SOL    HW221396   3.873   0.792   8.589  1.1874  1.2759 -1.1912
 3313SOL     OW21397   2.379   1.144   6.515  0.3959 -0.0121 -0.0438
 3313SOL    HW121398   2.330   1.222   6.541  0.0415  0.0626 -0.9665
 3313SOL    HW221399   2.414   1.122   6.601  2.4264  0.3779 -0.7525
 3314SOL     OW21400   2.759   0.536   3.961 -0.7936 -0.2740 -0.5696
 3314SOL    HW121401   2.678   0.486   3.961 -1.8859  1.4983 -0.7093
 3314SOL    HW221402   2.729   0.615   3.916  0.0838  0.4284  0.0972
 3315SOL     OW21403   1.252   3.010   6.287 -0.0620 -0.0990  0.3351
 3315SOL    HW121404   1.228   2.931   6.238 -0.4471  0.6812 -0.7306
 3315SOL    HW221405   1.241   2.979   6.377 -0.5845  2.3943  1.1336
 3316SOL     OW21406   3.553   3.256   6.667 -0.2506 -0.0969 -0.0158
 3316SOL    HW121407   3.497   3.180   6.646 -1.5950  1.0134 -0.4575
 3316SOL    HW221408   3.581   3.225   6.753  0.7788  1.5686  0.2301
 3317SOL     OW21409   0.412   4.204   4.408 -0.3863  0.5105 -0.1043
 3317SOL    HW121410   0.451   4.290   4.391 -0.2440  0.1086 -1.7985
 3317SOL    HW221411   0.433   4.208   4.501 -0.4691  0.2031 -0.0725
 3318SOL     OW21412   1.441   2.467   2.631 -0.0407  0.1627 -0.6985
 3318SOL    HW121413   1.350   2.450   2.657  0.1367  0.1269 -0.0937
 3318SOL    HW221414   1.485   2.511   2.704 -1.4733  2.2432 -1.0950
 3319SOL     OW21415   4.407   2.511   0.275 -0.0692 -0.5641  0.1127
 3319SOL    HW121416   4.430   2.529   0.366  3.0782 -0.9804 -0.5682
 3319SOL    HW221417   4.495   2.478   0.253 -0.7192 -2.1554 -0.0781
 3320SOL     OW21418   1.162   3.898  16.656 -0.4590 -0.3592 -0.7256
 3320SOL    HW121419   1.071   3.874  16.673 -0.3373 -0.4812 -0.2307
 3320SOL    HW221420   1.167   3.866  16.566 -0.6435  0.1067 -0.9030
 3321SOL     OW21421   3.290   2.224  14.742 -0.0515  0.0819  0.3949
 3321SOL    HW121422   3.371   2.176  14.757 -1.7895 -1.9620  3.2236
 3321SOL    HW221423   3.273   2.174  14.662 -2.8957  0.3745  0.8103
 3322SOL     OW21424   3.854   1.662   6.141 -1.0927 -0.3319  0.3673
 3322SOL    HW121425   3.846   1.567   6.154  3.3000 -0.1773  4.2040
 3322SOL    HW221426   3.848   1.654   6.046 -1.1396  1.7203  0.2115
 3323SOL     OW21427   3.583   1.263  11.355  0.4687 -0.2750  0.2303
 3323SOL    HW121428   3.531   1.332  11.395 -0.1916 -0.3954 -0.4198
 3323SOL    HW221429   3.554   1.176  11.381 -1.0989  0.8655  2.2698
 3324SOL     OW21430   0.787   4.373   4.447  0.1514 -0.0724  0.6691
 3324SOL    HW121431   0.767   4.289   4.404 -2.0388 -0.0289  1.6075
 3324SOL    HW221432   0.771   4.422   4.367  0.5217 -1.3821 -0.2019
 3325SOL     OW21433   1.002   1.011   0.758  0.3152 -0.8398 -0.2820
 3325SOL    HW121434   1.055   1.030   0.835  0.3931 -2.1268 -0.0296
 3325SOL    HW221435   1.038   0.924   0.743  1.3431 -0.7421  1.5636
 3326SOL     OW21436   2.700   1.522  10.069 -0.8424  0.2898  0.2671
 3326SOL    HW121437   2.768   1.534  10.003  0.9379  1.4795  2.3288
 3326SOL    HW221438   2.639   1.591  10.044  0.3895  0.7271 -1.6027
 3327SOL     OW21439   2.603   1.423  14.783  0.3525 -0.2495  0.4615
 3327SOL    HW121440   2.593   1.432  14.877 -0.7889 -2.1263  0.5286
 3327SOL    HW221441   2.532   1.477  14.747  0.2645 -1.6233 -1.4545
 3328SOL     OW21442   0.117   2.406   4.693 -0.1816  0.3302 -0.5257
 3328SOL    HW121443   0.130   2.428   4.785 -1.3181 -0.1715 -0.2419
 3328SOL    HW221444   0.021   2.398   4.688 -0.1677 -0.4799  0.6188
 3329SOL     OW21445   1.113   2.530   0.051 -0.2930 -0.3226 -0.0008
 3329SOL    HW121446   1.101   2.573  17.659  0.8415  1.2461  0.6330
 3329SOL    HW221447   1.196   2.570   0.076  0.0959 -1.5825  0.7099
 3330SOL     OW21448   3.594   1.696  13.655 -0.2964 -0.5778  0.6062
 3330SOL    HW121449   3.515   1.721  13.702 -0.6645  0.1393 -0.4071
 3330SOL    HW221450   3.585   1.725  13.564  0.9395  0.2585  0.7483
 3331SOL     OW21451   0.025   2.627   7.982  0.2576  0.6028  0.1059
 3331SOL    HW121452   4.696   2.622   7.901  1.0684 -0.6337 -0.3334
 3331SOL    HW221453   4.709   2.556   8.034  1.3860 -0.6468 -0.7745
 3332SOL     OW21454   2.593   3.729   5.315  0.0609 -0.8101 -0.1634
 3332SOL    HW121455   2.665   3.777   5.355  0.0121  0.1924 -1.2931
 3332SOL    HW221456   2.526   3.733   5.383 -1.4486  0.7672 -1.7558
 3333SOL     OW21457   4.440   3.664   9.070  0.3353  0.1543  0.2938
 3333SOL    HW121458   4.505   3.701   9.129  1.3608 -0.5111 -0.4287
 3333SOL    HW221459   4.432   3.576   9.109  0.6417  0.2464  0.5556
 3334SOL     OW21460   2.368   4.639  16.423 -0.7606 -0.2065  0.3479
 3334SOL    HW121461   2.405   0.003  16.406 -1.4038  0.3997  2.0117
 3334SOL    HW221462   2.278   4.658  16.447 -0.8119  0.6993 -0.5591
 3335SOL     OW21463   0.061   4.640   5.400 -0.4223  0.2694 -0.3295
 3335SOL    HW121464   0.025   0.006   5.401 -0.0566  0.4190 -0.2077
 3335SOL    HW221465   0.123   4.648   5.473 -2.7934 -1.5521  1.8804
 3336SOL     OW21466   2.294   3.339   4.791 -0.7309 -0.1337  0.1147
 3336SOL    HW121467   2.288   3.431   4.816 -0.5799  0.2295 -1.1783
 3336SOL    HW221468   2.208   3.334   4.750 -0.2058 -1.2194 -0.8528
 3337SOL     OW21469   0.212   4.594   4.858  0.5587 -0.0773 -0.2495
 3337SOL    HW121470   0.121   4.567   4.857  0.2340  0.9956  1.4315
 3337SOL    HW221471   0.208   4.689   4.871  0.6000  0.2158 -2.3828
 3338SOL     OW21472   2.339   2.842   2.743 -0.1210 -0.5639  0.3405
 3338SOL    HW121473   2.357   2.791   2.821 -1.1265 -4.1447 -1.7846
 3338SOL    HW221474   2.372   2.781   2.677  0.0188 -1.0270  0.8400
 3339SOL     OW21475   1.258   0.246  12.920  0.5034  0.1273 -0.2822
 3339SOL    HW121476   1.239   0.251  13.014  1.3785  0.6122 -0.1360
 3339SOL    HW221477   1.353   0.243  12.923  0.4626 -0.3464  0.4048
 3340SOL     OW21478   1.605   0.179   7.751  0.1056 -0.1991  0.0432
 3340SOL    HW121479   1.677   0.228   7.790  2.2767 -2.5514 -1.0019
 3340SOL    HW221480   1.636   0.163   7.662  1.3305 -0.1738  0.4658
 3341SOL     OW21481   3.140   2.296  12.181  0.4149 -1.3550 -0.0187
 3341SOL    HW121482   3.109   2.378  12.141 -2.6148 -0.7363  3.5312
 3341SOL    HW221483   3.183   2.247  12.111  0.6617  0.3508 -1.0656
 3342SOL     OW21484   2.109   2.770   3.454  0.2653 -0.1482 -0.2198
 3342SOL    HW121485   2.139   2.853   3.492 -1.8296  0.4554  0.1179
 3342SOL    HW221486   2.156   2.710   3.511  0.4720  1.9022  1.8000
 3343SOL     OW21487   1.335   3.138   2.490  0.2747 -0.0604  0.3952
 3343SOL    HW121488   1.401   3.130   2.421 -1.0882  1.3286 -1.0425
 3343SOL    HW221489   1.397   3.158   2.561 -0.2965 -4.5710  2.1558
 3344SOL     OW21490   2.982   0.955   6.331  0.5862  0.4535 -0.3946
 3344SOL    HW121491   3.073   0.979   6.350  1.4666 -0.7168 -3.1339
 3344SOL    HW221492   2.935   0.955   6.414  0.2722  0.9925 -0.5719
 3345SOL     OW21493   2.869   1.148   3.361  0.1581 -0.0338  0.2889
 3345SOL    HW121494   2.873   1.113   3.450  0.6850 -0.9971 -0.1126
 3345SOL    HW221495   2.924   1.226   3.372 -0.1220  0.6162 -3.1239
 3346SOL     OW21496   1.086   1.191   3.535  0.2487 -0.8346  0.3506
 3346SOL    HW121497   1.037   1.271   3.554 -0.0463 -0.9266 -0.0089
 3346SOL    HW221498   1.160   1.212   3.592  0.3082  0.3951 -0.1856
 3347SOL     OW21499   0.233   1.144   1.906 -0.8827 -0.2036  0.5570
 3347SOL    HW121500   0.266   1.066   1.862  2.2135 -0.0998  2.6171
 3347SOL    HW221501   0.251   1.212   1.841  0.5975  1.5501  2.7708
 3348SOL     OW21502   4.663   3.834   6.109  0.0141 -0.4205  0.6740
 3348SOL    HW121503   0.010   3.805   6.051 -2.0098 -0.7270 -1.6327
 3348SOL    HW221504   4.660   3.926   6.084 -1.5948 -0.2970  1.3026
 3349SOL     OW21505   1.668   4.545  16.391 -0.5402 -0.3839  0.4524
 3349SOL    HW121506   1.675   4.457  16.355  2.0167 -0.4233  1.0183
 3349SOL    HW221507   1.762   4.560  16.404 -0.4285  0.3634 -1.2187
 3350SOL     OW21508   3.590   1.498   9.337  0.3995 -0.2043 -0.1341
 3350SOL    HW121509   3.565   1.578   9.384 -0.7240  0.2827 -1.5432
 3350SOL    HW221510   3.668   1.473   9.386  1.6299  2.8493 -0.5400
 3351SOL     OW21511   1.741   1.451   3.260 -0.6491  0.0319 -0.1315
 3351SOL    HW121512   1.760   1.541   3.284 -0.4216  0.1619 -0.7916
 3351SOL    HW221513   1.665   1.459   3.203 -0.8535 -0.8659  0.0075
 3352SOL     OW21514   2.865   3.667   6.644  0.6964 -0.6811  0.0640
 3352SOL    HW121515   2.785   3.662   6.696  1.9296  1.4197  2.1381
 3352SOL    HW221516   2.841   3.617   6.566  1.0561  0.8571 -1.0281
 3353SOL     OW21517   0.406   2.846   7.879  0.3334  0.3419 -0.5361
 3353SOL    HW121518   0.376   2.805   7.797 -1.8390 -0.2184  0.5548
 3353SOL    HW221519   0.487   2.885   7.846 -0.4060  1.6092 -0.8473
 3354SOL     OW21520   4.052   1.756   3.275 -0.7229 -0.0676  0.5854
 3354SOL    HW121521   4.091   1.842   3.290  1.3267 -0.2846 -3.4194
 3354SOL    HW221522   4.000   1.734   3.352 -1.5965 -0.6895 -0.1814
 3355SOL     OW21523   1.331   3.486   6.225 -0.1304  0.5215  0.9205
 3355SOL    HW121524   1.366   3.560   6.176 -2.0716 -0.1793 -1.5608
 3355SOL    HW221525   1.406   3.459   6.277 -0.0462  2.3350  1.7182
 3356SOL     OW21526   2.688   0.769   3.846  0.3202 -0.1586 -0.1011
 3356SOL    HW121527   2.648   0.855   3.855  0.0092 -0.0929 -2.2812
 3356SOL    HW221528   2.692   0.747   3.753 -0.7613  3.9417 -1.1044
 3357SOL     OW21529   3.137   4.381  11.769 -0.8764 -0.2055  0.0445
 3357SOL    HW121530   3.057   4.331  11.754 -0.1435 -0.5478 -2.6907
 3357SOL    HW221531   3.204   4.329  11.725  1.1019  2.5884 -0.3029
 3358SOL     OW21532   4.090   2.560   8.412  0.0466  0.2211 -0.2151
 3358SOL    HW121533   4.145   2.485   8.389  0.2274  0.1607  0.4287
 3358SOL    HW221534   4.004   2.519   8.424  1.2471 -1.6116  1.9557
 3359SOL     OW21535   2.560   3.431   7.594 -0.4215 -0.2785  0.5027
 3359SOL    HW121536   2.501   3.443   7.669 -0.1485  0.9990  0.5009
 3359SOL    HW221537   2.522   3.502   7.542  0.8239 -0.3696 -0.5185
 3360SOL     OW21538   3.318   1.999   7.458 -0.2783 -0.0345  0.5971
 3360SOL    HW121539   3.339   1.983   7.366  0.2358  2.1657  0.3501
 3360SOL    HW221540   3.242   2.056   7.444 -0.3448 -0.7038 -1.7798
 3361SOL     OW21541   2.160   2.416   6.285  0.1943  0.5154  0.3940
 3361SOL    HW121542   2.067   2.397   6.282  0.6599 -1.5727 -1.2011
 3361SOL    HW221543   2.172   2.406   6.379  1.0288 -2.8646 -0.0606
 3362SOL     OW21544   4.073   0.958   0.926 -0.9163 -0.1359  0.2967
 3362SOL    HW121545   4.162   0.947   0.891 -1.4903 -1.6336 -0.6985
 3362SOL    HW221546   4.045   0.867   0.934 -0.9928  0.0058  1.5564
 3363SOL     OW21547   1.786   0.496   6.221 -0.4487  0.2837  0.1495
 3363SOL    HW121548   1.803   0.407   6.187  1.1355  0.3957  0.6412
 3363SOL    HW221549   1.867   0.542   6.200 -0.1519 -0.7089 -0.8599
 3364SOL     OW21550   3.845   0.370   9.131 -0.2430  0.3478  0.6949
 3364SOL    HW121551   3.879   0.385   9.219 -1.9497  0.4125  1.3310
 3364SOL    HW221552   3.919   0.382   9.071 -0.6531 -0.7896 -0.0503
 3365SOL     OW21553   0.842   2.732   4.349 -0.1853  0.3644 -0.1585
 3365SOL    HW121554   0.891   2.781   4.415 -0.6138  0.6441 -0.0480
 3365SOL    HW221555   0.829   2.650   4.397  0.9517 -0.2832 -0.9392
 3366SOL     OW21556   0.189   1.636   5.510 -0.1167 -0.5499  0.5726
 3366SOL    HW121557   0.218   1.663   5.597  1.1770 -1.0991  0.3001
 3366SOL    HW221558   0.108   1.684   5.493  0.9567  0.7688 -0.8234
 3367SOL     OW21559   3.391   2.956  15.290  0.6047  0.1504  0.7344
 3367SOL    HW121560   3.422   3.002  15.368  2.0199  0.8234 -0.2322
 3367SOL    HW221561   3.379   2.868  15.327 -0.1676  0.6601  1.7191
 3368SOL     OW21562   1.954   0.358  16.663  0.1671  0.0621  0.1792
 3368SOL    HW121563   1.983   0.270  16.637  0.8065  0.3345 -0.0466
 3368SOL    HW221564   1.862   0.344  16.640  0.4993 -0.2303 -0.9852
 3369SOL     OW21565   2.397   3.830  10.786 -0.1960  0.2279 -0.1648
 3369SOL    HW121566   2.360   3.831  10.698 -2.0385  1.4502  0.6205
 3369SOL    HW221567   2.422   3.738  10.777 -0.1385  0.3973 -1.6964
 3370SOL     OW21568   2.124   0.833   3.577 -0.5893 -0.0285 -0.2433
 3370SOL    HW121569   2.153   0.777   3.505 -3.0848  0.2995 -1.5017
 3370SOL    HW221570   2.083   0.759   3.623 -0.7759 -1.6059 -2.9441
 3371SOL     OW21571   3.712   4.493   7.108  0.4026 -0.1300  0.4170
 3371SOL    HW121572   3.744   4.483   7.197 -2.2840  0.6119  1.4760
 3371SOL    HW221573   3.777   4.556   7.078 -0.7801 -0.2487 -2.3720
 3372SOL     OW21574   1.816   4.397   7.762  0.2598  0.6342 -0.4654
 3372SOL    HW121575   1.806   4.378   7.669 -0.9125 -3.5427  0.5030
 3372SOL    HW221576   1.734   4.439   7.789 -0.3542 -0.4125 -0.6628
 3373SOL     OW21577   3.521   1.511   7.362  0.0003  0.5067 -0.1672
 3373SOL    HW121578   3.494   1.510   7.453 -0.9296 -1.4229 -0.4627
 3373SOL    HW221579   3.438   1.542   7.327  1.7382  2.8447 -2.2835
 3374SOL     OW21580   0.191   2.157  13.404  0.4795 -0.6243  0.0150
 3374SOL    HW121581   0.270   2.128  13.358  0.3183  0.9638 -1.2561
 3374SOL    HW221582   0.146   2.213  13.341 -0.4196 -1.3817 -0.0268
 3375SOL     OW21583   2.407   4.410  17.431  0.1165  0.0068  0.1264
 3375SOL    HW121584   2.402   4.496  17.472  3.2363  1.4038 -2.3834
 3375SOL    HW221585   2.466   4.365  17.491 -0.5876  0.3934  1.1113
 3376SOL     OW21586   1.401   1.694   7.180  0.3227  0.1584  0.1836
 3376SOL    HW121587   1.369   1.610   7.146  4.3248 -1.9435  1.5268
 3376SOL    HW221588   1.327   1.729   7.230 -2.3658 -2.1731 -2.1435
 3377SOL     OW21589   3.623   4.474   5.689  0.0690  0.0056 -0.3355
 3377SOL    HW121590   3.548   4.423   5.658  0.1466 -0.4722  0.2653
 3377SOL    HW221591   3.677   4.490   5.612 -1.6473  1.1800 -1.3120
 3378SOL     OW21592   3.486   4.649  14.232 -0.0565 -0.1897  0.2016
 3378SOL    HW121593   3.556   4.601  14.187  0.1124 -0.2240  0.4965
 3378SOL    HW221594   3.541   0.002  14.255  1.1789 -0.4712 -1.8623
 3379SOL     OW21595   4.539   0.265   2.550 -0.4572 -0.3720 -0.3446
 3379SOL    HW121596   4.532   0.232   2.639  1.5199  0.9056  0.2848
 3379SOL    HW221597   4.449   0.293   2.535 -0.4889  0.7483  1.9767
 3380SOL     OW21598   3.856   2.251   7.833  0.2261 -0.4171  0.1754
 3380SOL    HW121599   3.821   2.329   7.789  3.4039  0.8977 -0.0454
 3380SOL    HW221600   3.944   2.280   7.857  0.1046  1.1334 -1.2457
 3381SOL     OW21601   0.992   1.555   7.879 -0.3674 -0.6332  0.2890
 3381SOL    HW121602   1.035   1.630   7.922 -2.6335  0.7136  0.1779
 3381SOL    HW221603   1.067   1.506   7.844 -1.3175 -0.2396 -2.3086
 3382SOL     OW21604   0.277   4.207  13.759  0.2581 -0.5565  0.4897
 3382SOL    HW121605   0.352   4.177  13.810 -0.7281 -1.7897  1.2087
 3382SOL    HW221606   0.267   4.144  13.688  0.3633  0.3248 -0.3069
 3383SOL     OW21607   0.208   3.568   1.183  0.5748 -0.0039 -0.0096
 3383SOL    HW121608   0.226   3.561   1.277  1.6529  0.2122 -0.2093
 3383SOL    HW221609   0.139   3.501   1.179  0.0016  0.7480 -2.2990
 3384SOL     OW21610   3.976   2.423   1.707  0.2296  0.3095  0.0685
 3384SOL    HW121611   3.924   2.476   1.767  0.0479  0.5141 -0.2689
 3384SOL    HW221612   3.998   2.486   1.638  3.6351 -0.5056  0.4157
 3385SOL     OW21613   0.023   0.386   7.137  0.2994  0.2079  0.0985
 3385SOL    HW121614   0.072   0.305   7.128  1.2503  0.6027  1.5612
 3385SOL    HW221615   4.677   0.373   7.072  1.5307  1.8509 -1.5109
 3386SOL     OW21616   3.042   0.295   2.210  0.0068  0.5378  0.3742
 3386SOL    HW121617   3.106   0.366   2.200  0.2379  0.1660 -0.6790
 3386SOL    HW221618   2.960   0.326   2.171  0.8186  2.5181  0.2445
 3387SOL     OW21619   0.341   0.340   1.961  0.2818  0.3964 -0.3029
 3387SOL    HW121620   0.367   0.281   1.891 -0.0363 -1.0038  0.7681
 3387SOL    HW221621   0.263   0.309   2.007  1.2069 -1.7200 -0.1894
 3388SOL     OW21622   3.175   3.150   3.616  0.0593  0.0534 -0.7911
 3388SOL    HW121623   3.196   3.107   3.699 -0.0997 -0.8890 -1.2403
 3388SOL    HW221624   3.168   3.071   3.563 -1.3442 -0.8839  0.7742
 3389SOL     OW21625   3.714   4.658   4.163  0.0303  0.2814  0.1641
 3389SOL    HW121626   3.621   4.648   4.141  0.6051 -2.5871 -0.9444
 3389SOL    HW221627   3.718   4.628   4.253  1.2322 -3.4810 -1.1423
 3390SOL     OW21628   1.587   0.942   3.470 -0.7434  0.0120 -0.1170
 3390SOL    HW121629   1.597   0.938   3.374  2.9629  1.1910  0.1894
 3390SOL    HW221630   1.680   0.940   3.495 -0.6354  0.1923 -0.4891
 3391SOL     OW21631   3.310   4.520   3.674 -0.5046 -0.2831  0.6848
 3391SOL    HW121632   3.272   4.452   3.730 -1.2609 -0.2592  0.1921
 3391SOL    HW221633   3.284   4.595   3.729  0.6842  0.1594  0.6360
 3392SOL     OW21634   3.888   4.090   0.319 -0.3278 -0.5245  0.2020
 3392SOL    HW121635   3.970   4.101   0.368 -1.3104 -2.2988  2.2943
 3392SOL    HW221636   3.916   4.055   0.235  0.3742 -0.7360  0.5229
 3393SOL     OW21637   0.807   2.762   7.573  0.0602 -0.4233 -0.1169
 3393SOL    HW121638   0.799   2.840   7.518 -1.7890 -0.4637  0.0912
 3393SOL    HW221639   0.722   2.722   7.557 -1.1661  1.3946  1.8435
 3394SOL     OW21640   2.733   1.189   1.327 -0.0196  0.6498 -0.1629
 3394SOL    HW121641   2.708   1.261   1.268  1.7634  0.4132 -1.1881
 3394SOL    HW221642   2.825   1.185   1.302 -0.2806 -0.1525 -1.0184
 3395SOL     OW21643   2.513   2.549  17.536 -0.3403  0.3608 -0.5264
 3395SOL    HW121644   2.513   2.623  17.596  0.7917  0.5254 -0.7310
 3395SOL    HW221645   2.470   2.477  17.581 -1.9202  2.0393  0.6521
 3396SOL     OW21646   0.349   1.868  17.673 -0.3594 -0.3319 -0.4676
 3396SOL    HW121647   0.356   1.803   0.050  0.8555 -1.0818 -1.2858
 3396SOL    HW221648   0.311   1.942   0.027  0.7308 -0.0534 -0.0276
 3397SOL     OW21649   0.536   2.357   0.265 -0.0545  0.2059 -0.1113
 3397SOL    HW121650   0.617   2.343   0.315 -0.7187  0.5734  1.0685
 3397SOL    HW221651   0.535   2.449   0.240  2.2480 -0.4148 -2.5170
 3398SOL     OW21652   1.843   1.172   2.963  0.4242 -0.4289  0.3623
 3398SOL    HW121653   1.763   1.170   3.015  0.6876 -0.3960  0.7767
 3398SOL    HW221654   1.910   1.177   3.032  1.5842  0.2272 -0.8059
 3399SOL     OW21655   4.705   0.168   1.051 -0.0323  0.4529  0.1018
 3399SOL    HW121656   4.643   0.232   1.018 -1.2582  0.7057  2.8985
 3399SOL    HW221657   0.055   0.202   0.998  0.1659  0.9930  0.7287
 3400SOL     OW21658   0.710   3.469  14.397  0.2219  0.5968  0.7548
 3400SOL    HW121659   0.749   3.385  14.424 -1.1536 -0.9297 -1.9826
 3400SOL    HW221660   0.706   3.508  14.484  1.1034 -0.7062  1.3798
 3401SOL     OW21661   0.478   0.192   8.701  0.1616  0.5778 -0.4103
 3401SOL    HW121662   0.418   0.143   8.645 -0.3118  0.0505  0.5668
 3401SOL    HW221663   0.511   0.259   8.641  0.6329  1.1450  0.4783
 3402SOL     OW21664   3.196   1.186   8.014 -0.1388 -0.1206 -0.1692
 3402SOL    HW121665   3.183   1.130   8.091  3.6860 -1.3944 -0.4854
 3402SOL    HW221666   3.191   1.122   7.942 -1.8680 -0.4684  0.2574
 3403SOL     OW21667   0.206   2.085   6.921  0.1820  0.3003 -0.7885
 3403SOL    HW121668   0.217   2.042   6.836 -1.4835  0.1728 -0.9251
 3403SOL    HW221669   0.126   2.136   6.911 -1.3880 -1.8195  1.0813
 3404SOL     OW21670   1.402   3.583   5.809 -1.1799 -0.6246  0.3706
 3404SOL    HW121671   1.357   3.508   5.770  0.9466 -1.0500 -1.2639
 3404SOL    HW221672   1.331   3.647   5.807 -1.0189 -0.4734 -0.5469
 3405SOL     OW21673   4.421   3.017  14.494 -0.3053 -0.1277  0.1837
 3405SOL    HW121674   4.356   3.086  14.484 -1.5903 -1.8453 -3.3876
 3405SOL    HW221675   4.436   3.020  14.588  1.7675  1.4483 -0.1968
 3406SOL     OW21676   2.238   1.133   5.501 -0.0998 -0.1619  0.5398
 3406SOL    HW121677   2.264   1.218   5.538 -0.9077  0.8369 -1.1941
 3406SOL    HW221678   2.259   1.073   5.573  0.3227  0.0044  0.5546
 3407SOL     OW21679   4.198   3.778   2.687  0.2729 -0.7153  0.0387
 3407SOL    HW121680   4.275   3.812   2.733  0.2297 -0.4119 -0.1143
 3407SOL    HW221681   4.182   3.850   2.627 -0.7989  1.1290  2.5220
 3408SOL     OW21682   0.884   2.875   9.881 -0.9383  0.3221 -0.8225
 3408SOL    HW121683   0.794   2.886   9.851 -0.8626  2.3842 -0.3158
 3408SOL    HW221684   0.923   2.951   9.838 -1.1879  1.5562  1.1102
 3409SOL     OW21685   2.659   3.227   7.877  0.2464 -0.2036  0.1501
 3409SOL    HW121686   2.608   3.219   7.797  1.6044  2.5376 -0.9918
 3409SOL    HW221687   2.634   3.316   7.903 -1.4105  0.3694 -3.4957
 3410SOL     OW21688   2.208   4.689   2.161  0.4738  0.0263  0.1450
 3410SOL    HW121689   2.189   4.598   2.184 -0.8959  0.1732 -0.3806
 3410SOL    HW221690   2.169   4.682   2.073  0.9767  0.9894 -0.1525
 3411SOL     OW21691   0.446   4.683   9.623 -0.1189 -0.1052 -0.3878
 3411SOL    HW121692   0.416   0.050   9.613  1.9600  0.6065 -0.3586
 3411SOL    HW221693   0.363   4.645   9.652 -0.5268  0.9253 -0.2242
 3412SOL     OW21694   3.310   1.707   1.075 -0.0143 -0.2521  0.4761
 3412SOL    HW121695   3.275   1.645   1.012  0.7487  0.8661 -1.0498
 3412SOL    HW221696   3.275   1.668   1.155  2.0543 -1.7158  0.6770
 3413SOL     OW21697   3.834   3.726   5.014  0.5784  0.1646 -0.7372
 3413SOL    HW121698   3.926   3.740   5.039 -0.3158 -0.3499  2.9099
 3413SOL    HW221699   3.805   3.665   5.082  0.4110  0.7929 -0.2484
 3414SOL     OW21700   4.091   2.208   1.769  0.2140 -0.0667  0.6769
 3414SOL    HW121701   4.065   2.294   1.735  0.2006 -0.0845  0.6427
 3414SOL    HW221702   4.185   2.212   1.756  0.0549 -0.7995 -0.7021
 3415SOL     OW21703   4.197   3.791  13.298 -0.2677  0.0247 -0.7903
 3415SOL    HW121704   4.200   3.878  13.339 -1.9113 -0.6900  0.8475
 3415SOL    HW221705   4.143   3.814  13.222 -0.4039  0.9485 -0.4103
 3416SOL     OW21706   1.919   0.267  13.276 -0.2045 -0.4217 -0.0616
 3416SOL    HW121707   1.830   0.245  13.303  0.4513 -2.4316  0.4554
 3416SOL    HW221708   1.926   0.210  13.200 -0.0354 -0.4217 -0.0463
 3417SOL     OW21709   4.062   3.342  16.614  0.7182  0.1975 -0.3583
 3417SOL    HW121710   4.102   3.411  16.668  0.6013 -0.6388  0.7946
 3417SOL    HW221711   3.974   3.373  16.591  0.1282 -1.8913 -0.9462
 3418SOL     OW21712   1.717   2.877   5.795 -0.3746  0.2207  0.5501
 3418SOL    HW121713   1.738   2.821   5.870  0.9584  0.4677  0.3656
 3418SOL    HW221714   1.621   2.871   5.793 -0.3407 -0.0824 -0.1812
 3419SOL     OW21715   0.222   0.936   1.471  0.2399  0.3690  0.2003
 3419SOL    HW121716   0.317   0.922   1.477  0.4418  0.0726 -3.4765
 3419SOL    HW221717   0.197   0.845   1.489 -0.0004  0.5568  0.8248
 3420SOL     OW21718   3.128   4.642   2.621 -0.8132 -0.3780  0.1631
 3420SOL    HW121719   3.162   4.607   2.539  1.0105 -0.7329  1.0689
 3420SOL    HW221720   3.187   4.587   2.672  0.0759 -0.1253 -0.5864
 3421SOL     OW21721   1.194   0.966  16.464 -0.0491  0.1923 -0.2321
 3421SOL    HW121722   1.224   0.881  16.432  0.3483  0.0587  0.5022
 3421SOL    HW221723   1.198   0.957  16.559  0.6827  1.2123 -0.1613
 3422SOL     OW21724   2.980   0.512   1.291  0.9274  0.4349 -0.2961
 3422SOL    HW121725   2.930   0.533   1.369  0.1514  1.0599 -0.9597
 3422SOL    HW221726   3.014   0.598   1.265  3.7573 -0.0682  1.6989
 3423SOL     OW21727   3.530   4.655   9.171  0.2924  0.4376 -0.4041
 3423SOL    HW121728   3.561   4.599   9.099 -0.2303 -0.0501 -0.2524
 3423SOL    HW221729   3.594   0.003   9.180  2.5647 -1.7660  0.7640
 3424SOL     OW21730   3.562   3.181   5.766  0.5291 -0.3038  0.0800
 3424SOL    HW121731   3.516   3.184   5.683  0.6596  0.3494  0.0351
 3424SOL    HW221732   3.535   3.093   5.794  1.3790 -0.6463 -0.1905
 3425SOL     OW21733   3.078   1.595   3.582  0.1596 -0.3297  0.2603
 3425SOL    HW121734   3.117   1.584   3.669 -0.5569  0.4149  0.6716
 3425SOL    HW221735   3.099   1.686   3.562  0.0294  0.2466  2.7215
 3426SOL     OW21736   3.211   2.641  12.190  0.0471 -0.0053 -0.5076
 3426SOL    HW121737   3.269   2.587  12.137  0.3214  1.2288 -1.4504
 3426SOL    HW221738   3.187   2.710  12.128  0.7283 -1.9635 -2.9494
 3427SOL     OW21739   0.920   0.834   2.032 -0.0184 -0.0688 -0.0999
 3427SOL    HW121740   0.847   0.894   2.050  0.6949  0.1956  1.8354
 3427SOL    HW221741   0.960   0.894   1.969  0.4871  0.0375  0.3321
 3428SOL     OW21742   2.147   0.113   0.342  0.5372 -0.4414 -1.0266
 3428SOL    HW121743   2.099   0.030   0.343  1.4194 -0.9610 -1.4379
 3428SOL    HW221744   2.097   0.169   0.402 -0.6297 -0.8020 -1.6591
 3429SOL     OW21745   2.240   2.396   4.613 -1.1172  0.4182  0.2369
 3429SOL    HW121746   2.172   2.462   4.628 -0.1518  1.2557  0.8739
 3429SOL    HW221747   2.211   2.380   4.523 -1.4221  0.7404  0.2768
 3430SOL     OW21748   0.584   4.281   7.266  0.7727 -0.1436 -0.4423
 3430SOL    HW121749   0.580   4.377   7.265 -1.5012 -0.2477  0.3759
 3430SOL    HW221750   0.525   4.254   7.336  0.9032  0.7280  0.0052
 3431SOL     OW21751   1.651   2.972   8.291 -0.4085  1.1916 -0.0222
 3431SOL    HW121752   1.709   3.022   8.349 -0.6175  1.5864 -0.1497
 3431SOL    HW221753   1.700   2.955   8.210 -1.8400 -3.6174  0.1708
 3432SOL     OW21754   1.616   3.299   1.280  0.1222 -0.2721 -0.0843
 3432SOL    HW121755   1.556   3.355   1.230 -2.0007 -0.9529  1.7494
 3432SOL    HW221756   1.573   3.297   1.365  0.0489 -0.2714 -0.1212
 3433SOL     OW21757   4.095   4.675   0.480 -0.2221 -0.0210  0.3669
 3433SOL    HW121758   4.092   4.583   0.504 -2.9144 -0.4746 -1.7122
 3433SOL    HW221759   4.176   4.703   0.523 -0.5362  1.1637  0.2030
 3434SOL     OW21760   1.943   3.562   1.205  0.1587  0.5123  0.5685
 3434SOL    HW121761   1.873   3.572   1.140  1.7270 -0.4530 -1.2655
 3434SOL    HW221762   1.929   3.475   1.242 -0.6768  0.5691  0.3922
 3435SOL     OW21763   1.398   4.407   9.742 -0.1202  0.3317  0.3619
 3435SOL    HW121764   1.308   4.374   9.743 -1.0543  2.8860 -0.5216
 3435SOL    HW221765   1.380   4.501   9.740 -1.0962  0.1200 -0.5873
 3436SOL     OW21766   1.492   0.185  14.837 -0.2822  0.4977 -0.0001
 3436SOL    HW121767   1.414   0.238  14.820 -0.1083  0.1364 -2.0256
 3436SOL    HW221768   1.475   0.106  14.785 -0.2748 -0.7882  1.9827
 3437SOL     OW21769   0.014   3.402   4.993 -1.0674 -0.4675  0.2714
 3437SOL    HW121770   0.091   3.353   4.964  0.1225  2.0388 -0.8373
 3437SOL    HW221771   4.678   3.420   4.919  0.6932  2.5593 -0.4105
 3438SOL     OW21772   2.379   1.216   7.428 -0.0319  0.2760 -0.5574
 3438SOL    HW121773   2.398   1.149   7.494 -1.9433 -1.2531 -1.5763
 3438SOL    HW221774   2.358   1.283   7.494  2.6452  0.3330  0.2581
 3439SOL     OW21775   1.793   4.089   6.014  0.6036  0.6206 -0.0321
 3439SOL    HW121776   1.865   4.078   5.953 -0.6979  2.6045 -1.9186
 3439SOL    HW221777   1.743   4.159   5.971  0.4956  1.5011  1.4958
 3440SOL     OW21778   3.394   0.458   6.638  0.4887  0.0338  0.0381
 3440SOL    HW121779   3.441   0.495   6.713 -0.3657 -1.1723  1.1645
 3440SOL    HW221780   3.374   0.367   6.662 -0.4430  0.0905 -0.5448
 3441SOL     OW21781   4.614   1.059   3.986 -0.6048  0.1615 -0.0560
 3441SOL    HW121782   4.567   1.076   3.904 -0.7827  1.6460  0.3484
 3441SOL    HW221783   4.578   1.124   4.046 -3.1005  0.7684 -2.1862
 3442SOL     OW21784   3.057   0.995   0.656  0.3361 -0.0584  0.0840
 3442SOL    HW121785   3.060   1.063   0.589 -1.8292  0.5320  0.5857
 3442SOL    HW221786   3.081   0.914   0.611 -0.2115  0.3712 -0.9814
 3443SOL     OW21787   0.637   0.338  16.079  0.5614  0.5906 -0.5012
 3443SOL    HW121788   0.646   0.263  16.138 -0.3538 -0.3475 -1.5355
 3443SOL    HW221789   0.712   0.318  16.022 -0.4394 -1.5087 -1.0935
 3444SOL     OW21790   0.796   4.403  15.793  0.3887  0.3342  0.1278
 3444SOL    HW121791   0.832   4.461  15.726 -1.0860 -0.7872 -1.6591
 3444SOL    HW221792   0.872   4.382  15.847 -1.7850 -0.9094  2.7172
 3445SOL     OW21793   3.533   0.783  10.498 -0.1618 -0.2649  0.6325
 3445SOL    HW121794   3.553   0.757  10.408 -0.3511 -0.1540  0.5577
 3445SOL    HW221795   3.505   0.704  10.544 -1.7922 -1.2368 -2.0662
 3446SOL     OW21796   4.640   3.593   2.793 -0.1585  0.0673  0.0591
 3446SOL    HW121797   4.703   3.565   2.859  1.0136  0.9900 -0.6698
 3446SOL    HW221798   4.565   3.599   2.853  0.1996 -0.0239  0.5137
 3447SOL     OW21799   3.127   3.643   6.764  0.6349  0.6767  0.8837
 3447SOL    HW121800   3.046   3.632   6.715  3.2143 -3.5295 -2.3980
 3447SOL    HW221801   3.101   3.590   6.840  0.6141  0.8159  0.9730
 3448SOL     OW21802   3.886   2.759   1.770 -0.1305  0.1612  0.2470
 3448SOL    HW121803   3.980   2.772   1.769 -0.0923  0.0488  2.6059
 3448SOL    HW221804   3.849   2.819   1.705 -0.7365 -1.6962 -1.1366
 3449SOL     OW21805   2.432   4.017   0.932  0.0843  0.5799  0.2467
 3449SOL    HW121806   2.502   4.032   0.868 -0.6757 -2.6610 -1.3393
 3449SOL    HW221807   2.398   4.104   0.952 -0.6377  0.0523  1.3132
 3450SOL     OW21808   1.158   2.519   0.486 -0.0726 -0.6200 -0.1460
 3450SOL    HW121809   1.119   2.447   0.436  0.9378 -0.1946 -1.5438
 3450SOL    HW221810   1.160   2.480   0.573 -4.1064  0.0369  0.2785
 3451SOL     OW21811   3.293   4.422   8.229 -0.4304  0.5384 -0.0328
 3451SOL    HW121812   3.284   4.511   8.195 -0.8682  1.5342  2.7382
 3451SOL    HW221813   3.237   4.373   8.170 -0.2199 -2.4010  2.1853
 3452SOL     OW21814   0.999   2.806   2.223  0.1038 -0.0346 -0.3468
 3452SOL    HW121815   0.918   2.813   2.171 -1.6281  0.2202  2.3975
 3452SOL    HW221816   1.063   2.775   2.158 -0.6110  1.2373 -1.6573
 3453SOL     OW21817   1.529   1.008  10.863  0.4931 -0.4163 -0.5666
 3453SOL    HW121818   1.479   0.933  10.895  2.5220 -0.9199  1.4074
 3453SOL    HW221819   1.541   1.061  10.942  1.8530  0.8734 -1.6495
 3454SOL     OW21820   3.018   0.441   6.809 -0.0699  0.1161 -0.0720
 3454SOL    HW121821   2.963   0.459   6.885  2.4847 -0.4909  1.9332
 3454SOL    HW221822   2.969   0.490   6.743  0.8800 -1.1170 -1.7041
 3455SOL     OW21823   2.164   1.480   9.295  0.1595 -0.0654 -0.5785
 3455SOL    HW121824   2.236   1.420   9.314  0.8914  1.5288  1.6778
 3455SOL    HW221825   2.209   1.533   9.231  0.5373  1.2932  0.8183
 3456SOL     OW21826   4.577   4.151   0.174  0.3850  0.3345 -0.4412
 3456SOL    HW121827   4.557   4.127   0.083  3.4043  1.6155 -1.4380
 3456SOL    HW221828   4.665   4.114   0.172  0.5729  0.7838 -0.5136
 3457SOL     OW21829   3.368   1.558  17.591 -0.3820 -0.2262 -0.7208
 3457SOL    HW121830   3.445   1.553  17.648 -2.0043  1.0847  1.5519
 3457SOL    HW221831   3.389   1.629  17.529  1.4285  0.4641  0.6949
 3458SOL     OW21832   0.544   1.791   3.369 -0.3697  0.2389  0.1437
 3458SOL    HW121833   0.529   1.746   3.286 -1.2449 -0.4977  0.7014
 3458SOL    HW221834   0.565   1.881   3.345 -0.4779  0.4829  0.9830
 3459SOL     OW21835   2.065   1.529   4.428  0.3201 -0.0299 -0.4554
 3459SOL    HW121836   2.118   1.499   4.354 -0.3849  0.8013 -1.2925
 3459SOL    HW221837   2.054   1.623   4.415  0.1642 -0.1403 -1.0948
 3460SOL     OW21838   4.318   2.643   0.867  0.1548  0.4273 -0.0181
 3460SOL    HW121839   4.318   2.557   0.908 -1.6446  0.8169  0.7901
 3460SOL    HW221840   4.410   2.667   0.875 -0.1378  0.7623  2.2421
 3461SOL     OW21841   3.386   3.212  17.534 -0.1756 -0.1486 -0.5247
 3461SOL    HW121842   3.456   3.276  17.520  2.0207 -2.8533 -1.9802
 3461SOL    HW221843   3.427   3.127  17.550  1.2357  0.5607 -0.3773
 3462SOL     OW21844   4.177   3.781  16.120 -0.1033 -0.4245  0.1561
 3462SOL    HW121845   4.179   3.686  16.132 -1.4614 -0.3583  0.9695
 3462SOL    HW221846   4.083   3.795  16.111  0.5725  3.5179 -0.7390
 3463SOL     OW21847   4.196   4.706   4.931  0.4791 -0.1701  0.0639
 3463SOL    HW121848   4.247   4.631   4.900 -0.4312 -0.5765 -0.4615
 3463SOL    HW221849   4.231   4.722   5.018  1.4599 -1.2967 -0.1135
 3464SOL     OW21850   0.079   3.101   7.159  0.4806  0.1481  0.0633
 3464SOL    HW121851   0.097   3.187   7.197 -0.3170 -1.3390  3.8303
 3464SOL    HW221852   0.001   3.127   7.110  1.0851  0.2609 -0.8368
 3465SOL     OW21853   0.664   0.321  14.425  0.0315 -0.3976 -0.2073
 3465SOL    HW121854   0.626   0.234  14.434  0.2310 -0.4350  0.2794
 3465SOL    HW221855   0.610   0.365  14.490  2.7653  2.7730 -0.0740
 3466SOL     OW21856   2.790   1.824   4.261 -0.3903  0.3339  0.2585
 3466SOL    HW121857   2.866   1.780   4.223 -0.3316 -0.0626  0.8365
 3466SOL    HW221858   2.830   1.903   4.296 -0.0219  1.8342 -3.6001
 3467SOL     OW21859   2.067   0.375   6.695  0.0767  0.6369 -0.1914
 3467SOL    HW121860   2.044   0.406   6.608  1.6333 -0.6654 -1.0676
 3467SOL    HW221861   2.158   0.400   6.704  1.4405 -4.0740 -0.5193
 3468SOL     OW21862   1.392   2.102   3.676  0.0950 -0.2106 -0.2607
 3468SOL    HW121863   1.471   2.155   3.673 -0.6022  0.8737  0.5391
 3468SOL    HW221864   1.332   2.157   3.626  0.8075 -0.0983 -1.0010
 3469SOL     OW21865   1.579   0.991  16.157  0.4836  0.3285  0.5831
 3469SOL    HW121866   1.629   1.071  16.137  2.4520 -0.9347  0.4513
 3469SOL    HW221867   1.509   0.993  16.092  1.2577  0.3210 -0.2526
 3470SOL     OW21868   3.487   3.211   4.266 -0.6934  0.0153 -0.0085
 3470SOL    HW121869   3.556   3.144   4.260  1.2214  2.0596 -0.7553
 3470SOL    HW221870   3.447   3.204   4.179  1.0052  0.1395 -0.8032
 3471SOL     OW21871   3.661   3.666  15.695 -0.1742  0.4670  0.2545
 3471SOL    HW121872   3.611   3.586  15.684 -1.1486  1.3340 -1.6655
 3471SOL    HW221873   3.592   3.732  15.687 -0.9886 -0.5636 -1.1704
 3472SOL     OW21874   0.294   2.208   8.258  0.2559 -0.0966  0.4295
 3472SOL    HW121875   0.388   2.200   8.240  0.7478  1.3232  2.2798
 3472SOL    HW221876   0.278   2.286   8.311  0.1427 -0.6919  1.2780
 3473SOL     OW21877   0.968   4.293  14.248  0.3614 -0.6501 -0.4147
 3473SOL    HW121878   0.923   4.240  14.314  1.0567 -0.0419  0.5317
 3473SOL    HW221879   1.061   4.284  14.265 -0.0888 -0.9773  1.8290
 3474SOL     OW21880   4.695   3.222  14.347  0.1140  0.1429 -0.4000
 3474SOL    HW121881   4.682   3.127  14.340 -0.0381  0.2718 -1.7710
 3474SOL    HW221882   0.048   3.224  14.405  0.3978 -1.8076 -0.7079
 3475SOL     OW21883   2.577   3.969   6.608  0.1718  0.4024 -0.1318
 3475SOL    HW121884   2.559   3.927   6.524  0.6973  1.1163 -0.6051
 3475SOL    HW221885   2.573   3.899   6.674  0.1668 -0.4380 -1.0231
 3476SOL     OW21886   0.047   0.785  10.138  0.2067 -0.5392 -0.2173
 3476SOL    HW121887   0.089   0.700  10.145  2.5442  0.8626  2.7056
 3476SOL    HW221888   4.693   0.748  10.094  1.3462 -2.0514 -0.9133
 3477SOL     OW21889   2.714   1.826   1.651 -0.5667  0.7078  0.7858
 3477SOL    HW121890   2.773   1.759   1.616  0.3449  0.5902  2.5135
 3477SOL    HW221891   2.697   1.885   1.578 -0.5239 -1.4410 -0.9607
 3478SOL     OW21892   1.846   1.183   4.373  0.1640  0.6709  0.8992
 3478SOL    HW121893   1.805   1.221   4.451 -2.6481 -1.9636  0.7009
 3478SOL    HW221894   1.786   1.229   4.314  1.4328  0.9967 -0.1472
 3479SOL     OW21895   2.242   2.317  15.464  0.3586 -0.0102  0.0080
 3479SOL    HW121896   2.325   2.315  15.512 -0.3544  1.5724  1.3075
 3479SOL    HW221897   2.180   2.377  15.505  0.4138 -0.0634  0.1675
 3480SOL     OW21898   0.932   3.585   2.934  0.3473 -0.4561 -0.0152
 3480SOL    HW121899   1.011   3.630   2.904 -0.6276  1.2835  0.0181
 3480SOL    HW221900   0.906   3.543   2.852 -1.4913 -0.9097  0.7961
 3481SOL     OW21901   3.163   3.893   7.122 -0.1998 -0.2779 -0.7005
 3481SOL    HW121902   3.146   3.920   7.212 -0.3123 -2.3184 -0.1278
 3481SOL    HW221903   3.118   3.966   7.077  2.1810  0.3269 -2.1056
 3482SOL     OW21904   2.178   3.785  11.520  0.0507  0.2732  0.1774
 3482SOL    HW121905   2.111   3.722  11.492  0.1605  0.7984 -1.2968
 3482SOL    HW221906   2.243   3.716  11.534 -1.6771 -0.8155  2.7597
 3483SOL     OW21907   3.950   2.311  17.492 -0.1514 -0.2658  0.0107
 3483SOL    HW121908   4.015   2.273  17.432  0.5091 -1.3397  1.4281
 3483SOL    HW221909   4.004   2.365  17.550  1.4679 -0.7607 -1.0265
 3484SOL     OW21910   1.296   3.199  13.701  0.1654 -0.0994 -0.0945
 3484SOL    HW121911   1.379   3.246  13.698 -0.5646  1.1783 -0.4643
 3484SOL    HW221912   1.268   3.215  13.611 -1.6371  0.3728  0.5540
 3485SOL     OW21913   1.756   0.332   8.780 -0.0247  0.8930  0.6664
 3485SOL    HW121914   1.748   0.426   8.799  0.4924  0.5902  2.3347
 3485SOL    HW221915   1.848   0.315   8.798  0.3542 -1.3686 -3.2884
 3486SOL     OW21916   3.642   0.588  17.264 -0.3978  0.3536 -0.2342
 3486SOL    HW121917   3.645   0.675  17.305  2.1538 -1.3911  3.2875
 3486SOL    HW221918   3.663   0.608  17.173  1.7624 -1.7689 -0.1900
 3487SOL     OW21919   3.247   1.540   5.535  0.5911 -0.3006 -0.0311
 3487SOL    HW121920   3.228   1.449   5.509 -0.8435  0.5398 -1.9029
 3487SOL    HW221921   3.302   1.536   5.613 -0.5544  0.8729  0.8304
 3488SOL     OW21922   2.580   0.784  10.599  0.4124  0.4380  0.0456
 3488SOL    HW121923   2.652   0.721  10.601 -0.6315 -0.7456  0.3170
 3488SOL    HW221924   2.633   0.862  10.616  2.0526 -0.6267 -0.2295
 3489SOL     OW21925   4.301   2.245  17.291 -0.1439  0.8007 -0.1540
 3489SOL    HW121926   4.337   2.333  17.287  2.9628 -0.5106 -0.8226
 3489SOL    HW221927   4.234   2.275  17.230  0.2819  0.8126 -0.6087
 3490SOL     OW21928   0.554   1.180  16.227  0.2054  0.2802 -0.2012
 3490SOL    HW121929   0.631   1.236  16.225 -0.0093  0.5825  0.1141
 3490SOL    HW221930   0.503   1.224  16.158 -0.9034 -1.6020 -0.6138
 3491SOL     OW21931   1.237   3.974   6.884 -0.1352  0.5751 -0.2883
 3491SOL    HW121932   1.259   3.998   6.793  0.0146  2.3162  0.2026
 3491SOL    HW221933   1.145   4.001   6.891 -0.7393 -1.5575 -0.0016
 3492SOL     OW21934   1.462   0.542   3.151  0.1882  0.0961  0.5241
 3492SOL    HW121935   1.539   0.489   3.169 -0.5088 -0.8453  0.7683
 3492SOL    HW221936   1.452   0.523   3.057 -0.2342 -1.3695  0.8604
 3493SOL     OW21937   3.687   0.457  13.174  0.4850 -0.7363 -0.3640
 3493SOL    HW121938   3.612   0.495  13.127  1.1723  3.2028  1.6571
 3493SOL    HW221939   3.760   0.495  13.125  0.7511 -1.3432 -0.4386
 3494SOL     OW21940   0.016   0.520   1.356  0.8985 -0.2692  0.2799
 3494SOL    HW121941   4.677   0.560   1.294  0.6077 -0.2203  0.6027
 3494SOL    HW221942   4.693   0.530   1.439 -0.5891  1.2341 -0.7158
 3495SOL     OW21943   1.622   3.262   7.538  0.7539 -0.2410  0.0486
 3495SOL    HW121944   1.688   3.240   7.604 -0.2712  1.9256  1.7902
 3495SOL    HW221945   1.619   3.185   7.481 -0.1515 -0.3658  0.2640
 3496SOL     OW21946   4.622   2.640   7.733  0.3619  0.7674 -0.4518
 3496SOL    HW121947   4.660   2.564   7.689  0.6252 -0.4725  1.9327
 3496SOL    HW221948   4.642   2.708   7.669 -0.0674 -0.5907 -2.0043
 3497SOL     OW21949   3.763   2.483   7.709 -0.5091 -0.0458 -0.1559
 3497SOL    HW121950   3.784   2.549   7.775  1.7269 -0.2373 -0.6854
 3497SOL    HW221951   3.684   2.509   7.661  0.3753 -1.7015 -2.4820
 3498SOL     OW21952   0.359   0.795   4.612 -0.3504 -0.0641 -0.1089
 3498SOL    HW121953   0.324   0.875   4.571 -0.3187  0.7504  1.4348
 3498SOL    HW221954   0.278   0.745   4.611 -0.2658 -0.2187  1.0297
 3499SOL     OW21955   4.084   1.256   3.067 -0.6879  0.2067 -0.2211
 3499SOL    HW121956   4.041   1.340   3.056  0.3585  0.5788 -1.5740
 3499SOL    HW221957   4.017   1.190   3.051 -0.1118 -0.8727  1.7462
 3500SOL     OW21958   0.678   2.326  10.289  0.6639  0.9113  0.4426
 3500SOL    HW121959   0.636   2.387  10.228 -1.9872 -2.1360 -0.7956
 3500SOL    HW221960   0.654   2.365  10.373 -0.9350  0.5779  0.1392
 3501SOL     OW21961   2.946   0.788   9.991  0.1071 -0.4163  0.5100
 3501SOL    HW121962   2.954   0.692   9.989  1.3665 -0.2600 -1.6735
 3501SOL    HW221963   2.859   0.803   9.953  1.0399  0.7220 -1.2032
 3502SOL     OW21964   2.012   0.637  12.918  1.0075  0.4563 -0.5178
 3502SOL    HW121965   2.006   0.732  12.925 -1.5816  0.2110  0.2738
 3502SOL    HW221966   1.950   0.618  12.988  1.0306  1.5472 -0.2020
 3503SOL     OW21967   1.315   4.612   1.266 -0.1770 -0.2906  0.1254
 3503SOL    HW121968   1.379   4.556   1.222 -0.8782 -0.3249 -0.8335
 3503SOL    HW221969   1.366   4.656   1.334 -0.1769 -0.4813  0.2481
 3504SOL     OW21970   3.609   4.594   6.726 -0.6306 -0.4092 -0.1907
 3504SOL    HW121971   3.685   4.598   6.668 -1.2263 -2.2259 -1.0902
 3504SOL    HW221972   3.611   4.499   6.737 -0.6405 -0.2690  1.0734
 3505SOL     OW21973   2.066   4.653   4.827  0.1165  0.6343 -0.0116
 3505SOL    HW121974   1.982   4.619   4.859  0.2478 -0.1247 -0.4699
 3505SOL    HW221975   2.097   4.564   4.811 -0.5823  0.3125  0.3900
 3506SOL     OW21976   3.045   0.139   2.798 -0.2938 -0.3188 -0.6859
 3506SOL    HW121977   2.992   0.076   2.847  0.5115 -0.8515 -0.5008
 3506SOL    HW221978   3.059   0.084   2.721  1.0169 -1.3167  0.2603
 3507SOL     OW21979   2.036   3.807   6.965  0.0866  0.6967  0.1748
 3507SOL    HW121980   1.995   3.728   6.999 -0.1360  0.2554 -1.1337
 3507SOL    HW221981   2.034   3.791   6.871  0.7553  1.5636  0.0028
 3508SOL     OW21982   2.302   0.306   4.914  0.2146 -0.2238 -0.0759
 3508SOL    HW121983   2.215   0.320   4.952  0.5088  3.1069 -0.6374
 3508SOL    HW221984   2.304   0.348   4.829 -0.8541 -1.3112 -0.6462
 3509SOL     OW21985   0.394   2.596   7.299 -0.2108 -0.1485 -0.1768
 3509SOL    HW121986   0.411   2.535   7.228 -1.1605 -2.0429  1.2368
 3509SOL    HW221987   0.298   2.595   7.296 -0.2314 -2.7639  1.5279
 3510SOL     OW21988   0.069   4.292  13.963 -0.0141  0.3927  0.2888
 3510SOL    HW121989   0.151   4.267  13.919 -0.2994 -0.7508  0.4099
 3510SOL    HW221990   0.065   4.206  14.005  1.6332 -0.1428 -0.6432
 3511SOL     OW21991   3.703   1.020   6.366 -0.0242 -0.1737  0.1118
 3511SOL    HW121992   3.780   0.981   6.324  0.9751  4.2187 -2.1684
 3511SOL    HW221993   3.745   1.088   6.419 -1.3535 -1.1589  2.4575
 3512SOL     OW21994   4.442   0.697   2.130  0.2457  0.1309 -0.2083
 3512SOL    HW121995   4.398   0.619   2.096  0.4889  0.6593 -1.7464
 3512SOL    HW221996   4.371   0.754   2.162 -0.3036 -0.1265 -0.9688
 3513SOL     OW21997   1.037   1.738   3.012  0.1967  0.1986 -0.0065
 3513SOL    HW121998   1.105   1.672   2.993 -1.3803 -1.0098 -1.4990
 3513SOL    HW221999   0.963   1.685   3.042  0.6231  0.7180  1.9486
 3514SOL     OW22000   0.247   1.385   0.215  0.2101  0.1440  0.0420
 3514SOL    HW122001   0.227   1.349   0.128 -1.4211  2.7070 -0.6138
 3514SOL    HW222002   0.303   1.324   0.264 -1.5340 -2.7810 -1.5602
 3515SOL     OW22003   1.362   4.339   9.147 -0.3143 -0.1146  0.1547
 3515SOL    HW122004   1.332   4.427   9.125 -0.1962 -0.2888 -0.6995
 3515SOL    HW222005   1.305   4.290   9.088 -0.5970 -1.0103  1.1665
 3516SOL     OW22006   1.898   1.139  13.771 -0.0553  0.4079 -0.3103
 3516SOL    HW122007   1.972   1.137  13.832 -0.1638  0.5765 -0.1728
 3516SOL    HW222008   1.850   1.216  13.801 -0.2341 -0.3846  1.4867
 3517SOL     OW22009   1.404   4.335   6.719  0.0082  0.1957 -0.0210
 3517SOL    HW122010   1.477   4.351   6.659  0.6299  0.0050  0.6833
 3517SOL    HW222011   1.352   4.276   6.664 -0.5499 -1.0884  1.8715
 3518SOL     OW22012   1.592   3.847   0.900  0.2117  0.1539  0.4197
 3518SOL    HW122013   1.647   3.873   0.826 -1.4978 -2.3167 -1.7440
 3518SOL    HW222014   1.513   3.900   0.895  0.1488 -0.0044 -0.2832
 3519SOL     OW22015   4.534   2.643   5.207 -0.2902 -0.3713 -0.2349
 3519SOL    HW122016   4.606   2.653   5.269 -1.4081 -0.9397  1.1519
 3519SOL    HW222017   4.494   2.730   5.216  1.5397  0.3198  1.3093
 3520SOL     OW22018   0.711   3.637  15.617 -0.5003 -0.1409 -0.3273
 3520SOL    HW122019   0.727   3.722  15.575 -0.3116  0.5679  1.1789
 3520SOL    HW222020   0.796   3.604  15.647 -0.8335  0.2658  1.0687
 3521SOL     OW22021   0.736   2.836  11.259 -0.4074 -1.1115  0.0513
 3521SOL    HW122022   0.706   2.787  11.335 -0.0943 -0.7695  0.3994
 3521SOL    HW222023   0.830   2.844  11.276 -0.4230 -0.8743  0.0382
 3522SOL     OW22024   3.213   0.619   6.473 -0.1851 -0.8647 -0.2201
 3522SOL    HW122025   3.234   0.567   6.550 -0.2596  0.2561  0.5605
 3522SOL    HW222026   3.182   0.697   6.519  0.5502 -0.2764 -0.7206
 3523SOL     OW22027   3.013   1.848   0.321  0.1061  0.6932  0.1136
 3523SOL    HW122028   3.087   1.885   0.272  0.6998  2.2218  2.1408
 3523SOL    HW222029   3.038   1.859   0.413 -0.4575  2.5841  0.0490
 3524SOL     OW22030   0.467   0.920   0.651  0.0398  0.0825 -0.0968
 3524SOL    HW122031   0.513   0.864   0.589 -0.0987 -0.1506  0.0080
 3524SOL    HW222032   0.538   0.976   0.681 -0.2656  0.2944  0.2256
 3525SOL     OW22033   0.471   4.250   8.026 -0.0897  0.0069  0.1517
 3525SOL    HW122034   0.475   4.254   8.121 -0.2428 -3.1487  0.3027
 3525SOL    HW222035   0.467   4.154   8.028  0.8950 -0.0343 -0.0510
 3526SOL     OW22036   3.199   3.079   5.342 -0.3038 -0.0071  0.4991
 3526SOL    HW122037   3.134   3.078   5.412 -0.0069  0.1159  0.7713
 3526SOL    HW222038   3.171   3.011   5.280  1.2156 -0.1908  0.0041
 3527SOL     OW22039   0.407   0.723   5.238  0.2517  0.0955 -0.1169
 3527SOL    HW122040   0.388   0.757   5.151  1.3182  1.2565  0.1052
 3527SOL    HW222041   0.425   0.631   5.218  1.1463  0.5599 -1.4237
 3528SOL     OW22042   0.159   1.232   6.547  0.3427 -0.1297  0.1710
 3528SOL    HW122043   0.185   1.324   6.539  0.6055  0.0696  3.4730
 3528SOL    HW222044   0.085   1.245   6.607  0.1490 -1.1229  0.1366
 3529SOL     OW22045   0.681   2.714   6.427  0.0830 -0.0688  0.1704
 3529SOL    HW122046   0.655   2.804   6.410 -0.5351 -0.6304 -1.8331
 3529SOL    HW222047   0.608   2.682   6.480  0.7146 -0.4898  0.7929
 3530SOL     OW22048   2.810   1.213   1.606 -0.3533 -1.4206 -0.0499
 3530SOL    HW122049   2.753   1.205   1.530 -0.6459 -0.9461  0.1180
 3530SOL    HW222050   2.754   1.273   1.656  1.0473  0.6776 -1.0071
 3531SOL     OW22051   1.265   4.715   5.352 -0.1305  0.5271 -0.1503
 3531SOL    HW122052   1.329   4.709   5.423 -1.5897  0.1753  1.1283
 3531SOL    HW222053   1.189   4.666   5.383 -0.0394  0.7880  0.4759
 3532SOL     OW22054   4.545   2.286   9.089  0.0163  0.2723 -0.3656
 3532SOL    HW122055   4.544   2.273   9.184 -0.6015 -1.6556 -0.6379
 3532SOL    HW222056   4.546   2.380   9.074  0.3293 -0.1957 -3.2906
 3533SOL     OW22057   1.210   0.553   6.353 -0.2667  0.1451  0.2491
 3533SOL    HW122058   1.227   0.458   6.350 -1.2511 -0.0388  0.5188
 3533SOL    HW222059   1.299   0.587   6.346  0.7087 -1.8851  2.4529
 3534SOL     OW22060   3.325   0.963   0.037  0.2692  0.0759  0.2320
 3534SOL    HW122061   3.259   1.029   0.056 -0.8158 -0.9085 -0.1697
 3534SOL    HW222062   3.282   0.893   0.086  0.9602 -0.3429  0.2542
 3535SOL     OW22063   2.631   4.138   3.305 -0.3675 -0.1653  0.4974
 3535SOL    HW122064   2.632   4.056   3.354 -2.8628  0.0580  0.9005
 3535SOL    HW222065   2.721   4.143   3.273 -0.4444 -1.1229  0.1476
 3536SOL     OW22066   0.687   3.566  17.234  0.0613  0.4339  0.6884
 3536SOL    HW122067   0.679   3.478  17.269 -2.5037  0.7526  0.9331
 3536SOL    HW222068   0.647   3.616  17.305 -0.7553  0.4634  0.2062
 3537SOL     OW22069   4.191   1.778   1.626  0.0751 -0.2674  0.2333
 3537SOL    HW122070   4.283   1.799   1.640  0.0169 -0.5543  1.0747
 3537SOL    HW222071   4.190   1.775   1.530 -1.7176  0.1442  0.2413
 3538SOL     OW22072   3.366   1.735  11.258  0.2391 -0.3359 -0.0018
 3538SOL    HW122073   3.282   1.694  11.237  1.1297 -1.0728 -2.1146
 3538SOL    HW222074   3.333   1.790  11.329 -1.4294 -0.9463 -0.2933
 3539SOL     OW22075   2.152   1.306  10.170  0.3481  0.3693  0.1538
 3539SOL    HW122076   2.193   1.389  10.195 -2.3432  0.8293  3.0403
 3539SOL    HW222077   2.191   1.256  10.241 -1.1550 -1.6059 -0.4166
 3540SOL     OW22078   2.053   2.426   8.119  0.1121 -0.5806 -0.0903
 3540SOL    HW122079   2.054   2.506   8.066 -0.9763 -0.1687  0.5174
 3540SOL    HW222080   1.998   2.370   8.064  0.7675 -0.0908 -1.2493
 3541SOL     OW22081   4.528   3.539  12.519  0.7476  0.1979  0.1598
 3541SOL    HW122082   4.434   3.522  12.516  0.9202 -0.8817  0.8973
 3541SOL    HW222083   4.546   3.527  12.612  0.4288 -0.0564  0.1931
 3542SOL     OW22084   0.321   1.320   1.720 -0.2274 -0.3291  0.3665
 3542SOL    HW122085   0.314   1.414   1.736  2.0950 -0.2078  0.7552
 3542SOL    HW222086   0.406   1.314   1.676 -0.6478 -2.1165 -0.1799
 3543SOL     OW22087   0.379   3.279   9.847  0.3057  0.0022 -0.2647
 3543SOL    HW122088   0.397   3.350   9.909  1.6639  0.1260 -0.7830
 3543SOL    HW222089   0.318   3.229   9.901  0.0706 -0.5770 -1.0795
 3544SOL     OW22090   3.984   2.670   5.536 -0.4038  0.0879 -0.0637
 3544SOL    HW122091   3.967   2.682   5.629 -1.0091 -4.1347  0.3893
 3544SOL    HW222092   4.001   2.576   5.547 -3.9589 -0.5913 -0.5651
 3545SOL     OW22093   2.725   0.743   3.566  0.0772  0.2880 -0.2115
 3545SOL    HW122094   2.815   0.758   3.536  0.3572 -0.3794  0.3252
 3545SOL    HW222095   2.684   0.668   3.523  1.1038  0.0476 -0.7610
 3546SOL     OW22096   0.923   1.807   5.672 -0.4029  0.2381 -0.6403
 3546SOL    HW122097   1.004   1.755   5.674 -0.8467 -0.4255 -0.0125
 3546SOL    HW222098   0.887   1.811   5.761 -1.3312 -1.8329 -0.9205
 3547SOL     OW22099   3.357   4.663   6.683  0.4883  0.1511  0.9075
 3547SOL    HW122100   3.445   4.632   6.707  1.0262  1.6489  0.8479
 3547SOL    HW222101   3.362   4.684   6.590  0.1496 -1.6024  0.4944
 3548SOL     OW22102   2.736   0.759   6.567 -0.6231 -0.1410 -0.0470
 3548SOL    HW122103   2.743   0.854   6.580  1.8613 -0.5882  2.0893
 3548SOL    HW222104   2.731   0.751   6.472  1.5483  0.9336 -0.2523
 3549SOL     OW22105   2.658   1.061  10.077  0.4084 -0.2510  0.1331
 3549SOL    HW122106   2.678   0.968  10.087  1.1105  0.0896  1.8556
 3549SOL    HW222107   2.591   1.055  10.009 -1.2851  1.9115  1.5920
 3550SOL     OW22108   2.039   0.934   7.786 -0.6260  0.8060  0.6744
 3550SOL    HW122109   2.127   0.897   7.776 -1.0353 -0.5801  2.3158
 3550SOL    HW222110   1.995   0.893   7.712  1.8118 -0.3045 -0.1571
 3551SOL     OW22111   2.570   4.233   9.396  0.5304  0.3514  0.3712
 3551SOL    HW122112   2.592   4.251   9.488 -0.6925  0.7203  0.5815
 3551SOL    HW222113   2.640   4.275   9.345 -0.4309 -0.3608 -1.5330
 3552SOL     OW22114   2.360   3.894   7.502 -0.6357 -0.5563 -0.2582
 3552SOL    HW122115   2.363   3.862   7.593 -2.8965 -2.2360 -0.7612
 3552SOL    HW222116   2.275   3.935   7.487  0.0440  0.8486 -0.2149
 3553SOL     OW22117   0.533   1.227   7.490 -0.4541 -0.2924 -0.2934
 3553SOL    HW122118   0.598   1.219   7.420  0.1625  0.2196  0.2267
 3553SOL    HW222119   0.461   1.172   7.461 -0.3880  0.0845 -1.1765
 3554SOL     OW22120   3.751   0.579   7.714 -0.1640 -0.2359  0.3391
 3554SOL    HW122121   3.687   0.648   7.735  1.3743  1.0889  0.6548
 3554SOL    HW222122   3.726   0.574   7.622  1.5168 -0.9659 -0.0754
 3555SOL     OW22123   3.966   0.436  12.164 -1.0182  0.8738  0.0492
 3555SOL    HW122124   4.000   0.485  12.239  1.1300 -1.6435  0.7421
 3555SOL    HW222125   3.872   0.451  12.169 -1.0768  1.1140 -1.8444
 3556SOL     OW22126   2.780   3.967   1.841 -0.3893 -0.6029 -0.4038
 3556SOL    HW122127   2.842   4.039   1.839 -1.2403  0.0997 -1.0275
 3556SOL    HW222128   2.826   3.914   1.907 -1.3797  0.7419  1.3829
 3557SOL     OW22129   0.648   1.538   6.846 -0.5256 -0.0450  0.0832
 3557SOL    HW122130   0.620   1.448   6.863 -0.2376 -0.8702 -3.9471
 3557SOL    HW222131   0.660   1.538   6.751 -0.1507 -0.0237  0.1332
 3558SOL     OW22132   3.106   1.857   3.492 -0.5030 -0.0507 -0.3030
 3558SOL    HW122133   3.141   1.816   3.413 -1.7176  0.4946 -1.1278
 3558SOL    HW222134   3.152   1.941   3.492 -0.9745  0.2055  1.3306
 3559SOL     OW22135   2.364   2.207  10.617  0.2853  0.3859 -0.6269
 3559SOL    HW122136   2.433   2.238  10.559 -0.7906  1.1912 -1.4624
 3559SOL    HW222137   2.359   2.115  10.590  0.1015  0.0300  0.6251
 3560SOL     OW22138   0.549   1.739  11.216  0.4638 -0.1929 -0.0319
 3560SOL    HW122139   0.533   1.773  11.304 -0.5088  1.4856 -0.8492
 3560SOL    HW222140   0.462   1.750  11.177  0.3559 -1.9719 -0.3000
 3561SOL     OW22141   0.748   0.621   5.425 -0.0728 -0.0220  0.2031
 3561SOL    HW122142   0.727   0.706   5.387 -2.4201 -0.5508  0.3569
 3561SOL    HW222143   0.825   0.644   5.478  1.3663  0.4255 -2.0714
 3562SOL     OW22144   2.128   1.078   6.431 -0.4993 -0.1564  0.0413
 3562SOL    HW122145   2.063   1.100   6.498 -0.3641 -2.5174  0.9280
 3562SOL    HW222146   2.204   1.066   6.488  0.1716 -2.2124 -1.2911
 3563SOL     OW22147   1.932   3.398   3.814 -0.0069  0.5822 -0.3289
 3563SOL    HW122148   1.846   3.365   3.790  0.7512 -0.6542 -1.3014
 3563SOL    HW222149   1.934   3.472   3.753 -0.5659  0.5361 -0.4061
 3564SOL     OW22150   0.663   0.549   4.493  0.0166 -0.6804 -0.0717
 3564SOL    HW122151   0.731   0.600   4.537  0.4459 -0.7884 -0.6072
 3564SOL    HW222152   0.701   0.462   4.477  1.9572  0.1728 -0.0882
 3565SOL     OW22153   3.085   0.696   3.695 -0.1975  0.6061 -0.1617
 3565SOL    HW122154   3.043   0.720   3.778  1.6300  1.1677  0.6197
 3565SOL    HW222155   3.018   0.634   3.667 -0.0598  0.5965 -0.4741
 3566SOL     OW22156   2.175   3.010   8.039  0.4324 -0.5429  0.2970
 3566SOL    HW122157   2.183   3.070   8.113 -1.8193  0.2089 -0.0715
 3566SOL    HW222158   2.215   3.067   7.974  1.6085  0.8671  2.2476
 3567SOL     OW22159   3.732   2.402   0.325 -0.3957 -0.0799  0.1235
 3567SOL    HW122160   3.647   2.387   0.284  0.0019  0.9812 -1.1176
 3567SOL    HW222161   3.743   2.344   0.400 -2.0969 -2.0751 -1.2099
 3568SOL     OW22162   4.456   2.866  11.072 -0.3936 -0.0429 -0.0036
 3568SOL    HW122163   4.396   2.923  11.120  0.3324  1.1979 -0.5874
 3568SOL    HW222164   4.395   2.848  11.001  0.5645  0.6326 -0.9972
 3569SOL     OW22165   3.611   4.494  11.410 -0.0650  0.1211  0.4891
 3569SOL    HW122166   3.568   4.548  11.344  1.4326  1.8087  0.8740
 3569SOL    HW222167   3.606   4.539  11.495 -0.8697 -0.4517  0.7443
 3570SOL     OW22168   0.882   3.827   7.614  0.4403  0.3767  0.5402
 3570SOL    HW122169   0.798   3.785   7.638  0.3843  0.1495 -0.0686
 3570SOL    HW222170   0.892   3.785   7.529 -1.0095 -1.1414  1.1053
 3571SOL     OW22171   2.501   0.145   6.594  0.3762 -0.1055 -0.1755
 3571SOL    HW122172   2.412   0.112   6.610  0.2259 -0.3125 -1.4653
 3571SOL    HW222173   2.551   0.109   6.667  0.0262  0.5104  0.3674
 3572SOL     OW22174   0.673   1.660   8.398 -0.2847  0.3934 -0.3146
 3572SOL    HW122175   0.635   1.725   8.457  0.9732 -0.6820  1.6594
 3572SOL    HW222176   0.686   1.709   8.317  2.8979 -1.5735 -0.9986
 3573SOL     OW22177   1.955   1.639   8.786 -0.0060  0.0582  0.4187
 3573SOL    HW122178   2.026   1.681   8.738  0.8602 -0.8009  0.9382
 3573SOL    HW222179   1.997   1.555   8.804 -1.6638 -0.8625  0.0229
 3574SOL     OW22180   3.938   4.364  12.495  0.0415  0.1996  0.1559
 3574SOL    HW122181   4.024   4.382  12.456 -0.2894  1.6341  0.0643
 3574SOL    HW222182   3.893   4.445  12.470 -1.0548 -0.4744 -0.0657
 3575SOL     OW22183   3.110   3.352   4.917  0.1741 -0.4023  0.3352
 3575SOL    HW122184   3.170   3.281   4.943  1.1749  1.1164  2.2385
 3575SOL    HW222185   3.084   3.365   5.008  0.1323 -0.3451  0.3145
 3576SOL     OW22186   2.519   2.343   4.236  0.1567 -0.8133 -0.6908
 3576SOL    HW122187   2.513   2.294   4.153 -1.3061 -1.9420  0.0789
 3576SOL    HW222188   2.472   2.424   4.221  1.0599  0.0762  1.3791
 3577SOL     OW22189   0.065   2.377   2.649  0.2076 -0.2514  0.3159
 3577SOL    HW122190   0.108   2.293   2.668  0.9812  0.3285  1.1509
 3577SOL    HW222191   0.102   2.376   2.561 -0.8101  0.1850 -0.1108
 3578SOL     OW22192   0.427   2.197   8.527  0.4615  0.4344  0.6739
 3578SOL    HW122193   0.510   2.149   8.532 -0.7382 -1.6853  0.2315
 3578SOL    HW222194   0.471   2.274   8.490  1.8313 -0.4578  0.4402
 3579SOL     OW22195   1.212   1.766   6.463 -0.1955 -0.6515 -0.3896
 3579SOL    HW122196   1.263   1.844   6.441 -0.8015  0.0551  0.7424
 3579SOL    HW222197   1.205   1.715   6.382  0.2089 -2.5675  0.7883
 3580SOL     OW22198   2.899   2.207   4.923  0.0913 -0.6667 -0.0093
 3580SOL    HW122199   2.859   2.150   4.988 -2.5397  0.3648 -0.7322
 3580SOL    HW222200   2.819   2.247   4.890  0.7352 -2.4577 -3.7470
 3581SOL     OW22201   1.655   4.236  15.409 -0.3095  0.4753  0.1001
 3581SOL    HW122202   1.663   4.303  15.341 -1.1787 -1.6955 -2.1792
 3581SOL    HW222203   1.710   4.166  15.374 -1.4630 -0.4790  0.1936
 3582SOL     OW22204   3.517   0.734  16.359 -0.0613  0.2676 -0.1367
 3582SOL    HW122205   3.470   0.815  16.341 -2.6623 -1.2993 -0.3379
 3582SOL    HW222206   3.452   0.694  16.416  0.4921  1.5190  1.3819
 3583SOL     OW22207   1.197   2.506  13.234  0.4490  0.1645 -0.2192
 3583SOL    HW122208   1.259   2.528  13.164  0.0960  1.1098 -0.2304
 3583SOL    HW222209   1.192   2.580  13.294  1.6806  0.8966 -1.0346
 3584SOL     OW22210   3.471   1.257   2.466  0.2260 -0.5390  0.2901
 3584SOL    HW122211   3.429   1.299   2.391 -0.5167 -2.4394 -0.3527
 3584SOL    HW222212   3.513   1.334   2.506 -1.0722  0.7580 -0.8563
 3585SOL     OW22213   3.164   4.296   6.917  0.1338  0.6269 -0.5449
 3585SOL    HW122214   3.097   4.277   6.851  0.3660 -5.0574  0.8329
 3585SOL    HW222215   3.112   4.346   6.980  1.7400  0.2348  1.0814
 3586SOL     OW22216   2.589   4.175   7.968  1.0217 -0.0878  0.2301
 3586SOL    HW122217   2.562   4.266   7.956 -0.4905 -0.4676  0.7753
 3586SOL    HW222218   2.682   4.181   7.945  0.9189  1.1395  0.1645
 3587SOL     OW22219   1.476   2.334   0.147 -0.5691  0.7231 -0.3698
 3587SOL    HW122220   1.428   2.252   0.153  1.8647 -0.7358 -0.5205
 3587SOL    HW222221   1.514   2.317   0.061  0.8277 -0.7728  0.5374
 3588SOL     OW22222   0.239   3.444   2.504  0.8130 -0.0220 -0.3786
 3588SOL    HW122223   0.155   3.477   2.536  0.2577 -2.6616  0.9375
 3588SOL    HW222224   0.299   3.478   2.570  0.7666  0.2524 -0.4793
 3589SOL     OW22225   2.362   2.245   1.398  0.1816 -0.1186 -0.8267
 3589SOL    HW122226   2.281   2.290   1.421  0.1061  0.1577 -1.6358
 3589SOL    HW222227   2.357   2.250   1.303 -0.8309  0.6623 -0.7298
 3590SOL     OW22228   1.375   0.837   5.981  0.2596 -0.1553 -0.0524
 3590SOL    HW122229   1.397   0.751   6.015 -2.2206 -2.1849 -3.6044
 3590SOL    HW222230   1.322   0.805   5.909 -0.9561  2.1661 -0.2048
 3591SOL     OW22231   3.426   1.042  14.083 -0.4611  0.4609  0.0080
 3591SOL    HW122232   3.519   1.053  14.099 -0.3597 -1.6374  0.8852
 3591SOL    HW222233   3.410   1.120  14.030 -0.5666  0.6307  0.2895
 3592SOL     OW22234   2.465   2.497   5.375  0.3236  0.3509 -0.4014
 3592SOL    HW122235   2.460   2.435   5.302 -2.5253  0.6410 -0.4548
 3592SOL    HW222236   2.452   2.436   5.448 -1.7400 -0.8683 -1.7997
 3593SOL     OW22237   3.209   1.360   1.369 -0.4197  0.1540 -0.4616
 3593SOL    HW122238   3.163   1.311   1.438  0.9404 -0.9855 -0.3580
 3593SOL    HW222239   3.298   1.326   1.377 -0.9679 -0.7061  1.8769
 3594SOL     OW22240   4.519   1.159  15.771  0.1813 -0.5104 -0.8231
 3594SOL    HW122241   4.489   1.133  15.858 -0.7230  0.8367 -0.7380
 3594SOL    HW222242   4.475   1.101  15.710  0.6681 -0.9432 -0.7614
 3595SOL     OW22243   4.615   1.578  12.193 -0.1270  0.2724  0.8541
 3595SOL    HW122244   4.565   1.566  12.112  1.9823 -0.2110 -0.3882
 3595SOL    HW222245   4.549   1.630  12.237  1.1283  1.6044  1.1657
 3596SOL     OW22246   2.871   0.522   6.584 -0.0218  0.2795  0.2737
 3596SOL    HW122247   2.829   0.604   6.558  1.4287  0.0788 -2.6744
 3596SOL    HW222248   2.800   0.459   6.591  2.1353 -2.1438  0.1894
 3597SOL     OW22249   3.506   1.415   4.858 -0.9161  0.0599 -0.3886
 3597SOL    HW122250   3.476   1.472   4.928  0.5569  0.3328  0.0098
 3597SOL    HW222251   3.598   1.442   4.864 -0.8372 -1.2785  4.1956
 3598SOL     OW22252   2.514   4.610   6.044 -0.0876  0.1337 -0.0675
 3598SOL    HW122253   2.496   4.536   6.102 -0.8156  0.4799  0.1389
 3598SOL    HW222254   2.610   4.609   6.050  0.0122 -0.4513 -1.7224
 3599SOL     OW22255   3.787   4.294   0.975  0.2376  0.0885 -0.0299
 3599SOL    HW122256   3.846   4.296   1.050 -0.7197  1.9748  0.6698
 3599SOL    HW222257   3.728   4.364   1.002 -1.5538 -1.5381  0.2969
 3600SOL     OW22258   4.147   0.000  16.409 -0.3070 -0.1430  0.3809
 3600SOL    HW122259   4.181   4.638  16.380  0.5524 -0.5104  2.5047
 3600SOL    HW222260   4.196   0.058  16.350 -1.4348 -0.9612 -1.3531
 3601SOL     OW22261   1.823   0.087   6.441 -0.4318 -0.2402  0.2812
 3601SOL    HW122262   1.758   0.017   6.444 -2.1651  1.2938 -0.8460
 3601SOL    HW222263   1.765   0.164   6.447 -1.3710 -1.2159  3.7613
 3602SOL     OW22264   2.069   2.878   9.017  0.0244  0.5358  0.3994
 3602SOL    HW122265   2.104   2.811   9.076 -0.0601 -0.0645 -0.2316
 3602SOL    HW222266   2.146   2.921   8.978  1.3786 -1.8645  0.4537
 3603SOL     OW22267   2.183   3.871   4.320  0.4436 -0.1276 -0.4356
 3603SOL    HW122268   2.102   3.823   4.335  0.2605  0.2837 -0.1007
 3603SOL    HW222269   2.161   3.957   4.356  1.4887  0.1775 -0.5409
 3604SOL     OW22270   3.660   2.179  13.109  0.5519  0.2200 -0.2088
 3604SOL    HW122271   3.665   2.154  13.201 -2.8642 -3.6946 -1.0853
 3604SOL    HW222272   3.634   2.094  13.075 -2.4800  0.2664  1.9788
 3605SOL     OW22273   1.695   1.285  11.325  0.3953  0.0125 -0.3204
 3605SOL    HW122274   1.653   1.263  11.409  1.9254 -1.1505  0.1415
 3605SOL    HW222275   1.785   1.258  11.341 -0.8403 -3.7349  0.3630
 3606SOL     OW22276   3.717   3.511   5.512 -0.2132  0.2467  0.0942
 3606SOL    HW122277   3.775   3.456   5.564 -0.9810  0.8829  1.6147
 3606SOL    HW222278   3.762   3.503   5.428 -0.1646 -1.9901  0.3301
 3607SOL     OW22279   3.007   0.390   5.271 -0.1239  0.2543 -0.5833
 3607SOL    HW122280   2.919   0.404   5.235  0.2385  1.6996 -0.9086
 3607SOL    HW222281   3.034   0.300   5.251  1.1462  0.4459  0.2607
 3608SOL     OW22282   1.028   1.509   1.977  0.4683 -0.3014 -0.3642
 3608SOL    HW122283   0.952   1.470   2.021  0.3760  2.3085  1.8179
 3608SOL    HW222284   1.086   1.433   1.987  0.0147 -0.4710  1.0589
 3609SOL     OW22285   1.281   2.239  11.204 -0.4421 -0.1875 -0.1804
 3609SOL    HW122286   1.309   2.246  11.295 -3.6924  0.2630  0.7947
 3609SOL    HW222287   1.361   2.199  11.172 -0.8258 -0.3988 -0.8773
 3610SOL     OW22288   0.142   2.741  16.387  0.0223  0.0589  0.3947
 3610SOL    HW122289   0.081   2.678  16.426  0.8175 -0.6467  0.4907
 3610SOL    HW222290   0.137   2.817  16.445 -2.2765 -1.0789  1.6778
 3611SOL     OW22291   4.096   3.715   4.521  0.0891  0.1072  0.1571
 3611SOL    HW122292   4.090   3.807   4.493  0.1660 -0.0680 -0.4302
 3611SOL    HW222293   4.178   3.717   4.571  0.7052 -1.3844 -0.7982
 3612SOL     OW22294   0.719   0.460   5.823 -0.2382  0.1046  0.5029
 3612SOL    HW122295   0.667   0.517   5.880  1.1854  0.5659  1.3454
 3612SOL    HW222296   0.785   0.519   5.787  1.0297 -1.4157  0.3303
 3613SOL     OW22297   2.014   2.649  16.118 -0.1904  0.7311  0.0734
 3613SOL    HW122298   2.044   2.620  16.032  0.3413  1.2646  0.0794
 3613SOL    HW222299   2.022   2.570  16.171 -1.9867 -1.2125 -2.5238
 3614SOL     OW22300   3.548   2.006   1.246 -0.2088 -0.0630 -0.3418
 3614SOL    HW122301   3.613   1.954   1.293  0.3884 -0.5261 -1.6870
 3614SOL    HW222302   3.593   2.027   1.165  0.5071 -1.1687 -0.2269
 3615SOL     OW22303   3.412   3.016   6.726 -1.0408 -0.0777  0.1556
 3615SOL    HW122304   3.372   2.929   6.723 -1.3686  0.1142 -1.1430
 3615SOL    HW222305   3.388   3.040   6.815 -1.1943  2.1530 -0.5007
 3616SOL     OW22306   4.479   0.714  13.035 -0.2379 -0.5772 -0.0987
 3616SOL    HW122307   4.390   0.679  13.041 -0.7687  0.4813 -1.6425
 3616SOL    HW222308   4.483   0.775  13.109  0.4726 -0.0040 -0.6102
 3617SOL     OW22309   3.605   3.776  12.157 -0.2336 -0.3365 -0.2224
 3617SOL    HW122310   3.530   3.810  12.205  0.7538  1.7739 -0.1937
 3617SOL    HW222311   3.564   3.702  12.112 -0.4735 -0.2517 -0.1415
 3618SOL     OW22312   3.914   0.278   5.011 -0.3078 -0.2359 -0.0894
 3618SOL    HW122313   4.004   0.293   5.039 -0.0659  0.9971 -1.5055
 3618SOL    HW222314   3.864   0.354   5.040 -0.6515 -0.4757 -0.0491
 3619SOL     OW22315   1.319   1.106   2.140 -0.3105 -0.0228 -0.2223
 3619SOL    HW122316   1.365   1.147   2.213  0.4780  0.0859 -0.7783
 3619SOL    HW222317   1.378   1.031   2.128 -0.6454 -0.5109  1.1558
 3620SOL     OW22318   3.410   2.319   7.916  0.0771 -0.1747 -0.2092
 3620SOL    HW122319   3.411   2.414   7.902  0.6615 -0.6755 -3.4530
 3620SOL    HW222320   3.389   2.287   7.828  4.1561 -0.5176 -1.0534
 3621SOL     OW22321   3.567   2.681   6.500 -0.0449 -0.7674 -0.7020
 3621SOL    HW122322   3.525   2.605   6.540  0.7659 -1.1350 -0.5361
 3621SOL    HW222323   3.498   2.710   6.440  0.3424  0.6640 -0.4381
 3622SOL     OW22324   1.449   2.963   2.957 -0.2306 -0.7057  0.0098
 3622SOL    HW122325   1.482   2.888   3.006 -0.1854 -0.1486  0.8386
 3622SOL    HW222326   1.513   2.960   2.886  0.1135  1.7164  0.2160
 3623SOL     OW22327   2.856   3.014   2.196 -0.6610  0.2334 -0.2560
 3623SOL    HW122328   2.856   3.001   2.101  0.8370 -1.8250  0.0301
 3623SOL    HW222329   2.879   2.932   2.238  0.3548  0.6973  0.0989
 3624SOL     OW22330   0.968   0.473   7.013  0.1514  0.5116  0.0431
 3624SOL    HW122331   1.005   0.523   6.941 -1.6007  0.1808 -1.1018
 3624SOL    HW222332   1.046   0.427   7.044  2.0125  4.8376  1.8238
 3625SOL     OW22333   4.215   4.317   4.931  0.2302 -0.7483 -0.6937
 3625SOL    HW122334   4.225   4.350   4.842 -0.8339  0.2913 -0.4401
 3625SOL    HW222335   4.305   4.313   4.962  0.0263  1.9934  0.2943
 3626SOL     OW22336   3.833   3.894   8.971 -0.0074 -0.2317 -0.2638
 3626SOL    HW122337   3.842   3.874   9.064 -0.1284 -3.3198 -0.9060
 3626SOL    HW222338   3.921   3.888   8.933 -0.2714  0.6845 -1.0321
 3627SOL     OW22339   0.513   3.130  17.256  0.0034 -0.2331 -0.3191
 3627SOL    HW122340   0.534   3.141  17.163 -0.1948  4.6423  0.2191
 3627SOL    HW222341   0.451   3.058  17.251 -0.2241 -0.1041  0.6326
 3628SOL     OW22342   0.372   1.034   6.286  0.2221 -0.1808  0.0425
 3628SOL    HW122343   0.323   1.059   6.208 -1.3795 -0.1616  1.0518
 3628SOL    HW222344   0.299   1.019   6.346  1.0832  0.8280  1.3316
 3629SOL     OW22345   3.042   0.914   4.630  0.1793  0.8004  0.3597
 3629SOL    HW122346   3.085   0.845   4.681  0.1394 -1.0169 -2.0450
 3629SOL    HW222347   3.104   0.986   4.620  0.6774  0.0376 -2.0848
 3630SOL     OW22348   3.553   3.432  15.649 -0.2981  0.3951 -0.2904
 3630SOL    HW122349   3.506   3.357  15.687 -3.3846  1.3346 -2.2605
 3630SOL    HW222350   3.642   3.397  15.642 -1.0416 -1.3782 -0.9194
 3631SOL     OW22351   3.194   3.678   8.830 -0.6167 -0.2122  1.0024
 3631SOL    HW122352   3.262   3.732   8.790  0.3401 -1.3052  1.1186
 3631SOL    HW222353   3.246   3.597   8.838  1.1706  0.5907 -2.3002
 3632SOL     OW22354   3.479   1.997   3.120  0.7425  0.0985 -0.1346
 3632SOL    HW122355   3.442   1.942   3.051 -2.4257  0.6653  1.1377
 3632SOL    HW222356   3.417   2.070   3.115 -0.5915 -1.2507 -3.5564
 3633SOL     OW22357   0.798   4.357   5.431  0.7230  0.3345  0.0300
 3633SOL    HW122358   0.730   4.410   5.390  1.3710  1.1041 -0.0579
 3633SOL    HW222359   0.751   4.327   5.509  3.2380  1.0784  1.8362
 3634SOL     OW22360   2.649   3.474   3.145 -0.0128 -0.4649  0.0636
 3634SOL    HW122361   2.672   3.567   3.153  2.1907 -1.0608  0.6785
 3634SOL    HW222362   2.575   3.477   3.084  0.5770  2.1283 -0.5492
 3635SOL     OW22363   3.191   2.467   7.734 -0.1253  0.5955  0.2008
 3635SOL    HW122364   3.125   2.422   7.786 -1.3645 -0.0454 -1.9505
 3635SOL    HW222365   3.240   2.511   7.804 -1.1405  0.7808  0.7894
 3636SOL     OW22366   1.608   0.220   8.109  0.0605  0.2574 -0.3518
 3636SOL    HW122367   1.585   0.141   8.061  0.0216 -0.4107  0.7803
 3636SOL    HW222368   1.537   0.281   8.089 -0.3455 -0.6493 -1.7062
 3637SOL     OW22369   0.714   4.282  14.877 -0.2504  0.5961 -0.1005
 3637SOL    HW122370   0.809   4.271  14.868 -0.3783  1.1516 -2.1268
 3637SOL    HW222371   0.692   4.258  14.787  2.4871 -1.9728 -0.0596
 3638SOL     OW22372   2.409   2.277   4.791  0.2459 -0.1639 -0.2516
 3638SOL    HW122373   2.364   2.295   4.708 -0.6950  1.4003  0.6042
 3638SOL    HW222374   2.331   2.258   4.843 -2.3761  0.9389 -3.7371
 3639SOL     OW22375   0.721   1.680  14.938  0.3399 -0.6909 -0.6080
 3639SOL    HW122376   0.651   1.631  14.982  0.0873  1.3080  1.2387
 3639SOL    HW222377   0.676   1.752  14.894 -0.4142 -0.0687  1.1898
 3640SOL     OW22378   4.273   1.034   2.016 -0.4847  0.5278 -0.1597
 3640SOL    HW122379   4.240   1.103   1.958 -0.2687  0.2573 -0.6016
 3640SOL    HW222380   4.334   0.990   1.956 -1.8909 -0.3502 -0.9379
 3641SOL     OW22381   0.408   0.499   8.043  0.9411  0.4723 -0.1019
 3641SOL    HW122382   0.445   0.568   8.098  1.4319  0.7555 -0.7793
 3641SOL    HW222383   0.409   0.431   8.110  2.7728  1.2039  0.6083
 3642SOL     OW22384   3.987   1.944   6.141 -0.0091 -0.1047  0.3135
 3642SOL    HW122385   4.060   1.905   6.190  1.5578  1.6207 -0.6404
 3642SOL    HW222386   3.928   1.869   6.146 -0.7092  0.3908 -0.5389
 3643SOL     OW22387   4.555   2.750   7.315 -0.0561  0.5296  0.9555
 3643SOL    HW122388   4.482   2.688   7.322  1.6035 -1.5434 -0.1646
 3643SOL    HW222389   4.602   2.714   7.240 -0.3480 -0.3006  1.1590
 3644SOL     OW22390   1.324   1.324  10.389  0.3933  0.5533  0.8044
 3644SOL    HW122391   1.310   1.287  10.302 -2.4980 -1.2093  1.9955
 3644SOL    HW222392   1.248   1.295  10.440  0.8965  0.3455  1.4413
 3645SOL     OW22393   1.838   2.446   4.374 -0.2120 -0.4171  0.0619
 3645SOL    HW122394   1.775   2.504   4.418  0.0263  1.2885 -1.8250
 3645SOL    HW222395   1.789   2.416   4.297 -0.0468  0.3843 -0.3512
 3646SOL     OW22396   2.397   1.515   9.953 -0.1206  0.0416 -0.0278
 3646SOL    HW122397   2.360   1.507   9.865  2.0861 -0.3058 -0.9059
 3646SOL    HW222398   2.329   1.571   9.992 -2.8708 -1.3500 -2.7639
 3647SOL     OW22399   3.977   4.499   7.950  0.0601  0.0924  0.5553
 3647SOL    HW122400   3.953   4.485   8.042  0.8678 -1.5407  0.5344
 3647SOL    HW222401   3.906   4.548   7.910  0.4893 -0.5744 -1.0274
 3648SOL     OW22402   0.490   4.010   4.907 -0.2088  0.0568 -0.5035
 3648SOL    HW122403   0.438   4.060   4.970  0.4925  0.4153 -0.2094
 3648SOL    HW222404   0.493   3.928   4.956 -0.6270  0.2357 -0.1783
 3649SOL     OW22405   4.518   1.459  15.006  0.0962 -0.5743  0.3320
 3649SOL    HW122406   4.438   1.441  15.054 -1.6772 -0.3630 -2.5471
 3649SOL    HW222407   4.484   1.491  14.922 -0.0203 -1.1065  0.1762
 3650SOL     OW22408   3.566   0.955   4.563 -0.5426  0.1949  0.3189
 3650SOL    HW122409   3.536   0.956   4.472 -0.5662  0.2012  0.3267
 3650SOL    HW222410   3.600   1.042   4.584 -0.1860 -0.6541  3.1956
 3651SOL     OW22411   2.692   0.112   3.766  0.2603 -0.2219  0.5119
 3651SOL    HW122412   2.613   0.140   3.812 -0.2353  0.9464 -1.0582
 3651SOL    HW222413   2.750   0.090   3.839  1.7693 -1.9570 -1.1827
 3652SOL     OW22414   1.177   1.221   6.378  0.0258  0.3233  0.2440
 3652SOL    HW122415   1.172   1.200   6.285  1.4900  0.1526  0.2115
 3652SOL    HW222416   1.248   1.166   6.411 -0.4585 -0.1421  0.5080
 3653SOL     OW22417   0.611   4.327  17.529 -0.0129 -0.2095  0.7741
 3653SOL    HW122418   0.591   4.237  17.557  0.3871 -0.8252 -0.9473
 3653SOL    HW222419   0.684   4.303  17.473 -1.0573 -0.1220 -0.6173
 3654SOL     OW22420   0.157   2.543   5.281  1.3237  0.5555  0.0493
 3654SOL    HW122421   0.144   2.637   5.292  1.5805  0.4674  1.1170
 3654SOL    HW222422   0.099   2.501   5.345  2.7322 -1.0901  0.2529
 3655SOL     OW22423   1.608   2.133   6.800 -0.5561  0.1882  0.2964
 3655SOL    HW122424   1.663   2.079   6.856 -0.9545 -0.1282  0.3854
 3655SOL    HW222425   1.544   2.145   6.871  0.4138  1.0347  1.0253
 3656SOL     OW22426   3.579   1.237   2.978 -0.1737 -0.7360 -0.2221
 3656SOL    HW122427   3.613   1.216   3.065  1.2238 -2.7844 -1.2636
 3656SOL    HW222428   3.598   1.331   2.976 -3.3899 -0.0619  1.2896
 3657SOL     OW22429   3.188   2.488   7.153 -0.2340  0.3427 -0.2834
 3657SOL    HW122430   3.214   2.397   7.165  0.2690  0.1513 -2.8295
 3657SOL    HW222431   3.270   2.538   7.156  0.5896 -0.8595 -2.7316
 3658SOL     OW22432   3.859   4.272   5.778 -0.2192  0.2560 -0.4800
 3658SOL    HW122433   3.818   4.228   5.704  0.9859  0.8151 -1.4860
 3658SOL    HW222434   3.789   4.333   5.802 -0.8626 -0.8109  0.3098
 3659SOL     OW22435   3.510   1.312   1.935  0.0601 -0.0624 -0.0453
 3659SOL    HW122436   3.556   1.384   1.891  0.2954 -0.4777 -0.4719
 3659SOL    HW222437   3.578   1.290   1.999 -2.1282  0.0157  2.3001
 3660SOL     OW22438   2.916   1.786   0.732 -0.4350  0.5419  0.2841
 3660SOL    HW122439   2.955   1.867   0.765  0.8052 -0.3141  0.9200
 3660SOL    HW222440   2.861   1.822   0.663 -0.7435 -0.0098  0.2440
 3661SOL     OW22441   0.478   3.331  15.364  0.0089  0.0210  0.0793
 3661SOL    HW122442   0.480   3.419  15.401  2.2382  0.4106 -0.9243
 3661SOL    HW222443   0.442   3.352  15.278  0.6195  0.6574 -0.0202
 3662SOL     OW22444   0.581   1.489   9.627  0.2451  0.1216  0.1017
 3662SOL    HW122445   0.655   1.512   9.683  0.5584 -0.5797 -0.0264
 3662SOL    HW222446   0.614   1.409   9.587 -1.6068 -0.8958  0.6157
 3663SOL     OW22447   1.186   2.930   0.491 -0.2178  0.4012 -0.3860
 3663SOL    HW122448   1.120   2.873   0.452 -0.1183 -0.6909  1.0554
 3663SOL    HW222449   1.168   2.916   0.584  1.4068  1.8487  0.1490
 3664SOL     OW22450   1.448   4.496   5.733  0.0518  0.0136  0.2519
 3664SOL    HW122451   1.509   4.506   5.660 -0.3540 -1.2097 -0.2518
 3664SOL    HW222452   1.426   4.587   5.750 -2.6392 -0.3420 -1.1849
 3665SOL     OW22453   3.709   2.111  10.853 -0.3722 -0.1027  1.0478
 3665SOL    HW122454   3.755   2.116  10.937  3.3987  0.3599 -1.0565
 3665SOL    HW222455   3.661   2.193  10.864  1.3465  0.9455  0.7339
 3666SOL     OW22456   1.448   0.884   9.300  0.1087  0.0884 -0.0517
 3666SOL    HW122457   1.431   0.795   9.268 -2.7656  0.3473  0.8058
 3666SOL    HW222458   1.381   0.936   9.257 -0.7416 -1.4483 -0.6034
 3667SOL     OW22459   4.253   3.349  14.962  0.4180 -0.1656 -0.0335
 3667SOL    HW122460   4.194   3.278  14.939 -0.3933  0.5622 -0.1964
 3667SOL    HW222461   4.313   3.346  14.888 -0.3606  2.2473 -0.7716
 3668SOL     OW22462   3.380   4.442  11.061 -0.2656 -0.4380  0.4736
 3668SOL    HW122463   3.474   4.427  11.050  0.2755  3.0545  0.1028
 3668SOL    HW222464   3.385   4.535  11.036 -1.5940  0.2940  2.8957
 3669SOL     OW22465   1.527   1.118   5.712  0.2533  0.3768  0.2317
 3669SOL    HW122466   1.588   1.119   5.639  0.0543 -1.1593  0.0506
 3669SOL    HW222467   1.582   1.071   5.774  0.4562  0.1312 -0.1320
 3670SOL     OW22468   3.032   1.870   2.567 -0.6039 -0.5219  0.3289
 3670SOL    HW122469   2.982   1.844   2.490 -1.5232 -0.4432  0.9004
 3670SOL    HW222470   3.076   1.950   2.538  0.4247 -1.0359  0.4714
 3671SOL     OW22471   1.882   1.738  13.056  0.4021  0.5112 -0.2936
 3671SOL    HW122472   1.865   1.657  13.105 -0.6574  0.6746 -0.3897
 3671SOL    HW222473   1.976   1.754  13.062  0.8891 -2.6929  0.4503
 3672SOL     OW22474   4.619   1.041   8.845  0.3534  0.0055 -0.2359
 3672SOL    HW122475   4.551   1.077   8.903  2.0049  1.2681  0.9374
 3672SOL    HW222476   4.683   1.015   8.912 -1.6926 -0.8012  1.4091
 3673SOL     OW22477   2.522   4.222  17.236 -0.4377 -0.1058 -0.2791
 3673SOL    HW122478   2.531   4.164  17.312 -0.1574 -2.5504 -2.1913
 3673SOL    HW222479   2.521   4.306  17.282  0.9477 -0.0759 -0.3147
 3674SOL     OW22480   0.600   3.105  12.960  0.1303 -0.4140  0.2786
 3674SOL    HW122481   0.538   3.038  12.989  1.1299 -1.6378 -0.3753
 3674SOL    HW222482   0.644   3.117  13.044  0.6467  0.6788 -0.1564
 3675SOL     OW22483   1.577   1.545   3.519 -0.0059 -0.3704 -0.1124
 3675SOL    HW122484   1.604   1.457   3.548  2.6111  0.4225 -0.1786
 3675SOL    HW222485   1.502   1.524   3.463 -0.4817 -1.5015  0.9278
 3676SOL     OW22486   1.631   1.136   7.515 -0.2767  0.4337  0.6478
 3676SOL    HW122487   1.710   1.149   7.463  0.6943  0.5564  2.1595
 3676SOL    HW222488   1.562   1.147   7.449  0.8768 -2.7616 -1.1284
 3677SOL     OW22489   1.126   2.350   9.635  0.0067 -0.3281 -0.3015
 3677SOL    HW122490   1.217   2.341   9.607  0.0739  0.2901 -0.2988
 3677SOL    HW222491   1.093   2.414   9.572  3.2752  1.3514 -0.3236
 3678SOL     OW22492   1.510   1.461   7.316  0.1561 -0.1367  0.1445
 3678SOL    HW122493   1.584   1.516   7.289 -1.5083  1.8239 -0.4251
 3678SOL    HW222494   1.474   1.506   7.393 -0.1624 -0.8777  0.4313
 3679SOL     OW22495   4.569   3.972   6.391 -0.3863  0.1286  0.0553
 3679SOL    HW122496   4.562   4.038   6.321  3.1745  2.2388  1.6728
 3679SOL    HW222497   4.480   3.938   6.394 -0.4022  0.0800 -0.9375
 3680SOL     OW22498   4.173   0.953  16.868 -0.1887  0.0842 -0.0494
 3680SOL    HW122499   4.130   0.881  16.916 -3.2435  2.3763  0.6587
 3680SOL    HW222500   4.205   0.904  16.792  0.2216  3.4258 -2.0127
 3681SOL     OW22501   3.479   2.318  11.477  0.0384  0.0540 -0.6328
 3681SOL    HW122502   3.516   2.297  11.391 -1.2208  1.9790 -1.6619
 3681SOL    HW222503   3.470   2.235  11.523 -1.0705  1.8084  2.3620
 3682SOL     OW22504   1.079   2.119  14.717  0.0906 -0.5832  0.2465
 3682SOL    HW122505   1.055   2.199  14.670 -0.2247 -0.4752  0.5887
 3682SOL    HW222506   1.174   2.122  14.717  0.0563  0.3044  2.6279
 3683SOL     OW22507   3.896   3.771  11.557 -0.4078 -0.2928  0.0019
 3683SOL    HW122508   3.904   3.710  11.631  1.2449 -0.0645  0.0046
 3683SOL    HW222509   3.821   3.824  11.581  0.0889 -0.2533  1.4699
 3684SOL     OW22510   1.790   1.545  12.588  0.2540  0.4363 -0.2768
 3684SOL    HW122511   1.875   1.578  12.617  0.2263  1.2943 -1.1498
 3684SOL    HW222512   1.789   1.578  12.498 -1.3559  2.1348  0.3627
 3685SOL     OW22513   1.627   1.046   5.993  0.0014 -0.0861 -0.0650
 3685SOL    HW122514   1.645   0.963   5.949 -2.1171  0.8130 -2.6481
 3685SOL    HW222515   1.592   1.024   6.079  2.7095  0.2962  1.1310
 3686SOL     OW22516   1.715   4.569  10.067  0.6528 -0.7045 -0.4925
 3686SOL    HW122517   1.633   4.615  10.052 -0.1383 -1.8851  0.1931
 3686SOL    HW222518   1.746   4.596  10.154  0.7162 -0.7209 -0.5105
 3687SOL     OW22519   1.690   0.483  16.133  0.4676 -0.1401 -0.0796
 3687SOL    HW122520   1.689   0.460  16.040 -1.1984  0.9120 -0.3336
 3687SOL    HW222521   1.717   0.575  16.130  0.5253 -0.0476  3.1785
 3688SOL     OW22522   2.284   0.408   2.693 -0.2134  0.3633  0.1263
 3688SOL    HW122523   2.192   0.407   2.721  0.3192 -1.4307  1.7805
 3688SOL    HW222524   2.320   0.390   2.779 -0.7721  0.0469  0.2944
 3689SOL     OW22525   0.487   3.868   9.432 -0.0191  0.1866 -0.4537
 3689SOL    HW122526   0.476   3.952   9.387  1.2816  0.3912 -0.3898
 3689SOL    HW222527   0.471   3.902   9.521 -1.6324  1.1283 -1.1100
 3690SOL     OW22528   0.705   4.211   5.865  0.3296  0.0652  0.7581
 3690SOL    HW122529   0.692   4.148   5.937  1.9970  0.5176  1.4588
 3690SOL    HW222530   0.766   4.265   5.915 -0.1976  0.8960  0.5089
 3691SOL     OW22531   3.386   3.828   8.039 -0.1259  0.1373 -0.3377
 3691SOL    HW122532   3.437   3.898   8.079 -0.4146  0.4171 -0.4598
 3691SOL    HW222533   3.436   3.829   7.957 -2.2984 -1.6617 -1.6842
 3692SOL     OW22534   2.784   1.318   9.030  0.5289  0.3868  0.0070
 3692SOL    HW122535   2.723   1.260   8.984  1.7786 -0.3217 -0.7333
 3692SOL    HW222536   2.790   1.392   8.969 -0.2982  0.4295 -0.0241
 3693SOL     OW22537   3.393   0.835   4.064 -0.0562 -0.1399 -0.2434
 3693SOL    HW122538   3.321   0.847   4.002 -0.6249 -1.6425  0.1299
 3693SOL    HW222539   3.407   0.742   4.050  2.0892  0.1991 -0.3881
 3694SOL     OW22540   1.376   0.743   2.217  0.1857 -0.3051  0.0461
 3694SOL    HW122541   1.329   0.683   2.160  0.4924  1.7553 -2.3644
 3694SOL    HW222542   1.406   0.801   2.147  2.2125 -0.1458  1.0449
 3695SOL     OW22543   2.363   1.333   8.891  0.2254  0.3105  0.2355
 3695SOL    HW122544   2.409   1.377   8.819  0.0632  2.0723  1.2314
 3695SOL    HW222545   2.432   1.282   8.934 -0.1530  0.1987  0.7122
 3696SOL     OW22546   4.319   2.513  17.279  0.2516 -0.3618  0.6371
 3696SOL    HW122547   4.348   2.586  17.225 -2.8008 -0.1370 -0.6921
 3696SOL    HW222548   4.236   2.543  17.317 -0.4828 -2.2689  0.5641
 3697SOL     OW22549   4.675   1.158  13.133  0.2942  0.3410 -0.3902
 3697SOL    HW122550   4.620   1.135  13.058  2.8281  0.6654 -2.3243
 3697SOL    HW222551   0.037   1.130  13.099  0.0281  0.1706 -0.9143
 3698SOL     OW22552   3.309   0.874   5.410  0.4093 -0.2252  0.0379
 3698SOL    HW122553   3.364   0.839   5.339  2.0084  2.7534 -0.2020
 3698SOL    HW222554   3.242   0.806   5.415 -0.1981  0.1904 -2.4554
 3699SOL     OW22555   0.679   3.271   4.437  0.1524  0.0999  0.5258
 3699SOL    HW122556   0.773   3.284   4.428  0.1200 -0.7825 -1.1845
 3699SOL    HW222557   0.640   3.302   4.355 -0.9863  0.7188  1.3068
 3700SOL     OW22558   0.251   4.639   7.676  0.4663  0.3209 -0.2846
 3700SOL    HW122559   0.310   4.590   7.733  0.4512 -0.4340 -0.9122
 3700SOL    HW222560   0.168   4.592   7.685  0.1091  1.1242  0.5852
 3701SOL     OW22561   2.726   2.994   6.887 -0.0311  0.2639  0.0622
 3701SOL    HW122562   2.818   3.020   6.886  0.2504 -0.5986  3.0256
 3701SOL    HW222563   2.721   2.934   6.813  0.2303 -0.4080  0.5874
 3702SOL     OW22564   1.910   0.071  15.639 -0.2441  0.5737 -0.7230
 3702SOL    HW122565   1.903   0.122  15.558 -2.9316  0.1057 -0.7684
 3702SOL    HW222566   1.914   4.705  15.601  0.6175  1.0101 -1.6672
 3703SOL     OW22567   3.534   4.132  11.789  0.1310  0.9042  0.2638
 3703SOL    HW122568   3.534   4.048  11.835 -0.7968  1.6421  1.6244
 3703SOL    HW222569   3.605   4.182  11.830  0.6616  0.7702 -0.5051
 3704SOL     OW22570   1.957   0.731   6.157 -0.6014 -0.2357  0.6202
 3704SOL    HW122571   2.027   0.724   6.222 -0.3067  0.3031  0.3672
 3704SOL    HW222572   1.942   0.826   6.154 -0.3120 -0.1298  3.0054
 3705SOL     OW22573   2.784   0.764   7.301 -0.3251 -0.2887  0.0419
 3705SOL    HW122574   2.876   0.757   7.275 -1.1558 -0.5482 -2.8712
 3705SOL    HW222575   2.758   0.848   7.263  1.8908  1.5217  2.4870
 3706SOL     OW22576   2.338   2.877  11.158 -0.8514  0.2645 -0.5832
 3706SOL    HW122577   2.383   2.808  11.110 -1.2448  0.5679 -1.3801
 3706SOL    HW222578   2.376   2.953  11.114 -1.5375  0.5476 -0.6969
 3707SOL     OW22579   4.344   2.490   2.417  0.0741  0.4108  0.2942
 3707SOL    HW122580   4.375   2.560   2.360 -1.7246  1.8055  1.0506
 3707SOL    HW222581   4.412   2.489   2.485  1.4962 -2.0576 -1.1665
 3708SOL     OW22582   3.746   0.759   5.274  0.5175  0.6999  0.2675
 3708SOL    HW122583   3.668   0.705   5.287 -0.1886  2.3484  2.8812
 3708SOL    HW222584   3.718   0.796   5.190  0.2795  1.2814  0.6025
 3709SOL     OW22585   3.299   0.840  11.156 -0.1503 -0.2339  0.2792
 3709SOL    HW122586   3.387   0.867  11.184 -0.2213  1.2699 -0.9376
 3709SOL    HW222587   3.253   0.828  11.239 -2.8831 -0.6865 -1.2937
 3710SOL     OW22588   2.694   4.159   5.843  0.4318 -0.6059  0.8253
 3710SOL    HW122589   2.654   4.080   5.808 -0.9943  0.7519 -0.6102
 3710SOL    HW222590   2.771   4.160   5.786 -0.2667  0.8979 -0.1178
 3711SOL     OW22591   4.216   0.635  10.869 -0.2354 -0.2315 -0.4863
 3711SOL    HW122592   4.139   0.626  10.925  1.4715 -0.1561  1.8858
 3711SOL    HW222593   4.181   0.695  10.803 -0.5831 -0.3676 -0.4246
 3712SOL     OW22594   4.539   3.621  11.176  0.1511 -0.4068 -0.5356
 3712SOL    HW122595   4.558   3.608  11.269  1.3816  0.4337 -0.6619
 3712SOL    HW222596   4.447   3.595  11.179  0.1754 -0.6227 -1.7727
 3713SOL     OW22597   0.995   3.477   1.342  0.4494  0.0465 -0.1024
 3713SOL    HW122598   1.026   3.458   1.431 -0.9934  0.0802  0.4132
 3713SOL    HW222599   0.925   3.541   1.354  2.5519  2.2498  0.4049
 3714SOL     OW22600   1.280   2.634   0.818 -0.2867  0.2381  0.3338
 3714SOL    HW122601   1.196   2.642   0.773 -0.9488  2.7830  1.9859
 3714SOL    HW222602   1.283   2.540   0.833 -2.0030  0.1960  0.3503
 3715SOL     OW22603   2.245   2.236   3.099 -0.1546 -0.2160 -0.1011
 3715SOL    HW122604   2.250   2.146   3.068 -0.2212 -0.2090 -0.1314
 3715SOL    HW222605   2.159   2.266   3.069  1.5129  2.7471 -1.9586
 3716SOL     OW22606   3.212   2.823   9.578  0.4117 -0.3674  0.0062
 3716SOL    HW122607   3.137   2.871   9.545 -0.4523 -1.4807  0.3461
 3716SOL    HW222608   3.283   2.854   9.521 -0.6426  1.0580 -0.5413
 3717SOL     OW22609   2.464   4.464  11.317  0.3039 -0.2858  0.2734
 3717SOL    HW122610   2.544   4.518  11.322  2.3589 -2.9845 -3.2951
 3717SOL    HW222611   2.412   4.516  11.255  1.4211  0.3275 -0.1547
 3718SOL     OW22612   4.031   0.088   3.609  0.2441  0.1991  0.4657
 3718SOL    HW122613   4.036   0.155   3.677 -0.5746  0.4992  0.2282
 3718SOL    HW222614   4.111   0.094   3.557 -1.2009 -0.5730 -1.8610
 3719SOL     OW22615   0.793   2.157   0.513  0.2287  0.1012 -0.5166
 3719SOL    HW122616   0.838   2.167   0.597  0.5447  2.1542 -0.9413
 3719SOL    HW222617   0.782   2.062   0.511 -0.8760  0.2210 -0.0978
 3720SOL     OW22618   2.366   3.426   3.986  0.1498 -0.0875 -0.0903
 3720SOL    HW122619   2.380   3.418   3.892  3.7406  1.6639  0.3032
 3720SOL    HW222620   2.393   3.339   4.016 -2.3833 -0.1168  2.1051
 3721SOL     OW22621   1.682   2.691   0.976  0.2491  0.3269  0.3299
 3721SOL    HW122622   1.677   2.751   0.901 -1.2910 -0.7523 -0.4207
 3721SOL    HW222623   1.728   2.752   1.035  2.5993  0.0029 -1.1744
 3722SOL     OW22624   2.748   1.653   7.518 -0.2111 -0.2866  0.3886
 3722SOL    HW122625   2.737   1.612   7.604 -0.4335 -1.5635 -0.2534
 3722SOL    HW222626   2.802   1.729   7.540 -0.9502  0.5901 -0.8437
 3723SOL     OW22627   0.583   0.558   6.605  0.6692  1.1031 -0.6175
 3723SOL    HW122628   0.592   0.633   6.547 -1.8654  0.0472 -2.3896
 3723SOL    HW222629   0.526   0.498   6.556 -0.6697  0.5603  1.5922
 3724SOL     OW22630   1.140   1.977   0.618  0.4599 -0.3449  0.1512
 3724SOL    HW122631   1.123   1.883   0.629  0.0812 -0.6657 -3.0495
 3724SOL    HW222632   1.065   2.008   0.669 -0.3338 -3.6410  1.0018
 3725SOL     OW22633   2.896   3.647   4.664  0.1801 -0.5825 -0.7163
 3725SOL    HW122634   2.934   3.631   4.577 -1.1647 -0.1255 -1.3852
 3725SOL    HW222635   2.889   3.561   4.706 -0.2990 -0.3370 -0.3036
 3726SOL     OW22636   2.701   4.177   2.221  0.1085  0.0206 -0.1684
 3726SOL    HW122637   2.670   4.218   2.140  0.7840 -0.4710 -0.6831
 3726SOL    HW222638   2.656   4.220   2.293 -0.7328  0.1428 -0.7650
 3727SOL     OW22639   3.521   1.536   1.316  0.0083  0.1324 -0.2706
 3727SOL    HW122640   3.543   1.608   1.375  1.7339  0.7837 -1.7245
 3727SOL    HW222641   3.443   1.568   1.270 -0.9061  0.3314  1.4429
 3728SOL     OW22642   0.276   4.120  14.277 -0.2125  0.6796  0.2753
 3728SOL    HW122643   0.230   4.193  14.318 -0.4024 -0.0569  1.3605
 3728SOL    HW222644   0.200   4.088  14.229 -1.0012  1.7674  0.8033
 3729SOL     OW22645   3.895   1.170   3.669  0.3099 -0.4644 -0.3757
 3729SOL    HW122646   3.809   1.211   3.671  1.0084  1.0022 -0.6046
 3729SOL    HW222647   3.875   1.076   3.667  0.8212 -0.6278  1.4075
 3730SOL     OW22648   0.209   2.815  10.309 -0.2702 -0.1879  0.4561
 3730SOL    HW122649   0.148   2.817  10.383  0.4045  0.7594  0.9863
 3730SOL    HW222650   0.271   2.750  10.342 -0.0347 -0.8537 -1.3020
 3731SOL     OW22651   3.531   0.426  14.836  0.3450  0.2498 -0.1214
 3731SOL    HW122652   3.455   0.368  14.837  0.3316  0.2926  2.1639
 3731SOL    HW222653   3.517   0.489  14.907 -1.2331  0.4246 -0.5854
 3732SOL     OW22654   0.683   1.615   9.316  0.2155  0.8878  0.3099
 3732SOL    HW122655   0.619   1.677   9.351 -2.3155  0.0875 -2.8556
 3732SOL    HW222656   0.723   1.581   9.396  0.3125 -0.4616 -0.3110
 3733SOL     OW22657   0.082   4.458   3.554  0.1875  0.3140  0.0302
 3733SOL    HW122658   0.125   4.373   3.546  1.5884  0.7662  2.9066
 3733SOL    HW222659   0.158   4.504   3.589  0.7369 -0.9392  0.4978
 3734SOL     OW22660   3.344   2.701   5.920  0.6718  0.0373  0.0149
 3734SOL    HW122661   3.349   2.622   5.867 -2.3934 -0.5094  0.5419
 3734SOL    HW222662   3.393   2.669   5.995 -1.7117 -1.4534  0.9480
 3735SOL     OW22663   1.805   2.898  10.288 -0.0654 -0.1512 -0.7960
 3735SOL    HW122664   1.747   2.834  10.247 -1.1807  0.1333  0.3665
 3735SOL    HW222665   1.881   2.843  10.307 -0.8532 -1.1344 -0.4400
 3736SOL     OW22666   1.073   2.346   0.286 -0.3608 -0.2014 -0.3674
 3736SOL    HW122667   1.089   2.252   0.283 -0.9707 -0.2828 -1.1724
 3736SOL    HW222668   1.093   2.376   0.197  0.0206 -1.6572 -0.7837
 3737SOL     OW22669   2.665   4.300   9.639  0.1829  0.0320  0.5035
 3737SOL    HW122670   2.723   4.224   9.647 -0.2358 -0.6601 -3.2135
 3737SOL    HW222671   2.608   4.283   9.714 -2.4921 -1.5238 -1.9318
 3738SOL     OW22672   0.799   4.414   8.776 -0.3769  0.2347  0.2397
 3738SOL    HW122673   0.765   4.463   8.702 -2.1811 -2.1873 -0.5179
 3738SOL    HW222674   0.892   4.438   8.785  0.0535 -1.1525 -0.4662
 3739SOL     OW22675   1.640   2.013   0.565 -0.1929  0.4690  0.0518
 3739SOL    HW122676   1.725   2.058   0.571  0.5193 -0.5746 -2.3662
 3739SOL    HW222677   1.609   2.036   0.478  1.2416 -2.3017 -1.1953
 3740SOL     OW22678   1.466   3.867   8.088 -0.2702 -0.4957 -0.0225
 3740SOL    HW122679   1.427   3.842   8.004 -1.2924  0.1295  0.2684
 3740SOL    HW222680   1.557   3.880   8.064 -1.0523 -1.0918 -3.3135
 3741SOL     OW22681   1.835   1.221   7.891  0.6099  0.1468 -0.0868
 3741SOL    HW122682   1.885   1.198   7.970  1.9553  0.8973 -0.7139
 3741SOL    HW222683   1.893   1.200   7.818  2.6074  0.0577  1.5044
 3742SOL     OW22684   2.256   3.770  16.294  0.4524  0.4520  0.4415
 3742SOL    HW122685   2.187   3.767  16.360  1.5862  0.1877  1.5946
 3742SOL    HW222686   2.317   3.705  16.329 -2.7131 -0.8773  3.3948
 3743SOL     OW22687   0.383   3.121   9.122  0.5549 -0.0499 -0.6484
 3743SOL    HW122688   0.415   3.140   9.211  1.8303  0.2229 -1.1611
 3743SOL    HW222689   0.288   3.112   9.134  0.4723  1.6883 -0.1065
 3744SOL     OW22690   4.584   1.154   2.654  0.1215  0.2850 -0.2584
 3744SOL    HW122691   4.568   1.070   2.697  2.2552  0.4126  0.7749
 3744SOL    HW222692   4.663   1.186   2.698 -1.6679  1.2805  2.2477
 3745SOL     OW22693   0.514   2.195  17.313  0.1514 -0.3103  0.1931
 3745SOL    HW122694   0.531   2.106  17.283 -2.9604 -1.0402  0.5471
 3745SOL    HW222695   0.480   2.187  17.402  1.1264 -2.0640  0.4100
 3746SOL     OW22696   1.462   0.464   2.878  0.9225  0.0859  0.1519
 3746SOL    HW122697   1.428   0.531   2.819  0.2425 -0.6009 -0.2482
 3746SOL    HW222698   1.546   0.462   2.834 -0.0061 -2.0897 -1.5310
 3747SOL     OW22699   1.038   4.388  14.680 -0.1975  0.2136 -0.1383
 3747SOL    HW122700   1.017   4.407  14.588 -2.5748 -1.5048  0.0571
 3747SOL    HW222701   1.122   4.432  14.697  1.6477 -3.3144 -0.0708
 3748SOL     OW22702   3.750   3.750  14.216  0.3377 -0.3062  0.3498
 3748SOL    HW122703   3.812   3.819  14.192 -0.6259 -0.1711 -1.8088
 3748SOL    HW222704   3.679   3.790  14.165  0.5164  1.4999  1.5270
 3749SOL     OW22705   0.029   1.963   4.830 -0.0233  0.3144 -0.1815
 3749SOL    HW122706   0.075   1.879   4.838  0.0317  0.6195  2.4589
 3749SOL    HW222707   4.668   1.930   4.798 -0.0979 -1.1137  1.5050
 3750SOL     OW22708   3.427   0.658   0.307 -0.2736  0.7662  0.7358
 3750SOL    HW122709   3.387   0.614   0.383 -0.5387 -1.4469 -0.6813
 3750SOL    HW222710   3.477   0.583   0.275 -2.4251  0.2388 -1.3959
 3751SOL     OW22711   4.131   4.362  14.893 -0.3300  0.0327 -0.2250
 3751SOL    HW122712   4.066   4.425  14.924  0.2079  0.4954 -0.0365
 3751SOL    HW222713   4.137   4.392  14.802 -0.2823  0.2364 -0.1548
 3752SOL     OW22714   3.422   3.103   2.786  0.5251  0.4056  0.2601
 3752SOL    HW122715   3.451   3.114   2.876  2.9532 -0.8796 -0.3613
 3752SOL    HW222716   3.456   3.015   2.770 -0.4352  0.0119  0.3682
 3753SOL     OW22717   4.019   3.301   1.350 -0.3846 -0.1232 -0.0274
 3753SOL    HW122718   3.949   3.349   1.395 -1.6259  0.9622 -3.0701
 3753SOL    HW222719   4.037   3.361   1.278 -0.4380 -0.4047 -0.2762
 3754SOL     OW22720   0.201   1.760   7.831 -0.3959  0.8444 -0.2707
 3754SOL    HW122721   0.105   1.753   7.828 -0.3168 -1.0650  1.2331
 3754SOL    HW222722   0.207   1.698   7.904 -1.0173  2.2002  0.9412
 3755SOL     OW22723   1.031   0.726   9.480 -0.0157 -0.4525  0.2720
 3755SOL    HW122724   1.058   0.757   9.393 -0.8147  3.2603  1.3631
 3755SOL    HW222725   0.942   0.761   9.482  0.8064  1.5633  1.3568
 3756SOL     OW22726   1.634   4.380   6.554 -0.1649  0.2814 -0.2853
 3756SOL    HW122727   1.705   4.362   6.615 -1.0007 -1.3272  0.2005
 3756SOL    HW222728   1.627   4.291   6.521  0.4740 -0.3508  1.2955
 3757SOL     OW22729   0.229   1.707   3.919 -0.2695  0.0990 -0.1392
 3757SOL    HW122730   0.322   1.726   3.933 -1.1165  2.6305  2.0731
 3757SOL    HW222731   0.231   1.651   3.842 -0.6704  0.3074 -0.3031
 3758SOL     OW22732   1.872   1.953   5.945  0.3827 -0.5172 -0.2091
 3758SOL    HW122733   1.885   1.879   6.005 -0.6316 -1.5330 -1.2457
 3758SOL    HW222734   1.778   1.959   5.932  0.4078  0.2720  0.0067
 3759SOL     OW22735   4.511   3.838   8.858 -0.1670 -0.0611 -0.0693
 3759SOL    HW122736   4.471   3.916   8.895  1.6373  1.9016 -2.2686
 3759SOL    HW222737   4.482   3.778   8.926 -2.0491  0.0995 -0.7313
 3760SOL     OW22738   2.050   4.273   3.544  0.0379  1.0982  0.5066
 3760SOL    HW122739   2.084   4.334   3.609 -0.2126 -0.0117  1.6921
 3760SOL    HW222740   2.136   4.259   3.504 -0.0076 -2.1123  1.5382
 3761SOL     OW22741   2.075   2.418  15.645  0.0302  0.0487  0.0047
 3761SOL    HW122742   2.109   2.501  15.679 -0.6662 -0.0587  0.9592
 3761SOL    HW222743   2.037   2.375  15.722  0.3099  1.7593  1.0874
 3762SOL     OW22744   0.212   2.666   9.082 -0.1151  0.4395  0.2719
 3762SOL    HW122745   0.296   2.622   9.088  0.0232  0.7295  0.4786
 3762SOL    HW222746   0.163   2.615   9.146  0.4091 -0.4118 -0.0132
 3763SOL     OW22747   2.129   3.065   1.824  0.1568  0.1841  0.4192
 3763SOL    HW122748   2.168   3.051   1.738  0.9016  0.1957  0.7527
 3763SOL    HW222749   2.065   2.994   1.818  0.1282  0.3345 -1.0178
 3764SOL     OW22750   4.351   2.777   1.250  0.4369 -0.1861  0.1362
 3764SOL    HW122751   4.379   2.691   1.219 -2.4650 -0.8193 -0.7018
 3764SOL    HW222752   4.391   2.825   1.177 -0.7894  1.4523  0.5520
 3765SOL     OW22753   4.225   4.412   3.373  0.3442  0.3058 -0.0228
 3765SOL    HW122754   4.273   4.438   3.452 -0.2968 -2.8746  1.3871
 3765SOL    HW222755   4.262   4.485   3.322  0.7900  1.6380  2.1932
 3766SOL     OW22756   4.468   3.286   5.678  0.4744  0.0720 -0.0320
 3766SOL    HW122757   4.422   3.336   5.610 -1.0017 -0.4819  0.5467
 3766SOL    HW222758   4.550   3.335   5.685 -0.1424  0.8923  1.6447
 3767SOL     OW22759   3.885   0.483   0.778  0.2333 -0.1298  0.3573
 3767SOL    HW122760   3.838   0.403   0.798 -0.2524  0.7759  2.9078
 3767SOL    HW222761   3.976   0.455   0.793 -0.4726 -2.6089 -0.1140
 3768SOL     OW22762   3.984   1.042   2.236 -0.3391 -0.2383  0.1143
 3768SOL    HW122763   3.988   1.112   2.301  2.0942 -1.8556  1.7068
 3768SOL    HW222764   3.965   1.086   2.154  1.4389  1.1324  0.4292
 3769SOL     OW22765   3.352   0.372   7.586  0.5952 -0.4548 -0.0285
 3769SOL    HW122766   3.428   0.365   7.644  0.7887 -1.1998 -0.3750
 3769SOL    HW222767   3.286   0.321   7.633  0.0952 -0.4630 -0.7498
 3770SOL     OW22768   0.797   0.426   2.390  0.1540 -0.5652  0.0970
 3770SOL    HW122769   0.836   0.429   2.478  0.1918  0.8610  0.0249
 3770SOL    HW222770   0.851   0.356   2.352 -1.6728 -2.0125  0.1568
 3771SOL     OW22771   4.163   1.302   8.466  0.7485 -0.8946 -0.3806
 3771SOL    HW122772   4.133   1.335   8.551  3.5238 -0.7127  0.5436
 3771SOL    HW222773   4.183   1.374   8.407 -0.1559  0.9708  1.5933
 3772SOL     OW22774   2.102   3.616   3.291 -0.2039  0.0880 -0.5820
 3772SOL    HW122775   2.019   3.569   3.299 -0.6790  0.8127 -1.3054
 3772SOL    HW222776   2.104   3.634   3.385 -2.0402 -1.7274 -0.1965
 3773SOL     OW22777   0.385   1.478   2.098  0.1765 -0.8098  0.2791
 3773SOL    HW122778   0.387   1.496   2.004  1.1850  1.9618  0.8132
 3773SOL    HW222779   0.292   1.499   2.106 -0.3246 -1.9912 -2.4523
 3774SOL     OW22780   4.216   4.619   7.952 -0.3024  0.0772  0.3414
 3774SOL    HW122781   4.190   4.711   7.948 -0.1539  0.1959  2.0360
 3774SOL    HW222782   4.133   4.572   7.956  0.3435 -1.0725  0.2228
 3775SOL     OW22783   1.185   2.815   8.853  0.3712 -0.0614  0.5715
 3775SOL    HW122784   1.257   2.752   8.857  0.4408  0.0848  1.6119
 3775SOL    HW222785   1.129   2.805   8.929  0.6682 -1.3763  0.6039
 3776SOL     OW22786   4.218   2.948  14.777 -0.1509 -0.1211  0.5586
 3776SOL    HW122787   4.311   2.948  14.799  0.1685 -0.7299 -0.8113
 3776SOL    HW222788   4.180   2.988  14.856 -1.1137 -0.4268  0.2571
 3777SOL     OW22789   0.294   2.672   3.266 -0.4553 -0.4165 -0.1748
 3777SOL    HW122790   0.331   2.586   3.286 -0.4653 -0.3224  0.2476
 3777SOL    HW222791   0.204   2.649   3.242 -0.9799  2.8465 -1.3801
 3778SOL     OW22792   1.523   2.785   4.131  0.4157  0.1259  0.5140
 3778SOL    HW122793   1.493   2.730   4.203  0.8681 -0.2234  0.4357
 3778SOL    HW222794   1.437   2.798   4.091 -0.0523 -1.9869  0.8154
 3779SOL     OW22795   2.080   0.546   6.005 -0.0635 -0.0185 -0.1077
 3779SOL    HW122796   2.038   0.619   6.050  1.4705  1.7076 -1.5212
 3779SOL    HW222797   2.093   0.485   6.078 -2.3402  0.0898  0.4092
 3780SOL     OW22798   2.405   1.447   2.519 -0.3944 -0.3964  0.4784
 3780SOL    HW122799   2.358   1.383   2.466 -2.1534 -0.3776  2.0192
 3780SOL    HW222800   2.465   1.472   2.449 -1.3415  2.6782  0.7440
 3781SOL     OW22801   2.594   0.073  15.700 -0.8002 -0.1418  0.0679
 3781SOL    HW122802   2.661   0.022  15.747 -3.4574 -1.7300  2.1262
 3781SOL    HW222803   2.639   0.157  15.691 -1.6963  0.5335  1.9367
 3782SOL     OW22804   4.114   4.190  10.387 -0.2606 -0.0660 -0.3717
 3782SOL    HW122805   4.111   4.213  10.294  0.8837  5.6983  0.9937
 3782SOL    HW222806   4.201   4.218  10.416  0.5365 -1.7338 -1.1747
 3783SOL     OW22807   0.138   1.782  11.890 -0.2797 -0.0224 -0.2685
 3783SOL    HW122808   0.202   1.839  11.847 -0.6096  0.1524 -0.5232
 3783SOL    HW222809   0.198   1.758  11.960 -0.6448  0.0393  0.0607
 3784SOL     OW22810   3.708   1.463   9.092 -0.1881 -0.1484 -0.1291
 3784SOL    HW122811   3.761   1.399   9.138  1.6514  1.0821 -0.5357
 3784SOL    HW222812   3.660   1.504   9.164 -0.4281 -1.1043  0.2580
 3785SOL     OW22813   1.414   4.530   8.623  0.1722 -0.0424 -0.4701
 3785SOL    HW122814   1.376   4.593   8.562  0.1662  1.3601  0.9675
 3785SOL    HW222815   1.391   4.575   8.704 -1.3910 -0.1894 -0.8262
 3786SOL     OW22816   1.012   1.069   6.658 -0.2376  0.2727  0.2113
 3786SOL    HW122817   1.084   1.050   6.598  0.9447 -0.4845  1.8968
 3786SOL    HW222818   1.060   1.123   6.721 -0.5883 -1.5711  2.0581
 3787SOL     OW22819   0.082   2.796  11.501 -0.7516 -0.1561  0.2121
 3787SOL    HW122820   0.054   2.883  11.475  1.5133  0.4666 -0.0672
 3787SOL    HW222821   0.058   2.751  11.420  3.7465 -1.6889 -0.2786
 3788SOL     OW22822   4.694   4.175   8.321 -0.3319 -0.3853 -0.4532
 3788SOL    HW122823   4.680   4.095   8.271 -1.9251 -0.2552 -0.2045
 3788SOL    HW222824   4.620   4.161   8.381  1.0129 -2.8875  0.6344
 3789SOL     OW22825   1.413   4.661   8.846  0.0019  0.6541 -0.6975
 3789SOL    HW122826   1.398   4.635   8.937 -0.2008  0.3021 -0.8284
 3789SOL    HW222827   1.508   4.666   8.843  0.0779 -0.1299  0.3064
 3790SOL     OW22828   2.628   2.044   2.854  0.3817  0.1385 -0.1299
 3790SOL    HW122829   2.543   2.041   2.898  1.0385  1.6218  1.2416
 3790SOL    HW222830   2.609   2.100   2.779 -1.2815  1.8207  1.5270
 3791SOL     OW22831   2.320   1.766   7.393 -0.2678  0.3488 -0.3872
 3791SOL    HW122832   2.413   1.744   7.393 -0.3259  0.0919  1.4083
 3791SOL    HW222833   2.312   1.861   7.385  1.2215  0.3520 -1.7558
 3792SOL     OW22834   1.810   1.652   3.568  0.2522  0.2653 -0.4323
 3792SOL    HW122835   1.837   1.671   3.478 -0.6366  1.4059 -0.4684
 3792SOL    HW222836   1.718   1.631   3.549  0.2660  0.4912 -0.7476
 3793SOL     OW22837   0.251   1.930   5.158 -0.2214 -0.1157 -0.6517
 3793SOL    HW122838   0.198   1.862   5.117 -0.3659 -1.3937  1.6016
 3793SOL    HW222839   0.338   1.889   5.165 -0.4475 -0.1723  1.9758
 3794SOL     OW22840   1.906   0.843   8.148  0.5130 -0.3349 -0.8574
 3794SOL    HW122841   1.880   0.779   8.214  1.5811  0.7007  0.5884
 3794SOL    HW222842   1.835   0.906   8.158 -0.2741 -1.1300 -1.4575
 3795SOL     OW22843   0.685   4.285  16.061 -0.1907  0.3612  0.5865
 3795SOL    HW122844   0.612   4.283  15.999  0.0146 -1.6021  0.4141
 3795SOL    HW222845   0.734   4.358  16.024 -1.3508  1.1599  0.6270
 3796SOL     OW22846   0.411   4.596   6.582  0.1341 -0.3099 -0.1643
 3796SOL    HW122847   0.336   4.655   6.576  0.5754  0.2520 -0.2586
 3796SOL    HW222848   0.487   4.652   6.601 -0.4033  0.2408  0.3588
 3797SOL     OW22849   0.232   0.122   8.178  0.3460 -0.4460  0.4262
 3797SOL    HW122850   0.141   0.106   8.152  0.1074  2.1711 -0.3537
 3797SOL    HW222851   0.275   0.131   8.093 -2.1231  0.6758 -0.7044
 3798SOL     OW22852   1.597   2.976  17.233  0.3637  0.2983 -0.1297
 3798SOL    HW122853   1.649   2.961  17.155  0.4184 -0.6917  0.0912
 3798SOL    HW222854   1.511   3.002  17.199  1.1427  1.1032 -1.4249
 3799SOL     OW22855   0.712   3.867  11.854 -0.1475 -0.3222 -0.2123
 3799SOL    HW122856   0.705   3.881  11.759 -1.9078  1.8752  0.2182
 3799SOL    HW222857   0.805   3.886  11.857 -0.1696  0.2311 -2.7648
 3800SOL     OW22858   3.337   3.204   4.032 -0.2064  0.6322 -0.0426
 3800SOL    HW122859   3.343   3.161   3.947 -0.1465  0.1364  0.2136
 3800SOL    HW222860   3.246   3.233   4.020 -0.8067 -1.4862 -0.6336
 3801SOL     OW22861   4.158   2.229   4.849 -0.6432 -0.3939  0.3964
 3801SOL    HW122862   4.164   2.161   4.782 -0.2065  1.2495 -1.2401
 3801SOL    HW222863   4.088   2.275   4.803  0.8562 -0.0038 -1.5082
 3802SOL     OW22864   0.176   4.365  11.915  0.0080  0.2830 -0.5522
 3802SOL    HW122865   0.249   4.314  11.951 -1.6779 -3.1552 -1.9474
 3802SOL    HW222866   0.169   4.438  11.976  2.2829 -0.6298  0.8454
 3803SOL     OW22867   2.928   3.504   5.125 -0.2392  0.1155 -0.1330
 3803SOL    HW122868   2.944   3.492   5.219 -2.5398  0.8589  0.3621
 3803SOL    HW222869   2.983   3.579   5.103 -0.9514  0.7273  0.1884
 3804SOL     OW22870   0.984   3.840   8.186  0.4057 -0.2805 -0.3749
 3804SOL    HW122871   0.941   3.923   8.207 -1.5385 -1.1261 -1.0426
 3804SOL    HW222872   1.044   3.851   8.112  0.9867  2.5057  0.5185
 3805SOL     OW22873   1.814   3.929   4.640 -0.4177  0.3665  0.0799
 3805SOL    HW122874   1.805   3.923   4.545 -0.5448 -0.6933  0.1532
 3805SOL    HW222875   1.747   3.989   4.672  0.6317  1.9610 -0.7570
 3806SOL     OW22876   2.881   4.424   5.596  0.3021 -0.2254 -0.1607
 3806SOL    HW122877   2.960   4.397   5.643 -1.1811 -1.1627  1.8280
 3806SOL    HW222878   2.819   4.420   5.670 -0.4228 -0.3421 -0.7692
 3807SOL     OW22879   3.465   3.232   2.324 -0.7037 -0.1205 -0.4745
 3807SOL    HW122880   3.546   3.196   2.290  0.2534  0.7489  0.8811
 3807SOL    HW222881   3.483   3.321   2.354  1.7062 -1.2420  1.3295
 3808SOL     OW22882   2.523   1.606   1.649 -0.0468 -0.1797  0.2141
 3808SOL    HW122883   2.535   1.700   1.663 -1.3705  0.1347 -0.7664
 3808SOL    HW222884   2.445   1.586   1.701 -0.1699 -3.3438 -1.1619
 3809SOL     OW22885   4.062   2.330   5.129 -0.1543 -1.3741  0.1482
 3809SOL    HW122886   4.087   2.289   5.046 -3.4484  1.1050 -2.0528
 3809SOL    HW222887   4.044   2.420   5.103  1.8572 -0.5171  1.6964
 3810SOL     OW22888   0.002   0.421   4.444  0.1977 -0.1423  0.3770
 3810SOL    HW122889   0.014   0.412   4.539  0.7828 -0.3559  0.2877
 3810SOL    HW222890   0.077   0.372   4.409 -1.1144  0.5142 -3.3055
 3811SOL     OW22891   0.722   1.315   9.497  0.1798 -0.4384 -0.0556
 3811SOL    HW122892   0.804   1.272   9.472  1.5962  2.5279 -0.5221
 3811SOL    HW222893   0.663   1.315   9.422 -1.4319  1.9485  1.2153
 3812SOL     OW22894   0.150   0.090   6.139  0.2100 -0.1996 -0.4214
 3812SOL    HW122895   0.114   0.163   6.190  3.6836  0.4687  1.0593
 3812SOL    HW222896   0.220   0.066   6.199 -1.6897 -1.2460  1.3523
 3813SOL     OW22897   4.328   0.769   6.916  0.0599 -0.4155 -0.1086
 3813SOL    HW122898   4.297   0.847   6.961 -0.4324  0.6915 -2.3463
 3813SOL    HW222899   4.379   0.723   6.983 -1.5819 -0.4628  1.0988
 3814SOL     OW22900   2.917   3.503  15.965  0.0359 -0.0835  0.6518
 3814SOL    HW122901   2.957   3.541  16.043 -0.0689 -0.6120  0.9673
 3814SOL    HW222902   2.830   3.480  15.999 -0.8536  0.4526 -1.2463
 3815SOL     OW22903   3.401   2.728   2.344  0.0737  0.6308 -0.0220
 3815SOL    HW122904   3.448   2.805   2.377  0.6876  0.3455 -0.2359
 3815SOL    HW222905   3.460   2.661   2.378 -1.1932 -0.9406 -0.9552
 3816SOL     OW22906   1.507   2.238   5.817 -0.3412  0.2102  0.1174
 3816SOL    HW122907   1.553   2.213   5.737 -0.8781 -0.6273  0.0574
 3816SOL    HW222908   1.547   2.178   5.880  0.5011  0.8754  0.2042
 3817SOL     OW22909   3.276   4.134   5.900 -0.4417 -0.6172 -0.4792
 3817SOL    HW122910   3.330   4.084   5.962  1.3295  1.2004 -0.5277
 3817SOL    HW222911   3.306   4.099   5.816 -1.3262 -0.0361 -1.0215
 3818SOL     OW22912   1.674   3.049  15.899  0.0773  0.5770 -0.7449
 3818SOL    HW122913   1.708   3.103  15.828 -0.5681  1.6179 -0.2611
 3818SOL    HW222914   1.588   3.029  15.863 -0.2625  0.4858  0.1074
 3819SOL     OW22915   3.713   3.913   6.728  0.2339 -0.2106 -1.1721
 3819SOL    HW122916   3.790   3.920   6.785  0.4896 -0.6218 -1.4598
 3819SOL    HW222917   3.648   3.948   6.788 -0.2161 -2.5531 -0.2675
 3820SOL     OW22918   0.267   3.991   7.488  0.1106 -0.3488 -0.3635
 3820SOL    HW122919   0.330   3.932   7.531 -1.7693 -1.3625  1.0217
 3820SOL    HW222920   0.249   4.046   7.565  0.5361  1.9530 -1.9129
 3821SOL     OW22921   1.083   3.850   0.487 -0.9917 -0.5407  0.2290
 3821SOL    HW122922   1.084   3.945   0.498  0.4491 -0.5901  0.4580
 3821SOL    HW222923   1.149   3.827   0.553 -0.3222 -1.0504 -0.6286
 3822SOL     OW22924   2.118   2.745   9.243 -0.1275  0.0663 -0.2793
 3822SOL    HW122925   2.079   2.658   9.249  2.3695 -0.9787  0.9800
 3822SOL    HW222926   2.044   2.797   9.274  0.0868  0.4657 -0.4417
 3823SOL     OW22927   3.490   3.623   0.901  0.1724  0.3716 -0.3375
 3823SOL    HW122928   3.421   3.650   0.961  2.0000  1.1269  1.4617
 3823SOL    HW222929   3.442   3.576   0.834  1.7435  0.6656 -1.6797
 3824SOL     OW22930   1.956   2.101   5.354 -0.1250  0.1480 -0.5849
 3824SOL    HW122931   1.896   2.150   5.298 -0.6797 -1.3900 -1.3378
 3824SOL    HW222932   1.919   2.109   5.441  0.8273 -1.0495 -0.0716
 3825SOL     OW22933   1.508   0.833   3.215  0.8129 -0.2640  0.0748
 3825SOL    HW122934   1.427   0.842   3.164  0.6335  1.8085  0.7333
 3825SOL    HW222935   1.515   0.738   3.212  1.8968 -0.0951 -2.5964
 3826SOL     OW22936   3.024   0.721   6.982 -0.0921 -0.5739 -0.3505
 3826SOL    HW122937   2.960   0.729   6.912 -0.1442  1.0284 -0.1290
 3826SOL    HW222938   3.100   0.690   6.932 -0.0294  0.2356 -0.7559
 3827SOL     OW22939   0.372   3.509  15.160 -0.4668  0.1056  0.5560
 3827SOL    HW122940   0.356   3.478  15.071  1.7597  2.0189 -0.5199
 3827SOL    HW222941   0.284   3.506  15.198 -0.0294  0.7835  1.6428
 3828SOL     OW22942   2.143   1.491   3.763 -0.1688  0.0100  0.6788
 3828SOL    HW122943   2.070   1.545   3.795 -1.5625 -0.8779 -1.0327
 3828SOL    HW222944   2.138   1.423   3.831  0.2239 -0.7433 -0.0394
 3829SOL     OW22945   4.184   0.227  14.559 -0.3520 -0.3081 -0.2825
 3829SOL    HW122946   4.122   0.291  14.524  1.9385  2.1678  0.1590
 3829SOL    HW222947   4.259   0.284  14.576 -0.7043  0.5436 -1.5812
 3830SOL     OW22948   1.067   0.585   2.395 -0.0473  0.2110  0.1700
 3830SOL    HW122949   0.975   0.601   2.374  0.2510  1.1470 -0.4282
 3830SOL    HW222950   1.102   0.516   2.339 -1.2071  0.9863 -1.5159
 3831SOL     OW22951   0.822   4.148   4.287  0.2587  0.4152  0.0482
 3831SOL    HW122952   0.834   4.057   4.258 -0.7493  0.1633  0.4511
 3831SOL    HW222953   0.818   4.187   4.200  0.7094 -0.9372 -0.5842
 3832SOL     OW22954   3.159   0.670  10.536 -0.3743  0.8859  0.7324
 3832SOL    HW122955   3.087   0.651  10.596 -1.6081  3.2514  0.0113
 3832SOL    HW222956   3.125   0.757  10.515  0.1360  0.6954 -0.8674
 3833SOL     OW22957   4.649   1.457   8.587  0.5425 -0.4526 -0.1711
 3833SOL    HW122958   4.660   1.365   8.612 -1.5841 -0.0384  2.2292
 3833SOL    HW222959   4.594   1.490   8.657  0.1168 -2.8145  0.6182
 3834SOL     OW22960   0.037   1.542  16.002 -0.0540 -0.7498  0.0552
 3834SOL    HW122961   0.012   1.554  15.911 -0.2338  0.1489  0.2240
 3834SOL    HW222962   4.685   1.487  16.026  0.7219 -2.6333 -1.8410
 3835SOL     OW22963   1.077   2.494   9.161  0.5942 -0.0093 -0.5736
 3835SOL    HW122964   1.068   2.585   9.135 -0.6246  0.1905  0.5522
 3835SOL    HW222965   1.064   2.505   9.255  0.1629 -0.0923 -0.6222
 3836SOL     OW22966   3.375   1.602   2.708  0.0542 -0.1141  0.3810
 3836SOL    HW122967   3.444   1.585   2.644 -0.2278 -0.6170  0.2013
 3836SOL    HW222968   3.299   1.554   2.674  0.1364  0.8105 -1.1100
 3837SOL     OW22969   2.193   2.255  17.411  0.3115 -0.0888  0.6233
 3837SOL    HW122970   2.207   2.299  17.495  0.0452  0.1387  0.5488
 3837SOL    HW222971   2.100   2.272  17.396  0.4551  0.2815  0.1680
 3838SOL     OW22972   3.538   1.756  11.588 -0.3806  0.3263  0.1202
 3838SOL    HW122973   3.461   1.784  11.538 -1.2983 -0.0638  1.3285
 3838SOL    HW222974   3.563   1.844  11.616 -0.0640  0.8208 -1.6607
 3839SOL     OW22975   4.435   0.318  10.938  0.1174  0.1102 -0.2954
 3839SOL    HW122976   4.357   0.334  10.884  1.3781  1.4648 -1.7193
 3839SOL    HW222977   4.446   0.395  10.993  0.6503 -1.4702  1.7832
 3840SOL     OW22978   3.922   1.996   3.479 -0.1607  0.2024 -0.0895
 3840SOL    HW122979   4.009   1.979   3.444  0.2692 -0.2705  1.2128
 3840SOL    HW222980   3.885   1.911   3.501 -1.1962  0.4632 -0.8242
 3841SOL     OW22981   4.239   1.593   6.171  0.1754 -0.0135  0.2420
 3841SOL    HW122982   4.275   1.580   6.083 -1.0585 -0.0143 -0.2608
 3841SOL    HW222983   4.169   1.656   6.153  0.7576  1.1092  1.8972
 3842SOL     OW22984   0.432   0.454  10.081  0.1685  0.0068  0.6311
 3842SOL    HW122985   0.439   0.550  10.080  0.2955  0.0189  3.5401
 3842SOL    HW222986   0.513   0.433  10.128 -0.1881 -1.5745  0.5060
 3843SOL     OW22987   1.973   0.006  11.886  0.2846  0.8469  0.5892
 3843SOL    HW122988   1.938   4.644  11.857  0.3316  0.3320  2.0187
 3843SOL    HW222989   1.948   0.055  11.808  2.2861  0.9950  0.0257
 3844SOL     OW22990   2.701   2.360   4.744  0.5907  0.5109  0.3464
 3844SOL    HW122991   2.682   2.338   4.653  1.5514 -1.8427  0.7116
 3844SOL    HW222992   2.614   2.342   4.779  2.1979 -3.8825  2.0675
 3845SOL     OW22993   0.380   4.669  11.730  0.2930 -0.1053 -0.2132
 3845SOL    HW122994   0.464   4.703  11.760  0.6403 -1.1989  0.0458
 3845SOL    HW222995   0.360   4.722  11.652 -0.5629  0.2937  0.2697
 3846SOL     OW22996   1.223   4.453  11.323  0.7770  0.0710 -0.4395
 3846SOL    HW122997   1.209   4.370  11.277  0.4918 -0.5842  0.8179
 3846SOL    HW222998   1.311   4.467  11.288  0.8543  2.5029  0.7642
 3847SOL     OW22999   2.670   0.024   8.210  0.1368 -0.0643 -0.0670
 3847SOL    HW123000   2.594   0.076   8.184  0.7172 -0.3180 -2.2999
 3847SOL    HW223001   2.694   0.078   8.285  0.9916 -1.7473  0.8540
 3848SOL     OW23002   4.359   2.125   1.265  0.3483 -0.0387 -0.5063
 3848SOL    HW123003   4.453   2.128   1.246 -0.0311  1.0379 -2.2158
 3848SOL    HW223004   4.331   2.149   1.177 -1.5241  2.2072  0.7206
 3849SOL     OW23005   2.779   1.118  13.310  0.1353  0.3728 -0.5201
 3849SOL    HW123006   2.753   1.152  13.396  1.1393 -0.9570  0.3264
 3849SOL    HW223007   2.822   1.037  13.339 -0.8501  0.3320  0.8346
 3850SOL     OW23008   3.153   3.266  11.074  0.3071  0.1921 -0.1138
 3850SOL    HW123009   3.205   3.294  11.150  0.0472 -0.0953  0.1693
 3850SOL    HW223010   3.159   3.349  11.027  1.2418 -0.0596 -0.4549
 3851SOL     OW23011   0.350   0.087  11.496  0.5810  0.0864  0.2624
 3851SOL    HW123012   0.255   0.076  11.490  0.5945  1.1088 -1.9343
 3851SOL    HW223013   0.364   0.106  11.403  0.6806 -2.1366 -0.1624
 3852SOL     OW23014   4.023   1.276   5.697  0.1776 -0.0526  0.4259
 3852SOL    HW123015   3.994   1.283   5.788 -0.6148 -0.5876  0.2108
 3852SOL    HW223016   4.045   1.183   5.689 -1.6709 -0.5355  0.9803
 3853SOL     OW23017   3.704   4.215   9.200 -0.0298  0.2679  0.1122
 3853SOL    HW123018   3.672   4.256   9.281 -0.8024  0.6123 -0.3686
 3853SOL    HW223019   3.660   4.131   9.215 -0.3665  0.5748  0.8491
 3854SOL     OW23020   2.495   0.386  13.859 -0.1936  0.4032 -0.0072
 3854SOL    HW123021   2.400   0.387  13.858 -0.1904 -0.7526 -2.1270
 3854SOL    HW223022   2.527   0.358  13.773 -0.9702  1.3867 -0.6071
 3855SOL     OW23023   0.981   2.780   0.047  0.1357  0.2255 -0.0148
 3855SOL    HW123024   1.000   2.738  17.656 -1.6131  0.1438 -0.3704
 3855SOL    HW223025   0.943   2.864   0.019 -0.6806 -0.4016 -0.7991
 3856SOL     OW23026   3.690   2.031   7.667  0.3313  0.8089 -0.0034
 3856SOL    HW123027   3.657   2.108   7.621 -0.9096 -0.2844 -0.9166
 3856SOL    HW223028   3.736   2.074   7.739  0.5802 -1.0169  0.9405
 3857SOL     OW23029   2.246   4.517  15.974  0.2907  0.3521 -0.2470
 3857SOL    HW123030   2.335   4.548  15.960 -0.5071  2.8087  0.0591
 3857SOL    HW223031   2.227   4.497  15.882 -2.0771  1.6099 -0.0445
 3858SOL     OW23032   0.129   1.886  15.670 -0.1920  0.3251  0.2566
 3858SOL    HW123033   0.110   1.841  15.588  0.5660 -1.1227  0.8889
 3858SOL    HW223034   0.036   1.894  15.691 -0.8928 -2.2816 -1.8196
 3859SOL     OW23035   3.211   4.397  11.434  0.5720  0.1656  0.0471
 3859SOL    HW123036   3.203   4.315  11.385 -2.6030  1.0244 -0.8806
 3859SOL    HW223037   3.272   4.373  11.503  1.5315 -0.8217 -1.1456
 3860SOL     OW23038   0.687   0.477   1.129 -1.1064  0.5976  0.4507
 3860SOL    HW123039   0.748   0.421   1.178 -0.3595 -1.2001 -2.5750
 3860SOL    HW223040   0.735   0.549   1.089  0.9646 -0.8047  0.3929
 3861SOL     OW23041   3.036   1.012   9.862 -0.4519 -0.4360 -0.3517
 3861SOL    HW123042   2.956   1.063   9.857  0.0369  0.1602 -2.4719
 3861SOL    HW223043   3.015   0.943   9.924 -0.0009 -1.2139 -1.0452
 3862SOL     OW23044   3.979   1.695  12.400 -0.1400 -0.1573  0.4975
 3862SOL    HW123045   4.063   1.739  12.404  0.8097 -1.9567  0.4564
 3862SOL    HW223046   3.925   1.761  12.356 -0.6331 -1.7032 -1.2013
 3863SOL     OW23047   3.125   2.653   3.225  0.3005  0.1897  0.0724
 3863SOL    HW123048   3.056   2.599   3.187 -0.2328  1.7269 -1.1379
 3863SOL    HW223049   3.201   2.596   3.223  0.0744 -0.1193  0.2478
 3864SOL     OW23050   0.969   3.224   4.339 -0.4373 -0.2104  0.2061
 3864SOL    HW123051   0.981   3.279   4.261 -0.0546 -0.2541  0.2363
 3864SOL    HW223052   1.061   3.204   4.357 -0.3321 -0.1949 -0.3054
 3865SOL     OW23053   0.680   2.732   5.149 -0.2418 -0.5903  0.3932
 3865SOL    HW123054   0.717   2.741   5.062  2.2724  1.2480  1.6748
 3865SOL    HW223055   0.668   2.827   5.155 -1.8386 -0.8354  1.1514
 3866SOL     OW23056   1.825   4.432   2.900  0.4800  0.3398  0.1090
 3866SOL    HW123057   1.788   4.406   2.815 -0.9287 -0.3631  0.9399
 3866SOL    HW223058   1.832   4.527   2.890 -2.2909  0.5263 -0.0486
 3867SOL     OW23059   4.523   4.395   1.616 -0.9721 -0.2095  0.0471
 3867SOL    HW123060   4.538   4.366   1.706 -3.7102 -0.8878  0.2933
 3867SOL    HW223061   4.559   4.318   1.572 -2.2372 -0.7319 -0.0611
 3868SOL     OW23062   1.905   1.333  16.119 -0.1248 -0.0353  0.3412
 3868SOL    HW123063   1.876   1.418  16.086  0.7418 -0.3108 -1.1601
 3868SOL    HW223064   1.985   1.324  16.066  1.1924  0.5739  2.2106
 3869SOL     OW23065   2.829   1.556   2.901  0.1163  0.1314 -0.7171
 3869SOL    HW123066   2.923   1.547   2.885  0.2776  0.0826  0.2190
 3869SOL    HW223067   2.814   1.478   2.955 -2.7563 -0.4425 -2.3294
 3870SOL     OW23068   3.770   1.231  17.639 -0.0652  0.7335 -0.1502
 3870SOL    HW123069   3.817   1.206  17.559 -1.7795 -1.9682 -0.3093
 3870SOL    HW223070   3.691   1.178  17.624  0.7266 -1.4061  3.4731
 3871SOL     OW23071   2.647   1.326  10.256 -0.3722  0.8667  0.0818
 3871SOL    HW123072   2.616   1.396  10.313 -0.7504 -0.0074  0.9493
 3871SOL    HW223073   2.664   1.368  10.171 -1.7126 -0.8771 -1.0629
 3872SOL     OW23074   3.306   1.713  13.590  0.5674 -0.4230  0.4090
 3872SOL    HW123075   3.256   1.795  13.591  0.6399 -0.3762  0.2359
 3872SOL    HW223076   3.245   1.646  13.619 -0.4857  0.6458  0.6798
 3873SOL     OW23077   1.561   1.261   7.968  0.0653  0.0509  0.1402
 3873SOL    HW123078   1.648   1.227   7.945  0.1091  0.6614 -0.5920
 3873SOL    HW223079   1.578   1.336   8.025 -0.2005 -0.5075  0.9517
 3874SOL     OW23080   0.534   3.676   4.159 -0.5255 -0.1821  0.1207
 3874SOL    HW123081   0.536   3.643   4.249  1.0636  0.2252  0.2324
 3874SOL    HW223082   0.514   3.597   4.108 -1.1288 -0.5937  0.9654
 3875SOL     OW23083   2.086   4.711  10.532  0.0289  0.4077 -0.5094
 3875SOL    HW123084   2.139   4.667  10.466  0.6446  1.4567 -0.7167
 3875SOL    HW223085   2.037   0.043  10.471  0.7753  0.4144 -1.0981
 3876SOL     OW23086   1.033   3.955  14.713  0.2292 -0.6386  0.0788
 3876SOL    HW123087   1.119   3.978  14.678 -1.2138 -0.3886 -3.3059
 3876SOL    HW223088   0.990   3.894  14.653 -0.7796 -0.2415  0.3816
 3877SOL     OW23089   4.007   2.194   8.204 -0.1204 -0.5582 -0.2663
 3877SOL    HW123090   4.059   2.212   8.125  0.0060  3.1020  0.6449
 3877SOL    HW223091   4.075   2.209   8.269  0.3978  0.9534 -1.1525
 3878SOL     OW23092   0.438   4.449   7.034 -0.0031 -0.4270 -0.5516
 3878SOL    HW123093   0.449   4.385   6.964 -2.9152 -1.5203 -0.0093
 3878SOL    HW223094   0.376   4.409   7.095  0.3274  1.0346  0.7598
 3879SOL     OW23095   0.073   2.842   6.405 -0.1825  0.5562  0.0236
 3879SOL    HW123096   4.709   2.808   6.427  0.2786  0.2362  1.3930
 3879SOL    HW223097   0.057   2.936   6.416  0.5252  0.9092 -2.0566
 3880SOL     OW23098   0.067   3.148   6.490  0.0795  0.4063 -0.1152
 3880SOL    HW123099   0.132   3.205   6.451  1.0888 -1.0170 -0.5237
 3880SOL    HW223100   0.112   3.102   6.561  2.2073 -0.5295 -2.0756
 3881SOL     OW23101   4.326   3.472   7.716 -0.2836  0.1500  0.0696
 3881SOL    HW123102   4.266   3.510   7.652  0.0397 -0.0157 -0.3344
 3881SOL    HW223103   4.310   3.530   7.790 -3.6591 -1.0941  0.3274
 3882SOL     OW23104   4.423   1.082   5.203 -0.1695  0.0249 -0.0202
 3882SOL    HW123105   4.461   1.146   5.142 -0.8984  1.7553  1.3240
 3882SOL    HW223106   4.442   1.130   5.284 -1.2529  0.1613  0.1546
 3883SOL     OW23107   0.839   3.130  15.247 -0.7092 -0.4832  0.0729
 3883SOL    HW123108   0.811   3.204  15.193  0.2241  0.9584  1.5568
 3883SOL    HW223109   0.752   3.102  15.275 -1.0864 -0.4788 -1.1075
 3884SOL     OW23110   2.082   1.330   9.897 -0.2695 -0.4089 -0.4193
 3884SOL    HW123111   2.092   1.313   9.990  0.2169 -4.1939 -1.1503
 3884SOL    HW223112   1.988   1.314   9.886 -0.3701 -1.2762  1.6291
 3885SOL     OW23113   4.641   0.564   7.389 -0.2286 -0.4082 -0.2922
 3885SOL    HW123114   4.551   0.551   7.359 -0.9701  3.2883  0.3311
 3885SOL    HW223115   4.680   0.497   7.333 -0.7807 -1.0466  0.0878
 3886SOL     OW23116   2.345   0.075   3.188 -0.5504 -0.8485  0.1928
 3886SOL    HW123117   2.321   0.106   3.100  0.0896 -2.4824 -0.5638
 3886SOL    HW223118   2.414   0.015   3.160 -1.2247 -2.1890  1.4223
 3887SOL     OW23119   2.169   1.479   2.656 -0.3084 -0.2807  0.1482
 3887SOL    HW123120   2.171   1.574   2.660  0.8262 -0.4660  3.9255
 3887SOL    HW223121   2.249   1.469   2.604 -0.2280  0.0005  0.2217
 3888SOL     OW23122   2.338   0.288  12.219 -0.0784  0.0633  0.1931
 3888SOL    HW123123   2.249   0.313  12.243  0.1446  0.9483  0.0913
 3888SOL    HW223124   2.342   0.207  12.270  0.2966  1.6497  2.6574
 3889SOL     OW23125   2.159   2.257   7.476 -0.4793  0.3550 -0.1013
 3889SOL    HW123126   2.167   2.282   7.568  1.2132  1.3754 -0.5249
 3889SOL    HW223127   2.114   2.174   7.490 -0.1038 -0.0356 -1.2411
 3890SOL     OW23128   0.524   1.542   4.587  0.2005  0.6449 -0.0429
 3890SOL    HW123129   0.529   1.637   4.597  2.0884  0.5155  0.3182
 3890SOL    HW223130   0.563   1.538   4.499  0.0107 -0.6118 -0.0561
 3891SOL     OW23131   2.034   4.204   8.937 -0.2103 -0.1320 -0.1906
 3891SOL    HW123132   2.014   4.133   8.877  0.4593  0.8868 -1.6298
 3891SOL    HW223133   1.944   4.226   8.961 -0.6389 -0.3158 -1.6812
 3892SOL     OW23134   1.694   1.996   6.306  0.2731  0.0735 -0.0593
 3892SOL    HW123135   1.618   2.001   6.247 -0.8234 -2.2952  1.1439
 3892SOL    HW223136   1.751   2.066   6.273 -2.5055  1.4628 -1.9482
 3893SOL     OW23137   3.744   0.132  16.625 -0.2188 -0.2595 -0.5770
 3893SOL    HW123138   3.656   0.123  16.589 -0.6813 -1.2938  0.8223
 3893SOL    HW223139   3.771   0.040  16.623  0.9361  0.0967 -1.5903
 3894SOL     OW23140   0.808   3.917   3.247 -0.2971 -0.5266  0.5426
 3894SOL    HW123141   0.828   4.008   3.267  0.3316 -0.1080 -1.9610
 3894SOL    HW223142   0.882   3.882   3.198 -0.5458  0.3529 -0.4663
 3895SOL     OW23143   3.972   2.178   3.691 -0.0198 -0.1783 -0.6612
 3895SOL    HW123144   3.974   2.083   3.700  1.4905 -0.3591 -2.9384
 3895SOL    HW223145   3.930   2.176   3.605  0.3683  1.5230 -0.8961
 3896SOL     OW23146   2.073   1.486   2.125  0.5192 -0.4461  0.1388
 3896SOL    HW123147   2.152   1.538   2.111  0.2454 -0.1118 -0.1737
 3896SOL    HW223148   2.022   1.489   2.044 -0.6861  2.0034  0.9834
 3897SOL     OW23149   0.960   3.656   0.346  0.1569 -0.2945  0.2546
 3897SOL    HW123150   0.982   3.735   0.395 -1.4144 -1.7476  3.3074
 3897SOL    HW223151   1.041   3.637   0.300 -0.1184 -1.1888  0.1232
 3898SOL     OW23152   0.833   3.870   4.852 -0.2179  0.3885  0.0116
 3898SOL    HW123153   0.897   3.859   4.782 -0.5372 -0.9336 -0.0771
 3898SOL    HW223154   0.889   3.852   4.928  1.3055  0.7034 -1.0582
 3899SOL     OW23155   2.674   1.524   4.345 -0.0039  0.8094  0.4163
 3899SOL    HW123156   2.694   1.618   4.340  1.7565  0.4252 -0.0286
 3899SOL    HW223157   2.717   1.499   4.427 -3.7879 -0.3909  2.0077
 3900SOL     OW23158   1.523   1.380  16.330  0.2760 -0.1654  0.0451
 3900SOL    HW123159   1.615   1.358  16.319  0.2933  0.2836 -0.7144
 3900SOL    HW223160   1.485   1.302  16.372  0.5471 -0.5623 -0.4524
 3901SOL     OW23161   3.793   2.970   6.438 -0.4490 -0.4364 -0.4370
 3901SOL    HW123162   3.803   3.058   6.475 -2.2460 -1.0320  1.4816
 3901SOL    HW223163   3.880   2.930   6.443  0.3983  1.4868 -0.0451
 3902SOL     OW23164   0.016   2.148   7.535  0.3725 -0.0084  0.4633
 3902SOL    HW123165   0.076   2.089   7.489  0.1360 -0.3787  0.6268
 3902SOL    HW223166   4.669   2.095   7.574  0.4015  0.9655  1.8198
 3903SOL     OW23167   3.321   3.068   6.016 -0.0536 -0.0347  0.0394
 3903SOL    HW123168   3.402   3.041   5.973  0.3257  0.0178  0.7263
 3903SOL    HW223169   3.359   3.124   6.083 -1.5117 -0.6701  1.3986
 3904SOL     OW23170   3.661   1.934   5.868 -0.7452  0.0109  0.7251
 3904SOL    HW123171   3.609   2.001   5.825  0.5799  0.9922  0.6494
 3904SOL    HW223172   3.642   1.854   5.818 -1.2621  0.7789 -0.3235
 3905SOL     OW23173   4.486   1.316   2.462 -0.4250  0.3986 -0.4147
 3905SOL    HW123174   4.512   1.244   2.520 -2.5664 -0.2315 -0.2372
 3905SOL    HW223175   4.513   1.383   2.524  0.2033  1.1848 -1.5344
 3906SOL     OW23176   2.704   0.316   5.938 -0.3205  0.4254 -0.4339
 3906SOL    HW123177   2.668   0.264   5.866 -0.9150 -2.2026  1.7471
 3906SOL    HW223178   2.689   0.250   6.005 -0.8970  1.6178  0.6016
 3907SOL     OW23179   3.790   4.562   4.943  0.0019 -0.2704  0.0741
 3907SOL    HW123180   3.777   4.611   5.025 -1.7600  0.2767 -0.5177
 3907SOL    HW223181   3.854   4.500   4.977  1.7811  1.8260  0.5010
 3908SOL     OW23182   0.045   4.468   5.182  0.3407  0.5259 -0.2858
 3908SOL    HW123183   0.064   4.502   5.269  0.8862  0.7267 -0.4853
 3908SOL    HW223184   0.031   4.550   5.135  1.7688  1.2150  0.4989
 3909SOL     OW23185   3.537   1.460  16.056 -0.5704 -0.1984  0.4641
 3909SOL    HW123186   3.443   1.464  16.072 -0.6334  1.2523 -0.2674
 3909SOL    HW223187   3.556   1.502  15.972  1.8351 -1.3491  0.4444
 3910SOL     OW23188   0.923   2.372   5.226  0.0688 -0.2984 -1.1824
 3910SOL    HW123189   0.890   2.327   5.305 -0.0226  1.0008 -0.4725
 3910SOL    HW223190   0.845   2.421   5.203 -0.2447  0.2305  0.9700
 3911SOL     OW23191   4.272   0.743   9.155 -0.1608  0.2407 -0.4842
 3911SOL    HW123192   4.329   0.721   9.081  1.7936  0.5675  0.9395
 3911SOL    HW223193   4.315   0.701   9.229 -1.2724 -1.5959 -0.8698
 3912SOL     OW23194   0.450   0.485   7.006  0.0876  1.4598 -0.0599
 3912SOL    HW123195   0.468   0.553   6.941  0.9909 -1.3213 -2.6965
 3912SOL    HW223196   0.539   0.462   7.034 -0.3390 -0.9303 -0.6706
 3913SOL     OW23197   1.855   3.819   6.704 -0.4612  0.2170  0.6433
 3913SOL    HW123198   1.837   3.865   6.786 -0.5761 -1.1589  1.3813
 3913SOL    HW223199   1.766   3.802   6.671 -0.4997  0.1287  0.7971
 3914SOL     OW23200   1.240   2.397   0.947  0.3841  0.2198 -0.1138
 3914SOL    HW123201   1.331   2.372   0.962 -0.3410 -2.5491 -0.4075
 3914SOL    HW223202   1.209   2.394   1.038 -2.3446  0.6965 -1.0369
 3915SOL     OW23203   3.891   3.328   5.611 -0.5895  0.2989 -0.2259
 3915SOL    HW123204   3.849   3.264   5.554 -0.8724 -0.6969  1.1090
 3915SOL    HW223205   3.971   3.281   5.632 -0.1462  1.1080 -0.0967
 3916SOL     OW23206   0.091   2.978  16.503  0.1126 -0.3994  0.8424
 3916SOL    HW123207   0.006   2.986  16.460 -0.1992 -1.5628  1.2301
 3916SOL    HW223208   0.057   3.008  16.587 -1.9851 -0.0047 -0.1461
 3917SOL     OW23209   1.618   1.265   2.640  1.0331  0.2365 -0.7574
 3917SOL    HW123210   1.628   1.181   2.596  1.2413 -0.2084  0.1216
 3917SOL    HW223211   1.698   1.314   2.620 -0.5305  1.1808 -4.5322
 3918SOL     OW23212   2.453   1.616  17.323  0.2839 -0.3697 -0.2762
 3918SOL    HW123213   2.527   1.601  17.382 -0.2359  1.5527  0.8717
 3918SOL    HW223214   2.425   1.702  17.353  0.2279 -1.4751  2.8107
 3919SOL     OW23215   1.008   4.637  15.742  0.0905  0.0997 -0.0136
 3919SOL    HW123216   0.931   4.688  15.715 -0.3241  0.5818  2.0535
 3919SOL    HW223217   1.032   4.595  15.660  0.6787 -1.1013  0.7904
 3920SOL     OW23218   2.304   0.582  11.592 -0.0501 -0.4495  0.1496
 3920SOL    HW123219   2.273   0.650  11.533 -0.3084 -1.3379 -0.7260
 3920SOL    HW223220   2.342   0.519  11.532  0.2263  0.1056 -0.2548
 3921SOL     OW23221   3.639   4.122   7.653 -0.1770 -0.1645 -0.7599
 3921SOL    HW123222   3.646   4.216   7.664 -0.7782 -0.2648  0.5147
 3921SOL    HW223223   3.571   4.109   7.588  0.6564 -0.1330 -1.6305
 3922SOL     OW23224   2.106   2.270  10.363  0.0433  0.4995 -0.6866
 3922SOL    HW123225   2.183   2.311  10.323  0.2118  0.0169 -0.8517
 3922SOL    HW223226   2.061   2.342  10.408 -0.2699  0.8256 -1.5339
 3923SOL     OW23227   1.980   3.158   6.274 -0.6336 -0.4555 -0.3751
 3923SOL    HW123228   1.935   3.081   6.238 -1.0708 -0.6924  0.6792
 3923SOL    HW223229   1.910   3.187   6.333  0.8694 -0.5193  1.4557
 3924SOL     OW23230   1.966   2.255   8.646  0.2560  0.4508  0.6254
 3924SOL    HW123231   1.914   2.328   8.613  0.2388  0.5725  0.9211
 3924SOL    HW223232   1.992   2.205   8.569 -1.6334  0.6583 -0.1541
 3925SOL     OW23233   4.211   3.998   3.123  0.2985 -0.2534  0.0297
 3925SOL    HW123234   4.242   3.908   3.131 -1.8508 -0.7876  2.3847
 3925SOL    HW223235   4.291   4.048   3.112  1.5414 -1.8837  1.6107
 3926SOL     OW23236   3.885   1.274   4.136  0.3463  0.2433 -0.0622
 3926SOL    HW123237   3.821   1.254   4.204 -2.8367  2.7132 -2.3373
 3926SOL    HW223238   3.936   1.194   4.145  2.1909  1.5813  1.3203
 3927SOL     OW23239   4.327   2.255  14.924  0.1579  0.2867 -0.2456
 3927SOL    HW123240   4.412   2.296  14.906  0.1203 -0.2299 -1.5824
 3927SOL    HW223241   4.358   2.179  14.975 -1.2440 -0.6998 -0.8642
 3928SOL     OW23242   1.786   4.216   3.554 -0.0636 -0.4100 -0.0720
 3928SOL    HW123243   1.875   4.251   3.542 -0.3068  0.4913  0.7575
 3928SOL    HW223244   1.747   4.280   3.614 -0.1182  0.4965 -1.0753
 3929SOL     OW23245   3.119   3.668   9.087  0.6057 -0.2922  0.0104
 3929SOL    HW123246   3.064   3.592   9.105 -1.2420  0.6797 -1.4678
 3929SOL    HW223247   3.141   3.653   8.995  0.1989 -1.5507  0.1179
 3930SOL     OW23248   0.421   0.563   2.960 -0.2870  0.1278 -0.5549
 3930SOL    HW123249   0.454   0.476   2.981 -0.3973  0.1420 -0.3231
 3930SOL    HW223250   0.339   0.564   3.009 -0.6599 -2.7413 -1.1709
 3931SOL     OW23251   1.017   0.191  16.268 -0.0688  0.1182 -0.0182
 3931SOL    HW123252   1.093   0.236  16.306 -1.8399  2.2190  1.0248
 3931SOL    HW223253   1.002   0.128  16.338 -0.6823 -1.8213 -1.9005
 3932SOL     OW23254   2.570   3.684  15.192  0.1293 -0.0283  0.0144
 3932SOL    HW123255   2.483   3.697  15.231 -0.3085 -0.7986 -0.7085
 3932SOL    HW223256   2.573   3.763  15.137 -1.6213  0.8701  1.1702
 3933SOL     OW23257   1.096   1.583   6.297 -0.2386 -0.2739  0.7816
 3933SOL    HW123258   1.120   1.623   6.213  1.8157 -0.8473  1.0781
 3933SOL    HW223259   1.063   1.502   6.259  0.4721  1.2620 -3.1649
 3934SOL     OW23260   3.958   3.612   6.922  0.0460 -0.0634 -0.0182
 3934SOL    HW123261   3.895   3.568   6.865 -1.6363  4.1976 -1.3885
 3934SOL    HW223262   4.005   3.538   6.962 -0.9726  1.3835  3.9117
 3935SOL     OW23263   0.305   4.237   9.155 -0.3692 -0.2196  0.0467
 3935SOL    HW123264   0.292   4.323   9.116  1.1064  0.2498  0.5606
 3935SOL    HW223265   0.284   4.177   9.084  1.5205  0.4536 -1.0808
 3936SOL     OW23266   2.769   3.019  14.560 -0.1728 -0.1743 -0.0103
 3936SOL    HW123267   2.785   3.071  14.481  0.2836 -3.6942 -2.2292
 3936SOL    HW223268   2.713   3.074  14.615  0.6065  1.7758 -1.1801
 3937SOL     OW23269   0.349   3.550   6.690  0.4970 -0.8877 -0.6247
 3937SOL    HW123270   0.279   3.486   6.709 -0.0475 -0.4860 -1.2835
 3937SOL    HW223271   0.424   3.504   6.727 -1.0875 -3.2286 -0.2959
 3938SOL     OW23272   1.969   3.069   0.942 -0.4468  0.3624  0.0509
 3938SOL    HW123273   2.050   3.058   0.992 -0.5991  1.7704  0.6139
 3938SOL    HW223274   1.919   2.990   0.965 -0.5178  1.2554  3.0039
 3939SOL     OW23275   0.432   1.275  14.419  0.4036 -0.1242 -0.6698
 3939SOL    HW123276   0.489   1.203  14.391  1.5982 -0.2748  2.0597
 3939SOL    HW223277   0.489   1.341  14.459  0.1896 -0.7949  0.7766
 3940SOL     OW23278   1.320   2.749   7.017 -0.1744 -0.4673  0.2878
 3940SOL    HW123279   1.408   2.751   7.056  1.0436 -0.7895 -2.4098
 3940SOL    HW223280   1.287   2.810   7.082 -3.9772  1.0875 -3.0950
 3941SOL     OW23281   0.903   2.895   2.466 -0.0198 -0.4307 -0.3782
 3941SOL    HW123282   0.868   2.971   2.418 -1.3290 -1.0753 -0.4469
 3941SOL    HW223283   0.955   2.852   2.398  0.4960  0.1015 -0.3219
 3942SOL     OW23284   2.576   2.087   4.983  0.2359  0.6897 -0.4911
 3942SOL    HW123285   2.556   2.086   4.889 -0.6818 -1.6190 -0.2699
 3942SOL    HW223286   2.588   1.993   4.994 -0.4984  0.6693  0.1717
 3943SOL     OW23287   1.193   3.466  14.088  0.5593  0.0466 -0.7549
 3943SOL    HW123288   1.203   3.553  14.126  0.3908 -0.1863 -0.1821
 3943SOL    HW223289   1.099   3.472  14.072  0.4161 -0.9241 -0.2776
 3944SOL     OW23290   3.759   2.939   2.987  0.8615 -0.2718  0.2903
 3944SOL    HW123291   3.695   2.887   3.036 -0.7466  0.0692 -1.4431
 3944SOL    HW223292   3.713   3.022   2.976  2.1547  0.6521  1.9716
 3945SOL     OW23293   2.413   2.478   2.614  0.0732 -0.2614  0.1829
 3945SOL    HW123294   2.422   2.562   2.569  3.5960 -0.5729  0.3093
 3945SOL    HW223295   2.440   2.497   2.704 -1.8684  1.7849  0.3319
 3946SOL     OW23296   4.652   0.842   8.117 -0.0902  0.4254  0.3286
 3946SOL    HW123297   0.016   0.835   8.079  0.6384 -0.6416  2.1832
 3946SOL    HW223298   4.648   0.936   8.135 -1.4900  0.5255 -0.4333
 3947SOL     OW23299   3.273   1.911   0.158 -0.1591 -0.2800 -0.5830
 3947SOL    HW123300   3.335   1.900   0.230  0.3850 -1.9699 -1.3115
 3947SOL    HW223301   3.317   1.979   0.107 -0.3568  0.1986 -0.1267
 3948SOL     OW23302   3.292   0.123  13.279 -0.6682  0.9545 -0.2738
 3948SOL    HW123303   3.308   0.216  13.294  1.4705  0.0197  3.1435
 3948SOL    HW223304   3.354   0.097  13.210 -0.9829 -1.5194  0.3765
 3949SOL     OW23305   4.339   4.419   2.232 -0.1241  0.3040 -0.0094
 3949SOL    HW123306   4.343   4.388   2.142  1.9956 -0.1846  0.2568
 3949SOL    HW223307   4.260   4.471   2.219  1.2842  2.5254  0.2071
 3950SOL     OW23308   1.149   3.591   3.769  0.1177  0.2370 -0.2489
 3950SOL    HW123309   1.147   3.686   3.775 -2.1931  0.1188  1.0264
 3950SOL    HW223310   1.063   3.578   3.809  0.0457 -0.4699 -0.6347
 3951SOL     OW23311   0.883   3.508   3.450  0.0382  0.2321  0.1068
 3951SOL    HW123312   0.880   3.498   3.355  1.8819 -1.4763  0.2401
 3951SOL    HW223313   0.821   3.582   3.453 -0.3823 -0.2831  3.6817
 3952SOL     OW23314   1.603   0.191   7.452  0.3442  0.5325  0.5850
 3952SOL    HW123315   1.541   0.228   7.389  0.0066 -0.1699  0.5104
 3952SOL    HW223316   1.669   0.260   7.459  0.5442  0.2593  1.3416
 3953SOL     OW23317   4.002   3.540   3.667  0.5041  0.3599  0.1541
 3953SOL    HW123318   3.966   3.472   3.724 -0.6704 -0.9238 -2.0852
 3953SOL    HW223319   4.077   3.565   3.720  0.7732  1.8911 -0.9394
 3954SOL     OW23320   4.686   3.519   8.138  0.1748  0.1300 -0.1162
 3954SOL    HW123321   4.622   3.590   8.147  0.1614 -0.1734  2.1408
 3954SOL    HW223322   4.635   3.448   8.177 -2.1913 -0.2881 -3.9237
 3955SOL     OW23323   3.280   2.385   6.376 -0.6239 -0.0933 -0.9323
 3955SOL    HW123324   3.269   2.403   6.469  2.9355  0.6292 -0.6471
 3955SOL    HW223325   3.359   2.431   6.348 -0.4366 -0.2077 -0.5882
 3956SOL     OW23326   3.815   2.907   1.992  0.1291 -0.0626 -0.0296
 3956SOL    HW123327   3.899   2.946   2.018 -0.7846 -0.0944  3.0786
 3956SOL    HW223328   3.851   2.835   1.941 -0.5812 -0.3659 -0.0961
 3957SOL     OW23329   0.369   4.108   6.566  0.0713  0.2693  0.3178
 3957SOL    HW123330   0.349   4.043   6.632  3.0433  1.0611  2.0241
 3957SOL    HW223331   0.280   4.136   6.545 -0.5321 -0.9039  1.3281
 3958SOL     OW23332   3.035   2.627   6.955 -0.2123  0.0995 -0.1495
 3958SOL    HW123333   3.103   2.580   7.005 -0.6296 -0.1606  0.1743
 3958SOL    HW223334   2.983   2.665   7.026 -1.2808 -0.2680 -0.7496
 3959SOL     OW23335   1.951   1.782   4.689  0.0821  0.4413 -0.1287
 3959SOL    HW123336   2.042   1.754   4.700 -0.1800 -1.5311 -3.0235
 3959SOL    HW223337   1.952   1.838   4.612 -0.4209  1.0743  0.3326
 3960SOL     OW23338   0.660   3.955   3.621 -0.7079 -0.2656  0.6028
 3960SOL    HW123339   0.625   3.947   3.710  0.7260  1.8746  1.3563
 3960SOL    HW223340   0.750   3.987   3.632 -0.7074  0.3720 -1.2866
 3961SOL     OW23341   1.401   3.712   8.463 -0.0922 -0.2770  0.6456
 3961SOL    HW123342   1.474   3.696   8.522 -0.5135 -1.2209  0.9107
 3961SOL    HW223343   1.334   3.647   8.487 -0.8958 -0.3070 -1.6572
 3962SOL     OW23344   3.882   1.123   6.592 -1.1742  0.0253 -0.5768
 3962SOL    HW123345   3.841   1.107   6.677  1.9511  2.3479  1.4047
 3962SOL    HW223346   3.933   1.043   6.589  0.4174  0.8820  3.4702
 3963SOL     OW23347   2.194   1.994   6.306  0.1397  0.6328 -0.3236
 3963SOL    HW123348   2.123   2.012   6.368  0.1471 -3.3119  0.7914
 3963SOL    HW223349   2.164   2.046   6.231  0.2744 -1.7198 -1.9836
 3964SOL     OW23350   1.201   2.367   8.383  0.4566 -0.1630 -0.0830
 3964SOL    HW123351   1.188   2.380   8.477  3.2986  0.4617  0.2325
 3964SOL    HW223352   1.293   2.394   8.379  0.0898  1.1109  0.2868
 3965SOL     OW23353   1.386   4.476  11.687  0.1427 -0.0783 -0.4569
 3965SOL    HW123354   1.426   4.453  11.603  0.0525 -3.4421  0.4458
 3965SOL    HW223355   1.413   4.568  11.687  0.1050 -0.0647  0.0951
 3966SOL     OW23356   4.255   1.892   0.356 -0.0572 -0.6070 -0.3884
 3966SOL    HW123357   4.315   1.940   0.299  0.8344 -1.1460  0.0897
 3966SOL    HW223358   4.299   1.914   0.438 -0.0960 -0.1195 -0.4985
 3967SOL     OW23359   1.495   4.114   5.436 -0.1187 -1.1351 -0.3524
 3967SOL    HW123360   1.506   4.081   5.526 -0.9060  0.2547  0.2572
 3967SOL    HW223361   1.430   4.053   5.401 -2.1042  1.1002 -0.5790
 3968SOL     OW23362   3.453   3.757   6.358 -0.2268 -0.1357 -0.0258
 3968SOL    HW123363   3.505   3.701   6.415 -1.3688  0.2016  1.3552
 3968SOL    HW223364   3.446   3.840   6.406  1.5761  0.5091 -0.8616
 3969SOL     OW23365   4.552   2.712   6.460 -0.4459 -0.2794 -0.0622
 3969SOL    HW123366   4.484   2.730   6.394 -0.4824  0.8918  0.3027
 3969SOL    HW223367   4.520   2.754   6.539 -2.4130 -1.4987 -0.1922
 3970SOL     OW23368   4.224   1.870   9.504 -0.3626  0.0704 -0.0231
 3970SOL    HW123369   4.139   1.847   9.467 -1.8334  2.1911  1.9362
 3970SOL    HW223370   4.225   1.962   9.477 -1.5851  0.1323  0.1311
 3971SOL     OW23371   0.753   3.954  13.224 -0.2170  0.0261  0.2695
 3971SOL    HW123372   0.819   4.000  13.173 -0.5611 -2.1056 -2.1244
 3971SOL    HW223373   0.711   3.895  13.161  0.2498 -0.3772  0.3386
 3972SOL     OW23374   3.066   3.781   8.615 -0.1696  0.0806 -0.8823
 3972SOL    HW123375   2.985   3.831   8.632 -0.0440 -0.3901  1.1357
 3972SOL    HW223376   3.088   3.744   8.701 -2.1654 -0.7748 -0.7399
 3973SOL     OW23377   4.000   1.858   6.913 -0.4472  0.2734  0.2967
 3973SOL    HW123378   3.948   1.936   6.931  0.9104  1.2888 -0.1511
 3973SOL    HW223379   3.939   1.794   6.877 -0.4323  0.4765 -0.0939
 3974SOL     OW23380   2.228   0.583   7.936 -0.2464  0.4382 -0.2057
 3974SOL    HW123381   2.253   0.599   8.027  3.1987  0.3200 -1.1614
 3974SOL    HW223382   2.138   0.616   7.936  1.4870  5.0260  0.8705
 3975SOL     OW23383   4.284   1.569  12.734 -0.1006 -0.0577 -0.2074
 3975SOL    HW123384   4.304   1.646  12.682  3.3924 -1.8419 -1.5123
 3975SOL    HW223385   4.220   1.604  12.796  0.0370  0.7758 -0.5384
 3976SOL     OW23386   1.024   4.206  13.224 -0.4209 -0.3308  1.0920
 3976SOL    HW123387   0.954   4.187  13.162 -0.3714  0.3741  0.8207
 3976SOL    HW223388   1.014   4.134  13.285 -3.0303 -0.4290  0.5508
 3977SOL     OW23389   0.769   2.108   5.038  0.3591  0.0150  0.3418
 3977SOL    HW123390   0.685   2.152   5.025  0.0118 -0.5659  0.6019
 3977SOL    HW223391   0.755   2.060   5.119  0.3268  0.4995  0.6215
 3978SOL     OW23392   1.946   4.289   0.908 -0.3770  0.6973 -0.0306
 3978SOL    HW123393   1.868   4.269   0.855  0.9113 -0.4121 -1.4795
 3978SOL    HW223394   2.005   4.223   0.871 -2.2180 -1.2358  0.4994
 3979SOL     OW23395   3.447   0.108   8.872 -0.4252 -0.2523 -0.1542
 3979SOL    HW123396   3.396   0.034   8.905  0.0868 -0.2269  0.6806
 3979SOL    HW223397   3.381   0.174   8.855  0.7064  0.5876 -1.2988
 3980SOL     OW23398   0.075   0.241   4.883 -0.1907 -0.0504 -0.4211
 3980SOL    HW123399   0.004   0.279   4.936 -0.3947 -1.5695  0.4098
 3980SOL    HW223400   0.144   0.226   4.948 -0.7018 -1.0094 -0.0841
 3981SOL     OW23401   3.806   1.901   7.459 -0.2788  0.4644 -0.3503
 3981SOL    HW123402   3.841   1.833   7.516  2.7244  0.5128 -2.1054
 3981SOL    HW223403   3.748   1.950   7.517 -0.0850  0.1062  0.1367
 3982SOL     OW23404   2.811   1.196   2.567  0.2753 -0.1442  0.1945
 3982SOL    HW123405   2.772   1.279   2.541 -1.6073 -0.7828  0.9676
 3982SOL    HW223406   2.902   1.214   2.546 -0.6650  3.0982 -1.0730
 3983SOL     OW23407   0.432   2.561  14.460  0.2428  0.2733 -0.3631
 3983SOL    HW123408   0.522   2.571  14.430 -0.4380  1.3627 -2.0373
 3983SOL    HW223409   0.399   2.494  14.399  2.7439  0.6068 -2.0800
 3984SOL     OW23410   3.163   0.062  10.362 -0.0988  0.4020  0.1376
 3984SOL    HW123411   3.138   0.108  10.442 -0.1584 -0.7082  0.7546
 3984SOL    HW223412   3.243   0.020  10.395 -1.6468 -1.8414  1.0210
 3985SOL     OW23413   3.641   1.473   2.606 -0.4806  0.5145  0.6905
 3985SOL    HW123414   3.674   1.548   2.556 -2.8143 -0.1456 -1.8492
 3985SOL    HW223415   3.720   1.423   2.624 -0.1712  0.6177 -0.3877
 3986SOL     OW23416   4.073   0.397   8.937 -0.1667  0.4007 -0.2101
 3986SOL    HW123417   4.041   0.351   8.860  0.6527 -1.4596  0.5511
 3986SOL    HW223418   4.115   0.323   8.982  1.6999  0.4446 -1.8622
 3987SOL     OW23419   4.682   4.383   9.386  0.5787  0.3704 -0.1695
 3987SOL    HW123420   0.029   4.412   9.446  0.7193  0.0583 -0.1828
 3987SOL    HW223421   4.618   4.353   9.450  1.1019 -0.8869 -0.2377
 3988SOL     OW23422   1.761   3.532   5.523  0.7061 -0.4067 -0.3947
 3988SOL    HW123423   1.714   3.615   5.513 -1.0909 -1.5552 -1.5196
 3988SOL    HW223424   1.759   3.527   5.619  0.5360  0.1086 -0.3689
 3989SOL     OW23425   2.883   3.445  15.117 -0.6233 -0.5904  0.2870
 3989SOL    HW123426   2.957   3.401  15.075 -1.1788 -0.2145 -1.0759
 3989SOL    HW223427   2.928   3.518  15.160  0.6817 -0.0747 -1.9930
 3990SOL     OW23428   4.170   0.648   6.735 -0.3453 -0.1179  0.1913
 3990SOL    HW123429   4.144   0.577   6.794 -2.0765  1.6341  1.5658
 3990SOL    HW223430   4.232   0.697   6.789 -1.2483  0.5371  0.6516
 3991SOL     OW23431   2.835   4.158   4.099  0.4886 -0.5468 -0.3995
 3991SOL    HW123432   2.770   4.117   4.156 -0.5084  0.3716 -0.8801
 3991SOL    HW223433   2.797   4.242   4.077 -1.1669 -0.4272  2.9308
 3992SOL     OW23434   2.199   1.647   4.779 -0.6019 -0.1141 -0.3395
 3992SOL    HW123435   2.293   1.656   4.767 -0.8411  0.8418 -1.4851
 3992SOL    HW223436   2.184   1.590   4.704  1.3459  0.4133 -1.1326
 3993SOL     OW23437   1.726   4.637  10.513 -0.2328  0.1477 -0.1043
 3993SOL    HW123438   1.771   4.626  10.429 -0.8644 -1.8802 -0.1703
 3993SOL    HW223439   1.745   0.008  10.522 -2.5866  0.5250  0.7379
 3994SOL     OW23440   0.205   3.809   7.897  0.0574 -0.4440  0.1888
 3994SOL    HW123441   0.192   3.747   7.969  0.9600  0.6749  1.3016
 3994SOL    HW223442   0.117   3.844   7.882  0.8748  0.9888 -1.2350
 3995SOL     OW23443   1.442   0.328   4.355  1.5576  0.0513  0.1121
 3995SOL    HW123444   1.537   0.317   4.347  2.0152  2.9949  1.6447
 3995SOL    HW223445   1.405   0.239   4.349  0.5627  0.4004  1.0823
 3996SOL     OW23446   2.171   4.012   9.098  0.0249 -0.0948 -0.2340
 3996SOL    HW123447   2.146   4.080   9.036  0.8294  0.3270 -0.0956
 3996SOL    HW223448   2.180   4.059   9.181  0.4672 -1.0760  0.2714
 3997SOL     OW23449   4.282   0.752   2.915 -0.0751  0.1299  0.1628
 3997SOL    HW123450   4.328   0.729   2.834 -0.3085  1.1105 -0.2456
 3997SOL    HW223451   4.340   0.824   2.937 -0.5068  0.5704 -0.1443
 3998SOL     OW23452   2.065   2.803  10.327  0.4875  0.3450  0.8482
 3998SOL    HW123453   2.130   2.765  10.386 -0.8461 -0.1458  2.0220
 3998SOL    HW223454   2.119   2.822  10.251 -0.7613 -1.1233 -0.3944
 3999SOL     OW23455   4.224   2.046  11.151  0.1133 -0.2434 -0.8151
 3999SOL    HW123456   4.306   2.042  11.101 -0.0443  0.9828 -1.1524
 3999SOL    HW223457   4.244   2.101  11.227 -1.0500 -2.1217  0.8668
 4000SOL     OW23458   0.250   4.524  10.172  0.0065 -0.7054  0.5660
 4000SOL    HW123459   0.257   4.463  10.097  2.6884 -0.0561  0.2956
 4000SOL    HW223460   0.196   4.472  10.231 -0.4857 -1.2470 -0.3627
 4001SOL     OW23461   1.481   1.938  17.633  0.1770  0.2018  0.0155
 4001SOL    HW123462   1.441   2.013  17.588 -0.9028 -1.2848 -1.5195
 4001SOL    HW223463   1.442   1.959   0.025 -0.8539  0.0729 -0.4233
 4002SOL     OW23464   2.605   3.626   6.193 -0.6592  0.2304  0.4069
 4002SOL    HW123465   2.651   3.591   6.269  1.4669  2.1132 -0.0194
 4002SOL    HW223466   2.555   3.553   6.154  0.8125  0.1434 -1.2887
 4003SOL     OW23467   1.331   2.770   2.656  0.2614 -0.0348 -0.1738
 4003SOL    HW123468   1.366   2.682   2.644  1.0543  0.1567  0.8160
 4003SOL    HW223469   1.246   2.753   2.697  1.9875 -0.4511  3.1416
 4004SOL     OW23470   3.267   1.349   0.128  0.3154 -0.2876 -0.0589
 4004SOL    HW123471   3.318   1.379   0.204  1.7043 -1.9250 -0.3286
 4004SOL    HW223472   3.228   1.431   0.098  3.6355  0.9840 -0.9111
 4005SOL     OW23473   3.781   3.140   9.074  0.5421 -0.1994 -1.4090
 4005SOL    HW123474   3.853   3.084   9.044  1.2221  0.7841 -1.6015
 4005SOL    HW223475   3.708   3.095   9.031  0.1918 -1.2472  0.2971
 4006SOL     OW23476   0.378   4.488   5.149 -0.0297  0.2904 -0.6225
 4006SOL    HW123477   0.324   4.488   5.070  1.0868 -1.0974 -1.3881
 4006SOL    HW223478   0.388   4.581   5.169  0.0731  0.2563 -0.5109
 4007SOL     OW23479   0.593   4.613   2.360  0.2299 -0.7599  1.0274
 4007SOL    HW123480   0.645   4.609   2.280 -0.6365 -1.9117  0.5239
 4007SOL    HW223481   0.549   4.698   2.362 -0.6686 -1.2370  1.5017
 4008SOL     OW23482   4.034   3.723  14.415 -0.9130  0.2313 -0.5679
 4008SOL    HW123483   4.027   3.717  14.320  1.4068  3.4586 -0.9814
 4008SOL    HW223484   4.045   3.818  14.402 -1.0186  0.3066 -0.1090
 4009SOL     OW23485   2.476   1.150   2.672  0.1489  0.4042  0.3949
 4009SOL    HW123486   2.414   1.132   2.743  1.0329 -1.3757  0.7225
 4009SOL    HW223487   2.454   1.241   2.651  1.2317  0.5975  0.1018
 4010SOL     OW23488   2.713   0.759   5.281  0.1279  0.5911  0.5366
 4010SOL    HW123489   2.636   0.752   5.337 -0.4199  0.9799 -0.1524
 4010SOL    HW223490   2.774   0.728   5.348 -1.2595 -0.0757  1.4865
 4011SOL     OW23491   0.922   1.603  12.094  0.1853 -0.8345  0.1633
 4011SOL    HW123492   0.852   1.648  12.141  0.4434 -0.5058  0.2311
 4011SOL    HW223493   0.909   1.516  12.133 -1.6107 -1.3352 -1.5305
 4012SOL     OW23494   0.568   3.451   3.964  0.4134 -0.3951 -0.2677
 4012SOL    HW123495   0.613   3.419   3.886  2.2073  1.0827  0.1646
 4012SOL    HW223496   0.488   3.484   3.923  0.0224 -0.9083  0.0818
 4013SOL     OW23497   2.580   4.257   9.910 -0.1709 -0.0261  0.2361
 4013SOL    HW123498   2.550   4.179   9.958 -1.3206  0.3392  0.1205
 4013SOL    HW223499   2.669   4.258   9.943 -0.0640 -2.3705  0.0205
 4014SOL     OW23500   2.890   1.190   5.539 -0.0652 -0.3862  0.3358
 4014SOL    HW123501   2.803   1.154   5.520 -0.9604  1.2954  1.2905
 4014SOL    HW223502   2.903   1.230   5.453  0.0843  0.5368  0.7957
 4015SOL     OW23503   1.502   0.862  15.185 -0.4848 -0.1979  0.1652
 4015SOL    HW123504   1.480   0.953  15.205  1.1312  0.7824 -2.5379
 4015SOL    HW223505   1.452   0.810  15.248 -2.5940  2.5281  0.7423
 4016SOL     OW23506   0.352   3.634   2.347  0.3242  0.3121 -0.0423
 4016SOL    HW123507   0.417   3.626   2.416  0.4804  1.2461 -0.0744
 4016SOL    HW223508   0.298   3.563   2.380 -2.3491  1.0217 -2.8854
 4017SOL     OW23509   3.875   0.778  11.120  0.0113  0.1132  0.4273
 4017SOL    HW123510   3.870   0.703  11.061  0.7647  1.5728 -1.4789
 4017SOL    HW223511   3.936   0.746  11.186  0.1225 -2.1171 -0.7504
 4018SOL     OW23512   0.538   2.949   3.299 -0.2537  0.1191  0.0183
 4018SOL    HW123513   0.599   2.925   3.229  2.1529  1.0108  1.7889
 4018SOL    HW223514   0.579   3.027   3.338 -1.8130  0.0250  1.8675
 4019SOL     OW23515   0.867   3.365  12.973 -0.0965  0.7015 -0.4384
 4019SOL    HW123516   0.896   3.456  12.979  0.8481  0.3205  0.7303
 4019SOL    HW223517   0.814   3.365  12.893 -0.0125 -0.3032 -0.4951
 4020SOL     OW23518   4.272   1.536   6.882  0.1739  0.2752  0.1638
 4020SOL    HW123519   4.221   1.585   6.946  0.2233  2.8083 -1.7265
 4020SOL    HW223520   4.208   1.519   6.813 -0.3458  0.1327  0.6843
 4021SOL     OW23521   4.032   2.841   6.425  0.1692 -0.4419 -0.4355
 4021SOL    HW123522   4.117   2.876   6.397 -1.0092  2.1361 -0.8066
 4021SOL    HW223523   4.025   2.769   6.362 -2.8879 -2.8135  2.6289
 4022SOL     OW23524   0.830   2.212   2.338 -0.2000 -0.1953 -0.0191
 4022SOL    HW123525   0.791   2.125   2.327 -2.1348  0.8875 -1.8341
 4022SOL    HW223526   0.757   2.257   2.380 -1.4092 -1.6215 -0.5857
 4023SOL     OW23527   3.306   0.765   4.643 -0.2465 -0.3518  0.5389
 4023SOL    HW123528   3.370   0.836   4.646 -0.6419 -0.0118  0.8635
 4023SOL    HW223529   3.326   0.725   4.558 -2.3970 -0.5370  0.1169
 4024SOL     OW23530   2.086   2.826   1.502  0.1498  0.4244 -0.4772
 4024SOL    HW123531   2.153   2.758   1.493  0.6605  0.6663  1.4816
 4024SOL    HW223532   2.023   2.767   1.545 -1.8965  2.2252 -1.0289
 4025SOL     OW23533   1.366   0.075   6.071 -0.4335 -0.3614 -0.5777
 4025SOL    HW123534   1.289   0.038   6.028 -0.2204 -2.4843  0.8971
 4025SOL    HW223535   1.344   0.042   6.158 -0.3206  1.3128  0.0859
 4026SOL     OW23536   4.539   0.758   7.683  0.4168  0.5741  0.6091
 4026SOL    HW123537   4.516   0.820   7.613 -2.3108 -1.5051 -0.3338
 4026SOL    HW223538   4.465   0.774   7.741 -2.1262  0.6016 -2.6015
 4027SOL     OW23539   0.688   0.599   2.738 -0.1846 -0.0290  0.2935
 4027SOL    HW123540   0.755   0.542   2.776  0.4137  0.0245 -0.6925
 4027SOL    HW223541   0.742   0.653   2.680  1.6183 -1.4833  0.6179
 4028SOL     OW23542   1.952   1.974   8.185  0.1582  0.8743  0.1255
 4028SOL    HW123543   1.919   2.036   8.250  0.4341  0.5872  0.5441
 4028SOL    HW223544   1.883   1.979   8.119 -0.6053  1.1553  0.9468
 4029SOL     OW23545   0.422   0.043   9.238 -0.2175  0.0461 -0.1080
 4029SOL    HW123546   0.421   0.079   9.150 -2.2941  0.6925  0.1799
 4029SOL    HW223547   0.328   0.031   9.256 -0.1225  0.8125  0.9086
 4030SOL     OW23548   0.179   0.396   2.815 -0.4076  0.5413 -0.1129
 4030SOL    HW123549   0.135   0.395   2.730 -0.0509 -0.5581 -0.2898
 4030SOL    HW223550   0.270   0.378   2.793  0.2337  3.4468  0.2175
 4031SOL     OW23551   4.228   1.536  16.899  0.0064 -0.0083  0.1777
 4031SOL    HW123552   4.146   1.537  16.948 -0.5316 -0.1191 -0.7116
 4031SOL    HW223553   4.291   1.535  16.971  0.8278 -0.4471 -0.5407
 4032SOL     OW23554   1.916   3.673   8.410  0.0373  0.4589 -0.8486
 4032SOL    HW123555   1.929   3.585   8.373 -0.8746 -0.2228  0.4585
 4032SOL    HW223556   1.907   3.722   8.328 -0.8892  0.6238 -0.6513
 4033SOL     OW23557   1.080   3.534  13.158 -0.3798 -0.0424  0.1879
 4033SOL    HW123558   1.005   3.563  13.210  0.4650  1.2724  0.6788
 4033SOL    HW223559   1.145   3.603  13.172 -0.9605  0.3115  1.1286
 4034SOL     OW23560   3.371   0.271   6.245 -0.1055 -0.1044  0.2667
 4034SOL    HW123561   3.339   0.359   6.226  0.8958  0.8884  3.1856
 4034SOL    HW223562   3.290   0.226   6.223 -0.4872  0.9156 -0.4280
 4035SOL     OW23563   1.462   4.644  10.011 -0.6231 -0.1843 -0.0511
 4035SOL    HW123564   1.459   4.671   9.919 -0.3331 -0.0451 -0.0220
 4035SOL    HW223565   1.417   4.559  10.018 -0.0054 -0.4502  0.7192
 4036SOL     OW23566   0.735   1.542   5.847  0.0216 -0.2464 -0.1023
 4036SOL    HW123567   0.759   1.613   5.906  0.9273 -1.5466  1.0954
 4036SOL    HW223568   0.811   1.489   5.824  0.2418  1.2757 -2.9124
 4037SOL     OW23569   3.815   0.855   2.329 -0.1570 -0.4519 -0.6119
 4037SOL    HW123570   3.740   0.915   2.326 -1.8591 -2.3831  2.7854
 4037SOL    HW223571   3.882   0.917   2.302  0.6781 -1.0047  0.2032
 4038SOL     OW23572   3.138   0.223   4.453  0.6409 -0.1982 -0.0925
 4038SOL    HW123573   3.052   0.264   4.452  0.9123  0.3591 -0.9015
 4038SOL    HW223574   3.116   0.141   4.410  0.6079  0.0843 -0.6162
 4039SOL     OW23575   0.203   0.163  15.772 -0.3507 -0.1365 -0.6276
 4039SOL    HW123576   0.202   0.073  15.803 -2.2267  0.0564 -0.1183
 4039SOL    HW223577   0.242   0.213  15.844 -0.1913  1.6319 -1.9339
 4040SOL     OW23578   2.197   2.210   4.969 -0.4441  0.0670  0.1626
 4040SOL    HW123579   2.106   2.209   4.997 -1.1669 -0.0201 -2.1653
 4040SOL    HW223580   2.215   2.117   4.953  1.2549  0.4560 -0.1466
 4041SOL     OW23581   0.354   0.048   1.422 -0.0349  0.4451 -0.5118
 4041SOL    HW123582   0.442   0.051   1.460  1.2410 -4.2264 -3.0815
 4041SOL    HW223583   0.341   4.678   1.403 -0.7989  0.6896 -1.1853
 4042SOL     OW23584   1.401   1.597   0.291 -0.4378  0.0735  0.2182
 4042SOL    HW123585   1.391   1.610   0.197  2.0415  1.8918  0.2310
 4042SOL    HW223586   1.330   1.533   0.301 -0.5147  0.0209 -0.6715
 4043SOL     OW23587   0.993   1.749   4.062 -0.0518  0.1241 -0.2991
 4043SOL    HW123588   1.080   1.789   4.063  0.0346 -0.0333 -2.0012
 4043SOL    HW223589   1.000   1.707   4.148 -1.9453  0.8670  0.2304
 4044SOL     OW23590   4.594   2.235   9.758  0.0609  0.3705  0.2788
 4044SOL    HW123591   4.625   2.264   9.673  0.8424  0.7666  0.6999
 4044SOL    HW223592   4.639   2.151   9.764 -1.0445 -0.0987  2.0797
 4045SOL     OW23593   2.118   4.271   8.187  0.8967 -0.5077 -0.2595
 4045SOL    HW123594   2.033   4.229   8.197 -0.3123  1.9992 -0.0935
 4045SOL    HW223595   2.132   4.256   8.093  2.6241  2.2653 -0.4515
 4046SOL     OW23596   4.554   3.614   6.553  0.4078  0.1221  0.4357
 4046SOL    HW123597   4.530   3.522   6.545 -0.4743  0.1801  2.3652
 4046SOL    HW223598   4.590   3.634   6.467  2.2835 -1.9808  0.7295
 4047SOL     OW23599   4.204   0.174   7.934 -0.1353  0.0208 -0.0530
 4047SOL    HW123600   4.292   0.165   7.897 -0.1131 -1.2607  0.3092
 4047SOL    HW223601   4.186   0.266   7.915  0.6093  0.1027 -0.3678
 4048SOL     OW23602   0.356   1.060   5.383 -0.3137  0.2896 -0.5158
 4048SOL    HW123603   0.393   1.138   5.424  1.9434 -1.6109  1.0755
 4048SOL    HW223604   0.348   1.076   5.289 -1.9133 -0.5267 -0.5318
 4049SOL     OW23605   2.088   0.483   4.143  0.3184 -0.3571 -0.1216
 4049SOL    HW123606   2.098   0.389   4.126 -1.0232 -0.3123 -1.1435
 4049SOL    HW223607   1.998   0.492   4.113  0.1190 -0.2638  0.5210
 4050SOL     OW23608   1.221   2.323   8.971  0.1702  0.0845 -0.1180
 4050SOL    HW123609   1.206   2.234   9.004 -1.0988  1.0885  2.0038
 4050SOL    HW223610   1.167   2.366   9.037  1.8113 -0.2962  1.4721
 4051SOL     OW23611   1.503   2.900   8.612 -0.4963 -0.4032 -0.2862
 4051SOL    HW123612   1.456   2.968   8.661  0.8255 -0.7096  1.3932
 4051SOL    HW223613   1.473   2.825   8.663  2.1350 -1.7484 -0.7333
 4052SOL     OW23614   1.145   0.966   8.376  0.2979  0.4042 -0.0143
 4052SOL    HW123615   1.208   1.021   8.329  0.4035 -1.9736 -2.5984
 4052SOL    HW223616   1.097   1.030   8.429 -0.7119 -1.5146  1.3893
 4053SOL     OW23617   4.566   0.467   9.172  0.3492  0.4681  0.2096
 4053SOL    HW123618   4.513   0.467   9.093 -0.9817 -1.4455  1.1255
 4053SOL    HW223619   4.497   0.484   9.235  0.5840  1.7178  0.1394
 4054SOL     OW23620   1.024   0.336   7.925  0.1403 -0.1852 -0.4259
 4054SOL    HW123621   1.055   0.425   7.940 -0.1226  0.3969 -3.3975
 4054SOL    HW223622   1.094   0.279   7.956  0.9486 -0.1256 -2.1826
 4055SOL     OW23623   2.914   2.185   6.818  0.2521  0.4291  0.4448
 4055SOL    HW123624   2.917   2.128   6.896  1.2231 -2.3081 -1.5826
 4055SOL    HW223625   2.918   2.274   6.853 -1.0430  1.0949 -1.1233
 4056SOL     OW23626   2.613   2.818  15.408  0.3334  0.5515  0.1721
 4056SOL    HW123627   2.697   2.811  15.364 -0.7556  1.1689 -2.0216
 4056SOL    HW223628   2.614   2.903  15.452 -2.3856  0.7541 -0.1305
 4057SOL     OW23629   0.390   0.033   6.272  0.0329  0.1977  0.3912
 4057SOL    HW123630   0.468   4.711   6.237  0.2331  0.9649 -0.1429
 4057SOL    HW223631   0.401   0.013   6.365 -0.6877  1.2071  0.6893
 4058SOL     OW23632   2.082   0.708   3.245 -0.2064 -0.0568  0.2190
 4058SOL    HW123633   2.056   0.758   3.322 -1.7422  0.0651 -0.3871
 4058SOL    HW223634   2.084   0.776   3.177  1.5742 -0.3334 -0.0100
 4059SOL     OW23635   2.255   4.479   2.950  0.2452 -0.6175  0.2318
 4059SOL    HW123636   2.264   4.391   2.914  2.2228  0.2993 -1.5090
 4059SOL    HW223637   2.277   4.526   2.870  0.3997 -0.7100  0.2209
 4060SOL     OW23638   3.945   4.418  17.392 -0.0467  0.2433 -0.1036
 4060SOL    HW123639   3.952   4.344  17.451  1.1612 -3.1953 -4.5495
 4060SOL    HW223640   3.862   4.395  17.350  0.0675 -1.0945  0.3937
 4061SOL     OW23641   0.290   0.636   1.397  0.7478  0.0865 -0.2449
 4061SOL    HW123642   0.203   0.595   1.400  0.7992  0.0123  0.2758
 4061SOL    HW223643   0.327   0.583   1.327  0.7741 -0.7375  0.3947
 4062SOL     OW23644   1.399   0.376   4.033 -0.2634  0.6515  0.4136
 4062SOL    HW123645   1.438   0.289   4.046 -1.7137 -0.2952 -1.3389
 4062SOL    HW223646   1.458   0.442   4.068  0.6041 -1.1882  2.4137
 4063SOL     OW23647   4.026   1.760   7.180 -1.0615  0.0330 -0.2261
 4063SOL    HW123648   4.063   1.815   7.110 -0.7896 -0.3446 -0.3777
 4063SOL    HW223649   3.934   1.757   7.155 -1.3106  0.3771  0.6763
 4064SOL     OW23650   1.699   1.260   4.589 -0.3060 -0.3063 -0.1206
 4064SOL    HW123651   1.672   1.352   4.578 -0.0095 -0.1603  0.3526
 4064SOL    HW223652   1.627   1.224   4.641 -0.8607 -0.3442 -0.9269
 4065SOL     OW23653   1.435   0.566   7.099  0.4720 -0.0504 -0.4670
 4065SOL    HW123654   1.501   0.628   7.130 -1.2175  1.2222  0.5302
 4065SOL    HW223655   1.431   0.603   7.011  2.8983  0.4288 -0.3789
 4066SOL     OW23656   3.369   2.098  17.653  0.8840 -0.2822 -0.8154
 4066SOL    HW123657   3.311   2.057  17.589 -1.7055  1.0179  0.7096
 4066SOL    HW223658   3.451   2.064  17.617  0.7439 -1.5994  0.0812
 4067SOL     OW23659   3.479   4.481  11.911  0.1944  0.0734 -0.2074
 4067SOL    HW123660   3.435   4.506  11.992 -1.2517 -3.7165  0.1598
 4067SOL    HW223661   3.549   4.418  11.932 -1.0153 -0.0179  3.4379
 4068SOL     OW23662   3.637   2.391  11.711  0.4491  0.2611 -0.3464
 4068SOL    HW123663   3.542   2.393  11.722  0.4439 -0.2438 -0.3037
 4068SOL    HW223664   3.651   2.296  11.707 -0.9263  0.0531 -0.2280
 4069SOL     OW23665   0.706   0.957   6.485  0.6011 -0.4339  0.0176
 4069SOL    HW123666   0.704   0.974   6.579  0.3110 -0.7010  0.0619
 4069SOL    HW223667   0.688   1.043   6.447 -1.7395 -1.4746 -1.2235
 4070SOL     OW23668   3.025   1.675   4.176 -0.7270  0.0287  0.1577
 4070SOL    HW123669   3.035   1.710   4.087 -0.1641 -0.2665  0.1045
 4070SOL    HW223670   3.042   1.582   4.160 -0.4754  0.0343  0.3953
 4071SOL     OW23671   4.704   1.052   9.317  0.3590  0.4684 -0.5198
 4071SOL    HW123672   0.057   1.047   9.375 -0.2803  1.8550  0.4302
 4071SOL    HW223673   4.641   1.105   9.365  2.5577  1.2198  1.5209
 4072SOL     OW23674   3.376   2.437   0.663 -0.0707 -0.1074 -0.2430
 4072SOL    HW123675   3.468   2.464   0.658  0.3155 -1.4729 -0.7384
 4072SOL    HW223676   3.382   2.342   0.650 -0.0089  0.1010 -1.7677
 4073SOL     OW23677   0.296   3.525   4.302 -0.1956  0.6210  0.2602
 4073SOL    HW123678   0.247   3.495   4.226 -0.6192  0.5966  0.5450
 4073SOL    HW223679   0.365   3.459   4.305 -1.6066 -0.8896 -0.4330
 4074SOL     OW23680   0.193   1.131  12.934  0.5807  0.1183  0.4761
 4074SOL    HW123681   0.207   1.149  12.841  0.7654  0.9462  0.6560
 4074SOL    HW223682   0.244   1.205  12.968  0.7953  1.0527 -1.9213
 4075SOL     OW23683   3.009   4.536   4.904 -0.5043  1.0744 -0.3841
 4075SOL    HW123684   3.083   4.476   4.908 -0.6192  1.0592  1.6326
 4075SOL    HW223685   2.965   4.495   4.978  0.8874  0.6826  0.2230
 4076SOL     OW23686   4.094   1.019   8.344 -0.4189 -0.7687  0.1901
 4076SOL    HW123687   4.121   1.069   8.421  1.1232 -1.2009 -0.0752
 4076SOL    HW223688   4.051   1.092   8.300  1.9058  0.3265 -0.2592
 4077SOL     OW23689   2.075   1.734   5.841 -0.2922  0.4075  0.0194
 4077SOL    HW123690   2.162   1.704   5.814 -1.1396 -0.1564 -2.0394
 4077SOL    HW223691   2.075   1.695   5.928  0.1607 -0.4560 -0.3696
 4078SOL     OW23692   4.643   1.863  17.285  0.4830  0.3530 -0.3013
 4078SOL    HW123693   4.575   1.929  17.276  0.9219  1.4331  4.8006
 4078SOL    HW223694   4.699   1.907  17.349  1.7163 -0.9390 -0.4763
 4079SOL     OW23695   3.023   2.191   7.745  0.1038  0.1090 -0.0267
 4079SOL    HW123696   2.989   2.109   7.779  0.3279  0.4303  0.9708
 4079SOL    HW223697   3.059   2.164   7.661  0.9986 -0.4929  0.5453
 4080SOL     OW23698   4.578   2.046   6.954 -0.0227 -0.0274  0.0221
 4080SOL    HW123699   4.523   1.998   6.892 -0.2942  0.2676  0.0352
 4080SOL    HW223700   4.571   2.141   6.949 -2.8071 -0.2529 -0.3971
 4081SOL     OW23701   3.241   3.742   2.325 -0.4521 -0.2663  0.1993
 4081SOL    HW123702   3.171   3.754   2.389  0.4492 -2.8487  1.6871
 4081SOL    HW223703   3.315   3.773   2.377  0.0076 -1.1118  0.0498
 4082SOL     OW23704   3.849   4.539   3.202  0.2361 -0.0401 -0.5346
 4082SOL    HW123705   3.762   4.516   3.169  0.3899  0.0440 -0.9985
 4082SOL    HW223706   3.902   4.497   3.134 -0.8997  0.5262 -1.7550
 4083SOL     OW23707   4.371   1.552  14.377  0.5905  0.2645  0.4204
 4083SOL    HW123708   4.449   1.510  14.339  0.9425 -0.9476  2.5212
 4083SOL    HW223709   4.316   1.479  14.404 -0.3239  0.9023  0.2648
 4084SOL     OW23710   1.502   2.937   7.612 -0.9930  0.8064 -0.0386
 4084SOL    HW123711   1.494   2.979   7.698  2.0235  2.4537 -0.5759
 4084SOL    HW223712   1.428   2.877   7.623 -0.1364  0.2839  2.8203
 4085SOL     OW23713   4.188   3.584   6.559 -0.2833 -0.3021 -0.0331
 4085SOL    HW123714   4.258   3.624   6.610 -2.1796  2.3322  0.5220
 4085SOL    HW223715   4.177   3.496   6.595 -0.3876 -0.4214 -0.3519
 4086SOL     OW23716   4.564   4.338   3.587  0.0811  0.4824 -0.1907
 4086SOL    HW123717   4.563   4.377   3.674  2.0889 -2.4196  1.1322
 4086SOL    HW223718   4.652   4.360   3.557 -0.5696  0.9719 -1.7231
 4087SOL     OW23719   0.294   0.167  14.275 -0.1411 -0.0790 -0.2655
 4087SOL    HW123720   0.268   0.257  14.295  0.4136  0.7433 -3.2953
 4087SOL    HW223721   0.373   0.177  14.222  0.3367 -0.9523  0.2900
 4088SOL     OW23722   3.345   4.109   9.252 -0.7087 -0.0679  0.4665
 4088SOL    HW123723   3.421   4.053   9.240  0.0105  0.7319  1.2845
 4088SOL    HW223724   3.365   4.180   9.191 -1.6100 -0.9167 -0.8127
 4089SOL     OW23725   2.015   1.566   0.623  0.4091 -0.0830  1.0452
 4089SOL    HW123726   2.020   1.525   0.536  1.3165  2.2119  0.0191
 4089SOL    HW223727   1.942   1.627   0.613  0.0438 -0.6807  0.1114
 4090SOL     OW23728   2.295   1.815   6.691 -0.0009 -0.7813  0.1603
 4090SOL    HW123729   2.216   1.869   6.691  2.1277  2.3030  1.0637
 4090SOL    HW223730   2.370   1.874   6.686 -0.6096  0.0119  0.3525
 4091SOL     OW23731   4.077   0.571   5.167  0.0690 -0.3039 -0.0101
 4091SOL    HW123732   4.066   0.619   5.249 -1.2185  1.7487 -1.3861
 4091SOL    HW223733   4.114   0.488   5.198  0.9296 -0.0189 -0.2690
 4092SOL     OW23734   4.261   2.852  10.370 -0.6348 -0.7962 -0.2134
 4092SOL    HW123735   4.212   2.806  10.301 -0.1035 -0.1035 -1.0480
 4092SOL    HW223736   4.250   2.802  10.451 -0.1057 -0.3297  0.1391
 4093SOL     OW23737   3.983   1.231   0.732 -0.5086  0.4427  0.1501
 4093SOL    HW123738   3.971   1.144   0.693  2.6744  0.7405 -1.4549
 4093SOL    HW223739   4.059   1.214   0.788 -0.1852  0.0683 -0.4029
 4094SOL     OW23740   4.575   2.260   2.277  0.0059 -0.6243  0.2273
 4094SOL    HW123741   4.559   2.351   2.251 -0.1623 -1.1408 -1.4724
 4094SOL    HW223742   4.527   2.214   2.209 -0.5854  2.3469 -1.3651
 4095SOL     OW23743   1.704   1.569   9.954  0.8662 -0.0968 -0.0470
 4095SOL    HW123744   1.673   1.564   9.863 -2.1229  0.4148  0.9294
 4095SOL    HW223745   1.724   1.662   9.967  0.7072 -0.0851  0.1160
 4096SOL     OW23746   4.656   3.189   5.977 -0.3709  0.1075 -0.7378
 4096SOL    HW123747   0.025   3.184   5.949 -0.2918 -0.4474 -0.3776
 4096SOL    HW223748   4.611   3.160   5.898 -0.6218 -0.5770 -0.3466
 4097SOL     OW23749   3.420   3.025  15.540 -0.4549  0.3136  0.0077
 4097SOL    HW123750   3.415   3.095  15.604  0.8427 -0.0859  0.5462
 4097SOL    HW223751   3.442   2.947  15.591 -2.0388 -0.8321 -1.0382
 4098SOL     OW23752   4.318   0.120   0.254 -0.5108 -0.6908  0.6581
 4098SOL    HW123753   4.371   0.040   0.241 -0.6218 -0.5080 -0.8711
 4098SOL    HW223754   4.225   0.098   0.246 -0.0781 -2.6002  0.7047
 4099SOL     OW23755   3.603   0.565   4.968  0.6444  0.0886 -0.0252
 4099SOL    HW123756   3.686   0.528   4.938  1.0249  0.4508  0.5786
 4099SOL    HW223757   3.556   0.568   4.885 -1.9534  0.5629  1.4722
 4100SOL     OW23758   3.840   4.674   0.501  0.0818 -0.4147  0.0531
 4100SOL    HW123759   3.932   4.667   0.478  0.1641  2.2351 -0.3870
 4100SOL    HW223760   3.855   4.693   0.594  1.2449 -0.7706 -0.0675
 4101SOL     OW23761   3.527   0.618   2.601  1.0269  0.7362  0.3069
 4101SOL    HW123762   3.492   0.585   2.684 -0.2218 -1.7779 -1.2337
 4101SOL    HW223763   3.582   0.689   2.634  0.5996  2.1518 -2.0459
 4102SOL     OW23764   4.393   4.373   1.953  0.0928  0.4419 -0.6125
 4102SOL    HW123765   4.478   4.382   1.910  0.3636  0.3766 -0.0919
 4102SOL    HW223766   4.379   4.279   1.944 -2.2327  0.5874  1.4353
 4103SOL     OW23767   1.952   1.544   9.536  0.0093 -0.1704  0.6257
 4103SOL    HW123768   1.973   1.612   9.601 -2.2130  0.9278  0.1887
 4103SOL    HW223769   2.002   1.468   9.568 -1.9743 -0.7153  2.4382
 4104SOL     OW23770   2.631   4.310   1.998  0.2352 -0.2964 -0.3443
 4104SOL    HW123771   2.567   4.381   1.995 -1.2090 -1.6561 -1.6669
 4104SOL    HW223772   2.638   4.291   1.905 -1.5460 -1.1052 -0.3080
 4105SOL     OW23773   0.094   0.754   1.708  0.2281  0.0468 -0.0344
 4105SOL    HW123774   0.029   0.698   1.666  0.6775 -0.0830 -0.5600
 4105SOL    HW223775   0.166   0.693   1.720 -2.8373 -4.0952 -2.8616
 4106SOL     OW23776   1.739   4.415  11.058 -0.1196 -0.2447 -0.0045
 4106SOL    HW123777   1.768   4.347  10.997  0.3226  1.1037 -1.2898
 4106SOL    HW223778   1.674   4.365  11.108  0.9102 -2.7072 -1.1125
 4107SOL     OW23779   1.645   0.107  15.068 -0.3428 -0.1328  0.5303
 4107SOL    HW123780   1.575   0.146  15.016 -1.1833 -1.9237  0.2871
 4107SOL    HW223781   1.659   0.032  15.010 -1.2776 -0.8481  1.2170
 4108SOL     OW23782   4.678   1.707   0.449 -0.2285  0.6370 -0.2425
 4108SOL    HW123783   4.605   1.737   0.395  0.5908  2.0135 -0.6059
 4108SOL    HW223784   4.674   1.612   0.446  0.0989  0.6987 -2.7406
 4109SOL     OW23785   4.636   2.621   6.828 -0.0782  0.0117  0.1975
 4109SOL    HW123786   4.708   2.678   6.857  0.3416 -0.1139 -0.5959
 4109SOL    HW223787   4.564   2.684   6.831  0.1438  0.3383 -1.4643
 4110SOL     OW23788   2.288   2.281   5.458 -0.9151  0.0554 -0.2450
 4110SOL    HW123789   2.249   2.203   5.417 -0.0695  0.1941 -1.3067
 4110SOL    HW223790   2.375   2.246   5.476 -0.7055  1.1530  0.8367
 4111SOL     OW23791   2.462   4.528   7.203 -0.0289 -0.1649 -0.4312
 4111SOL    HW123792   2.387   4.564   7.250  0.8195  0.2972  0.5559
 4111SOL    HW223793   2.413   4.485   7.133 -1.6811  0.4828  0.3280
 4112SOL     OW23794   3.584   0.766   5.588  0.6152  0.7543  0.1724
 4112SOL    HW123795   3.513   0.800   5.534 -0.3796 -0.0199  0.9795
 4112SOL    HW223796   3.666   0.805   5.556  0.0181  1.9039  0.0489
 4113SOL     OW23797   2.503   1.811   5.075 -0.0843 -0.1600  0.2681
 4113SOL    HW123798   2.523   1.836   5.165 -1.1307  1.2820  0.1067
 4113SOL    HW223799   2.556   1.732   5.063  0.4740  0.3540 -0.7455
 4114SOL     OW23800   2.685   0.365   9.877  0.2182  0.1160  0.6739
 4114SOL    HW123801   2.632   0.434   9.837  0.5516 -0.2783 -0.4625
 4114SOL    HW223802   2.628   0.287   9.880 -2.3514  1.8964 -1.2269
 4115SOL     OW23803   4.179   0.436   4.852 -0.0065  0.0834  0.1709
 4115SOL    HW123804   4.202   0.417   4.761 -1.9955 -0.6848 -0.1515
 4115SOL    HW223805   4.113   0.506   4.848  0.5438  0.6396  0.8058
 4116SOL     OW23806   1.900   1.465   8.993 -0.1073 -0.2633  0.2457
 4116SOL    HW123807   1.976   1.438   8.942 -0.2160  0.7418 -0.4468
 4116SOL    HW223808   1.856   1.380   8.994  1.1718 -0.9075  1.1244
 4117SOL     OW23809   4.131   1.246   4.866 -0.1796 -0.0187 -0.4188
 4117SOL    HW123810   4.080   1.317   4.905  1.2492 -0.1388  1.6496
 4117SOL    HW223811   4.073   1.232   4.791 -2.5774  1.8193  1.0914
 4118SOL     OW23812   2.398   3.378   6.711  0.1458 -0.1168 -0.1338
 4118SOL    HW123813   2.404   3.283   6.704  0.4536  0.0014 -1.5802
 4118SOL    HW223814   2.434   3.408   6.627 -0.1993  0.6754 -0.0008
 4119SOL     OW23815   0.346   0.015  16.552  0.5737 -0.3727 -0.3437
 4119SOL    HW123816   0.330   0.087  16.491 -0.7103 -0.3666 -0.0014
 4119SOL    HW223817   0.270   0.019  16.609  0.6764 -1.8338 -0.1248
 4120SOL     OW23818   2.159   0.665  10.953  0.5397 -0.0511  0.1097
 4120SOL    HW123819   2.248   0.630  10.960  0.4715 -0.0432  0.9994
 4120SOL    HW223820   2.166   0.705  10.866  1.7039 -0.4069  0.0400
 4121SOL     OW23821   3.699   0.613   7.280 -0.0637  0.0382  0.7148
 4121SOL    HW123822   3.639   0.579   7.346 -0.9328  0.2330  0.0356
 4121SOL    HW223823   3.631   0.669   7.242  0.2027  1.3533  2.1615
 4122SOL     OW23824   3.157   3.929   6.216 -0.2096 -0.1837  1.1106
 4122SOL    HW123825   3.154   3.835   6.236 -0.5947 -0.1650  1.1554
 4122SOL    HW223826   3.244   3.938   6.179 -0.5351 -0.1480  0.3494
 4123SOL     OW23827   0.913   1.352  10.882  0.0986  0.0175 -0.8450
 4123SOL    HW123828   0.904   1.288  10.811  0.8551 -1.4808  0.4278
 4123SOL    HW223829   0.823   1.351  10.914  1.0139  0.1761  1.7190
 4124SOL     OW23830   3.346   3.462   6.100  0.5643  0.5679  0.2376
 4124SOL    HW123831   3.260   3.427   6.080  0.1835  2.2414 -1.0858
 4124SOL    HW223832   3.385   3.389   6.148  0.1079  0.1294 -0.0554
 4125SOL     OW23833   0.309   1.144   4.721  0.1221  0.1695 -0.2261
 4125SOL    HW123834   0.365   1.209   4.763 -1.8421  1.3673  0.5278
 4125SOL    HW223835   0.376   1.122   4.657  0.0620 -2.4056  0.5614
 4126SOL     OW23836   0.409   3.636   9.884  0.4966 -0.6640  0.6858
 4126SOL    HW123837   0.317   3.610   9.883  0.8064 -1.6444 -2.1509
 4126SOL    HW223838   0.454   3.563   9.926  1.6727 -0.6283 -0.5145
 4127SOL     OW23839   1.825   1.785   7.556  0.0186 -0.0935 -0.2791
 4127SOL    HW123840   1.855   1.760   7.644  0.9246 -0.5234 -0.7139
 4127SOL    HW223841   1.769   1.855   7.590 -1.6105 -1.2599 -0.5763
 4128SOL     OW23842   4.054   4.083   9.048  0.2845 -0.2269 -0.1388
 4128SOL    HW123843   4.057   4.011   8.985  1.4251  0.8069 -1.2690
 4128SOL    HW223844   3.990   4.045   9.108 -1.0162  0.2340 -1.2422
 4129SOL     OW23845   1.654   2.276  10.810  0.0339 -0.4654 -0.5967
 4129SOL    HW123846   1.690   2.255  10.724  1.5133 -1.7551  0.3336
 4129SOL    HW223847   1.564   2.259  10.782 -0.6623  1.3512  0.5120
 4130SOL     OW23848   4.172   0.608   4.157 -0.5203 -0.3702 -0.5569
 4130SOL    HW123849   4.193   0.695   4.121 -0.2020 -0.6999 -1.1626
 4130SOL    HW223850   4.254   0.562   4.141 -1.2278 -1.4866 -1.0264
 4131SOL     OW23851   4.194   0.991  15.976 -0.3067 -0.5236  0.4900
 4131SOL    HW123852   4.285   1.013  15.997 -0.1563 -2.0912  1.4614
 4131SOL    HW223853   4.205   0.904  15.937  0.3196 -0.5779  0.7956
 4132SOL     OW23854   1.774   3.946   3.874 -0.1277  0.0327  0.1514
 4132SOL    HW123855   1.705   3.902   3.923  0.1841  0.8329  1.3179
 4132SOL    HW223856   1.748   4.035   3.897  1.7457  0.4653  0.6490
 4133SOL     OW23857   0.569   2.823   4.738  0.1355 -0.1987  0.2097
 4133SOL    HW123858   0.580   2.866   4.822  1.8738  2.4496 -1.3642
 4133SOL    HW223859   0.617   2.886   4.684  1.8209 -0.5156  1.3541
 4134SOL     OW23860   0.783   1.003  13.855  0.3619  0.6984  0.2645
 4134SOL    HW123861   0.868   1.030  13.887  0.3928 -0.0939  0.8663
 4134SOL    HW223862   0.723   1.031  13.924 -0.0833 -0.6187  0.4317
 4135SOL     OW23863   4.597   0.879   2.710 -0.3081  0.2221  0.0185
 4135SOL    HW123864   4.544   0.803   2.687 -0.7841  0.2329  1.0496
 4135SOL    HW223865   4.678   0.830   2.724 -0.8585 -0.6690  0.0818
 4136SOL     OW23866   3.872   2.116   4.460  0.1534  0.1443 -0.1159
 4136SOL    HW123867   3.814   2.181   4.422  2.0225  2.2209  0.5929
 4136SOL    HW223868   3.872   2.053   4.388 -1.8034  0.8408 -0.7288
 4137SOL     OW23869   4.183   1.950   3.428  0.3358  0.3632  0.2468
 4137SOL    HW123870   4.242   1.946   3.503 -0.1950 -1.5571  0.5691
 4137SOL    HW223871   4.230   2.020   3.385  1.4021 -0.3386  0.2510
 4138SOL     OW23872   2.653   4.316   0.199  0.0178 -0.5013 -0.2542
 4138SOL    HW123873   2.697   4.274   0.274  0.7088  2.9877  1.2670
 4138SOL    HW223874   2.567   4.323   0.239  0.4379 -0.0440  0.5644
 4139SOL     OW23875   3.609   3.421   3.117 -0.3450  0.3589 -0.2416
 4139SOL    HW123876   3.610   3.511   3.084  0.3788  0.4248 -0.0486
 4139SOL    HW223877   3.607   3.433   3.212 -1.1542 -0.2251 -0.1835
 4140SOL     OW23878   3.099   0.084  17.088  0.5285 -0.4084  0.3798
 4140SOL    HW123879   3.069   0.170  17.117  1.3502  0.1250 -0.3345
 4140SOL    HW223880   3.120   0.048  17.174 -0.5621 -3.1885 -0.5220
 4141SOL     OW23881   1.914   1.652   7.835  0.0632  0.0640  0.4854
 4141SOL    HW123882   1.888   1.599   7.760  0.8818  0.1583  0.1391
 4141SOL    HW223883   1.839   1.653   7.894 -2.0383 -0.4916 -2.1792
 4142SOL     OW23884   3.184   2.483   6.114 -0.0720 -0.0547 -0.2061
 4142SOL    HW123885   3.207   2.449   6.200 -3.0125 -2.9830 -0.5659
 4142SOL    HW223886   3.256   2.435   6.072 -0.9518 -2.2211  0.7858
 4143SOL     OW23887   2.809   2.502   2.697  0.1677 -0.0158 -0.4039
 4143SOL    HW123888   2.732   2.466   2.740 -0.4703  0.0602 -1.4914
 4143SOL    HW223889   2.876   2.477   2.761  1.2376  1.3143 -0.9977
 4144SOL     OW23890   1.448   4.627   7.401 -0.2639 -0.3206 -0.2041
 4144SOL    HW123891   1.382   4.652   7.337  0.3312  1.4944 -0.1159
 4144SOL    HW223892   1.452   4.710   7.448  0.7750  0.2199 -1.2437
 4145SOL     OW23893   3.187   3.385  17.615 -0.2216 -0.0720 -0.0836
 4145SOL    HW123894   3.152   3.329  17.684  0.6774 -0.2682  0.2041
 4145SOL    HW223895   3.241   3.323  17.567 -1.4241 -0.1101 -1.4017
 4146SOL     OW23896   4.337   4.615   6.936  0.0273  0.6264 -0.4682
 4146SOL    HW123897   4.408   4.551   6.945 -0.9003 -0.0017  2.3422
 4146SOL    HW223898   4.338   4.647   7.026  1.0535 -2.3175  0.5705
 4147SOL     OW23899   0.050   2.099   8.171  0.2300  0.8871  0.3148
 4147SOL    HW123900   0.092   2.013   8.177 -1.8927 -0.2063 -0.3807
 4147SOL    HW223901   0.126   2.157   8.170  1.2059 -0.4144 -1.5581
 4148SOL     OW23902   3.912   0.926  12.216 -0.1610  0.2718 -0.0162
 4148SOL    HW123903   3.869   0.860  12.271 -3.3241  0.9457 -1.6934
 4148SOL    HW223904   3.928   1.002  12.272  1.3765  0.4716 -0.7224
 4149SOL     OW23905   3.581   0.648  17.627 -0.7042 -0.1988 -0.1498
 4149SOL    HW123906   3.566   0.560  17.593  2.3331  0.0115 -1.9487
 4149SOL    HW223907   3.522   0.699  17.571 -1.8784 -0.2941  0.9680
 4150SOL     OW23908   1.945   1.018   7.006  0.1447 -0.1453  0.7668
 4150SOL    HW123909   1.895   0.940   6.984  0.1541 -0.5826  2.2452
 4150SOL    HW223910   1.889   1.086   6.969  0.0650 -0.0112  1.1331
 4151SOL     OW23911   1.905   0.412   0.921 -0.2798  0.3397 -0.1386
 4151SOL    HW123912   1.821   0.426   0.964  0.0639 -2.4067  1.4202
 4151SOL    HW223913   1.960   0.362   0.982 -2.1829  0.4154  1.6352
 4152SOL     OW23914   0.150   2.602   6.621 -0.0260 -0.3122 -0.3658
 4152SOL    HW123915   0.116   2.601   6.532 -0.5139  1.4239 -0.1934
 4152SOL    HW223916   0.070   2.604   6.674  1.4328  0.5782  1.8164
 4153SOL     OW23917   3.649   4.264   2.625  0.3222  0.1324 -0.4938
 4153SOL    HW123918   3.566   4.302   2.595  0.3176  0.4535 -0.0816
 4153SOL    HW223919   3.662   4.189   2.568  2.4364  0.9472 -1.0834
 4154SOL     OW23920   3.044   1.198   4.290  0.1832  0.2128  0.0671
 4154SOL    HW123921   3.090   1.281   4.275  0.1709  0.1734 -0.1918
 4154SOL    HW223922   3.066   1.158   4.205  0.0204 -0.1233  0.1844
 4155SOL     OW23923   3.324   0.822   3.462 -0.1300 -0.1290  0.2422
 4155SOL    HW123924   3.312   0.733   3.428  2.8949 -0.7223  0.6793
 4155SOL    HW223925   3.379   0.810   3.540  0.8968  0.1583 -0.4390
 4156SOL     OW23926   4.379   2.166   8.882 -0.3221 -0.0415  0.1376
 4156SOL    HW123927   4.429   2.226   8.938 -1.8876  0.7744  0.6737
 4156SOL    HW223928   4.346   2.232   8.821 -1.8030 -0.6764  0.2520
 4157SOL     OW23929   4.551   3.572  12.260 -0.7544  0.1824 -0.4666
 4157SOL    HW123930   4.530   3.576  12.354 -2.7766  4.9497 -1.1434
 4157SOL    HW223931   4.542   3.480  12.234 -0.7155  1.3923 -4.6097
 4158SOL     OW23932   2.443   4.339   2.672 -0.4595  0.2149  0.0184
 4158SOL    HW123933   2.362   4.295   2.647 -0.8292  1.0188 -0.2021
 4158SOL    HW223934   2.488   4.261   2.706 -0.8712 -0.0767 -0.0971
 4159SOL     OW23935   1.110   3.807   7.756  0.2995 -0.5862 -0.2545
 4159SOL    HW123936   1.156   3.742   7.704  4.0867  1.8985  0.0208
 4159SOL    HW223937   1.022   3.811   7.718  0.4791  1.0118 -0.5342
 4160SOL     OW23938   4.134   0.527   3.170  0.3218  0.5212 -0.1068
 4160SOL    HW123939   4.089   0.607   3.143  3.9889  2.7681  0.4464
 4160SOL    HW223940   4.182   0.545   3.251 -1.0025  1.6866  0.4171
 4161SOL     OW23941   1.249   4.066   4.635 -0.0337 -0.1664  0.4051
 4161SOL    HW123942   1.200   3.998   4.588 -1.1851 -1.6691  3.8193
 4161SOL    HW223943   1.187   4.125   4.678 -2.2266 -2.0947 -0.0999
 4162SOL     OW23944   3.874   3.183  17.267  0.2695  0.1116  0.0048
 4162SOL    HW123945   3.867   3.088  17.276  2.2174 -0.0087  0.0388
 4162SOL    HW223946   3.915   3.187  17.181  1.5645 -0.6775  0.5988
 4163SOL     OW23947   1.066   0.412   4.395 -0.1569  0.2207  0.1195
 4163SOL    HW123948   0.997   0.460   4.350  1.1233  0.0240 -2.0488
 4163SOL    HW223949   1.110   0.384   4.314  0.9300 -0.6779  1.0213
 4164SOL     OW23950   2.427   3.675   2.214  0.2399  0.1324  0.4091
 4164SOL    HW123951   2.443   3.588   2.252  1.7732 -0.9600 -2.7956
 4164SOL    HW223952   2.353   3.701   2.269 -1.0361  0.9364 -1.6849
 4165SOL     OW23953   3.467   1.042   8.926 -0.2673  0.1233 -0.0005
 4165SOL    HW123954   3.496   0.965   8.975  0.4491  1.3398  1.4930
 4165SOL    HW223955   3.527   1.112   8.950 -3.0444  1.6081  2.5295
 4166SOL     OW23956   1.839   0.669   8.855  0.1954 -0.2117 -0.1474
 4166SOL    HW123957   1.929   0.679   8.823  0.9745 -0.9795  1.7636
 4166SOL    HW223958   1.845   0.614   8.933  0.0171 -1.8617 -1.3153
 4167SOL     OW23959   0.912   3.704   5.709  0.2038  0.1805 -0.4802
 4167SOL    HW123960   0.853   3.673   5.640  0.3837  1.1811 -1.0738
 4167SOL    HW223961   0.862   3.776   5.746 -0.9277 -0.1771 -1.3009
 4168SOL     OW23962   1.268   4.302   6.370  0.8441  0.5622  0.6588
 4168SOL    HW123963   1.299   4.329   6.283 -0.2815 -3.4599 -1.0315
 4168SOL    HW223964   1.206   4.233   6.347 -1.3277  0.9096  5.5339
 4169SOL     OW23965   0.810   0.413   2.899  0.1948  0.3628  0.2386
 4169SOL    HW123966   0.734   0.392   2.954 -0.5552  0.2827 -0.8356
 4169SOL    HW223967   0.874   0.418   2.971 -1.2430  0.0021  1.5461
 4170SOL     OW23968   1.599   3.499   2.872 -0.0838 -0.3296 -0.5051
 4170SOL    HW123969   1.550   3.426   2.910 -1.2249 -0.7116 -2.7125
 4170SOL    HW223970   1.542   3.531   2.801 -0.5262 -0.4878 -0.2210
 4171SOL     OW23971   2.040   3.864   3.983 -0.4588 -0.1851 -0.6831
 4171SOL    HW123972   2.078   3.949   4.004 -2.0742 -0.1512  2.0390
 4171SOL    HW223973   1.964   3.890   3.931  0.2964  2.0167 -0.6969
 4172SOL     OW23974   3.153   4.228   8.437  0.3595  0.0204  0.1078
 4172SOL    HW123975   3.120   4.209   8.349  0.4021 -3.2159  0.7920
 4172SOL    HW223976   3.088   4.199   8.502 -0.7059  0.1787 -0.8820
 4173SOL     OW23977   4.540   4.621   6.536  0.3033  0.4776 -0.7972
 4173SOL    HW123978   4.475   4.679   6.576  0.8203  0.3793  0.1712
 4173SOL    HW223979   4.549   4.548   6.597 -0.9405  1.4116  0.5022
 4174SOL     OW23980   4.308   3.451  11.112  0.1528  0.4968 -0.8495
 4174SOL    HW123981   4.253   3.376  11.092 -0.9277  1.0770 -0.0114
 4174SOL    HW223982   4.368   3.409  11.173 -0.1291 -0.0504 -0.9522
 4175SOL     OW23983   4.335   1.392   0.372  0.0375 -0.1384 -0.2693
 4175SOL    HW123984   4.260   1.369   0.318 -2.2209 -1.5631  3.5001
 4175SOL    HW223985   4.409   1.380   0.312  0.4344  0.1288  0.1612
 4176SOL     OW23986   3.201   0.293   1.749 -0.7292  0.4347  0.0587
 4176SOL    HW123987   3.293   0.268   1.759 -0.8058  0.2224  0.2384
 4176SOL    HW223988   3.191   0.296   1.654  0.5405  2.0197 -0.0266
 4177SOL     OW23989   2.868   0.177  12.648  0.4136 -0.1598 -0.5994
 4177SOL    HW123990   2.912   0.219  12.721 -0.3846 -1.1850  0.4658
 4177SOL    HW223991   2.850   0.087  12.676  0.6583  0.2705  0.9257
 4178SOL     OW23992   3.210   0.583  10.074 -0.7622  0.1127 -0.7621
 4178SOL    HW123993   3.205   0.520  10.146  2.2074 -0.9382 -1.4421
 4178SOL    HW223994   3.139   0.546  10.021 -1.3083 -0.3652  0.3017
 4179SOL     OW23995   3.558   0.175   2.615  0.5925  0.3421  0.1132
 4179SOL    HW123996   3.630   0.235   2.595  1.1693 -0.4192 -0.0791
 4179SOL    HW223997   3.584   0.113   2.546  0.4652  0.9639 -0.4966
 4180SOL     OW23998   1.292   4.688   2.893 -0.1980  0.2504  0.5903
 4180SOL    HW123999   1.338   4.634   2.829  2.0219 -0.4311  2.7637
 4180SOL    HW224000   1.346   0.042   2.878  1.0213 -1.1853 -2.2348
 4181SOL     OW24001   1.077   0.978  15.481 -0.3077 -0.4939 -0.3076
 4181SOL    HW124002   1.019   1.027  15.539 -1.3450  0.3795 -2.0922
 4181SOL    HW224003   1.109   1.056  15.434 -2.1021  0.4775  0.0748
 4182SOL     OW24004   2.588   2.349   5.685 -0.1774  0.5322 -0.4057
 4182SOL    HW124005   2.650   2.413   5.650  1.3216 -0.2363  0.8502
 4182SOL    HW224006   2.642   2.272   5.697  0.5325  0.8600 -1.4927
 4183SOL     OW24007   2.212   3.971   5.829 -0.1757 -0.2573 -0.0021
 4183SOL    HW124008   2.139   4.020   5.791 -1.6534 -1.8243  0.8628
 4183SOL    HW224009   2.184   3.991   5.919 -1.6517 -1.6135 -0.1677
 4184SOL     OW24010   0.959   4.019  15.685  0.3962 -0.1155 -0.7125
 4184SOL    HW124011   0.999   4.104  15.665  1.2532 -0.0832  1.1490
 4184SOL    HW224012   1.028   3.979  15.738 -0.8593  0.2422  1.1590
 4185SOL     OW24013   4.611   1.389   3.542  0.4100 -0.1178  0.4644
 4185SOL    HW124014   4.536   1.358   3.492  0.9505 -1.1348  0.2833
 4185SOL    HW224015   4.639   1.461   3.485  1.3179  0.4752  1.6524
 4186SOL     OW24016   3.230   1.723  11.712  0.2529 -0.7389 -0.5642
 4186SOL    HW124017   3.296   1.656  11.692  1.3034 -0.0723  0.6181
 4186SOL    HW224018   3.256   1.788  11.646 -1.6628  0.6086  0.0075
 4187SOL     OW24019   3.657   3.926  11.925  0.4011  0.4200 -0.4503
 4187SOL    HW124020   3.650   3.853  11.986  1.9291  1.6817  1.2421
 4187SOL    HW224021   3.726   3.978  11.967  0.7631  0.0432 -0.5780
 4188SOL     OW24022   2.474   2.659   6.772  0.1895 -0.9144  0.0520
 4188SOL    HW124023   2.496   2.726   6.837  1.5179 -1.2316 -0.0890
 4188SOL    HW224024   2.379   2.655   6.785  0.4215 -0.7838  1.8145
 4189SOL     OW24025   0.606   2.221   5.866 -0.3537  0.2961  0.2443
 4189SOL    HW124026   0.587   2.258   5.952  0.7801 -0.9366  1.0346
 4189SOL    HW224027   0.678   2.271   5.829 -1.4156  0.2877 -1.8737
 4190SOL     OW24028   0.890   1.484   8.709 -0.4930 -0.3597 -0.7361
 4190SOL    HW124029   0.880   1.485   8.613 -0.2769 -1.6692 -0.7659
 4190SOL    HW224030   0.897   1.574   8.742  0.0360 -0.2542 -1.1321
 4191SOL     OW24031   4.370   2.228   7.545  0.1485 -0.4211  0.0797
 4191SOL    HW124032   4.323   2.190   7.620  1.2220  2.3421  2.1439
 4191SOL    HW224033   4.299   2.226   7.482 -1.9375  0.4400  2.4320
 4192SOL     OW24034   1.919   1.091   7.388 -0.0528 -0.5841  0.1193
 4192SOL    HW124035   1.975   1.014   7.400 -1.0411 -1.1530  1.0773
 4192SOL    HW224036   1.979   1.150   7.343 -0.2100  0.0662  0.7501
 4193SOL     OW24037   4.435   1.836   1.160 -0.2511  0.1735  0.6375
 4193SOL    HW124038   4.440   1.924   1.122 -0.8094 -0.5262 -1.0394
 4193SOL    HW224039   4.505   1.845   1.225 -1.0548  0.6299  1.4423
 4194SOL     OW24040   1.970   2.290   7.078 -0.3874 -0.0237  0.0831
 4194SOL    HW124041   2.027   2.306   7.153  0.9787  0.3129 -1.0194
 4194SOL    HW224042   2.043   2.279   7.016 -1.6628 -0.0400 -1.4312
 4195SOL     OW24043   2.678   0.513   4.869  0.3015 -0.1544 -0.1558
 4195SOL    HW124044   2.603   0.457   4.890 -0.7512  2.0298  1.9049
 4195SOL    HW224045   2.631   0.591   4.837 -0.5540 -0.6078 -0.0031
 4196SOL     OW24046   2.363   1.778   6.249  0.0000 -0.0089  0.1885
 4196SOL    HW124047   2.307   1.843   6.293  1.8635  1.7200  0.0175
 4196SOL    HW224048   2.359   1.812   6.160  2.0246  1.1458  0.5189
 4197SOL     OW24049   4.000   1.351   7.357  0.3493  0.4008 -0.0803
 4197SOL    HW124050   4.041   1.435   7.377  0.8429 -0.1235  1.1037
 4197SOL    HW224051   4.032   1.343   7.267  2.1491 -0.9152  0.6762
 4198SOL     OW24052   4.708   3.761  15.530 -0.1310 -0.7427  0.5159
 4198SOL    HW124053   0.058   3.716  15.486 -2.1201 -0.1478 -3.3010
 4198SOL    HW224054   4.660   3.791  15.453  3.9390 -0.1511 -1.8179
 4199SOL     OW24055   2.208   3.428  15.404  0.9442 -0.0938  0.3643
 4199SOL    HW124056   2.148   3.435  15.478 -0.5034 -0.9348 -0.7114
 4199SOL    HW224057   2.267   3.355  15.424  1.7072  0.4504  0.1143
 4200SOL     OW24058   2.030   2.146   3.371 -0.5606 -0.5853  0.2745
 4200SOL    HW124059   2.019   2.215   3.306  1.8791 -1.6012 -1.2161
 4200SOL    HW224060   2.017   2.067   3.319  2.3980 -0.3633 -0.8031
 4201SOL     OW24061   0.448   0.077   7.993 -0.2226 -0.1746  0.0390
 4201SOL    HW124062   0.513   0.096   8.060 -0.4353 -0.7778  0.4160
 4201SOL    HW224063   0.483   4.722   7.948 -0.6108 -1.0211  1.1948
 4202SOL     OW24064   0.205   1.368   5.235 -0.1016  0.0356 -0.4714
 4202SOL    HW124065   0.259   1.447   5.235  0.2640 -0.1883 -2.7858
 4202SOL    HW224066   0.213   1.341   5.326  1.6530  0.7493 -0.4131
 4203SOL     OW24067   0.341   1.479  15.008  0.7654  0.1066 -0.0795
 4203SOL    HW124068   0.267   1.483  15.070  0.3382 -0.9834 -0.5104
 4203SOL    HW224069   0.362   1.387  14.993  0.0628 -0.3652  1.8282
 4204SOL     OW24070   3.600   4.616   4.750 -0.1686 -0.0026  0.3651
 4204SOL    HW124071   3.521   4.622   4.805  0.2766 -0.3178  1.0385
 4204SOL    HW224072   3.659   4.586   4.819 -0.8596 -0.3394  0.8148
 4205SOL     OW24073   4.650   2.568  13.318  0.3268  0.0796 -0.0592
 4205SOL    HW124074   4.566   2.543  13.278  0.2440 -0.3344  0.3758
 4205SOL    HW224075   4.635   2.660  13.341 -1.2378  0.1466 -1.3444
 4206SOL     OW24076   3.865   1.516   5.646  0.2064  0.4592 -0.0011
 4206SOL    HW124077   3.770   1.504   5.638  0.5650 -1.6411 -1.4229
 4206SOL    HW224078   3.886   1.425   5.667  0.2929  0.6673  0.8016
 4207SOL     OW24079   3.249   1.585   7.295 -0.5134 -0.3418  0.7581
 4207SOL    HW124080   3.252   1.679   7.274 -2.1398 -0.6342 -0.7310
 4207SOL    HW224081   3.194   1.576   7.372 -0.1237  1.0466  1.1983
 4208SOL     OW24082   0.909   2.874  16.949  0.0509 -0.1552  0.5877
 4208SOL    HW124083   0.965   2.800  16.924  1.5023  1.7313 -1.7035
 4208SOL    HW224084   0.832   2.853  16.896  1.2662  1.4572 -1.7815
 4209SOL     OW24085   3.336   4.654   5.655 -0.6385 -0.1937 -0.0439
 4209SOL    HW124086   3.342   0.007   5.714  1.2780 -0.1692 -0.2479
 4209SOL    HW224087   3.281   4.594   5.706 -0.2927 -0.1073  0.4352
 4210SOL     OW24088   4.485   2.923   2.024  0.0275  0.1505 -0.0496
 4210SOL    HW124089   4.438   3.003   2.045 -0.3465  0.6934 -2.9065
 4210SOL    HW224090   4.451   2.916   1.935 -0.5825 -1.0761  0.2820
 4211SOL     OW24091   4.528   3.333   1.168  0.3051 -0.2787  1.0163
 4211SOL    HW124092   4.622   3.323   1.153  0.3106  1.2437  0.1011
 4211SOL    HW224093   4.500   3.394   1.101 -0.4600 -1.6167  0.1300
 4212SOL     OW24094   0.514   3.812   5.098  0.1759  0.5940  0.0911
 4212SOL    HW124095   0.457   3.739   5.122 -0.1770  1.1352  0.9056
 4212SOL    HW224096   0.595   3.761   5.103  0.4453  1.1551  1.5976
 4213SOL     OW24097   2.401   4.369   4.399  0.5094 -0.0255  0.4793
 4213SOL    HW124098   2.402   4.449   4.452  1.0754 -0.7870  1.6131
 4213SOL    HW224099   2.490   4.339   4.413  0.9658  0.1427 -2.2172
 4214SOL     OW24100   2.297   1.372   5.611  0.3820 -0.1508 -0.4278
 4214SOL    HW124101   2.328   1.456   5.578 -0.4743  1.0911  1.9259
 4214SOL    HW224102   2.317   1.378   5.705 -0.0193  1.0616 -0.4242
 4215SOL     OW24103   4.236   3.968   0.768  0.5528 -0.0163  0.4558
 4215SOL    HW124104   4.178   3.988   0.842 -0.2567  1.0227 -0.4469
 4215SOL    HW224105   4.209   3.877   0.755 -1.7201  0.9355 -1.3834
 4216SOL     OW24106   2.050   3.567   9.413  0.3309  0.6218  0.1138
 4216SOL    HW124107   1.969   3.576   9.363  0.5246  0.1037 -0.2908
 4216SOL    HW224108   2.112   3.623   9.367  0.7574  1.7079  2.0251
 4217SOL     OW24109   1.863   2.438  17.232  0.6122  0.0093  0.6907
 4217SOL    HW124110   1.881   2.398  17.317 -0.7709  0.9847  1.4437
 4217SOL    HW224111   1.892   2.527  17.249  2.4787 -0.3693 -0.5738
 4218SOL     OW24112   2.840   0.657   4.567  0.2504 -0.0845  0.2240
 4218SOL    HW124113   2.899   0.667   4.493  0.6568  1.7771  0.7959
 4218SOL    HW224114   2.750   0.639   4.541  0.8607 -0.7633 -1.3833
 4219SOL     OW24115   2.500   3.842   9.508  0.2682  0.3629  0.4115
 4219SOL    HW124116   2.443   3.765   9.521 -0.2685  0.9746  1.6376
 4219SOL    HW224117   2.457   3.903   9.568  1.0096 -0.8876  2.2315
 4220SOL     OW24118   0.687   0.566   1.567  0.1307 -0.0702  0.7670
 4220SOL    HW124119   0.719   0.653   1.592 -1.7427  1.2192 -1.3462
 4220SOL    HW224120   0.730   0.558   1.482 -1.6775 -0.4866 -0.1034
 4221SOL     OW24121   2.512   2.527   7.454 -0.0190  0.5738  0.4654
 4221SOL    HW124122   2.540   2.517   7.545  1.2171 -0.0919  0.0248
 4221SOL    HW224123   2.593   2.541   7.404  1.0236 -0.5184  1.8415
 4222SOL     OW24124   2.895   4.104  14.139  0.0153  0.0918 -0.4519
 4222SOL    HW124125   2.940   4.187  14.121  1.0363 -0.4141 -0.2305
 4222SOL    HW224126   2.815   4.140  14.177 -0.7162  0.7965 -2.6203
 4223SOL     OW24127   3.299   0.950  10.465  0.5413  0.0879 -0.2356
 4223SOL    HW124128   3.355   0.993  10.400 -1.5197  2.9487 -0.1312
 4223SOL    HW224129   3.354   0.899  10.524  1.4673 -0.6028 -1.7057
 4224SOL     OW24130   3.243   4.372   3.903 -0.2106  0.2735 -0.2737
 4224SOL    HW124131   3.194   4.412   3.974 -0.7096  1.0688 -1.0591
 4224SOL    HW224132   3.212   4.282   3.907  2.6097 -0.7176 -0.7753
 4225SOL     OW24133   2.501   2.984  12.654  0.1327 -0.0859  0.4208
 4225SOL    HW124134   2.495   3.072  12.692  1.1230 -0.2692  1.0081
 4225SOL    HW224135   2.424   2.989  12.598  1.2523 -2.1842 -1.3198
 4226SOL     OW24136   3.343   2.613  12.430 -0.3885  0.5687 -0.1845
 4226SOL    HW124137   3.286   2.646  12.361 -2.7091 -2.4049  0.3311
 4226SOL    HW224138   3.394   2.688  12.460  0.2767  0.0446  0.0212
 4227SOL     OW24139   3.302   2.947   7.947  0.3612 -0.2958  0.0935
 4227SOL    HW124140   3.256   2.906   8.021  0.0726 -0.4605 -0.1800
 4227SOL    HW224141   3.391   2.943   7.983  0.5993  3.5141 -0.0791
 4228SOL     OW24142   2.958   1.824  10.201  0.0948  0.4225 -0.2305
 4228SOL    HW124143   3.052   1.806  10.200  0.1765  0.8522 -0.7331
 4228SOL    HW224144   2.949   1.870  10.117  0.4596  1.6038  0.3785
 4229SOL     OW24145   0.596   4.374   8.949 -0.1426 -0.4718 -0.3336
 4229SOL    HW124146   0.549   4.316   8.888 -1.4547  1.7997 -1.4553
 4229SOL    HW224147   0.665   4.413   8.896  1.3431 -1.4157  0.8980
 4230SOL     OW24148   1.760   2.376   7.282  0.2050 -0.2549 -0.0886
 4230SOL    HW124149   1.824   2.441   7.251 -1.3437  0.4609 -1.7193
 4230SOL    HW224150   1.673   2.409   7.261  0.4233  0.2771 -0.1556
 4231SOL     OW24151   2.056   3.020   2.654 -0.1699  0.2804 -0.2119
 4231SOL    HW124152   2.140   3.062   2.671 -0.3322 -0.4573  2.4601
 4231SOL    HW224153   2.018   3.076   2.586  1.2612 -1.1512 -2.2081
 4232SOL     OW24154   2.486   0.952   2.518  0.1516  0.0195 -0.2273
 4232SOL    HW124155   2.555   0.981   2.459 -0.5987 -0.8611 -1.5328
 4232SOL    HW224156   2.486   1.028   2.577  1.2019 -0.3794  0.2843
 4233SOL     OW24157   2.011   4.605  10.989 -0.2782 -0.1058 -0.0886
 4233SOL    HW124158   1.947   4.602  10.918 -1.3600  0.0828  0.8670
 4233SOL    HW224159   2.075   4.553  10.940  1.2048  0.3285  1.3730
 4234SOL     OW24160   2.826   4.230   0.399  0.0103  1.4075  0.1833
 4234SOL    HW124161   2.921   4.233   0.395 -0.1019  2.5846 -1.9056
 4234SOL    HW224162   2.797   4.300   0.458  1.3576  0.9400  1.3922
 4235SOL     OW24163   4.329   3.931   4.191 -0.6047  0.1850  0.0379
 4235SOL    HW124164   4.251   3.974   4.154 -0.4650  0.4053 -0.0013
 4235SOL    HW224165   4.357   3.991   4.260  0.2705 -0.3610  0.1584
 4236SOL     OW24166   3.264   0.135  11.709  0.0045  0.5980  0.3865
 4236SOL    HW124167   3.196   0.177  11.658 -0.2673  1.6507  1.6022
 4236SOL    HW224168   3.297   0.205  11.767  1.3377  0.2024  0.1136
 4237SOL     OW24169   1.029   2.655   5.102  0.0499  0.2454  0.5831
 4237SOL    HW124170   1.054   2.736   5.145 -2.7585  0.5111  1.7059
 4237SOL    HW224171   1.120   2.629   5.088 -1.1048 -2.4755 -1.9273
 4238SOL     OW24172   3.879   4.504  12.044  0.1900 -0.1264 -0.0986
 4238SOL    HW124173   3.872   4.414  12.075 -1.4074 -0.1100 -0.4259
 4238SOL    HW224174   3.909   4.483  11.956 -1.4256  1.1126 -0.9359
 4239SOL     OW24175   4.644   4.383   3.237  0.0867  0.3893  0.1424
 4239SOL    HW124176   4.659   4.456   3.297 -0.1287  1.5703 -1.2413
 4239SOL    HW224177   0.011   4.354   3.223 -0.7994 -1.4445 -1.7520
 4240SOL     OW24178   2.047   1.700   5.228 -0.4903 -0.1056 -0.1447
 4240SOL    HW124179   2.030   1.655   5.146  0.5683 -1.8519  0.5694
 4240SOL    HW224180   2.081   1.785   5.200 -1.6745  0.1113 -0.9233
 4241SOL     OW24181   0.796   2.412   6.387  0.0913  0.1428  0.1505
 4241SOL    HW124182   0.823   2.482   6.447 -2.0942 -0.3347  1.6635
 4241SOL    HW224183   0.708   2.396   6.419 -1.0512 -0.4712 -3.3051
 4242SOL     OW24184   4.454   1.930  16.400 -0.1467 -0.2482  0.5301
 4242SOL    HW124185   4.549   1.927  16.413 -0.4711  2.9835  3.7615
 4242SOL    HW224186   4.430   1.838  16.393  0.4505 -0.4537  1.0881
 4243SOL     OW24187   2.906   1.119   6.116 -0.1169 -0.3192 -0.0047
 4243SOL    HW124188   2.926   1.193   6.173  0.9647  0.9612 -2.0033
 4243SOL    HW224189   2.927   1.050   6.179  0.7991  1.4324  1.6049
 4244SOL     OW24190   2.076   3.967  12.809 -0.2617  0.7721  0.3096
 4244SOL    HW124191   2.078   3.932  12.898 -1.1627 -1.1552 -0.4327
 4244SOL    HW224192   2.160   4.014  12.807  0.1694  0.0244  0.5883
 4245SOL     OW24193   2.852   2.926   6.464  0.0644  0.4490  0.2100
 4245SOL    HW124194   2.876   2.928   6.372  0.9387 -0.7508  0.4192
 4245SOL    HW224195   2.762   2.959   6.455  0.6526  1.7650 -0.8585
 4246SOL     OW24196   2.488   1.426   8.689 -1.1363 -0.3269 -0.5901
 4246SOL    HW124197   2.435   1.446   8.612 -2.4086 -0.5912  0.1927
 4246SOL    HW224198   2.574   1.431   8.650  0.3950 -0.8577  2.6903
 4247SOL     OW24199   1.175   1.229  15.457  0.4874 -0.3542  0.5923
 4247SOL    HW124200   1.204   1.299  15.399  0.6833 -0.6702  0.3121
 4247SOL    HW224201   1.109   1.285  15.497  0.2308  0.3791 -0.8879
 4248SOL     OW24202   3.938   0.134   4.466 -0.5145 -0.5198  0.1605
 4248SOL    HW124203   3.983   0.107   4.545  2.4037 -1.4520 -1.8203
 4248SOL    HW224204   3.847   0.133   4.498  0.2588  0.8150  2.3973
 4249SOL     OW24205   2.124   1.420   8.815  0.4518 -0.2350 -0.0418
 4249SOL    HW124206   2.117   1.411   8.720  2.8663  1.1062 -0.3634
 4249SOL    HW224207   2.205   1.371   8.831 -0.2629 -1.6241 -0.7096
 4250SOL     OW24208   0.516   0.755   3.566  0.4915  0.1264 -0.0836
 4250SOL    HW124209   0.523   0.788   3.656 -2.1212 -0.9163  0.5037
 4250SOL    HW224210   0.430   0.714   3.572 -0.6269  2.6332  0.9951
 4251SOL     OW24211   3.708   3.195   3.848  0.1355  0.2852 -0.2889
 4251SOL    HW124212   3.660   3.150   3.778  0.7708 -1.5894  0.4964
 4251SOL    HW224213   3.686   3.149   3.929 -1.5051  1.7007  0.0661
 4252SOL     OW24214   0.827   3.536   4.820 -0.4692  0.5134 -0.6775
 4252SOL    HW124215   0.803   3.457   4.771  0.8317 -1.3635  1.7753
 4252SOL    HW224216   0.914   3.508   4.847 -0.5402  0.5437 -0.4228
 4253SOL     OW24217   1.582   0.215  10.842  0.3956  0.3645 -0.4594
 4253SOL    HW124218   1.623   0.130  10.862 -0.8832 -0.1272  0.1057
 4253SOL    HW224219   1.588   0.266  10.923  4.0913 -2.6159  1.1298
 4254SOL     OW24220   1.821   1.492   0.163 -0.1870 -0.0998 -0.3350
 4254SOL    HW124221   1.754   1.546   0.120  0.5895  1.5382  0.4940
 4254SOL    HW224222   1.776   1.436   0.226 -0.7795  2.7330  1.7998
 4255SOL     OW24223   4.449   1.562   1.274  0.0370  0.4519 -0.0827
 4255SOL    HW124224   4.534   1.597   1.300  0.0657 -0.0905  0.5441
 4255SOL    HW224225   4.425   1.638   1.220 -2.2100 -0.2498 -0.0490
 4256SOL     OW24226   1.905   1.033   4.632 -0.1484  0.1882  0.3864
 4256SOL    HW124227   1.873   1.069   4.550 -0.9734 -2.5859 -0.5100
 4256SOL    HW224228   1.975   1.092   4.659 -0.8982  0.5854  1.4837
 4257SOL     OW24229   0.968   2.862   0.946 -0.2789  0.2078 -0.1373
 4257SOL    HW124230   0.872   2.863   0.945 -0.2989 -1.5550 -0.9891
 4257SOL    HW224231   0.975   2.956   0.959 -1.0756  0.5954 -2.5026
 4258SOL     OW24232   1.541   1.560   8.356  0.5684  0.5964  0.1192
 4258SOL    HW124233   1.464   1.503   8.353  2.5096 -1.9330 -1.0937
 4258SOL    HW224234   1.526   1.599   8.442  0.4946  0.7504  0.0372
 4259SOL     OW24235   0.456   4.473   4.262  0.1062 -0.0583 -0.6053
 4259SOL    HW124236   0.366   4.452   4.240 -0.4220  1.4505  0.1023
 4259SOL    HW224237   0.493   4.488   4.175 -0.4738 -0.6888 -0.9563
 4260SOL     OW24238   3.246   0.751   8.940  0.4281  0.1247  0.1337
 4260SOL    HW124239   3.281   0.766   8.852 -1.0390 -1.7799 -0.7556
 4260SOL    HW224240   3.311   0.686   8.966 -0.7806 -0.9939  0.3559
 4261SOL     OW24241   1.445   1.144   4.441 -0.0394 -0.0614  0.1433
 4261SOL    HW124242   1.364   1.184   4.472  0.1869  1.0079 -0.6601
 4261SOL    HW224243   1.491   1.226   4.426  0.0447  0.0807  1.1435
 4262SOL     OW24244   2.152   2.349   2.581 -0.2006 -0.1402 -0.4356
 4262SOL    HW124245   2.100   2.423   2.613 -0.1974  0.0287 -0.8317
 4262SOL    HW224246   2.237   2.393   2.585  0.1291 -0.8210  0.1960
 4263SOL     OW24247   2.918   1.255  13.113 -0.4761 -0.0283 -0.1187
 4263SOL    HW124248   2.869   1.197  13.171  1.0577 -2.6219 -1.4171
 4263SOL    HW224249   2.894   1.224  13.025  0.3699 -3.0739  0.7195
 4264SOL     OW24250   1.314   1.746  12.155 -0.1790 -0.0983 -0.4795
 4264SOL    HW124251   1.397   1.748  12.108 -0.5742 -1.0571 -1.2280
 4264SOL    HW224252   1.349   1.748  12.244 -0.3656 -2.1098 -0.3540
 4265SOL     OW24253   2.228   2.900   8.775 -0.2729 -0.0993  0.4803
 4265SOL    HW124254   2.176   2.824   8.750  1.5731 -0.6090 -1.8979
 4265SOL    HW224255   2.310   2.852   8.787 -1.6513 -2.1388  1.6353
 4266SOL     OW24256   4.209   0.979   8.675  0.5321 -0.2545 -0.9189
 4266SOL    HW124257   4.191   0.946   8.587 -0.6085  2.0865 -1.5511
 4266SOL    HW224258   4.273   0.913   8.703 -1.3223 -1.8954 -0.5279
 4267SOL     OW24259   3.792   1.765   9.265 -0.6879 -0.3318 -0.0444
 4267SOL    HW124260   3.824   1.823   9.335  0.8419 -1.4176  0.1591
 4267SOL    HW224261   3.711   1.737   9.308 -1.1135  1.5873  0.4268
 4268SOL     OW24262   3.251   4.456   3.413  0.1453 -0.0516  0.1153
 4268SOL    HW124263   3.276   4.480   3.502  2.6141  1.5074 -1.0159
 4268SOL    HW224264   3.331   4.485   3.370  0.6495  0.6566  1.5236
 4269SOL     OW24265   2.860   3.922   8.726  0.6392  0.0930  0.2861
 4269SOL    HW124266   2.828   3.985   8.791  0.9133 -0.9406  1.4366
 4269SOL    HW224267   2.837   3.961   8.642  0.8066 -0.8585 -0.2077
 4270SOL     OW24268   0.636   2.894   0.088  0.0967 -0.3932 -0.3785
 4270SOL    HW124269   0.727   2.916   0.068  0.8230 -2.3507  0.7607
 4270SOL    HW224270   0.587   2.903   0.006  2.3147  0.8281 -1.5698
 4271SOL     OW24271   2.583   1.410   8.264 -0.1927  0.5442 -0.4547
 4271SOL    HW124272   2.531   1.488   8.287 -3.0689 -0.8350 -2.2908
 4271SOL    HW224273   2.648   1.405   8.334 -0.1447 -1.4324 -0.6584
 4272SOL     OW24274   4.022   3.073   8.136 -0.7353 -0.1868  0.4201
 4272SOL    HW124275   4.061   3.100   8.053  1.6939 -1.6992  1.0903
 4272SOL    HW224276   3.941   3.124   8.143 -0.2736  0.8308 -1.6813
 4273SOL     OW24277   3.303   0.840   7.788 -0.2009 -0.2260  0.4053
 4273SOL    HW124278   3.259   0.782   7.726 -1.3282  1.5034 -0.3981
 4273SOL    HW224279   3.249   0.919   7.788 -0.1520 -0.1937 -1.7946
 4274SOL     OW24280   1.238   3.903   8.733 -0.5158 -0.1309  0.5202
 4274SOL    HW124281   1.285   3.827   8.767  0.0267 -0.0226  0.0073
 4274SOL    HW224282   1.152   3.860   8.741 -1.1792  1.3628  1.5317
 4275SOL     OW24283   0.690   1.728   6.046 -0.2912  0.2148 -0.4664
 4275SOL    HW124284   0.639   1.810   6.048  0.8946  0.9496 -0.1197
 4275SOL    HW224285   0.696   1.702   6.138  0.0787  0.7560 -0.3345
 4276SOL     OW24286   0.891   4.378   6.847  0.1861 -0.4542 -0.1687
 4276SOL    HW124287   0.809   4.355   6.804  0.5420 -2.4513  0.2235
 4276SOL    HW224288   0.857   4.354   6.933  1.3108 -1.9565 -0.1504
 4277SOL     OW24289   1.888   4.478  13.234  0.4284 -0.1760  0.0839
 4277SOL    HW124290   1.862   4.401  13.183 -2.3290 -0.2418  1.5502
 4277SOL    HW224291   1.977   4.473  13.199 -0.4732 -3.4805 -1.8177
 4278SOL     OW24292   4.271   3.143   1.945  0.3646 -0.5433 -0.4183
 4278SOL    HW124293   4.325   3.164   1.869  0.9115 -3.7760 -0.9340
 4278SOL    HW224294   4.209   3.215   1.946  1.3445  0.3195 -1.7903
 4279SOL     OW24295   1.005   3.104   2.764 -0.3803 -0.3826  0.6177
 4279SOL    HW124296   1.088   3.056   2.776  0.4965  0.4733 -2.1095
 4279SOL    HW224297   1.009   3.140   2.675 -0.9990 -2.9307 -0.4397
 4280SOL     OW24298   3.266   4.441   2.819  0.0561  0.1535  0.0389
 4280SOL    HW124299   3.325   4.378   2.860 -1.0554 -1.3891 -0.7220
 4280SOL    HW224300   3.193   4.452   2.880 -0.4305  2.9817 -1.0659
 4281SOL     OW24301   2.298   2.711   7.629 -0.1439  0.1184 -0.3994
 4281SOL    HW124302   2.216   2.661   7.639  1.1163 -1.4727  2.0342
 4281SOL    HW224303   2.255   2.791   7.600  2.0625  1.3626 -0.2322
 4282SOL     OW24304   3.883   0.104   4.026 -0.3676  0.6414  0.1388
 4282SOL    HW124305   3.830   0.066   4.096 -0.3477 -1.0882 -0.7880
 4282SOL    HW224306   3.835   0.184   4.008 -1.5381  0.4507  2.3905
 4283SOL     OW24307   0.889   1.467   8.414 -0.1750 -0.4644  0.2897
 4283SOL    HW124308   0.941   1.515   8.351 -0.2723 -0.8840 -0.1122
 4283SOL    HW224309   0.800   1.476   8.381  0.4984 -0.1302 -1.4080
 4284SOL     OW24310   2.565   1.333  14.033 -0.1933  0.2059  0.2916
 4284SOL    HW124311   2.585   1.248  14.070  0.4661  0.1299 -0.2247
 4284SOL    HW224312   2.640   1.380  14.071  0.0789  1.6214 -1.9863
 4285SOL     OW24313   2.079   0.836   2.727 -0.1166  0.0855 -0.8565
 4285SOL    HW124314   2.102   0.845   2.634 -1.2856  3.7318 -0.8197
 4285SOL    HW224315   2.034   0.919   2.746 -1.3754 -0.3606 -1.8852
 4286SOL     OW24316   2.798   3.773  13.055  0.9992 -0.1668  0.5391
 4286SOL    HW124317   2.885   3.736  13.039  0.1169 -1.8398 -0.4019
 4286SOL    HW224318   2.744   3.770  12.975 -0.7013  0.8456  1.6578
 4287SOL     OW24319   4.429   3.741   5.552  0.4269 -0.0484  0.1170
 4287SOL    HW124320   4.349   3.709   5.593 -1.4104  2.0551 -1.7990
 4287SOL    HW224321   4.435   3.831   5.583  0.6429  0.3627 -1.1307
 4288SOL     OW24322   4.459   2.860   1.741 -0.2626 -0.1323 -0.2214
 4288SOL    HW124323   4.431   2.844   1.651  4.0757  2.3171 -2.0082
 4288SOL    HW224324   4.535   2.802   1.745  0.6719  1.0189 -1.3073
 4289SOL     OW24325   2.771   4.644  13.696 -0.0909  0.6022 -0.0005
 4289SOL    HW124326   2.833   4.571  13.695  0.1027  0.7512  0.9033
 4289SOL    HW224327   2.788   4.700  13.772 -2.0350 -0.7581  1.4300
 4290SOL     OW24328   2.971   4.281   6.453 -0.3352  0.0083  0.0639
 4290SOL    HW124329   3.000   4.251   6.367  0.6818 -1.7338  0.9957
 4290SOL    HW224330   2.906   4.219   6.486  0.3601 -0.3315  0.8181
 4291SOL     OW24331   1.281   4.029  14.614  0.2037 -0.5462 -0.3690
 4291SOL    HW124332   1.340   3.957  14.592  2.3213 -0.2041  4.2089
 4291SOL    HW224333   1.262   4.059  14.525  0.8641  2.4528  0.5172
 4292SOL     OW24334   1.784   0.306   8.274  0.2760 -0.0731 -0.7327
 4292SOL    HW124335   1.836   0.360   8.215 -0.7822  0.5791 -1.0551
 4292SOL    HW224336   1.723   0.270   8.209  2.0191 -1.5173 -1.5783
 4293SOL     OW24337   4.197   1.194  14.098  0.1539  0.0241 -0.1786
 4293SOL    HW124338   4.148   1.143  14.033 -0.5116  1.1406 -0.5534
 4293SOL    HW224339   4.155   1.279  14.082  2.5528  1.5336  1.6121
 4294SOL     OW24340   1.047   3.291   8.841 -0.4250  0.2045 -0.6689
 4294SOL    HW124341   0.992   3.313   8.766 -0.2247  1.5285 -0.4293
 4294SOL    HW224342   1.079   3.376   8.871  0.8440 -1.3920  2.4624
 4295SOL     OW24343   3.531   0.131   4.010  0.1877 -0.0172 -0.2820
 4295SOL    HW124344   3.437   0.116   4.013  0.2001  0.2063  1.2685
 4295SOL    HW224345   3.567   0.069   3.947  2.5191 -1.2484  2.2545
 4296SOL     OW24346   1.004   3.026   8.183  0.1836  0.1330 -0.6829
 4296SOL    HW124347   0.934   3.091   8.191 -1.3819 -1.6584  0.2600
 4296SOL    HW224348   1.060   3.057   8.255  1.2794 -1.4879 -0.8345
 4297SOL     OW24349   3.256   3.530  15.789 -0.1535  0.2076 -0.4926
 4297SOL    HW124350   3.334   3.520  15.844  0.1802  0.8972 -0.8446
 4297SOL    HW224351   3.184   3.516  15.851  0.0293 -1.7324 -0.7077
 4298SOL     OW24352   2.393   0.440  10.025 -0.2958 -0.3717  0.4567
 4298SOL    HW124353   2.327   0.479  10.081 -2.6749  0.2808 -2.8134
 4298SOL    HW224354   2.449   0.404  10.094 -0.6976  2.0720  2.0513
 4299SOL     OW24355   2.842   0.903   1.622 -0.2696 -0.4478  0.3427
 4299SOL    HW124356   2.827   0.995   1.643  0.6068 -0.1516 -0.3188
 4299SOL    HW224357   2.887   0.878   1.703  1.2166 -0.5410 -0.5155
 4300SOL     OW24358   4.382   1.148   4.783 -0.1155 -0.1920  0.2305
 4300SOL    HW124359   4.381   1.058   4.815  2.4636  0.0052  0.9090
 4300SOL    HW224360   4.301   1.173   4.827 -1.1170 -0.6659 -1.3664
 4301SOL     OW24361   2.805   0.724  10.385  0.4226  0.3118  0.4668
 4301SOL    HW124362   2.892   0.762  10.376  0.3180  0.7460  1.2932
 4301SOL    HW224363   2.805   0.686  10.474  0.7801 -0.4870  0.1255
 4302SOL     OW24364   3.010   0.251   4.025  0.0177  0.2781 -0.0827
 4302SOL    HW124365   2.941   0.225   4.086  0.7620  0.7781  0.9639
 4302SOL    HW224366   3.083   0.193   4.050  1.2803  1.1654 -1.7593
 4303SOL     OW24367   4.187   1.815  15.610 -0.2368 -0.2043  0.4081
 4303SOL    HW124368   4.227   1.902  15.614 -0.6422 -0.0742  1.4107
 4303SOL    HW224369   4.238   1.777  15.681 -0.5994 -1.0459  0.2154
 4304SOL     OW24370   3.937   1.958   5.551 -0.8004 -0.1235 -0.3154
 4304SOL    HW124371   3.962   2.002   5.470 -1.8128  2.2466  0.6497
 4304SOL    HW224372   3.845   1.935   5.539 -1.2450  1.5796 -0.2950
 4305SOL     OW24373   0.248   1.236   0.864 -0.1714 -0.7306 -0.2300
 4305SOL    HW124374   0.258   1.199   0.776 -0.6870 -1.3548 -0.0301
 4305SOL    HW224375   0.267   1.159   0.917 -0.3715  0.2341  1.2469
 4306SOL     OW24376   4.435   3.990   7.705 -0.2401  0.5209 -0.1010
 4306SOL    HW124377   4.433   4.083   7.682  0.3204  0.4681 -0.3636
 4306SOL    HW224378   4.384   3.948   7.635 -2.9015 -0.4767  2.4341
 4307SOL     OW24379   3.337   1.871  11.949 -0.1222 -1.6622  0.4740
 4307SOL    HW124380   3.292   1.813  11.887 -0.7669  0.6399 -1.1752
 4307SOL    HW224381   3.365   1.942  11.892  1.7171 -1.0507  2.1360
 4308SOL     OW24382   2.294   3.283   2.263 -0.3778  0.0618  0.3552
 4308SOL    HW124383   2.258   3.201   2.230 -0.1649 -0.8896  2.4761
 4308SOL    HW224384   2.386   3.275   2.241 -0.2515  0.1514  0.8599
 4309SOL     OW24385   2.849   3.988   2.864 -0.1150  0.0064  0.2465
 4309SOL    HW124386   2.802   3.945   2.792  1.9800  0.1055 -1.1963
 4309SOL    HW224387   2.934   3.998   2.821  0.0608  1.3280  0.9211
 4310SOL     OW24388   3.455   3.460  15.979 -0.0121  0.2853  0.1819
 4310SOL    HW124389   3.476   3.371  16.006 -1.4719  0.0104  0.4466
 4310SOL    HW224390   3.467   3.512  16.059  2.1424 -1.2807  0.8583
 4311SOL     OW24391   0.731   1.244   4.417  0.1892  0.1268  0.0840
 4311SOL    HW124392   0.742   1.160   4.371  0.1421 -0.2439  0.7454
 4311SOL    HW224393   0.642   1.269   4.393 -0.7597 -1.0920  2.3655
 4312SOL     OW24394   4.104   0.478   3.654  0.1529 -0.3420  0.3259
 4312SOL    HW124395   4.136   0.561   3.690  2.3711 -1.2372  0.4171
 4312SOL    HW224396   4.025   0.516   3.615 -0.0021 -0.7970  0.1962
 4313SOL     OW24397   3.203   3.596  10.563  0.7275  0.1503  0.7211
 4313SOL    HW124398   3.242   3.680  10.537  2.4409 -0.3701  1.6031
 4313SOL    HW224399   3.267   3.532  10.533 -0.1650  0.4162 -1.7185
 4314SOL     OW24400   2.617   3.727   3.252  0.1484 -0.1775 -0.0756
 4314SOL    HW124401   2.544   3.775   3.212  1.0875  2.3735  1.2326
 4314SOL    HW224402   2.627   3.784   3.329  1.3826 -0.0397 -0.3516
 4315SOL     OW24403   0.688   0.465   5.166 -0.0665 -0.3002  0.7182
 4315SOL    HW124404   0.776   0.447   5.198  0.4527 -1.2781 -1.2770
 4315SOL    HW224405   0.684   0.557   5.195  0.5229 -0.1348  0.2628
 4316SOL     OW24406   1.657   0.992   9.045 -0.4165  0.1111  0.7007
 4316SOL    HW124407   1.653   0.973   8.951  0.5756 -1.9257  1.0709
 4316SOL    HW224408   1.612   0.917   9.084  0.1945 -0.2739  0.6806
 4317SOL     OW24409   3.570   1.460   8.560  0.3145  0.5251  0.7341
 4317SOL    HW124410   3.570   1.416   8.476  1.4507  1.1234  0.4258
 4317SOL    HW224411   3.581   1.389   8.624 -1.6374  0.1359  0.6450
 4318SOL     OW24412   2.391   2.126   6.848  0.3345  0.3550 -0.1442
 4318SOL    HW124413   2.452   2.072   6.898  0.5031  0.4303 -0.2686
 4318SOL    HW224414   2.374   2.195   6.912  0.0881  1.1542 -1.0648
 4319SOL     OW24415   0.522   0.707   8.197 -0.8105  0.7040 -0.5519
 4319SOL    HW124416   0.611   0.721   8.165 -1.0872  2.3379 -0.6203
 4319SOL    HW224417   0.494   0.798   8.192  1.2975  1.4426  1.1397
 4320SOL     OW24418   2.147   4.600   8.535 -0.1456 -0.3438  0.2660
 4320SOL    HW124419   2.133   4.510   8.564  1.9992 -1.1600 -1.2221
 4320SOL    HW224420   2.153   4.644   8.620 -2.6593  0.4282  0.0433
 4321SOL     OW24421   3.653   1.246   8.953  0.1940 -0.1543  0.3396
 4321SOL    HW124422   3.749   1.236   8.958  0.3663  2.7321  2.5703
 4321SOL    HW224423   3.648   1.327   9.004 -1.2235  1.5436 -2.4989
 4322SOL     OW24424   1.848   1.439   5.889 -0.2766 -0.1450  0.2019
 4322SOL    HW124425   1.823   1.461   5.799 -0.5040  1.4968  0.6639
 4322SOL    HW224426   1.904   1.364   5.873  0.1795  0.1284  0.5023
 4323SOL     OW24427   1.025   0.671   6.218  0.2491  0.5400  0.2649
 4323SOL    HW124428   1.032   0.616   6.140  1.0210  0.7569  0.1805
 4323SOL    HW224429   1.098   0.642   6.273 -1.4386 -1.9558  1.1654
 4324SOL     OW24430   2.812   0.305   6.302 -0.1826  0.3042 -0.8402
 4324SOL    HW124431   2.900   0.334   6.324 -1.1105  0.3295  2.8452
 4324SOL    HW224432   2.837   0.223   6.258  1.0564  0.7329 -0.9014
 4325SOL     OW24433   0.246   0.731   8.321  0.1573  0.3228  0.1780
 4325SOL    HW124434   0.211   0.817   8.344 -0.3912 -0.0725  0.8491
 4325SOL    HW224435   0.162   0.686   8.333  0.4852 -0.3383  0.0151
 4326SOL     OW24436   1.138   3.640   3.295 -0.8352 -0.8757  0.4406
 4326SOL    HW124437   1.215   3.604   3.250 -1.5742 -2.2383  0.2785
 4326SOL    HW224438   1.158   3.613   3.385  2.9741  1.6962  0.3756
 4327SOL     OW24439   0.007   2.591   2.305 -0.4312 -0.1986  0.4002
 4327SOL    HW124440   0.060   2.513   2.320  1.3786  0.8799 -0.4376
 4327SOL    HW224441   4.715   2.624   2.393  1.2213 -2.7354  1.5983
 4328SOL     OW24442   1.403   2.294   5.103 -0.0190 -0.0154  0.0157
 4328SOL    HW124443   1.340   2.320   5.170  0.4397  0.8114  0.1285
 4328SOL    HW224444   1.412   2.379   5.060 -0.0169 -1.2619 -2.4247
 4329SOL     OW24445   2.592   4.559   8.471 -0.5352 -0.2035  0.2837
 4329SOL    HW124446   2.511   4.596   8.506 -0.3964  1.8961 -1.6005
 4329SOL    HW224447   2.599   4.612   8.392  1.0338  0.4424  0.8478
 4330SOL     OW24448   1.890   3.190   1.440 -0.6742  0.5963  0.5454
 4330SOL    HW124449   1.936   3.273   1.431 -1.3204  0.9469  0.4818
 4330SOL    HW224450   1.838   3.210   1.518 -0.4003 -0.7316  1.0812
 4331SOL     OW24451   2.913   3.506   2.925 -0.4028  0.6466  0.0363
 4331SOL    HW124452   2.969   3.516   3.001 -0.5067 -0.5426  0.2674
 4331SOL    HW224453   2.845   3.572   2.934 -1.0538  0.4370 -3.0934
 4332SOL     OW24454   2.768   2.878  10.399  0.9519  0.2507  0.2939
 4332SOL    HW124455   2.862   2.895  10.395  0.6960  1.8511  1.0672
 4332SOL    HW224456   2.753   2.871  10.493 -2.9071 -1.6312 -0.4773
 4333SOL     OW24457   0.596   2.383   3.741  0.4017  0.1892  0.2912
 4333SOL    HW124458   0.514   2.431   3.747 -0.3815 -1.2563  1.2746
 4333SOL    HW224459   0.662   2.452   3.744 -0.1020  0.6331  0.8928
 4334SOL     OW24460   1.299   1.102  11.194  0.4760 -0.7935  0.3013
 4334SOL    HW124461   1.224   1.144  11.152  0.0210 -2.2802 -0.3660
 4334SOL    HW224462   1.302   1.150  11.276 -0.3053 -0.7470  0.2990
 4335SOL     OW24463   3.781   3.190   8.007  0.5683 -0.3206  0.1561
 4335SOL    HW124464   3.688   3.186   8.028  0.5449 -2.5188 -0.3632
 4335SOL    HW224465   3.780   3.286   8.003 -2.7412 -0.3711 -0.4892
 4336SOL     OW24466   2.895   2.449  15.855 -0.2946 -0.3605  0.2207
 4336SOL    HW124467   2.876   2.391  15.781 -0.6326  0.5503 -0.4009
 4336SOL    HW224468   2.987   2.469  15.837 -0.8061 -0.5000 -2.4394
 4337SOL     OW24469   0.563   1.921   7.520  0.0925 -0.0515  0.5135
 4337SOL    HW124470   0.624   1.895   7.589  0.2220  1.1731  0.8508
 4337SOL    HW224471   0.546   1.840   7.472  2.1813 -0.3966  0.3577
 4338SOL     OW24472   1.885   0.925  15.917 -0.6589 -0.1205  0.1581
 4338SOL    HW124473   1.904   0.856  15.854  2.5126  3.4188 -2.7160
 4338SOL    HW224474   1.866   0.996  15.857  0.3440  0.9990  1.1580
 4339SOL     OW24475   2.202   0.959   0.806 -0.3237  0.6625  0.8488
 4339SOL    HW124476   2.196   0.869   0.838 -1.1748  0.3775 -0.1064
 4339SOL    HW224477   2.297   0.967   0.793 -0.3190 -1.2331 -0.3104
 4340SOL     OW24478   0.071   0.519   6.794 -0.1605  0.3213 -0.3500
 4340SOL    HW124479   0.000   0.583   6.783 -0.4337  0.1285  0.3226
 4340SOL    HW224480   0.105   0.561   6.873  1.7642  2.8836 -2.5116
 4341SOL     OW24481   2.449   1.084   6.795  1.0246 -0.2133 -0.4644
 4341SOL    HW124482   2.497   1.048   6.869 -0.0426 -0.0514  0.3040
 4341SOL    HW224483   2.380   1.134   6.839  0.3906  0.5904 -2.3403
 4342SOL     OW24484   1.352   3.861  11.410  0.1852 -0.5900 -0.2880
 4342SOL    HW124485   1.348   3.800  11.336 -0.3399  0.5133 -1.1709
 4342SOL    HW224486   1.384   3.941  11.370 -0.2932 -0.0794  0.3500
 4343SOL     OW24487   2.128   4.103   8.465  0.1600  0.2230  0.0530
 4343SOL    HW124488   2.060   4.059   8.516  0.6047  0.3876  0.7804
 4343SOL    HW224489   2.088   4.189   8.457  1.1263  0.7606  1.0484
 4344SOL     OW24490   1.485   0.572   6.581  0.0167  0.3587  0.1461
 4344SOL    HW124491   1.431   0.651   6.584 -2.0713 -1.0577 -0.8954
 4344SOL    HW224492   1.436   0.509   6.633  0.1664  0.8346  0.8717
 4345SOL     OW24493   3.494   2.917   5.868  0.5925  0.5878 -0.4392
 4345SOL    HW124494   3.575   2.869   5.855  0.3800  0.2026 -0.3319
 4345SOL    HW224495   3.433   2.845   5.883  1.4765  0.1536  1.0006
 4346SOL     OW24496   0.870   1.579  11.329  0.0598  0.7463 -1.2203
 4346SOL    HW124497   0.860   1.487  11.356  0.7005  1.2105  0.5827
 4346SOL    HW224498   0.854   1.620  11.414  2.7106 -0.9834  0.1190
 4347SOL     OW24499   0.297   3.484   3.142 -0.1428  0.0625 -0.2782
 4347SOL    HW124500   0.293   3.489   3.238 -1.0171 -0.7613 -0.2745
 4347SOL    HW224501   0.393   3.482   3.137 -0.1941 -1.4794 -0.5366
 4348SOL     OW24502   0.188   3.543   3.404 -0.2768 -0.6761 -0.4443
 4348SOL    HW124503   0.108   3.522   3.357 -0.9867  0.7639  0.1150
 4348SOL    HW224504   0.172   3.634   3.431  0.2130 -0.9273  0.7189
 4349SOL     OW24505   2.067   3.706   0.056 -0.0941  0.2278 -0.0434
 4349SOL    HW124506   2.094   3.630   0.108  0.8913  0.2269 -0.5482
 4349SOL    HW224507   1.987   3.671   0.016  0.3502 -0.0107 -0.7183
 4350SOL     OW24508   2.116   4.205  14.539  0.3688 -0.0709  0.3266
 4350SOL    HW124509   2.128   4.300  14.538  1.4610 -0.2245 -0.9040
 4350SOL    HW224510   2.088   4.203  14.630  2.2073 -0.7517  0.8838
 4351SOL     OW24511   2.836   2.515   3.661  0.0512  0.2305  0.2358
 4351SOL    HW124512   2.793   2.589   3.703  2.6059  1.6247  0.4106
 4351SOL    HW224513   2.800   2.446   3.717 -3.0047  0.7683 -1.0738
 4352SOL     OW24514   1.296   4.059   1.841 -0.2906  0.0733 -0.3209
 4352SOL    HW124515   1.336   4.093   1.921  1.2032 -1.0648 -0.5779
 4352SOL    HW224516   1.210   4.098   1.854 -0.6367 -0.7118 -0.2146
 4353SOL     OW24517   4.558   4.687   3.146 -0.5937 -0.3788  0.0011
 4353SOL    HW124518   4.623   4.638   3.197  1.7965  0.2241 -2.4927
 4353SOL    HW224519   4.604   0.048   3.142  1.4113 -1.2105  5.1854
 4354SOL     OW24520   1.094   1.545  17.369 -0.0088 -0.0916  0.1155
 4354SOL    HW124521   1.172   1.578  17.414 -0.5294 -0.3109  1.1732
 4354SOL    HW224522   1.031   1.607  17.405  1.1745  0.8648  0.5597
 4355SOL     OW24523   1.053   4.488   8.832 -0.0916 -0.0262 -0.4790
 4355SOL    HW124524   1.082   4.555   8.893  0.1555 -1.1955  0.6936
 4355SOL    HW224525   1.102   4.521   8.757  0.7019  0.5379  0.2798
 4356SOL     OW24526   0.259   3.018  11.558 -0.0357  0.3283  0.2071
 4356SOL    HW124527   0.218   3.035  11.473  2.0448  1.5539 -0.5473
 4356SOL    HW224528   0.341   3.067  11.552 -0.6909  1.3539 -0.3678
 4357SOL     OW24529   4.056   1.648   7.471 -0.1721  0.0956  0.5616
 4357SOL    HW124530   4.049   1.718   7.405  0.7343  0.1530  0.5284
 4357SOL    HW224531   3.986   1.667   7.533 -0.2761 -0.1474  0.5190
 4358SOL     OW24532   1.478   4.257   4.974 -0.3190  0.3182 -0.7773
 4358SOL    HW124533   1.463   4.227   4.884  1.9977 -1.2920 -0.6216
 4358SOL    HW224534   1.510   4.348   4.971  0.6148  0.0560  1.4150
 4359SOL     OW24535   2.305   4.191   3.714  0.7284 -0.4403  0.2273
 4359SOL    HW124536   2.287   4.100   3.736 -3.3677 -0.0224 -1.3941
 4359SOL    HW224537   2.350   4.177   3.630 -1.4813 -0.5307 -0.9392
 4360SOL     OW24538   2.736   2.510   8.293 -0.3369  0.1401  0.6714
 4360SOL    HW124539   2.781   2.426   8.299 -0.0390  0.3004  0.7142
 4360SOL    HW224540   2.707   2.502   8.202  1.3289  1.4704  0.0117
 4361SOL     OW24541   3.386   1.292  13.904 -0.4535 -0.1728 -0.0952
 4361SOL    HW124542   3.431   1.353  13.962  0.5247 -1.7673  0.8355
 4361SOL    HW224543   3.458   1.292  13.841  1.1868  0.5249  1.7816
 4362SOL     OW24544   1.464   4.068  12.894 -0.3421 -0.1310  0.2238
 4362SOL    HW124545   1.424   4.104  12.815 -1.3851 -0.0450  0.7778
 4362SOL    HW224546   1.393   4.010  12.923 -0.3054 -0.2905 -0.0092
 4363SOL     OW24547   3.819   1.104   7.058 -0.1985 -0.1186  0.3226
 4363SOL    HW124548   3.903   1.101   7.011 -0.8056 -2.3747 -0.6375
 4363SOL    HW224549   3.825   1.017   7.099 -1.3214 -0.0389  0.6413
 4364SOL     OW24550   1.938   1.955   7.192 -0.2284  0.0704  0.2894
 4364SOL    HW124551   1.889   2.028   7.231  1.1486  0.4071  1.3521
 4364SOL    HW224552   2.012   1.993   7.145 -2.8837  3.6735 -1.0893
 4365SOL     OW24553   1.292   2.958  16.114  0.0233 -0.3537 -0.0292
 4365SOL    HW124554   1.225   2.980  16.179  1.3466  0.0573  1.1936
 4365SOL    HW224555   1.283   2.863  16.128 -1.1157 -0.0195  1.6081
 4366SOL     OW24556   1.085   4.259  15.660  0.5617  0.3248  0.3209
 4366SOL    HW124557   1.044   4.303  15.585  1.2638 -0.7871 -0.7075
 4366SOL    HW224558   1.177   4.265  15.634 -0.3565 -0.7830 -3.2833
 4367SOL     OW24559   4.473   1.834   0.863 -0.0827  0.0136  0.1626
 4367SOL    HW124560   4.551   1.781   0.883  0.5197  0.4851 -0.9801
 4367SOL    HW224561   4.511   1.920   0.878  2.1696 -0.8521 -0.5427
 4368SOL     OW24562   3.829   3.745   5.665 -0.2733 -0.1998 -0.4284
 4368SOL    HW124563   3.786   3.665   5.637 -0.0457 -0.8391  1.0553
 4368SOL    HW224564   3.777   3.760   5.744  0.3436 -2.9529  0.4920
 4369SOL     OW24565   2.066   1.396   7.489  0.3428  0.3060 -0.4177
 4369SOL    HW124566   1.973   1.409   7.502  0.2762 -0.7650  0.2343
 4369SOL    HW224567   2.095   1.482   7.458  1.2399  0.3832  0.6185
 4370SOL     OW24568   1.395   1.843   3.510 -0.1570  0.1643  0.0626
 4370SOL    HW124569   1.303   1.828   3.528 -0.1823  1.1117  0.7068
 4370SOL    HW224570   1.411   1.919   3.566  2.2726  1.3509 -2.2127
 4371SOL     OW24571   2.346   1.692   5.790 -0.7349 -0.0129 -0.1209
 4371SOL    HW124572   2.426   1.647   5.816 -0.5929 -0.3076 -1.0517
 4371SOL    HW224573   2.352   1.683   5.695  0.4527 -0.3211 -0.0134
 4372SOL     OW24574   1.901   1.099   8.741 -0.1327 -0.7295 -0.7079
 4372SOL    HW124575   1.889   1.160   8.814  2.4465 -0.7753 -0.2417
 4372SOL    HW224576   1.841   1.032   8.774 -0.4019  0.5770  1.4733
 4373SOL     OW24577   1.880   4.499   2.182 -0.7505  0.5003 -0.4919
 4373SOL    HW124578   1.816   4.536   2.242 -0.6755  0.3033 -0.2908
 4373SOL    HW224579   1.862   4.407   2.200 -0.4563  0.3160 -1.1303
 4374SOL     OW24580   4.626   0.875  15.812  0.7505  0.3797  0.2315
 4374SOL    HW124581   4.645   0.833  15.729  0.9679  1.0553 -0.0647
 4374SOL    HW224582   4.576   0.803  15.851 -0.7950  2.2761  1.7850
 4375SOL     OW24583   1.563   1.084  14.305 -0.1407 -0.2217  0.1485
 4375SOL    HW124584   1.562   1.179  14.319 -2.3095 -0.4056  1.2445
 4375SOL    HW224585   1.499   1.050  14.368 -0.0323  0.6038  0.7002
 4376SOL     OW24586   2.234   0.673  11.320  0.7377 -0.2155 -0.5679
 4376SOL    HW124587   2.184   0.743  11.277  1.3921  1.6824  1.7293
 4376SOL    HW224588   2.203   0.593  11.277  0.0144  0.0692 -0.5841
 4377SOL     OW24589   1.846   2.438   6.823  0.0938 -0.3073 -0.1378
 4377SOL    HW124590   1.889   2.361   6.785  1.4630  0.2145  0.3572
 4377SOL    HW224591   1.911   2.449   6.893  0.5809 -0.4066 -0.5727
 4378SOL     OW24592   2.583   1.495   6.919  0.3839 -0.1330 -0.1979
 4378SOL    HW124593   2.657   1.455   6.963  1.9631  1.9404 -0.9588
 4378SOL    HW224594   2.580   1.573   6.975  0.4445  0.5269 -1.1100
 4379SOL     OW24595   4.052   1.680  11.632 -0.5590  0.0656  0.2064
 4379SOL    HW124596   4.005   1.656  11.551  2.3840  2.2407 -2.1444
 4379SOL    HW224597   3.984   1.677  11.699 -2.2146 -1.1849 -1.5176
 4380SOL     OW24598   3.761   0.721   6.622  0.4257  0.4774  1.0248
 4380SOL    HW124599   3.819   0.692   6.551 -1.2075  0.7740 -0.4378
 4380SOL    HW224600   3.705   0.644   6.630 -1.0395  1.5548  1.1076
 4381SOL     OW24601   4.243   1.280   5.980  0.1844 -0.2834 -0.4861
 4381SOL    HW124602   4.149   1.299   5.983  0.6149  1.7547  0.4365
 4381SOL    HW224603   4.275   1.349   5.922 -0.0226 -0.5483 -0.9120
 4382SOL     OW24604   1.782   1.464  11.792 -0.1661  0.3815 -0.1830
 4382SOL    HW124605   1.735   1.381  11.800 -0.3188  0.3449 -1.3758
 4382SOL    HW224606   1.869   1.429  11.772  0.0333  0.4535  0.5679
 4383SOL     OW24607   4.207   3.862  15.063 -0.8641 -0.3757  0.6257
 4383SOL    HW124608   4.299   3.866  15.038 -0.5267 -1.9715  1.6113
 4383SOL    HW224609   4.177   3.928  15.000  1.0230  0.6139  0.7777
 4384SOL     OW24610   2.688   1.073   3.890 -0.4020 -0.3009  0.0448
 4384SOL    HW124611   2.682   1.044   3.981 -0.2738 -3.4274 -0.9307
 4384SOL    HW224612   2.654   1.162   3.887 -1.5524 -0.6219  3.3480
 4385SOL     OW24613   4.253   0.174   9.339  0.2057 -0.4376 -0.3851
 4385SOL    HW124614   4.280   0.088   9.309  1.9186 -1.0084  2.8288
 4385SOL    HW224615   4.342   0.200   9.363 -1.3264  2.1989  2.3824
 4386SOL     OW24616   3.324   4.367   6.497  0.2253  0.4132 -0.4621
 4386SOL    HW124617   3.296   4.317   6.420 -0.2435 -1.1109  0.6887
 4386SOL    HW224618   3.411   4.401   6.475 -0.6879  0.9405 -3.1725
 4387SOL     OW24619   4.145   0.058   4.281 -0.2187  0.2937  0.7656
 4387SOL    HW124620   4.231   0.080   4.315  0.2409 -0.6538  0.2359
 4387SOL    HW224621   4.086   0.067   4.356  0.1867  0.0237  1.1203
 4388SOL     OW24622   2.006   1.239   8.105 -0.4618 -0.3901 -0.3311
 4388SOL    HW124623   2.101   1.247   8.108 -0.2299 -3.3000  0.4118
 4388SOL    HW224624   1.977   1.329   8.120 -1.1181 -0.3083 -2.0719
 4389SOL     OW24625   1.511   2.621   2.883 -0.1351 -0.4528  0.5748
 4389SOL    HW124626   1.589   2.567   2.868 -0.4557 -1.2522  1.7466
 4389SOL    HW224627   1.527   2.662   2.969 -2.0830 -2.0988  1.7124
 4390SOL     OW24628   1.895   2.061   5.622 -0.3478 -0.2260  0.7932
 4390SOL    HW124629   1.942   2.093   5.699 -0.9280  0.2889  0.9367
 4390SOL    HW224630   1.924   1.970   5.623 -1.1296 -0.4738  1.3530
 4391SOL     OW24631   2.124   3.484  14.144  0.1297 -0.3488 -0.0084
 4391SOL    HW124632   2.164   3.424  14.082 -2.1713 -0.7597 -1.0900
 4391SOL    HW224633   2.062   3.422  14.182  0.7807 -0.4968  0.8272
 4392SOL     OW24634   1.151   2.015   3.336  0.1129  0.2847 -0.5316
 4392SOL    HW124635   1.210   2.006   3.261 -0.3763 -0.3504 -0.8365
 4392SOL    HW224636   1.115   2.099   3.309 -0.0882  0.8107  1.4169
 4393SOL     OW24637   3.946   1.860   6.601  0.0740 -0.2507 -0.3499
 4393SOL    HW124638   3.871   1.879   6.546 -1.3090  2.0179  2.2820
 4393SOL    HW224639   3.911   1.811   6.675  1.4806 -0.7186  0.0047
 4394SOL     OW24640   1.818   1.209   8.981 -0.2324  0.0507 -0.3712
 4394SOL    HW124641   1.883   1.184   9.047  0.2930  1.6848 -0.2650
 4394SOL    HW224642   1.752   1.148   9.016  0.9071 -1.7521 -1.3647
 4395SOL     OW24643   1.448   1.970   6.164  0.0335 -0.1195  0.2652
 4395SOL    HW124644   1.381   2.016   6.215  1.3196  2.1787 -0.0995
 4395SOL    HW224645   1.411   1.884   6.183  2.1091 -1.3176 -1.1647
 4396SOL     OW24646   4.718   1.462   0.320 -0.0777  0.1455  0.1149
 4396SOL    HW124647   0.080   1.433   0.287  0.9660  0.7124  2.3197
 4396SOL    HW224648   4.674   1.487   0.238  2.1729 -1.6153 -1.6369
 4397SOL     OW24649   2.375   0.851   3.087  0.1729 -0.1031  0.2693
 4397SOL    HW124650   2.366   0.764   3.049 -0.6760 -0.2843  0.8784
 4397SOL    HW224651   2.288   0.886   3.069 -0.4872 -1.2953  1.1706
 4398SOL     OW24652   2.381   3.916   5.055 -0.4885  0.2892  0.1001
 4398SOL    HW124653   2.394   3.978   4.984  2.0722  1.2728  1.4528
 4398SOL    HW224654   2.324   3.967   5.113  0.4941  1.8253 -0.2938
 4399SOL     OW24655   0.917   0.208   2.237 -0.0364  0.1298 -0.5640
 4399SOL    HW124656   0.996   0.157   2.256  0.3805 -0.0207 -2.6392
 4399SOL    HW224657   0.888   0.156   2.162  1.5703 -1.4302 -0.1148
 4400SOL     OW24658   1.539   1.977   4.630  0.4541  0.6186  0.3452
 4400SOL    HW124659   1.444   1.971   4.624  0.4581 -0.3730  1.2655
 4400SOL    HW224660   1.565   1.885   4.636  1.0398  0.6730 -1.2915
 4401SOL     OW24661   4.720   2.865   4.020 -0.2590  0.4219 -0.1099
 4401SOL    HW124662   0.021   2.824   3.938  1.0832 -1.1064  1.0598
 4401SOL    HW224663   4.717   2.794   4.084 -0.5896  0.7049  0.1926
 4402SOL     OW24664   3.750   4.392  17.184 -0.0351 -0.2566 -0.2077
 4402SOL    HW124665   3.686   4.464  17.187  0.3775 -0.0051  2.1944
 4402SOL    HW224666   3.716   4.332  17.118 -0.0724  1.2092 -1.5480
 4403SOL     OW24667   0.277   2.820  15.024 -0.6549  1.0065  0.5359
 4403SOL    HW124668   0.369   2.799  15.043  0.0183  2.2757 -1.4320
 4403SOL    HW224669   0.277   2.894  15.085 -0.1548  1.3143  0.1554
 4404SOL     OW24670   3.994   3.503   7.771  0.2397  0.3240 -0.2323
 4404SOL    HW124671   4.016   3.430   7.713  0.1480  0.4822 -0.4654
 4404SOL    HW224672   4.069   3.562   7.778  3.3986 -3.7407  0.6377
 4405SOL     OW24673   3.497   4.674   8.435 -0.5860  0.1457 -0.1089
 4405SOL    HW124674   3.422   4.636   8.390 -1.5561  1.9681 -0.0660
 4405SOL    HW224675   3.553   4.710   8.367  2.6673 -2.5986  1.1449
 4406SOL     OW24676   0.632   0.468   0.686  0.1778 -0.2664 -0.1496
 4406SOL    HW124677   0.638   0.476   0.591 -0.3108 -1.9370 -0.3076
 4406SOL    HW224678   0.637   0.373   0.684  0.2506 -0.3436  3.1813
 4407SOL     OW24679   1.389   3.167   8.904 -0.6593  0.6132  0.3838
 4407SOL    HW124680   1.350   3.158   8.991 -1.1154 -2.5650 -0.1250
 4407SOL    HW224681   1.477   3.180   8.937 -0.7842 -1.2855  1.4729
 4408SOL     OW24682   1.321   1.471  10.940  0.0422  0.5552  0.0711
 4408SOL    HW124683   1.239   1.521  10.949  0.1558  0.6720  0.4591
 4408SOL    HW224684   1.328   1.458  10.846  1.4544  0.1686  0.2318
 4409SOL     OW24685   2.122   3.904   3.133  0.0777 -0.0220  0.1664
 4409SOL    HW124686   2.092   3.814   3.129 -2.1827  0.8801 -2.6691
 4409SOL    HW224687   2.127   3.929   3.041 -0.9552  0.7460  0.3087
 4410SOL     OW24688   1.422   1.728  11.633 -0.2261 -0.1775 -0.7612
 4410SOL    HW124689   1.424   1.820  11.609 -2.2720  0.0979  0.1181
 4410SOL    HW224690   1.513   1.714  11.661  0.2802 -0.5155 -2.6011
 4411SOL     OW24691   3.359   0.984   4.332  0.4166 -0.1969  0.9530
 4411SOL    HW124692   3.332   0.932   4.256 -0.8264  1.6085  0.1613
 4411SOL    HW224693   3.369   1.072   4.295 -1.7725 -0.1996  0.3584
 4412SOL     OW24694   1.731   2.847   3.469 -0.1063 -0.8038  0.5102
 4412SOL    HW124695   1.763   2.813   3.553  1.2466 -1.2346 -0.1901
 4412SOL    HW224696   1.786   2.803   3.405  0.5841 -1.3537  1.4796
 4413SOL     OW24697   3.320   0.867   7.430  0.2315  0.2629 -0.2722
 4413SOL    HW124698   3.276   0.952   7.433  1.0726  0.6441  1.1893
 4413SOL    HW224699   3.252   0.819   7.477  1.0075  0.6038  1.1756
 4414SOL     OW24700   1.792   1.931   3.654  0.0077 -0.0151 -0.0311
 4414SOL    HW124701   1.884   1.946   3.635  0.2629 -2.1102 -0.4699
 4414SOL    HW224702   1.775   1.837   3.653 -0.5285  0.1016 -1.5783
 4415SOL     OW24703   1.283   0.683   9.622  0.5539 -0.4904 -0.1267
 4415SOL    HW124704   1.368   0.672   9.579  0.8945 -1.3077  0.7524
 4415SOL    HW224705   1.224   0.684   9.547  0.0437  1.9858  0.3159
 4416SOL     OW24706   4.602   2.893  11.336 -0.1138  0.0358  0.0586
 4416SOL    HW124707   4.535   2.863  11.274  1.9478 -2.0275 -1.1734
 4416SOL    HW224708   4.591   2.987  11.348  0.6046  0.1114  0.1366
 4417SOL     OW24709   3.360   0.463   5.555  0.2614  0.0387  0.1231
 4417SOL    HW124710   3.323   0.516   5.484 -0.9519 -2.1602 -0.9126
 4417SOL    HW224711   3.279   0.445   5.603 -0.8829 -0.2073 -1.9092
 4418SOL     OW24712   3.409   2.598   7.877  0.2056  0.1537  0.2458
 4418SOL    HW124713   3.499   2.607   7.907  0.2171  2.2793 -0.4414
 4418SOL    HW224714   3.388   2.683   7.838  0.4552 -0.9260 -2.2666
 4419SOL     OW24715   1.783   3.400  14.059  0.0836  0.3197 -0.7073
 4419SOL    HW124716   1.734   3.323  14.030 -0.3451  0.6949 -0.9817
 4419SOL    HW224717   1.711   3.462  14.069  0.8788  1.2401 -0.7426
 4420SOL     OW24718   4.259   0.869   5.254  0.2053  0.3334  0.5975
 4420SOL    HW124719   4.303   0.943   5.215 -0.8303 -0.1195 -1.4212
 4420SOL    HW224720   4.220   0.822   5.180  0.6740  2.5946 -1.0425
 4421SOL     OW24721   2.345   3.407   5.612 -0.4526 -0.4492 -0.1665
 4421SOL    HW124722   2.332   3.345   5.684  0.0171  0.0230  0.3194
 4421SOL    HW224723   2.264   3.458   5.618 -1.5184 -2.2939  1.5005
 4422SOL     OW24724   1.183   1.232   4.481 -0.2800  0.0963 -0.0872
 4422SOL    HW124725   1.150   1.263   4.397  0.0884 -0.8292 -0.5685
 4422SOL    HW224726   1.107   1.179   4.505  0.9826 -0.6943  2.1915
 4423SOL     OW24727   1.645   4.721   6.086 -0.3155 -0.1756 -0.0328
 4423SOL    HW124728   1.620   4.633   6.113  3.3120 -1.1137  0.1981
 4423SOL    HW224729   1.563   0.044   6.067 -1.5160 -2.4122 -0.2307
 4424SOL     OW24730   4.034   0.753   3.042  0.1790  0.1386 -0.1912
 4424SOL    HW124731   4.100   0.762   2.972 -1.3382 -0.9823 -1.7663
 4424SOL    HW224732   3.962   0.731   2.983  0.2246  0.3316 -0.3184
 4425SOL     OW24733   3.571   1.983   2.723 -0.1676  0.2690  0.2481
 4425SOL    HW124734   3.512   1.919   2.684 -0.0634  0.9211 -0.9571
 4425SOL    HW224735   3.559   2.050   2.656  0.2793 -0.5563 -0.6566
 4426SOL     OW24736   1.561   1.659  12.118 -0.2251 -0.3698  0.5468
 4426SOL    HW124737   1.539   1.567  12.110 -0.8915 -0.1834  0.2956
 4426SOL    HW224738   1.623   1.635  12.187  2.2891 -0.8760 -1.8597
 4427SOL     OW24739   1.444   1.694   3.943 -0.4230 -0.1236  0.6394
 4427SOL    HW124740   1.376   1.759   3.962  1.4906  1.7747  1.0011
 4427SOL    HW224741   1.420   1.658   3.857  1.9452 -1.8335  0.7029
 4428SOL     OW24742   3.571   3.695   9.244  0.5525 -0.4336 -0.5681
 4428SOL    HW124743   3.599   3.713   9.154 -1.4417  0.8031 -0.9283
 4428SOL    HW224744   3.644   3.640   9.273 -1.5458 -2.1236  1.5650
 4429SOL     OW24745   3.155   4.595  13.246 -0.3024  0.3973  0.0515
 4429SOL    HW124746   3.172   4.686  13.270 -1.5328  0.0571  2.2466
 4429SOL    HW224747   3.221   4.594  13.177  0.7199 -2.5367  1.0517
 4430SOL     OW24748   3.627   4.417  17.626  0.1306  0.3689 -0.0292
 4430SOL    HW124749   3.648   4.403   0.026 -0.1387 -0.0581 -0.0326
 4430SOL    HW224750   3.579   4.339  17.599  0.9208  0.2095 -0.9479
 4431SOL     OW24751   2.603   0.040   7.897 -0.3337  0.0056  0.2978
 4431SOL    HW124752   2.621   4.680   7.941 -0.1166 -0.7705 -1.2536
 4431SOL    HW224753   2.652   0.027   7.816 -0.6260 -0.5418  0.2077
 4432SOL     OW24754   0.090   2.125   2.263  0.2634  0.2328 -0.3524
 4432SOL    HW124755   0.090   2.050   2.204  0.6078  1.1745 -1.5534
 4432SOL    HW224756   0.002   2.155   2.238  0.0205 -0.3104 -0.1542
 4433SOL     OW24757   1.326   0.111   7.294 -0.5924 -0.8317  0.8480
 4433SOL    HW124758   1.268   0.161   7.351 -2.6426 -2.3745  0.1558
 4433SOL    HW224759   1.374   0.183   7.254 -1.8725 -1.9535 -2.7165
 4434SOL     OW24760   3.997   1.170  15.651 -0.2680  0.3395  0.4401
 4434SOL    HW124761   4.052   1.153  15.574 -1.7088 -1.9931 -0.0858
 4434SOL    HW224762   3.955   1.087  15.672 -2.5132  0.9208 -1.6649
 4435SOL     OW24763   3.896   3.951   1.141 -0.1101 -0.4762  0.8324
 4435SOL    HW124764   3.955   3.953   1.217  0.6158  0.7147  0.2382
 4435SOL    HW224765   3.814   3.992   1.167 -0.7388 -1.3141  0.1457
 4436SOL     OW24766   3.252   1.655  10.950  0.3504 -0.0552 -0.1542
 4436SOL    HW124767   3.222   1.660  11.040  0.0186 -1.2397 -0.1947
 4436SOL    HW224768   3.175   1.653  10.893  1.9053  2.8969 -2.4071
 4437SOL     OW24769   1.289   0.016   8.448 -0.1754  0.1245  0.5899
 4437SOL    HW124770   1.328   0.095   8.485  0.4223 -0.1045  0.4465
 4437SOL    HW224771   1.311   0.003   8.356 -2.9204 -1.6825  0.1472
 4438SOL     OW24772   3.381   0.080   3.497 -0.0058 -0.2213  0.2305
 4438SOL    HW124773   3.422   0.166   3.512 -0.4682  0.2731 -1.3266
 4438SOL    HW224774   3.292   0.107   3.518  0.8817  2.3320  0.7232
 4439SOL     OW24775   0.253   3.696  15.751  0.0177 -0.2985  0.3832
 4439SOL    HW124776   0.321   3.633  15.778 -1.1864 -1.7353  0.0514
 4439SOL    HW224777   0.232   3.661  15.664 -2.1502  2.4440 -0.1991
 4440SOL     OW24778   2.654   0.107   6.815  0.6942 -0.0432 -0.4101
 4440SOL    HW124779   2.632   0.183   6.870 -0.0792 -0.9701  0.5664
 4440SOL    HW224780   2.745   0.130   6.798  0.8990  0.8147  1.8478
 4441SOL     OW24781   2.140   1.377   2.905  0.0145  0.5451 -0.5697
 4441SOL    HW124782   2.148   1.399   2.812  1.0947 -2.0213 -1.0838
 4441SOL    HW224783   2.215   1.321   2.926 -1.3353 -0.1272  2.4586
 4442SOL     OW24784   4.516   0.975   8.422 -0.7122  0.0504 -0.3786
 4442SOL    HW124785   4.495   1.067   8.437 -0.5254 -0.3529  2.3950
 4442SOL    HW224786   4.519   0.965   8.327  0.9786  1.1394 -0.4344
 4443SOL     OW24787   4.425   0.856  15.211 -0.2446 -0.1680  0.1729
 4443SOL    HW124788   4.368   0.844  15.135  0.5052  0.5957 -0.5160
 4443SOL    HW224789   4.409   0.781  15.268 -1.3530  1.2197  1.6816
 4444SOL     OW24790   3.239   4.236   3.254 -0.4263  0.1735  0.3973
 4444SOL    HW124791   3.218   4.158   3.304  0.4344 -1.0190 -1.0971
 4444SOL    HW224792   3.222   4.307   3.316  0.4958 -0.9505  1.9298
 4445SOL     OW24793   0.967   3.453   7.153 -0.1417 -0.3786  0.0379
 4445SOL    HW124794   0.947   3.437   7.245  1.4423  0.8124  0.6036
 4445SOL    HW224795   1.037   3.518   7.163 -1.9437  1.5492  0.1620
 4446SOL     OW24796   4.390   2.784   7.585 -0.6416  0.1786  0.7551
 4446SOL    HW124797   4.482   2.812   7.585 -0.4166 -0.5434 -0.1973
 4446SOL    HW224798   4.400   2.689   7.576  1.8234  0.4144  0.9414
 4447SOL     OW24799   3.443   4.471   1.856  0.2202 -0.0443  0.4474
 4447SOL    HW124800   3.417   4.462   1.948  2.4834  1.9520  1.2760
 4447SOL    HW224801   3.509   4.401   1.856  0.0712 -0.1870 -0.6575
 4448SOL     OW24802   2.702   2.943  13.671  0.5189 -0.2765  0.1460
 4448SOL    HW124803   2.750   2.915  13.749 -2.0075 -0.8118  1.5091
 4448SOL    HW224804   2.729   3.035  13.665 -0.1532  0.0225  1.5857
 4449SOL     OW24805   1.503   4.644   8.205 -0.2543  0.4727  0.0701
 4449SOL    HW124806   1.555   4.675   8.131 -0.6622  1.5589  0.2333
 4449SOL    HW224807   1.434   4.591   8.167 -1.3147  2.3509 -0.6037
 4450SOL     OW24808   1.770   3.716  11.110  0.1132  0.4191  0.3585
 4450SOL    HW124809   1.696   3.672  11.067 -1.4524  2.2179  1.2048
 4450SOL    HW224810   1.735   3.751  11.192 -0.3224 -0.8626  0.7321
 4451SOL     OW24811   0.232   4.228   8.359 -0.2532 -0.1409  0.1942
 4451SOL    HW124812   0.239   4.155   8.421 -0.1257 -0.0968  0.2321
 4451SOL    HW224813   0.141   4.223   8.329  0.7647 -0.1131 -2.8720
 4452SOL     OW24814   3.370   1.370  10.493 -0.0655 -0.5364 -0.0460
 4452SOL    HW124815   3.424   1.426  10.548  2.6823 -2.1223 -1.1400
 4452SOL    HW224816   3.307   1.435  10.463 -1.0796 -1.3419  0.3429
 4453SOL     OW24817   0.736   1.761  12.240  0.0518  0.2633  0.0485
 4453SOL    HW124818   0.665   1.825  12.248 -0.3546 -0.2364  0.5071
 4453SOL    HW224819   0.779   1.767  12.325  0.8189 -0.1771 -0.3167
 4454SOL     OW24820   4.397   2.311   8.026  0.9003 -0.1569 -0.1375
 4454SOL    HW124821   4.471   2.273   7.980 -0.2921 -2.6282 -0.0024
 4454SOL    HW224822   4.434   2.371   8.091 -1.1718 -0.8224  1.6512
 4455SOL     OW24823   4.560   3.267   0.169 -0.1807  0.2509  0.7609
 4455SOL    HW124824   4.599   3.179   0.170  2.3123  1.3295 -2.5131
 4455SOL    HW224825   4.584   3.291   0.258  0.1895  3.3493 -0.1690
 4456SOL     OW24826   1.787   1.461   7.696 -0.1591 -0.3746 -0.1063
 4456SOL    HW124827   1.764   1.368   7.700  1.1900 -0.6959  0.3466
 4456SOL    HW224828   1.773   1.478   7.603 -1.1351  0.0540  0.1270
 4457SOL     OW24829   1.664   4.062   8.391  0.1324 -0.2277  0.9148
 4457SOL    HW124830   1.600   4.001   8.428 -2.2346  1.9056  0.3708
 4457SOL    HW224831   1.741   4.009   8.411 -0.5489 -0.5669  2.6058
 4458SOL     OW24832   4.374   3.546   3.002  0.0364  0.7035  0.8532
 4458SOL    HW124833   4.384   3.468   3.057 -0.7458  1.5039  2.1088
 4458SOL    HW224834   4.344   3.618   3.057 -1.8804  0.0455  0.6552
 4459SOL     OW24835   2.653   1.347  12.983 -0.1494 -0.7520 -0.6401
 4459SOL    HW124836   2.608   1.336  12.899  0.0527  0.6911 -0.9427
 4459SOL    HW224837   2.744   1.350  12.953  0.0807 -3.5424 -0.2665
 4460SOL     OW24838   4.099   2.074   9.727 -0.6395 -0.4778 -0.1402
 4460SOL    HW124839   4.065   2.163   9.741 -0.3563 -0.3196 -0.4633
 4460SOL    HW224840   4.147   2.075   9.644 -1.0033 -1.5389 -0.3637
 4461SOL     OW24841   2.773   2.854  16.182 -0.3454  0.0416 -0.1163
 4461SOL    HW124842   2.821   2.777  16.150 -1.1878 -0.7062  0.4029
 4461SOL    HW224843   2.824   2.924  16.142  2.0157 -2.3392 -1.3038
 4462SOL     OW24844   1.010   3.934  10.519  0.6430 -0.2550 -0.3598
 4462SOL    HW124845   1.099   3.960  10.544  0.8516 -1.9250  0.6236
 4462SOL    HW224846   1.030   3.878  10.444  1.3792  0.2135 -0.5147
 4463SOL     OW24847   3.260   2.371   1.120  0.0315 -0.5076  0.4502
 4463SOL    HW124848   3.262   2.451   1.173 -1.7066 -0.1111 -0.1039
 4463SOL    HW224849   3.293   2.306   1.183  0.0900 -0.5126  0.4137
 4464SOL     OW24850   0.794   1.202   2.247  0.0437  0.0699 -0.3533
 4464SOL    HW124851   0.773   1.164   2.162  1.0989 -0.0604 -0.5453
 4464SOL    HW224852   0.881   1.174   2.275 -0.2556  0.2772  0.8187
 4465SOL     OW24853   3.924   0.485   2.798  0.4508  0.1735  0.0767
 4465SOL    HW124854   3.953   0.576   2.791 -1.3944  0.7122 -0.5080
 4465SOL    HW224855   3.960   0.447   2.718  1.8072 -1.5291  1.4840
 4466SOL     OW24856   3.326   0.212   5.359 -0.3619 -0.3250 -0.2686
 4466SOL    HW124857   3.404   0.188   5.309  0.5387  1.9637  0.0328
 4466SOL    HW224858   3.364   0.265   5.430 -1.6374 -0.6451  0.6518
 4467SOL     OW24859   4.079   3.844   6.548  0.0344 -0.1297  0.0456
 4467SOL    HW124860   4.081   3.848   6.644  1.1705  0.1117  0.0080
 4467SOL    HW224861   4.116   3.756   6.538 -3.6150 -1.6876  0.1631
 4468SOL     OW24862   1.476   3.937   7.548  0.0176  0.1312 -0.2868
 4468SOL    HW124863   1.396   3.976   7.513  1.7523  1.3705 -2.8402
 4468SOL    HW224864   1.526   4.018   7.559 -0.9120  0.5652  0.8035
 4469SOL     OW24865   0.673   2.205  11.654  0.6937 -0.2768 -0.1458
 4469SOL    HW124866   0.712   2.208  11.742 -0.6565 -0.5164  0.4678
 4469SOL    HW224867   0.727   2.149  11.599 -1.3354 -0.8119 -1.5836
 4470SOL     OW24868   0.158   2.192  13.044 -0.4392 -0.3778 -0.8100
 4470SOL    HW124869   0.163   2.274  13.094  0.2020  0.5759 -2.4151
 4470SOL    HW224870   0.207   2.126  13.092  2.0888  1.0626 -1.3602
 4471SOL     OW24871   1.423   1.631  16.343  0.6040 -0.5775  0.6320
 4471SOL    HW124872   1.491   1.625  16.410  0.8916 -0.2069  0.3736
 4471SOL    HW224873   1.438   1.545  16.304 -0.9998 -1.2413  1.4841
 4472SOL     OW24874   0.714   0.171   6.427  0.1427 -0.6823  1.0329
 4472SOL    HW124875   0.658   0.248   6.433 -0.1012 -0.9879  2.6890
 4472SOL    HW224876   0.771   0.175   6.504  3.9476  0.7078 -1.8808
 4473SOL     OW24877   0.706   0.427   6.218 -0.3383 -0.0761 -0.3601
 4473SOL    HW124878   0.663   0.493   6.273  0.9618  0.8019 -0.4051
 4473SOL    HW224879   0.630   0.390   6.174 -0.3021 -2.4346  1.5227
 4474SOL     OW24880   1.125   0.155   5.748 -0.1151 -0.3494  0.1470
 4474SOL    HW124881   1.046   0.190   5.791  1.1194  2.0387  0.4570
 4474SOL    HW224882   1.163   0.239   5.725 -2.2528  0.6894  0.4301
 4475SOL     OW24883   1.872   3.448   5.120 -0.1134 -0.1810  0.0948
 4475SOL    HW124884   1.891   3.360   5.087  3.9886 -0.1935  2.4466
 4475SOL    HW224885   1.822   3.488   5.050  0.5042  0.2195 -0.1189
 4476SOL     OW24886   2.949   2.615  14.706  0.2261 -0.8181  0.0491
 4476SOL    HW124887   3.023   2.555  14.698  0.1821 -0.9648  0.8325
 4476SOL    HW224888   2.994   2.691  14.669  0.9273  0.5048  3.6346
 4477SOL     OW24889   2.091   0.719   6.390  0.6744  0.5785  0.2601
 4477SOL    HW124890   2.040   0.666   6.451  0.1529  2.7160  1.6669
 4477SOL    HW224891   2.168   0.742   6.441 -0.5664 -1.2389  2.9210
 4478SOL     OW24892   0.159   2.572  10.619  0.4629  0.6971  0.5524
 4478SOL    HW124893   0.222   2.563  10.691  0.0659 -0.9210  0.7050
 4478SOL    HW224894   0.213   2.597  10.544 -0.3605  0.5640 -0.0888
 4479SOL     OW24895   1.256   3.188   6.714 -0.4550  0.1882  0.6036
 4479SOL    HW124896   1.292   3.264   6.669  1.5829 -0.0761  1.7529
 4479SOL    HW224897   1.207   3.232   6.783 -0.9517 -0.1566  0.4675
 4480SOL     OW24898   4.422   2.753   8.124 -0.3424  0.7378 -0.9202
 4480SOL    HW124899   4.409   2.844   8.151 -0.0541  0.6166 -0.3780
 4480SOL    HW224900   4.386   2.761   8.036 -4.3078  1.0092  0.7231
 4481SOL     OW24901   2.699   2.301  13.593  0.1687  0.2955 -0.8356
 4481SOL    HW124902   2.688   2.395  13.606  1.5814  0.5094 -1.2093
 4481SOL    HW224903   2.711   2.304  13.498  1.5258  0.3815 -0.6622
 4482SOL     OW24904   4.635   0.673   5.461 -0.2210 -0.1221 -0.1179
 4482SOL    HW124905   4.611   0.753   5.508 -1.8166  0.0224 -1.1772
 4482SOL    HW224906   4.679   0.704   5.382 -0.8852  0.7926 -0.1194
 4483SOL     OW24907   0.942   3.253  10.349 -0.3486 -0.4778  0.1130
 4483SOL    HW124908   0.944   3.203  10.430 -0.1030 -1.0417 -0.2385
 4483SOL    HW224909   1.001   3.199  10.297  1.0502  0.0635  1.1324
 4484SOL     OW24910   4.038   3.707   6.061  0.1467  0.3964  0.2439
 4484SOL    HW124911   4.036   3.627   6.008 -1.5901 -0.2194  1.2439
 4484SOL    HW224912   4.074   3.676   6.144 -1.3103 -1.9831 -0.0094
 4485SOL     OW24913   2.757   3.159   2.523 -0.0029 -0.3053  0.3074
 4485SOL    HW124914   2.845   3.127   2.503  0.6324  0.5747  1.6926
 4485SOL    HW224915   2.791   3.236   2.569  2.0879 -1.6679  1.0537
 4486SOL     OW24916   3.974   0.709   0.941  0.7216  0.0898  0.6419
 4486SOL    HW124917   3.939   0.646   0.879  2.6941  0.1518 -0.5232
 4486SOL    HW224918   3.951   0.675   1.028 -0.2937 -1.9044 -0.4389
 4487SOL     OW24919   2.487   2.246   9.191 -0.3123  0.0658 -0.0265
 4487SOL    HW124920   2.554   2.215   9.130 -0.7967  0.0993 -0.5766
 4487SOL    HW224921   2.406   2.247   9.141 -0.0607 -2.6299 -0.5022
 4488SOL     OW24922   2.830   2.066   7.245  0.0489 -0.0440 -0.6322
 4488SOL    HW124923   2.882   1.991   7.218 -1.1282 -0.8178 -0.7185
 4488SOL    HW224924   2.799   2.041   7.332 -0.0237  0.5313 -0.4886
 4489SOL     OW24925   3.356   1.395  16.857  0.0377  0.3358 -0.2450
 4489SOL    HW124926   3.424   1.336  16.826 -0.7263  0.0864 -1.4844
 4489SOL    HW224927   3.314   1.427  16.777  3.7971 -0.2318 -2.4434
 4490SOL     OW24928   1.612   2.310   3.625 -0.1255  0.3263 -0.6611
 4490SOL    HW124929   1.651   2.398   3.624 -0.1647  0.3504  0.2708
 4490SOL    HW224930   1.688   2.255   3.603  1.2802  1.1707  2.0772
 4491SOL     OW24931   3.150   2.727   1.910 -0.0782  1.0359 -0.0745
 4491SOL    HW124932   3.061   2.738   1.876 -0.5678  0.2317  0.9340
 4491SOL    HW224933   3.165   2.636   1.882 -0.2447  0.6611  1.0536
 4492SOL     OW24934   2.764   4.217   3.609 -0.1693 -0.5584  0.4075
 4492SOL    HW124935   2.733   4.138   3.653 -0.0242 -2.0152 -2.1068
 4492SOL    HW224936   2.852   4.197   3.577  0.0147 -0.5950  0.9332
 4493SOL     OW24937   0.459   0.169   1.783  0.9750  0.0819 -0.2996
 4493SOL    HW124938   0.475   0.251   1.737  3.0000 -0.1408 -0.0048
 4493SOL    HW224939   0.547   0.142   1.811  0.5051 -2.0479 -0.8834
 4494SOL     OW24940   4.489   0.129   2.828 -0.3088 -0.2439  0.0427
 4494SOL    HW124941   4.472   0.035   2.816  0.0519 -0.4477  1.1392
 4494SOL    HW224942   4.531   0.123   2.913 -0.6101  2.0306  0.3422
 4495SOL     OW24943   0.222   4.706   3.119 -0.1676 -0.5454 -0.2457
 4495SOL    HW124944   0.144   4.718   3.173 -1.6995 -2.3035 -2.0493
 4495SOL    HW224945   0.187   4.714   3.030  1.1420 -0.6312 -0.7784
 4496SOL     OW24946   0.110   1.254   7.757  0.6976  0.1750 -0.1209
 4496SOL    HW124947   0.044   1.293   7.815  1.0515 -0.3107  0.6049
 4496SOL    HW224948   0.174   1.219   7.819 -1.1067 -1.5276  0.7764
 4497SOL     OW24949   2.181   2.047   7.072  0.1572  0.0445 -0.5885
 4497SOL    HW124950   2.208   1.964   7.032  1.0258  0.9834 -1.9893
 4497SOL    HW224951   2.250   2.106   7.040  0.3313 -0.3280 -0.8965
 4498SOL     OW24952   1.777   3.815   8.906 -0.1858  0.1992 -0.6326
 4498SOL    HW124953   1.690   3.843   8.936  0.8876  0.0275  2.6014
 4498SOL    HW224954   1.758   3.721   8.900  0.2268  0.1156 -0.5869
 4499SOL     OW24955   2.941   2.110   5.409 -0.2259 -0.3922 -0.2354
 4499SOL    HW124956   2.900   2.184   5.364 -1.8877 -2.0774 -1.4631
 4499SOL    HW224957   2.932   2.154   5.494  1.2409 -3.6130  1.5580
 4500SOL     OW24958   2.788   1.919  12.453 -0.5370  0.0794  0.1127
 4500SOL    HW124959   2.883   1.929  12.458 -0.3887 -0.2787 -1.9286
 4500SOL    HW224960   2.752   1.969  12.527 -1.2006 -0.4498  0.1505
 4501SOL     OW24961   1.730   3.313   3.635  0.3330 -0.4671  0.3966
 4501SOL    HW124962   1.730   3.240   3.574 -1.2520 -0.7933  0.7970
 4501SOL    HW224963   1.648   3.362   3.624  1.1671  0.9340  0.3484
 4502SOL     OW24964   4.592   4.213   7.586  0.5573 -0.6790 -0.0799
 4502SOL    HW124965   4.652   4.145   7.614  1.9316  0.0450 -1.2954
 4502SOL    HW224966   4.589   4.213   7.491 -0.1352 -3.6452 -0.0425
 4503SOL     OW24967   3.201   1.508   7.678 -0.3746 -0.4784  0.7476
 4503SOL    HW124968   3.173   1.594   7.648 -0.6423 -1.2439 -1.2407
 4503SOL    HW224969   3.187   1.514   7.772 -4.0680 -1.0608  0.2363
 4504SOL     OW24970   4.454   2.920  15.724  0.2037 -0.2367  0.0322
 4504SOL    HW124971   4.380   2.899  15.781 -0.7668  1.9083 -0.4083
 4504SOL    HW224972   4.428   3.004  15.687  2.2673  0.1064 -0.6579
 4505SOL     OW24973   4.380   0.434  13.760  0.4243 -0.0014  0.3676
 4505SOL    HW124974   4.344   0.427  13.672  1.5677  1.9529 -0.2437
 4505SOL    HW224975   4.472   0.440  13.736  0.0835  2.3033 -0.3392
 4506SOL     OW24976   1.977   1.217   1.658  0.2459  0.2445 -0.2065
 4506SOL    HW124977   2.015   1.286   1.712  0.9706 -0.1627 -0.2004
 4506SOL    HW224978   1.948   1.269   1.583  0.4936 -0.0869 -0.5320
 4507SOL     OW24979   0.520   2.404   8.323  0.5149 -0.1720 -0.3689
 4507SOL    HW124980   0.471   2.454   8.388 -1.4199 -1.6152 -0.7392
 4507SOL    HW224981   0.543   2.478   8.266  0.5297 -0.8010 -1.1815
 4508SOL     OW24982   3.106   4.639   6.759  0.0207 -0.0405  0.4038
 4508SOL    HW124983   3.194   4.658   6.725 -0.4859  1.7186  0.0465
 4508SOL    HW224984   3.061   4.607   6.681 -1.1744  1.2258  0.5649
 4509SOL     OW24985   2.634   2.365   4.496  0.4811 -0.1898  0.6359
 4509SOL    HW124986   2.580   2.444   4.490  0.0200 -0.4565  1.3551
 4509SOL    HW224987   2.645   2.342   4.404  0.3153  1.1537  0.2872
 4510SOL     OW24988   0.661   0.351   3.649  0.0414  0.3330  0.0312
 4510SOL    HW124989   0.745   0.307   3.658 -0.0766  0.1963  0.4735
 4510SOL    HW224990   0.684   0.441   3.626  5.4578 -0.2540  3.3518
 4511SOL     OW24991   2.924   4.414   0.152 -0.2895 -0.2079 -0.0364
 4511SOL    HW124992   2.829   4.422   0.150 -0.3633 -0.9919  0.1681
 4511SOL    HW224993   2.958   4.503   0.146 -3.3757  1.0568  1.3100
 4512SOL     OW24994   1.651   4.402   5.562  0.0066 -0.6148 -0.1752
 4512SOL    HW124995   1.594   4.331   5.590  2.7030 -2.7367 -0.0707
 4512SOL    HW224996   1.740   4.368   5.546  1.3861  2.1222  1.6099
 4513SOL     OW24997   0.414   1.821   4.903 -0.0281 -0.1663  0.3775
 4513SOL    HW124998   0.484   1.873   4.864 -0.5372 -1.3476 -2.1189
 4513SOL    HW224999   0.437   1.839   4.994 -0.9943  1.4365  0.3052
 4514SOL     OW25000   3.173   3.653  11.389  0.3846 -0.2919  0.1663
 4514SOL    HW125001   3.229   3.645  11.466 -0.5827 -1.4623  0.7456
 4514SOL    HW225002   3.101   3.710  11.419  1.2214  0.8220  0.0705
 4515SOL     OW25003   3.860   3.486   0.639 -0.4945  0.1589  0.3636
 4515SOL    HW125004   3.853   3.391   0.636  0.9615  0.0841 -0.5896
 4515SOL    HW225005   3.774   3.505   0.601  0.8316 -0.8125 -3.1276
 4516SOL     OW25006   1.636   4.289   9.807  0.0544  0.2802  0.0702
 4516SOL    HW125007   1.550   4.328   9.790 -0.6488 -0.3140  2.1769
 4516SOL    HW225008   1.662   4.268   9.718  1.0059  2.7385 -0.2329
 4517SOL     OW25009   1.778   2.943   0.029  0.4023 -0.2620  0.6170
 4517SOL    HW125010   1.764   3.009  17.654  0.7227 -0.3861  0.4320
 4517SOL    HW225011   1.692   2.947   0.070  0.0829 -1.7449  0.0636
 4518SOL     OW25012   3.139   3.667   4.942 -0.4832 -0.0584 -0.2117
 4518SOL    HW125013   3.100   3.745   4.903 -0.3429  0.2914  0.3466
 4518SOL    HW225014   3.076   3.599   4.922 -1.1747  0.8748 -1.1862
 4519SOL     OW25015   1.562   1.323  10.914  0.1579 -0.0070 -0.1416
 4519SOL    HW125016   1.492   1.387  10.923  0.4459  0.0012  1.9254
 4519SOL    HW225017   1.546   1.274  10.995  1.5253  0.6734  0.5437
 4520SOL     OW25018   2.693   2.803  16.562 -0.1810  0.2861 -0.5331
 4520SOL    HW125019   2.624   2.832  16.502 -0.7268 -0.2948 -0.1807
 4520SOL    HW225020   2.702   2.712  16.535 -3.5934 -0.5382  1.1908
 4521SOL     OW25021   3.829   3.477   7.995 -0.6651 -0.0293 -0.1438
 4521SOL    HW125022   3.898   3.470   7.929 -0.9931 -2.5909 -0.2426
 4521SOL    HW225023   3.829   3.564   8.033  1.1763  0.4392 -1.2422
 4522SOL     OW25024   4.657   1.861   3.583 -0.0534 -0.0893 -0.0498
 4522SOL    HW125025   0.012   1.916   3.595  0.6830 -1.4073  1.2350
 4522SOL    HW225026   4.613   1.888   3.664 -0.0693 -0.6463  0.1272
 4523SOL     OW25027   2.838   1.033   4.375  0.0494 -0.0135  0.0113
 4523SOL    HW125028   2.916   1.079   4.344 -1.0731 -0.0503 -2.8299
 4523SOL    HW225029   2.874   0.995   4.455  0.7805  2.5499  0.9245
 4524SOL     OW25030   1.426   3.992   4.444 -0.3000 -0.3117  0.1154
 4524SOL    HW125031   1.411   4.063   4.381 -0.4188 -0.7448 -0.3500
 4524SOL    HW225032   1.365   4.030   4.507  0.2390 -0.9505  1.0086
 4525SOL     OW25033   0.998   0.174   7.303  0.7569 -0.1554  0.0954
 4525SOL    HW125034   0.938   0.236   7.260  1.4452 -0.6456 -1.5717
 4525SOL    HW225035   1.031   0.121   7.231  2.9075  1.4761 -0.0991
 4526SOL     OW25036   0.849   2.744   8.260 -0.5512 -0.1237  0.2749
 4526SOL    HW125037   0.914   2.689   8.303  1.0469  1.5465  0.0210
 4526SOL    HW225038   0.905   2.819   8.239 -0.5161 -0.0241  0.7201
 4527SOL     OW25039   3.932   3.385   9.061 -0.0486  0.4691 -0.0176
 4527SOL    HW125040   3.902   3.302   9.097  1.9293  0.3360  1.3468
 4527SOL    HW225041   3.945   3.438   9.139  1.2525 -0.1052  0.1599
 4528SOL     OW25042   1.000   1.362   2.527  0.7845 -0.4777 -0.1602
 4528SOL    HW125043   1.095   1.353   2.525  0.7204 -1.1545 -0.1291
 4528SOL    HW225044   0.989   1.390   2.436  3.1867 -0.4273 -0.4273
 4529SOL     OW25045   1.827   0.006   4.590  0.5436  0.1252 -0.3559
 4529SOL    HW125046   1.778   0.078   4.550 -2.1923 -0.9183  1.2117
 4529SOL    HW225047   1.844   0.043   4.677  0.8344  0.4302 -0.5425
 4530SOL     OW25048   0.554   2.412   7.129 -0.2145 -0.1693  0.0487
 4530SOL    HW125049   0.513   2.337   7.085 -3.3658  2.4111 -1.4901
 4530SOL    HW225050   0.619   2.440   7.065 -0.7967 -1.0340 -0.9374
 4531SOL     OW25051   0.575   3.649  11.448 -0.1078 -0.2241 -0.2847
 4531SOL    HW125052   0.634   3.694  11.509 -1.1772  0.2020  0.4405
 4531SOL    HW225053   0.622   3.568  11.427 -0.7910 -0.8963  0.7252
 4532SOL     OW25054   1.824   1.546  16.516  0.0079  0.0880  0.2206
 4532SOL    HW125055   1.836   1.475  16.453 -2.1846  1.0742 -1.3222
 4532SOL    HW225056   1.757   1.497  16.564  2.5872 -2.4006  1.2639
 4533SOL     OW25057   4.006   3.436   4.069 -0.2127 -0.2339 -0.3993
 4533SOL    HW125058   4.028   3.510   4.013  0.4085  0.2824  0.5106
 4533SOL    HW225059   3.988   3.369   4.004 -0.9001 -0.5858  0.1615
 4534SOL     OW25060   2.145   1.802   4.460 -0.6294 -0.7691  0.5673
 4534SOL    HW125061   2.149   1.873   4.396 -2.2546 -1.7539 -0.6071
 4534SOL    HW225062   2.206   1.837   4.525  0.0396  1.1632 -1.1199
 4535SOL     OW25063   1.593   2.547   4.411  0.6331  0.5397  0.0617
 4535SOL    HW125064   1.510   2.580   4.376 -0.2130 -0.7125  0.8778
 4535SOL    HW225065   1.575   2.535   4.504  1.6669  1.3993  0.3797
 4536SOL     OW25066   3.189   2.333   4.568 -0.0162  0.0943 -0.0055
 4536SOL    HW125067   3.199   2.388   4.646  1.0071  0.7809 -0.6211
 4536SOL    HW225068   3.106   2.369   4.537  0.1864 -0.0258 -0.6766
 4537SOL     OW25069   1.354   0.611   2.691  0.3844  0.2212  0.0676
 4537SOL    HW125070   1.330   0.539   2.633  0.5968  0.5574 -0.4367
 4537SOL    HW225071   1.394   0.677   2.635 -2.9016  2.2652  0.1044
 4538SOL     OW25072   4.159   2.540   3.254  0.6680  0.1698 -0.5103
 4538SOL    HW125073   4.080   2.560   3.203 -0.8701 -2.2729  0.9111
 4538SOL    HW225074   4.199   2.626   3.246 -1.7191  1.2915 -0.5423
 4539SOL     OW25075   1.488   1.200  10.631 -0.6288 -0.2364 -0.4298
 4539SOL    HW125076   1.506   1.228  10.721  2.2671 -3.1117 -0.1125
 4539SOL    HW225077   1.435   1.121  10.640 -1.0606  0.2050  1.0013
 4540SOL     OW25078   0.936   2.305   9.825 -1.3334 -0.5996 -0.0810
 4540SOL    HW125079   0.993   2.306   9.747 -2.0617  0.1208 -0.6031
 4540SOL    HW225080   0.905   2.396   9.825 -0.2591 -0.2287 -0.6728
 4541SOL     OW25081   1.713   4.288  16.656 -0.5082  0.1137  0.1209
 4541SOL    HW125082   1.714   4.197  16.685 -1.9038  0.0216 -0.0924
 4541SOL    HW225083   1.766   4.280  16.577  0.5684 -0.9808  0.9624
 4542SOL     OW25084   1.014   1.401   6.128  0.0149 -0.2716 -0.0681
 4542SOL    HW125085   1.075   1.331   6.106 -0.9630 -0.6010 -1.7039
 4542SOL    HW225086   0.930   1.356   6.142 -0.5028  0.0716 -2.0994
 4543SOL     OW25087   2.075   0.801  16.647  0.2257 -0.2024  0.0078
 4543SOL    HW125088   2.051   0.715  16.682 -0.8435 -0.0457 -0.3525
 4543SOL    HW225089   2.062   0.860  16.721  0.3447  0.0209 -0.1478
 4544SOL     OW25090   2.688   0.096   3.256  0.0793  0.1037 -0.2481
 4544SOL    HW125091   2.674   0.002   3.267 -1.0221  0.1794 -1.0023
 4544SOL    HW225092   2.626   0.138   3.316 -0.7987 -0.7078 -0.5818
 4545SOL     OW25093   1.233   4.096   9.551  0.1119  0.5642  0.3313
 4545SOL    HW125094   1.228   4.137   9.465 -1.6449  1.9904  1.1173
 4545SOL    HW225095   1.153   4.134   9.588  0.4589 -0.0904  1.7641
 4546SOL     OW25096   1.936   3.777   4.297 -0.4519 -0.0797  0.3111
 4546SOL    HW125097   1.890   3.713   4.242 -1.1500  1.8740 -1.3948
 4546SOL    HW225098   1.879   3.854   4.298  0.9706  0.9588  0.6471
 4547SOL     OW25099   1.726   4.513   1.040 -0.4061  0.3919  0.6691
 4547SOL    HW125100   1.763   4.536   1.125  1.0722 -0.3798  0.2430
 4547SOL    HW225101   1.702   4.423   1.061 -0.8886  0.1951 -0.7120
 4548SOL     OW25102   2.287   2.135   7.909  0.4027  0.0760 -0.1462
 4548SOL    HW125103   2.336   2.216   7.916  0.9163 -0.4379  2.3429
 4548SOL    HW225104   2.300   2.109   8.000 -1.3318 -0.2417  0.0216
 4549SOL     OW25105   1.275   2.514   7.476 -0.3698 -0.2996 -0.0864
 4549SOL    HW125106   1.262   2.465   7.395  2.5257 -0.8588 -0.2075
 4549SOL    HW225107   1.189   2.558   7.475  0.3407  1.0728 -1.1124
 4550SOL     OW25108   4.302   0.148   8.540  0.6665 -0.3704  0.3322
 4550SOL    HW125109   4.273   0.213   8.604  1.4305  0.5832 -0.2927
 4550SOL    HW225110   4.265   0.068   8.579 -2.2420  1.5940  1.6265
 4551SOL     OW25111   4.322   0.628   3.418 -0.5389 -0.1084  0.4370
 4551SOL    HW125112   4.332   0.693   3.349  1.7589 -0.4029  0.4878
 4551SOL    HW225113   4.369   0.679   3.484 -1.5959 -0.9543  1.8755
 4552SOL     OW25114   1.243   0.286   6.393  0.0243 -0.7289  0.0718
 4552SOL    HW125115   1.285   0.201   6.382  0.7874 -0.4246  0.6090
 4552SOL    HW225116   1.155   0.258   6.368  0.6639  0.9892 -4.2071
 4553SOL     OW25117   4.146   3.536   5.289  0.2960 -0.0890  0.0100
 4553SOL    HW125118   4.131   3.615   5.237 -1.2418  0.4797  1.3272
 4553SOL    HW225119   4.054   3.509   5.294  0.8934 -2.6263 -2.1868
 4554SOL     OW25120   0.846   4.289   7.106  0.1238  0.1632 -0.0186
 4554SOL    HW125121   0.802   4.276   7.190 -0.4700  2.2116 -0.0090
 4554SOL    HW225122   0.928   4.239   7.117  0.0777  0.6297  2.4902
 4555SOL     OW25123   4.216   3.729   3.173 -0.6303  0.4878 -0.1509
 4555SOL    HW125124   4.180   3.690   3.253  0.1318 -1.0967 -0.5991
 4555SOL    HW225125   4.140   3.710   3.117 -0.6446 -0.1344  0.0793
 4556SOL     OW25126   4.378   2.438   5.143  0.0205 -0.2107 -0.4898
 4556SOL    HW125127   4.305   2.486   5.105  0.9714  1.6542  0.0327
 4556SOL    HW225128   4.431   2.517   5.154  0.6641 -0.9269  1.5221
 4557SOL     OW25129   1.998   1.569   4.970  0.5951 -0.0997  0.1213
 4557SOL    HW125130   1.928   1.630   4.946 -0.4263 -0.5015  2.1133
 4557SOL    HW225131   2.061   1.570   4.897 -1.2800  3.9096 -1.4319
 4558SOL     OW25132   1.009   4.707   7.945  0.1419  0.1597 -0.1648
 4558SOL    HW125133   1.037   4.669   7.862  1.4348  1.9931 -0.5718
 4558SOL    HW225134   1.087   0.031   7.974 -0.2761  0.6362  0.2054
 4559SOL     OW25135   0.955   4.638   0.408  0.1582 -0.3285 -0.0828
 4559SOL    HW125136   1.014   4.683   0.468  2.1408 -1.3332 -1.2839
 4559SOL    HW225137   0.920   4.569   0.465  3.7507  0.5525  3.1660
 4560SOL     OW25138   3.898   1.444   2.935  0.1362  0.0122 -0.3948
 4560SOL    HW125139   3.820   1.433   2.880 -0.9853 -1.4565  1.4992
 4560SOL    HW225140   3.871   1.505   3.004  0.2101 -0.8569  0.4013
 4561SOL     OW25141   3.050   2.998   7.174  0.2507  0.1514 -0.3473
 4561SOL    HW125142   2.963   3.034   7.153  0.7044  1.8973  0.7904
 4561SOL    HW225143   3.080   3.064   7.237  0.8755 -0.9723  0.5170
 4562SOL     OW25144   3.761   0.731   9.020  0.3430  0.8350 -0.6877
 4562SOL    HW125145   3.749   0.819   9.055 -1.7540 -0.5070  1.8660
 4562SOL    HW225146   3.854   0.707   9.021 -0.4935 -2.2998  0.0607
 4563SOL     OW25147   0.998   1.500  10.315 -0.2613 -0.3412 -0.2661
 4563SOL    HW125148   0.930   1.556  10.353 -0.2317 -1.2515  1.1193
 4563SOL    HW225149   1.078   1.528  10.359 -0.6836 -1.9344  1.5227
 4564SOL     OW25150   4.520   4.363   9.071 -0.6360  0.3589 -0.1577
 4564SOL    HW125151   4.525   4.398   9.160  1.0546 -2.2404  0.7801
 4564SOL    HW225152   4.614   4.371   9.053 -0.7995 -0.0564 -1.2147
 4565SOL     OW25153   1.673   0.049   0.041 -0.2474 -0.9022 -0.2906
 4565SOL    HW125154   1.602   4.713   0.016 -0.2858 -0.3763 -1.4253
 4565SOL    HW225155   1.637   0.071   0.127  0.1961 -0.6020 -0.1806
 4566SOL     OW25156   1.505   3.691   6.138  0.0727  0.1035 -0.6645
 4566SOL    HW125157   1.597   3.705   6.161  0.2466  0.3676 -1.4974
 4566SOL    HW225158   1.506   3.696   6.042 -0.8992 -1.2311 -0.7503
 4567SOL     OW25159   3.797   3.489   8.862 -0.2008  0.0773  0.0978
 4567SOL    HW125160   3.842   3.444   8.933  0.2380  0.3923  0.0180
 4567SOL    HW225161   3.747   3.418   8.821 -1.8195  0.1613  1.9694
 4568SOL     OW25162   3.446   4.014   6.888 -0.3017  0.1942  0.1132
 4568SOL    HW125163   3.364   4.029   6.935  0.1410  1.1775  0.5741
 4568SOL    HW225164   3.451   4.085   6.824  0.9353 -1.4406 -1.6129
 4569SOL     OW25165   4.718   1.637   3.431 -0.6800 -0.5170 -0.2320
 4569SOL    HW125166   0.081   1.663   3.465  0.0572 -1.4447 -1.3865
 4569SOL    HW225167   4.667   1.708   3.470 -1.7455 -2.4959  2.0011
 4570SOL     OW25168   0.565   2.528   4.540  0.6537  0.2709  0.1682
 4570SOL    HW125169   0.526   2.485   4.616 -0.5303 -0.5480 -0.9030
 4570SOL    HW225170   0.495   2.591   4.520  1.0809  0.1228 -1.7463
 4571SOL     OW25171   2.488   3.799   6.796 -0.5515  0.9788  0.0392
 4571SOL    HW125172   2.439   3.722   6.824  1.3752  0.0271  0.7888
 4571SOL    HW225173   2.530   3.835   6.874 -0.3758  1.7632 -0.4174
 4572SOL     OW25174   4.383   1.624  16.178  0.1818 -0.4464  0.5584
 4572SOL    HW125175   4.350   1.650  16.264 -1.5540  2.7652 -1.0807
 4572SOL    HW225176   4.306   1.662  16.135 -1.1012 -0.4644  2.8271
 4573SOL     OW25177   1.029   0.947   4.842 -0.6697 -0.2978 -0.1612
 4573SOL    HW125178   0.997   0.999   4.916  1.9720 -1.3470  1.7314
 4573SOL    HW225179   0.956   0.962   4.782  1.0009  1.0070 -1.8232
 4574SOL     OW25180   0.800   0.837   1.571  0.1318 -0.2292 -0.1113
 4574SOL    HW125181   0.812   0.919   1.620 -1.6917 -0.7233  1.1469
 4574SOL    HW225182   0.891   0.814   1.551 -0.4531 -1.2298 -1.6112
 4575SOL     OW25183   0.695   4.114   5.100  0.1497 -0.3496 -0.1425
 4575SOL    HW125184   0.668   4.057   5.028  0.1960  0.2916 -0.6669
 4575SOL    HW225185   0.606   4.145   5.116  0.6349  1.0675 -0.2612
 4576SOL     OW25186   3.654   2.329  15.666 -0.7110  0.3287 -0.1840
 4576SOL    HW125187   3.598   2.262  15.705  0.0650 -0.7435 -0.9204
 4576SOL    HW225188   3.744   2.298  15.679 -1.8838 -2.8245  0.3479
 4577SOL     OW25189   3.414   3.481   7.469 -0.8690 -0.3462 -0.0530
 4577SOL    HW125190   3.442   3.503   7.558  1.0719 -3.0710  0.0125
 4577SOL    HW225191   3.485   3.527   7.424  0.3526 -1.0441  1.1847
 4578SOL     OW25192   0.553   2.650   7.514 -0.0635  0.3596 -0.3075
 4578SOL    HW125193   0.523   2.586   7.579  0.0444 -1.1789 -1.7811
 4578SOL    HW225194   0.504   2.626   7.435  1.6665  0.7790 -1.5098
 4579SOL     OW25195   2.697   3.262   4.893 -0.3560 -0.1425  0.7860
 4579SOL    HW125196   2.668   3.318   4.965  0.9605  0.4977  0.8326
 4579SOL    HW225197   2.653   3.179   4.914  0.1993 -0.3186  1.2803
 4580SOL     OW25198   2.521   1.745   1.310 -0.3092  0.6027 -0.5937
 4580SOL    HW125199   2.605   1.739   1.265 -0.1648  0.2037 -0.2704
 4580SOL    HW225200   2.536   1.670   1.368 -0.2787  2.3738  1.6932
 4581SOL     OW25201   0.274   3.475   7.045  0.1719 -0.5509 -0.6089
 4581SOL    HW125202   0.329   3.432   6.980  0.1568  2.2671 -2.4745
 4581SOL    HW225203   0.316   3.451   7.128  1.4419  0.4961 -0.9464
 4582SOL     OW25204   1.642   0.789   5.450 -0.0608 -0.1793 -0.6098
 4582SOL    HW125205   1.600   0.713   5.409  1.4700 -1.1263 -0.4042
 4582SOL    HW225206   1.570   0.819   5.506  0.8917 -1.1341  1.1540
 4583SOL     OW25207   1.113   4.269   5.731 -0.2483  0.2196 -0.2962
 4583SOL    HW125208   1.078   4.356   5.750 -0.2391  0.2964 -0.6340
 4583SOL    HW225209   1.141   4.292   5.642 -1.4155  0.7857 -0.5111
 4584SOL     OW25210   2.766   2.309   7.611 -0.9668  0.2920  0.6961
 4584SOL    HW125211   2.702   2.338   7.676 -0.9846 -0.9257  1.2120
 4584SOL    HW225212   2.843   2.298   7.667 -0.8512 -2.4705 -0.0185
 4585SOL     OW25213   0.445   3.874   8.289  0.6769  0.5597 -0.3733
 4585SOL    HW125214   0.366   3.862   8.341  0.6532  0.9186 -0.3272
 4585SOL    HW225215   0.497   3.795   8.307 -1.3321 -1.0302 -1.5444
 4586SOL     OW25216   2.275   1.728   2.595  0.3718 -0.7671  0.4157
 4586SOL    HW125217   2.288   1.721   2.500 -0.3528  2.8746  0.0251
 4586SOL    HW225218   2.261   1.823   2.595  2.4487 -0.4608 -0.0388
 4587SOL     OW25219   2.218   4.475  10.824 -0.3119  0.1587 -0.0819
 4587SOL    HW125220   2.246   4.520  10.744  1.9944  1.1815  1.2978
 4587SOL    HW225221   2.236   4.382  10.809  0.2665  0.2425  0.0793
 4588SOL     OW25222   3.360   1.827   2.908  0.0881 -0.0106 -0.1010
 4588SOL    HW125223   3.374   1.740   2.871 -0.3182 -0.4374  0.7554
 4588SOL    HW225224   3.265   1.834   2.903  0.2352  1.6521 -0.6808
 4589SOL     OW25225   4.388   0.432   6.472  0.1262  0.0563  0.3887
 4589SOL    HW125226   4.474   0.391   6.479  0.0294 -0.3664 -0.8894
 4589SOL    HW225227   4.336   0.364   6.515 -1.6905  0.8422 -0.5325
 4590SOL     OW25228   1.222   4.502   4.034  0.2003  0.5174  0.4485
 4590SOL    HW125229   1.135   4.463   4.048  1.8419 -3.3083 -0.0224
 4590SOL    HW225230   1.282   4.441   4.076 -2.2045 -2.7873 -0.8910
 4591SOL     OW25231   2.236   0.194   6.861  0.2372 -0.1342 -0.4602
 4591SOL    HW125232   2.171   0.251   6.820 -0.3662 -0.7723 -0.3984
 4591SOL    HW225233   2.269   0.254   6.928  0.6778 -0.6102 -0.2554
 4592SOL     OW25234   2.560   1.515   5.849 -0.0533  0.7842 -0.0315
 4592SOL    HW125235   2.613   1.576   5.901 -0.3445  0.9314  0.0869
 4592SOL    HW225236   2.623   1.454   5.810 -1.9444 -2.0829  1.4444
 4593SOL     OW25237   0.561   4.323   8.278 -0.3878  0.3963 -0.8515
 4593SOL    HW125238   0.607   4.245   8.310 -0.6358 -0.2714 -2.1154
 4593SOL    HW225239   0.630   4.376   8.236  0.5898 -0.2294 -0.0241
 4594SOL     OW25240   3.049   2.700  16.304  0.0982 -0.2558 -0.2931
 4594SOL    HW125241   3.003   2.661  16.378 -0.4291  2.3946  0.7668
 4594SOL    HW225242   2.995   2.677  16.228 -0.0974  4.0308 -1.4705
 4595SOL     OW25243   4.196   3.723  13.837 -0.0667  0.3336  0.2495
 4595SOL    HW125244   4.138   3.678  13.899  0.2555  0.0475  0.3432
 4595SOL    HW225245   4.143   3.801  13.818 -1.1116 -0.1920  1.0355
 4596SOL     OW25246   4.136   3.606   3.407 -0.1757 -0.7082 -0.1175
 4596SOL    HW125247   4.072   3.555   3.359 -0.3842 -2.1954  1.7443
 4596SOL    HW225248   4.094   3.609   3.493 -1.3648 -0.8665 -0.6999
 4597SOL     OW25249   1.555   4.323  13.281 -0.3608 -0.6624 -0.5258
 4597SOL    HW125250   1.519   4.238  13.253 -2.0821  0.5098 -1.8708
 4597SOL    HW225251   1.642   4.307  13.244 -0.0827 -2.5460  0.9074
 4598SOL     OW25252   3.286   0.196   7.237  0.3686 -0.1400 -0.0004
 4598SOL    HW125253   3.369   0.164   7.272 -0.6332 -1.9594  0.7504
 4598SOL    HW225254   3.236   0.114   7.239 -0.5783  0.4664  1.0723
 4599SOL     OW25255   2.390   3.497  15.061  0.0793 -1.0851  0.2146
 4599SOL    HW125256   2.403   3.555  14.986  2.7055  0.5822  1.9662
 4599SOL    HW225257   2.453   3.532  15.124 -0.8061 -0.9772  1.0450
 4600SOL     OW25258   4.672   2.811   8.229 -0.0536 -0.0103 -0.3146
 4600SOL    HW125259   4.589   2.778   8.193 -0.4987  0.4820  0.2479
 4600SOL    HW225260   4.693   2.875   8.161  0.2581 -2.7542 -2.8054
 4601SOL     OW25261   2.682   0.589  13.336  0.0036 -0.2022  0.6513
 4601SOL    HW125262   2.667   0.684  13.336 -0.3230 -0.2662 -1.3433
 4601SOL    HW225263   2.700   0.572  13.428  0.9078  3.3194  1.1270
 4602SOL     OW25264   2.654   2.475  12.578  0.8454 -0.2070 -0.1669
 4602SOL    HW125265   2.719   2.544  12.590 -0.2868  0.5778  1.5185
 4602SOL    HW225266   2.667   2.438  12.491 -0.6038 -2.3722  0.5346
 4603SOL     OW25267   1.963   0.486   1.588  0.2152 -0.0944  0.2819
 4603SOL    HW125268   1.950   0.425   1.661 -0.9138 -0.2841 -0.0839
 4603SOL    HW225269   2.057   0.502   1.602  0.0383 -0.6234  2.1574
 4604SOL     OW25270   2.669   3.180  14.122 -0.1751 -0.0712  0.1300
 4604SOL    HW125271   2.609   3.107  14.134 -0.3278  0.1478  0.7100
 4604SOL    HW225272   2.714   3.178  14.206 -1.4484 -0.6615  0.7870
 4605SOL     OW25273   3.497   4.052   3.649  0.2761  0.2846 -0.6856
 4605SOL    HW125274   3.424   4.029   3.707  1.6004  2.0476  1.7065
 4605SOL    HW225275   3.557   4.114   3.690  0.5777  1.0917 -2.3784
 4606SOL     OW25276   1.126   0.030   8.873 -0.0911  0.7534  0.0150
 4606SOL    HW125277   1.109   0.102   8.812  1.9630  0.3642 -1.0046
 4606SOL    HW225278   1.220   0.031   8.890 -0.0497  1.4996 -0.2529
 4607SOL     OW25279   1.934   0.087   7.900 -0.0911 -0.1025  0.1299
 4607SOL    HW125280   1.968   0.085   7.989  3.0701  2.2021 -1.0443
 4607SOL    HW225281   1.907   0.179   7.893  3.2391  1.1780  3.9118
 4608SOL     OW25282   3.751   0.622  15.401  0.0633 -0.2673  0.2792
 4608SOL    HW125283   3.808   0.559  15.357  2.8925  2.3539  0.1591
 4608SOL    HW225284   3.767   0.612  15.494 -1.3281  0.5364  0.6088
 4609SOL     OW25285   0.227   1.898   8.216  0.0462  0.5823  0.7763
 4609SOL    HW125286   0.212   1.804   8.215 -1.1325  0.8300 -2.5519
 4609SOL    HW225287   0.255   1.920   8.305 -1.4822  0.5487  1.2709
 4610SOL     OW25288   3.733   2.188  15.026  0.1572  0.1304  0.2506
 4610SOL    HW125289   3.777   2.261  15.070 -1.4622  0.3696  1.4848
 4610SOL    HW225290   3.790   2.179  14.950 -0.0693  0.4470  0.0453
 4611SOL     OW25291   0.990   2.356   2.504  0.6072 -0.4799  0.2353
 4611SOL    HW125292   0.918   2.383   2.561 -0.0763  1.1297 -1.3672
 4611SOL    HW225293   0.948   2.286   2.454  0.6189 -0.9125  0.8240
 4612SOL     OW25294   3.591   3.737  10.721 -0.2713  0.4285  0.1535
 4612SOL    HW125295   3.602   3.765  10.812 -1.2529  1.0573  0.0857
 4612SOL    HW225296   3.664   3.676  10.722  0.3975  1.2156 -2.6864
 4613SOL     OW25297   0.195   0.802   5.943 -0.0076 -0.0298 -0.1342
 4613SOL    HW125298   0.237   0.770   5.862 -0.2225  0.8879 -0.6023
 4613SOL    HW225299   0.110   0.820   5.902 -0.7486  0.5556  1.7035
 4614SOL     OW25300   2.787   1.350  12.577  0.2526  0.5063 -0.4580
 4614SOL    HW125301   2.777   1.363  12.672 -0.1661 -0.2534 -0.3957
 4614SOL    HW225302   2.758   1.262  12.555  0.5512 -0.2841  2.3619
 4615SOL     OW25303   0.875   4.130  14.441  0.0584 -0.2478  0.3210
 4615SOL    HW125304   0.907   4.043  14.465 -0.5583 -0.2527  1.1153
 4615SOL    HW225305   0.841   4.162  14.524 -1.3431 -0.3704 -0.2088
 4616SOL     OW25306   3.487   0.636   3.856  0.4453  0.0079 -0.0822
 4616SOL    HW125307   3.440   0.552   3.852 -0.1765  0.3494  0.0840
 4616SOL    HW225308   3.572   0.620   3.898 -0.2472  0.4638  1.4831
 4617SOL     OW25309   4.245   3.006   7.622  0.3350 -0.1845  0.0591
 4617SOL    HW125310   4.309   2.940   7.596  2.7782  1.1797  2.5395
 4617SOL    HW225311   4.281   3.086   7.584 -0.6315  1.2244  2.1174
 4618SOL     OW25312   0.725   1.610   7.865 -0.1069  0.1182 -0.2772
 4618SOL    HW125313   0.709   1.654   7.948  0.6080  2.4576 -1.3605
 4618SOL    HW225314   0.816   1.580   7.874  0.1329  1.1144  0.6259
 4619SOL     OW25315   1.255   4.426   5.114 -0.1352 -0.7028 -0.0882
 4619SOL    HW125316   1.235   4.502   5.059  1.1165  0.3817  0.9604
 4619SOL    HW225317   1.350   4.419   5.112  0.0483  2.1775 -0.4069
 4620SOL     OW25318   4.692   3.994   2.131 -0.2340 -0.4615 -0.1126
 4620SOL    HW125319   0.051   3.945   2.141  0.5213  0.6341 -0.9328
 4620SOL    HW225320   4.698   4.067   2.193  2.1127  1.2867 -2.4310
 4621SOL     OW25321   1.322   2.163   2.535  0.0062 -0.0528 -0.0403
 4621SOL    HW125322   1.339   2.257   2.527 -0.5939  0.1216  0.7092
 4621SOL    HW225323   1.337   2.161   2.630  1.2125 -0.6638 -0.2453
 4622SOL     OW25324   4.255   1.622   2.540 -0.2026 -0.4721  0.1995
 4622SOL    HW125325   4.294   1.709   2.544 -2.0424  0.3130  1.2843
 4622SOL    HW225326   4.228   1.611   2.631 -1.6300 -1.3475 -0.3204
 4623SOL     OW25327   3.463   0.230   1.213 -0.1253 -0.2580  0.0788
 4623SOL    HW125328   3.405   0.156   1.200 -0.8590  0.2087  0.6844
 4623SOL    HW225329   3.424   0.293   1.152 -0.2600  0.0305  0.4637
 4624SOL     OW25330   3.574   1.059  15.145  0.0803  0.7453  0.5270
 4624SOL    HW125331   3.533   1.074  15.060  0.3983 -0.3987  0.1812
 4624SOL    HW225332   3.658   1.099  15.123  0.5052 -0.6669 -0.4234
 4625SOL     OW25333   3.693   4.543   9.704 -0.7331  0.2033 -0.1978
 4625SOL    HW125334   3.720   4.635   9.714  1.2222 -0.7142  3.1495
 4625SOL    HW225335   3.739   4.523   9.623 -0.8043  0.4063 -0.2883
 4626SOL     OW25336   3.497   0.331   0.439 -0.6737  0.5201 -0.1795
 4626SOL    HW125337   3.568   0.280   0.478 -0.9524 -0.1028 -0.4742
 4626SOL    HW225338   3.544   0.379   0.372 -0.7700  0.6353 -0.1639
 4627SOL     OW25339   3.447   2.810  15.752  0.2522 -0.0219  0.6657
 4627SOL    HW125340   3.480   2.732  15.708 -0.8532 -0.7051  1.0528
 4627SOL    HW225341   3.472   2.794  15.843  0.0224  0.7021  0.8640
 4628SOL     OW25342   0.669   3.180   5.894  0.3085 -0.3502  0.2526
 4628SOL    HW125343   0.668   3.235   5.815 -0.4730  0.1006  0.5672
 4628SOL    HW225344   0.663   3.095   5.851 -1.4680  1.0962 -2.4151
 4629SOL     OW25345   0.010   2.843  12.745 -0.0721 -0.3345  0.0089
 4629SOL    HW125346   0.064   2.787  12.690 -0.8279 -0.4882 -0.5695
 4629SOL    HW225347   4.650   2.837  12.698  0.1655 -1.8372 -0.1985
 4630SOL     OW25348   3.786   4.705  11.047  0.3577 -0.2767 -1.0195
 4630SOL    HW125349   3.879   4.702  11.027  0.9433  1.7264  1.3816
 4630SOL    HW225350   3.751   4.660  10.970 -1.6980  0.3442 -0.4683
 4631SOL     OW25351   1.732   0.872   4.526  0.1782  0.0233 -0.5553
 4631SOL    HW125352   1.782   0.936   4.576 -0.0064  0.3835 -0.8302
 4631SOL    HW225353   1.780   0.870   4.443  0.6395  3.5836 -0.3758
 4632SOL     OW25354   1.851   0.833   3.086 -0.6907  0.0523 -0.0894
 4632SOL    HW125355   1.804   0.772   3.030  0.0614  1.0842 -1.8260
 4632SOL    HW225356   1.780   0.886   3.124  0.9213  0.3114  2.5813
 4633SOL     OW25357   0.022   4.031   7.679  0.6647 -0.1261  0.5224
 4633SOL    HW125358   4.680   4.030   7.750  1.0006  0.7471  0.8345
 4633SOL    HW225359   0.105   4.023   7.725  1.8033  2.0294 -1.1866
 4634SOL     OW25360   3.057   2.478   1.631 -0.0396 -0.6975  0.3437
 4634SOL    HW125361   3.087   2.464   1.721 -0.5645  1.2519  0.8095
 4634SOL    HW225362   2.988   2.543   1.645  1.7683  1.0293  1.0994
 4635SOL     OW25363   2.084   2.759   5.499  0.3260 -0.3211 -0.2796
 4635SOL    HW125364   2.026   2.828   5.531  0.4148  0.0247 -0.8537
 4635SOL    HW225365   2.034   2.750   5.418  0.9541  0.2962 -0.7386
 4636SOL     OW25366   1.498   2.081  11.177  0.1904 -0.1829 -0.1719
 4636SOL    HW125367   1.563   2.056  11.111 -0.7448  0.4858 -1.3430
 4636SOL    HW225368   1.554   2.074  11.254 -0.3827 -1.9873  0.0835
 4637SOL     OW25369   0.349   4.259  12.782 -0.1328 -0.0876  0.0251
 4637SOL    HW125370   0.431   4.225  12.819  0.4236 -0.6820 -1.7311
 4637SOL    HW225371   0.378   4.338  12.736 -0.5088  0.5823  0.9660
 4638SOL     OW25372   4.536   1.693   4.523  0.1928  0.4634  0.1656
 4638SOL    HW125373   4.461   1.719   4.576 -0.0577  1.2924 -0.5894
 4638SOL    HW225374   4.565   1.619   4.576  1.8137  1.1103  0.2029
 4639SOL     OW25375   2.753   3.735   3.008 -0.2495  0.2496  0.0239
 4639SOL    HW125376   2.730   3.740   3.101 -0.4387  0.1470 -0.0184
 4639SOL    HW225377   2.835   3.784   3.020 -2.6575  3.9631  1.4585
 4640SOL     OW25378   4.129   3.880  13.601  0.7119  0.3703 -0.6528
 4640SOL    HW125379   4.041   3.864  13.567 -0.0669 -0.7337  1.8974
 4640SOL    HW225380   4.152   3.960  13.554  0.2883  0.5504 -0.5556
 4641SOL     OW25381   0.005   1.016  16.467  0.4189  0.8507  0.6603
 4641SOL    HW125382   4.705   0.942  16.524  1.7396  0.3325  0.5038
 4641SOL    HW225383   4.643   1.055  16.444  0.3246  0.9155  1.1146
 4642SOL     OW25384   0.750   2.508   3.975  0.0669 -0.9997 -0.1377
 4642SOL    HW125385   0.768   2.417   3.998  0.5705 -1.2722 -1.6178
 4642SOL    HW225386   0.668   2.523   4.023  1.6912  1.9427  1.7468
 4643SOL     OW25387   3.680   2.673   2.435  0.1402 -0.6902 -0.1928
 4643SOL    HW125388   3.663   2.661   2.529 -0.8633  0.6981 -0.2059
 4643SOL    HW225389   3.683   2.588   2.391  0.7820 -0.2930 -0.9185
 4644SOL     OW25390   2.488   0.395   3.893  0.6881 -0.0264  0.2899
 4644SOL    HW125391   2.466   0.458   3.824  1.2270  0.3810  0.4848
 4644SOL    HW225392   2.443   0.443   3.962 -0.2736  0.9821 -1.0322
 4645SOL     OW25393   1.233   3.601   7.639 -0.2123  0.2090 -0.1527
 4645SOL    HW125394   1.270   3.521   7.676 -0.9335 -0.0281  0.0405
 4645SOL    HW225395   1.261   3.612   7.548  1.0492  1.0592  0.3370
 4646SOL     OW25396   0.034   1.762   2.887 -0.0409  0.0969  0.0826
 4646SOL    HW125397   4.669   1.725   2.889 -0.7757  1.9623  2.1317
 4646SOL    HW225398   0.015   1.838   2.832  1.3895  1.2882  1.2627
 4647SOL     OW25399   3.664   2.387   1.926  0.0266  0.0082  0.2571
 4647SOL    HW125400   3.732   2.426   1.981 -0.0109 -0.5883  0.7252
 4647SOL    HW225401   3.710   2.306   1.906 -1.0146 -0.6681  0.5951
 4648SOL     OW25402   3.863   1.155   5.295  0.0393  1.0145  0.0824
 4648SOL    HW125403   3.933   1.216   5.273  2.4922 -1.1147  2.0043
 4648SOL    HW225404   3.906   1.102   5.362  1.3798 -3.1286 -4.0644
 4649SOL     OW25405   0.884   0.586   4.265  0.0504  0.2797 -0.3201
 4649SOL    HW125406   0.883   0.631   4.181 -0.1942  0.7071 -0.0870
 4649SOL    HW225407   0.932   0.652   4.314 -1.2326 -0.4212  1.8788
 4650SOL     OW25408   3.975   0.661   4.802 -0.1960 -0.2231  0.5549
 4650SOL    HW125409   3.928   0.741   4.779  1.7124  1.4695  2.4890
 4650SOL    HW225410   3.954   0.602   4.729  0.1819  0.9411 -0.5022
 4651SOL     OW25411   3.700   4.302  11.933  0.1193  0.0221 -0.8826
 4651SOL    HW125412   3.724   4.241  12.003  0.6314  1.9571  0.6145
 4651SOL    HW225413   3.764   4.287  11.864  0.5633  1.4120 -0.7675
 4652SOL     OW25414   4.073   1.038  11.268  0.0399  0.6091  0.6776
 4652SOL    HW125415   4.033   1.006  11.348  0.0901  0.5174  0.6668
 4652SOL    HW225416   4.103   0.954  11.233 -2.2524  0.6805 -1.4654
 4653SOL     OW25417   0.638   0.233   2.129  0.1600  0.7566 -0.0554
 4653SOL    HW125418   0.708   0.169   2.131 -0.3491  0.2201  0.5594
 4653SOL    HW225419   0.613   0.238   2.222 -0.1095 -0.3830 -0.0706
 4654SOL     OW25420   2.176   0.074   5.418 -0.3555 -0.1296  0.3196
 4654SOL    HW125421   2.139   0.162   5.414  2.8187  1.0674 -2.7411
 4654SOL    HW225422   2.131   0.043   5.339 -2.0812  0.1790  1.1934
 4655SOL     OW25423   0.222   2.654  16.998  0.0408  0.3646  0.3652
 4655SOL    HW125424   0.255   2.648  17.088 -2.0746 -0.7410  1.0686
 4655SOL    HW225425   0.287   2.593  16.962 -0.4831 -0.3135  0.5720
 4656SOL     OW25426   2.259   1.462  11.836 -0.4169 -0.0852 -0.1910
 4656SOL    HW125427   2.312   1.486  11.761 -0.9228 -0.9042 -0.8167
 4656SOL    HW225428   2.326   1.417  11.887  0.3068  1.3869  0.1287
 4657SOL     OW25429   1.542   3.294  14.629 -0.1961  0.2361  0.4213
 4657SOL    HW125430   1.601   3.228  14.592 -2.1116 -0.3262 -1.6483
 4657SOL    HW225431   1.461   3.243  14.635 -0.5488  1.0645  2.4967
 4658SOL     OW25432   4.267   1.389   3.882 -0.0029 -0.4180 -0.7359
 4658SOL    HW125433   4.352   1.382   3.925 -0.4231  2.4803  0.5812
 4658SOL    HW225434   4.288   1.396   3.789  2.0129 -0.2811 -0.2681
 4659SOL     OW25435   0.114   1.209   2.730 -0.4048 -0.0608  0.0440
 4659SOL    HW125436   0.200   1.178   2.759  0.6617  0.0911 -2.9516
 4659SOL    HW225437   0.128   1.302   2.713  0.0534 -0.4333 -1.5915
 4660SOL     OW25438   4.378   0.946   5.799  0.2253 -0.0980  0.1081
 4660SOL    HW125439   4.349   0.991   5.878  0.2290  0.1952 -0.0599
 4660SOL    HW225440   4.299   0.894   5.780  0.8748 -1.0832  0.0805
 4661SOL     OW25441   0.130   1.040   5.553  0.0381 -0.1088  0.2330
 4661SOL    HW125442   0.074   1.113   5.525 -1.6889 -1.7612 -0.6485
 4661SOL    HW225443   0.194   1.044   5.482  0.1160  1.5273  0.4044
 4662SOL     OW25444   2.710   4.040  15.241  0.9295  0.1974 -0.2352
 4662SOL    HW125445   2.730   3.981  15.314  1.3948  2.1217  1.2204
 4662SOL    HW225446   2.794   4.075  15.209  1.2158 -0.3982 -0.1294
 4663SOL     OW25447   3.280   0.962  16.974 -0.2475  0.2223  0.2325
 4663SOL    HW125448   3.320   0.893  16.921 -1.8961 -0.2364 -0.4156
 4663SOL    HW225449   3.321   0.938  17.057  1.6490 -3.4799 -1.7964
 4664SOL     OW25450   1.207   0.960   6.921 -0.1782  0.3739  0.3615
 4664SOL    HW125451   1.128   0.930   6.876 -0.0541 -1.3444  1.2601
 4664SOL    HW225452   1.230   0.878   6.965  2.1296  1.6469  1.5447
 4665SOL     OW25453   3.156   3.553   4.448  0.4266 -0.0183  0.2992
 4665SOL    HW125454   3.159   3.478   4.507  0.2066 -0.7565 -0.6342
 4665SOL    HW225455   3.241   3.547   4.404  0.3072 -0.7450  0.1743
 4666SOL     OW25456   4.482   4.255   5.884  0.0681 -0.1130  0.1786
 4666SOL    HW125457   4.470   4.296   5.798  0.8796  0.8231  0.5266
 4666SOL    HW225458   4.452   4.171   5.848 -2.6582  0.5922  0.8195
 4667SOL     OW25459   2.540   3.702   4.391 -0.0383  0.6316  0.0014
 4667SOL    HW125460   2.496   3.768   4.444  0.0612 -0.4250  1.3937
 4667SOL    HW225461   2.632   3.727   4.395  0.0751  0.2766 -0.3806
 4668SOL     OW25462   4.504   2.510   8.747 -0.1096  0.1645  0.2999
 4668SOL    HW125463   4.568   2.529   8.815 -0.7338  0.5576  0.7794
 4668SOL    HW225464   4.434   2.571   8.770 -1.9703 -0.9495 -2.3575
 4669SOL     OW25465   3.407   3.789   8.700  0.3028 -0.2458  1.2227
 4669SOL    HW125466   3.371   3.822   8.618  1.3621  0.3163  0.9850
 4669SOL    HW225467   3.481   3.845   8.724 -1.1050  2.5370 -0.9041
 4670SOL     OW25468   0.718   1.967   2.368 -0.2546 -0.7302 -0.2657
 4670SOL    HW125469   0.763   1.885   2.349 -1.9905 -1.5559 -0.7906
 4670SOL    HW225470   0.642   1.957   2.311  0.8250 -2.0372 -1.4628
 4671SOL     OW25471   2.368   2.639   6.395 -0.2154 -0.0660 -0.1766
 4671SOL    HW125472   2.408   2.573   6.339  0.0846 -1.6147  1.8783
 4671SOL    HW225473   2.299   2.581   6.427 -1.3389  0.6829 -1.2457
 4672SOL     OW25474   3.344   4.079   7.798 -0.3976 -0.4854 -0.1918
 4672SOL    HW125475   3.319   4.147   7.735 -1.5427  1.4833  2.3682
 4672SOL    HW225476   3.260   4.033   7.801 -1.9862  2.3865 -0.5279
 4673SOL     OW25477   1.108   4.205   5.021  0.4029  0.2921 -0.2751
 4673SOL    HW125478   1.160   4.274   5.061  2.9068 -1.2987 -0.7535
 4673SOL    HW225479   1.020   4.229   5.048  0.6162 -0.2052  0.8443
 4674SOL     OW25480   0.281   4.567   5.599  0.0421 -0.3352 -0.1225
 4674SOL    HW125481   0.335   4.644   5.582  0.4292 -0.7383 -0.7153
 4674SOL    HW225482   0.208   4.617   5.636  0.7439  0.3265  0.3544
 4675SOL     OW25483   3.488   3.057   4.525 -0.4617 -0.0006 -0.5403
 4675SOL    HW125484   3.533   3.121   4.580  0.2321 -0.6895 -0.3104
 4675SOL    HW225485   3.460   3.122   4.460 -1.9740 -1.3892 -1.2825
 4676SOL     OW25486   2.702   0.279  12.471 -1.0037 -0.0067 -0.0816
 4676SOL    HW125487   2.778   0.301  12.526  0.3483  0.0716 -1.9648
 4676SOL    HW225488   2.712   0.184  12.477  1.5172  0.1088 -2.1429
 4677SOL     OW25489   3.461   4.532   3.287  0.2106 -0.0707  0.1644
 4677SOL    HW125490   3.533   4.501   3.232 -0.1747 -0.7854  0.0574
 4677SOL    HW225491   3.439   4.622   3.262 -0.3651  0.0253  1.0025
 4678SOL     OW25492   4.051   3.806   5.415 -0.2464 -0.8802  0.0035
 4678SOL    HW125493   4.118   3.871   5.433 -0.5064 -0.6299  0.0597
 4678SOL    HW225494   4.068   3.740   5.482 -0.1665  0.4356  1.2829
 4679SOL     OW25495   1.310   0.625   7.450  0.2140 -0.4180  0.0505
 4679SOL    HW125496   1.239   0.688   7.438 -1.3313 -2.4105 -1.3849
 4679SOL    HW225497   1.356   0.631   7.366 -0.1221 -0.0765 -0.1125
 4680SOL     OW25498   3.182   4.357   4.936  0.2217 -0.3961 -0.3642
 4680SOL    HW125499   3.202   4.271   4.972 -3.6705 -1.5463 -0.9121
 4680SOL    HW225500   3.215   4.342   4.848 -1.6601  1.1902 -1.3491
 4681SOL     OW25501   3.398   3.658   5.011 -0.2409 -0.5477  0.2454
 4681SOL    HW125502   3.303   3.671   5.002  0.0500  1.6016  0.1567
 4681SOL    HW225503   3.413   3.693   5.099  0.7759 -1.2158  0.3367
 4682SOL     OW25504   2.581   4.549   1.594 -1.0711 -0.1934  0.1961
 4682SOL    HW125505   2.599   4.460   1.623  3.1797  0.3073 -0.9566
 4682SOL    HW225506   2.587   4.590   1.680 -3.6353  1.5268 -0.4406
 4683SOL     OW25507   3.173   1.284   1.849  0.8948  0.2369  0.2827
 4683SOL    HW125508   3.144   1.285   1.757 -0.3356 -0.3688  0.6725
 4683SOL    HW225509   3.264   1.311   1.834  0.4667  2.1487  1.2021
 4684SOL     OW25510   0.528   0.217   0.312  0.3213 -0.5481 -0.1510
 4684SOL    HW125511   0.573   0.154   0.367  1.7353 -0.3283 -1.0654
 4684SOL    HW225512   0.446   0.232   0.360  0.3319 -0.6760 -0.0946
 4685SOL     OW25513   2.721   1.366   3.617  0.9479 -0.1821 -0.6888
 4685SOL    HW125514   2.638   1.318   3.618  0.7312  0.1469 -2.6766
 4685SOL    HW225515   2.682   1.450   3.639  1.4012 -0.3187  0.6525
 4686SOL     OW25516   2.300   1.929   8.554  0.1961  0.3312  0.2384
 4686SOL    HW125517   2.322   1.979   8.475 -2.5256 -0.7741 -1.2105
 4686SOL    HW225518   2.209   1.957   8.568 -0.1942 -0.3322 -0.9977
 4687SOL     OW25519   0.275   3.279   8.405  0.1472  0.6617 -0.7240
 4687SOL    HW125520   0.283   3.304   8.314 -1.9641 -0.8304 -1.3308
 4687SOL    HW225521   0.186   3.246   8.396 -1.2380  4.0600  0.4789
 4688SOL     OW25522   1.876   2.847   9.358  0.1494 -0.3591  0.2874
 4688SOL    HW125523   1.873   2.875   9.449 -4.7905 -2.1043  0.6105
 4688SOL    HW225524   1.791   2.805   9.346  1.2835 -1.9481 -2.2880
 4689SOL     OW25525   2.798   3.848   5.423  0.1478  0.5992  0.3792
 4689SOL    HW125526   2.831   3.866   5.511 -0.2019 -0.7813  0.7925
 4689SOL    HW225527   2.870   3.796   5.387 -1.3927 -0.8288 -0.6044
 4690SOL     OW25528   0.097   1.061   3.431 -0.3828  0.0363  0.3243
 4690SOL    HW125529   0.038   1.084   3.359 -2.2104 -0.0086  1.8224
 4690SOL    HW225530   0.103   0.966   3.425 -1.1485 -0.1469  2.2842
 4691SOL     OW25531   4.169   0.791  11.175  0.0294  0.2389  0.3515
 4691SOL    HW125532   4.234   0.729  11.208 -0.6411 -0.2363  0.7648
 4691SOL    HW225533   4.226   0.848  11.123  2.4913 -0.7596  1.9491
 4692SOL     OW25534   2.246   1.120   5.239  0.0676 -0.0976 -0.2921
 4692SOL    HW125535   2.157   1.100   5.210 -0.1359  0.9334 -0.3641
 4692SOL    HW225536   2.235   1.129   5.333  0.2442 -0.1281 -0.2685
 4693SOL     OW25537   1.697   0.609  16.516  0.1760 -0.5647  0.1769
 4693SOL    HW125538   1.689   0.518  16.545  2.3579 -0.9055 -0.2768
 4693SOL    HW225539   1.792   0.613  16.508  0.2814  1.1466  2.1691
 4694SOL     OW25540   3.669   1.183  14.091  0.3520  0.1984 -0.2265
 4694SOL    HW125541   3.713   1.267  14.085  0.9609 -0.1845 -0.9924
 4694SOL    HW225542   3.744   1.137  14.055 -0.5160 -1.4413  0.0502
 4695SOL     OW25543   2.243   3.716   3.991  0.1579 -0.2776  0.0196
 4695SOL    HW125544   2.171   3.779   3.987 -0.4298 -1.0007 -0.7920
 4695SOL    HW225545   2.268   3.707   4.083 -1.2246  0.6368  0.4859
 4696SOL     OW25546   0.834   3.311   6.568  0.1573  0.1457 -0.0043
 4696SOL    HW125547   0.808   3.268   6.649  2.4496 -1.8823 -0.3411
 4696SOL    HW225548   0.904   3.368   6.601  0.4862 -1.5909  2.3604
 4697SOL     OW25549   4.608   4.592  14.182  0.1911  0.2535 -0.0842
 4697SOL    HW125550   4.600   4.653  14.108 -2.4775 -1.1803 -0.9885
 4697SOL    HW225551   4.515   4.581  14.202  0.5741 -0.9051  1.0755
 4698SOL     OW25552   4.581   3.930   9.455 -0.4395  0.3399 -0.9114
 4698SOL    HW125553   4.664   3.963   9.422 -0.5733  1.0131 -0.5781
 4698SOL    HW225554   4.590   3.836   9.469 -0.8907  0.4030 -0.2021
 4699SOL     OW25555   0.455   1.115  16.475 -0.1663  0.2920  0.1339
 4699SOL    HW125556   0.489   1.167  16.402 -0.3847 -1.7876 -1.4266
 4699SOL    HW225557   0.537   1.070  16.495 -0.0642  0.8143  0.9015
 4700SOL     OW25558   1.824   2.842   4.211  0.4505 -0.3582  0.2562
 4700SOL    HW125559   1.853   2.931   4.230  1.5984 -0.3275 -1.5669
 4700SOL    HW225560   1.740   2.844   4.256  0.2857  0.5523 -0.0976
 4701SOL     OW25561   1.716   3.499   7.912  0.3871 -0.5999  0.7544
 4701SOL    HW125562   1.705   3.563   7.982  0.7366  0.4534 -0.1579
 4701SOL    HW225563   1.781   3.541   7.857 -0.0413 -0.8711  0.0473
 4702SOL     OW25564   3.080   3.835   3.907 -0.0691 -0.5742  0.5403
 4702SOL    HW125565   3.142   3.767   3.935 -0.3708 -1.2440 -0.4301
 4702SOL    HW225566   3.002   3.803   3.953  0.6879  0.3659  2.5012
 4703SOL     OW25567   0.963   2.483  15.762 -0.1126  0.2431  0.1331
 4703SOL    HW125568   0.886   2.431  15.740  0.6121 -1.5254  1.7741
 4703SOL    HW225569   0.939   2.500  15.853  0.1409  2.4276 -0.2142
 4704SOL     OW25570   1.695   3.460   7.065  0.8026  0.3367  0.0227
 4704SOL    HW125571   1.707   3.502   7.150  1.7073  1.4978 -0.6946
 4704SOL    HW225572   1.751   3.383   7.058 -2.1038 -1.4628 -3.4880
 4705SOL     OW25573   1.459   2.802   3.460 -0.1924 -0.1121 -0.6974
 4705SOL    HW125574   1.437   2.710   3.475  1.4888 -0.6062 -1.3022
 4705SOL    HW225575   1.553   2.793   3.474 -0.3284  1.1979  1.0647
 4706SOL     OW25576   3.634   0.784   8.197  0.3605  0.0476 -0.6351
 4706SOL    HW125577   3.579   0.846   8.244 -0.6132  0.0325 -1.7432
 4706SOL    HW225578   3.717   0.772   8.242  0.5590 -1.1620 -1.3151
 4707SOL     OW25579   4.418   4.549   4.887 -0.4084  0.0437 -0.1826
 4707SOL    HW125580   4.432   4.527   4.795 -2.6090 -1.5408 -0.1250
 4707SOL    HW225581   4.487   4.615   4.887  0.3883 -0.7865  0.9916
 4708SOL     OW25582   4.285   2.400   7.021  0.1438  0.3377  0.1014
 4708SOL    HW125583   4.220   2.369   6.959  0.5197  0.7425 -0.4873
 4708SOL    HW225584   4.247   2.484   7.047 -1.2520 -0.3046  0.1214
 4709SOL     OW25585   1.086   0.016  14.156  0.6186 -0.9230  0.8489
 4709SOL    HW125586   1.156   4.713  14.097  0.7907 -0.7016  0.9582
 4709SOL    HW225587   1.052   0.095  14.114 -2.6707 -2.5981  0.3332
 4710SOL     OW25588   0.652   0.006   6.195 -0.3711 -0.6256  0.1805
 4710SOL    HW125589   0.657   0.084   6.251 -0.6326  0.6174 -1.5100
 4710SOL    HW225590   0.616   0.045   6.115 -0.0174  1.0549  0.8369
 4711SOL     OW25591   4.118   1.175   1.095 -0.5805  0.4433 -0.0965
 4711SOL    HW125592   4.160   1.213   1.017  0.9344  0.2188  0.6230
 4711SOL    HW225593   4.097   1.087   1.065  1.5612  0.4237 -1.5670
 4712SOL     OW25594   3.762   1.553   0.269 -0.5461  0.1803  0.5448
 4712SOL    HW125595   3.847   1.566   0.312  0.2607  0.2190 -1.0679
 4712SOL    HW225596   3.742   1.470   0.312 -1.4255 -0.0309 -0.2719
 4713SOL     OW25597   0.947   4.421   7.789 -0.1667 -0.0681 -0.5363
 4713SOL    HW125598   0.900   4.406   7.871  1.4758  0.1844  0.4501
 4713SOL    HW225599   0.880   4.460   7.733  0.2997 -0.7067 -1.5484
 4714SOL     OW25600   2.158   3.774  17.388 -0.0452  0.3951  0.4501
 4714SOL    HW125601   2.183   3.853  17.341  0.1372  1.4483  2.3168
 4714SOL    HW225602   2.222   3.775  17.459 -0.3551 -0.9870  0.7509
 4715SOL     OW25603   4.392   1.714  13.652 -0.4385  0.3304 -0.2636
 4715SOL    HW125604   4.358   1.744  13.567  1.7060 -2.2094 -1.9890
 4715SOL    HW225605   4.404   1.626  13.617 -2.1214 -0.5363  1.3596
 4716SOL     OW25606   3.075   1.380   4.070  0.0733 -0.2955 -0.1270
 4716SOL    HW125607   3.003   1.366   4.010 -0.1445 -0.4827  0.1762
 4716SOL    HW225608   3.127   1.301   4.052 -1.9325 -1.4408 -0.7961
 4717SOL     OW25609   0.280   4.067   8.589 -0.1441  0.4945  0.2759
 4717SOL    HW125610   0.357   4.021   8.556 -0.1915  1.0577 -0.6084
 4717SOL    HW225611   0.224   3.992   8.610 -0.6881  0.7835 -0.1452
 4718SOL     OW25612   1.733   4.192   8.737 -0.3699  0.0597  0.3947
 4718SOL    HW125613   1.802   4.125   8.742 -1.6332 -1.1776  1.5411
 4718SOL    HW225614   1.667   4.141   8.691  1.5983 -1.1885 -1.0715
 4719SOL     OW25615   2.237   1.665  10.559  0.2980  0.1038 -0.0103
 4719SOL    HW125616   2.152   1.672  10.602  0.4236 -0.9951  0.4016
 4719SOL    HW225617   2.275   1.597  10.615 -0.6084  0.4011  0.9696
 4720SOL     OW25618   2.442   1.972   9.365 -0.6277 -0.4628 -0.4737
 4720SOL    HW125619   2.371   2.036   9.367  2.0231  2.3869  2.1008
 4720SOL    HW225620   2.407   1.899   9.417 -0.3175  1.2837  2.1674
 4721SOL     OW25621   1.727   4.666   3.340  0.0996 -0.5566  0.0722
 4721SOL    HW125622   1.675   4.630   3.268 -0.4716 -2.0479  1.2373
 4721SOL    HW225623   1.805   4.612   3.333 -0.7539 -1.7950  0.0401
 4722SOL     OW25624   3.868   0.877   7.621  0.2496  0.3803 -0.7015
 4722SOL    HW125625   3.862   0.953   7.680 -0.7690 -0.1697 -0.0985
 4722SOL    HW225626   3.785   0.884   7.573 -0.7315  0.3426  0.9611
 4723SOL     OW25627   0.864   1.468   4.454 -0.0489  0.0734 -0.1283
 4723SOL    HW125628   0.901   1.439   4.537 -0.8022  1.0495  0.5482
 4723SOL    HW225629   0.807   1.395   4.430  0.1349  0.3956 -1.5179
 4724SOL     OW25630   4.495   1.179  17.348 -0.3684  0.1022 -0.0982
 4724SOL    HW125631   4.577   1.185  17.300  0.1064 -0.7916  0.6251
 4724SOL    HW225632   4.436   1.178  17.272 -0.7655  0.9400  0.1924
 4725SOL     OW25633   1.167   4.616   7.214 -0.1963 -0.9798 -0.0537
 4725SOL    HW125634   1.120   4.596   7.133 -0.7808 -0.6663  0.2026
 4725SOL    HW225635   1.227   4.688   7.196 -0.8865 -0.0396  1.4053
 4726SOL     OW25636   3.835   4.312   0.156 -0.3256  0.3610  0.1486
 4726SOL    HW125637   3.827   4.390   0.210 -0.0396  0.4363  0.0817
 4726SOL    HW225638   3.851   4.242   0.219 -4.0889  0.6370  1.4172
 4727SOL     OW25639   3.570   0.007  17.631  0.1487  0.7318  0.0099
 4727SOL    HW125640   3.599   4.669   0.006  1.0997 -0.8286 -1.7972
 4727SOL    HW225641   3.493   0.049  17.670 -1.2237 -2.3076  0.5958
 4728SOL     OW25642   4.428   2.507   7.422  0.3999 -0.1678  0.3496
 4728SOL    HW125643   4.340   2.535   7.449 -1.4783 -1.2666 -4.4532
 4728SOL    HW225644   4.425   2.413   7.442  1.9473 -0.3987 -0.5076
 4729SOL     OW25645   3.233   1.621   1.311 -1.0154  0.1923  0.3013
 4729SOL    HW125646   3.211   1.670   1.390 -0.9133  2.1603 -0.8986
 4729SOL    HW225647   3.199   1.535   1.335 -0.6100 -0.0783 -0.1016
 4730SOL     OW25648   4.321   2.542   3.556 -0.8981 -0.0017  0.4341
 4730SOL    HW125649   4.302   2.588   3.638 -2.4144 -0.2405  0.2315
 4730SOL    HW225650   4.277   2.457   3.562 -1.0395  0.1233  1.1518
 4731SOL     OW25651   4.406   2.818   6.232  0.1417 -0.0832 -0.1391
 4731SOL    HW125652   4.443   2.890   6.282 -3.0211  1.4672 -0.0138
 4731SOL    HW225653   4.403   2.861   6.147  1.4043  1.0049  0.3794
 4732SOL     OW25654   4.008   3.460   4.469  0.2227 -0.2083 -0.3171
 4732SOL    HW125655   3.916   3.479   4.487 -0.2514 -1.0264 -1.8922
 4732SOL    HW225656   4.051   3.541   4.496 -0.1132 -0.6988  1.6711
 4733SOL     OW25657   0.700   2.709   1.757 -0.1824  0.2191 -0.0144
 4733SOL    HW125658   0.639   2.643   1.790 -0.9222  0.7482 -0.3096
 4733SOL    HW225659   0.694   2.695   1.663  0.4951  0.3661 -0.0766
 4734SOL     OW25660   3.033   3.439   3.194 -0.8916 -0.5846  0.6907
 4734SOL    HW125661   2.954   3.387   3.206 -1.4924  0.0708 -0.4913
 4734SOL    HW225662   3.025   3.502   3.265 -0.8042  1.0416 -0.7529
 4735SOL     OW25663   3.650   1.854  10.914  0.6940 -1.0850  0.3007
 4735SOL    HW125664   3.573   1.818  10.868  0.8551 -1.8300  0.6077
 4735SOL    HW225665   3.664   1.934  10.863 -0.9237 -1.5574 -0.9192
 4736SOL     OW25666   2.048   0.895   8.666  0.6521  0.3681 -0.3373
 4736SOL    HW125667   2.091   0.890   8.752 -0.2952 -1.7471  0.0199
 4736SOL    HW225668   1.985   0.965   8.682 -1.1485 -1.4455  0.4746
 4737SOL     OW25669   2.697   3.445   3.700  0.3007  0.3518  0.1186
 4737SOL    HW125670   2.730   3.370   3.650  0.9474  0.3468  0.5504
 4737SOL    HW225671   2.602   3.436   3.694  0.2200  1.5263 -0.4177
 4738SOL     OW25672   1.947   0.662   4.614  0.4136  0.4989  0.5747
 4738SOL    HW125673   1.886   0.736   4.620 -0.7299 -0.6148  2.6122
 4738SOL    HW225674   1.928   0.624   4.699  0.6980  2.1892  1.3809
 4739SOL     OW25675   3.480   0.857   6.029  0.7633  0.7975  0.1046
 4739SOL    HW125676   3.410   0.923   6.025 -1.2611 -1.3658 -0.3883
 4739SOL    HW225677   3.430   0.776   6.023  2.1037 -0.0188  0.0313
 4740SOL     OW25678   4.615   1.305   7.377 -0.3290 -0.2470  0.5254
 4740SOL    HW125679   4.705   1.306   7.409  0.2932 -0.1209 -1.2015
 4740SOL    HW225680   4.620   1.217   7.339 -1.5501 -0.2526  0.3878
 4741SOL     OW25681   3.935   0.869   7.113  0.0793  0.0246 -0.5937
 4741SOL    HW125682   3.994   0.802   7.080  0.3552 -0.5006  0.9466
 4741SOL    HW225683   3.937   0.849   7.207 -1.4195 -2.4569 -1.1008
 4742SOL     OW25684   3.754   1.401   6.989 -0.1555 -0.1856 -0.1068
 4742SOL    HW125685   3.841   1.360   6.990  0.4870  1.1637  0.3749
 4742SOL    HW225686   3.759   1.444   7.075 -0.0803  1.7046 -1.0515
 4743SOL     OW25687   2.190   3.626   7.595 -0.4473  0.2281  0.2593
 4743SOL    HW125688   2.233   3.654   7.676  3.2840 -0.1819 -1.6241
 4743SOL    HW225689   2.138   3.704   7.573 -1.1407 -0.7439 -1.5440
 4744SOL     OW25690   2.370   3.592  11.539 -0.1505  0.2100 -0.4449
 4744SOL    HW125691   2.433   3.663  11.548  0.9909 -0.7509 -0.8719
 4744SOL    HW225692   2.436   3.523  11.527 -0.1857  0.0336  0.3545
 4745SOL     OW25693   1.985   0.589  16.789 -0.5297  0.1091  0.0347
 4745SOL    HW125694   1.980   0.506  16.743  1.5879 -1.5436  2.7843
 4745SOL    HW225695   1.894   0.618  16.789 -0.4789  0.2815  1.2885
 4746SOL     OW25696   1.317   1.090   5.888  0.4350  0.3697 -0.1549
 4746SOL    HW125697   1.405   1.105   5.854  0.7275  1.5839  1.1239
 4746SOL    HW225698   1.316   0.996   5.903 -0.6703  0.4989  0.5803
 4747SOL     OW25699   2.292   3.247   3.215  0.0187  0.0864 -0.0673
 4747SOL    HW125700   2.258   3.329   3.179  1.8764  0.0415 -1.9079
 4747SOL    HW225701   2.301   3.196   3.134 -2.6384 -0.5064  0.0101
 4748SOL     OW25702   1.308   2.379   6.863 -0.8760  0.1597  0.4231
 4748SOL    HW125703   1.300   2.283   6.866 -1.4616  0.2525  1.7459
 4748SOL    HW225704   1.217   2.410   6.862 -0.8999  0.0513 -0.5256
 4749SOL     OW25705   2.714   0.738  17.395  0.3150  0.7529 -0.0167
 4749SOL    HW125706   2.717   0.762  17.303 -1.4952  1.3757  0.0894
 4749SOL    HW225707   2.774   0.805  17.429 -0.2689  0.7271  1.0536
 4750SOL     OW25708   3.910   4.379   8.654 -0.4647  0.0172  0.2337
 4750SOL    HW125709   3.890   4.435   8.729  2.8290 -1.3292  2.1235
 4750SOL    HW225710   3.875   4.296   8.687  1.7642 -0.8075  0.4880
 4751SOL     OW25711   3.969   2.320   9.804 -0.1335 -0.1975 -0.2178
 4751SOL    HW125712   3.967   2.278   9.890  0.1172  1.5583  0.6670
 4751SOL    HW225713   3.893   2.375   9.823  0.9603  1.3317 -0.1620
 4752SOL     OW25714   2.538   3.725   1.953  0.0413  0.5016 -0.2804
 4752SOL    HW125715   2.540   3.820   1.947 -1.6021  0.6162  0.8531
 4752SOL    HW225716   2.498   3.705   2.038  0.8086 -0.1423 -0.0697
 4753SOL     OW25717   0.555   1.300  11.464  0.4126 -0.0656 -0.1196
 4753SOL    HW125718   0.536   1.392  11.484  0.9144  0.2301 -0.9959
 4753SOL    HW225719   0.618   1.314  11.393  0.7886  0.1605  0.2536
 4754SOL     OW25720   2.852   4.477   3.327  0.1276  0.4912 -0.1695
 4754SOL    HW125721   2.823   4.490   3.418  1.7261  0.0123  0.4150
 4754SOL    HW225722   2.927   4.535   3.315  0.7968 -0.4375 -0.4985
 4755SOL     OW25723   1.470   3.418  13.976 -0.0309 -0.4030  0.5841
 4755SOL    HW125724   1.493   3.327  13.992 -0.6323 -0.3800  1.5925
 4755SOL    HW225725   1.391   3.428  14.030  1.4889  0.1788  2.7182
 4756SOL     OW25726   0.027   3.869   7.454 -0.2606 -0.2355  0.0062
 4756SOL    HW125727   0.105   3.917   7.425 -1.0971 -0.7266 -3.0409
 4756SOL    HW225728   0.003   3.917   7.533 -2.9075 -1.7327  0.1068
 4757SOL     OW25729   0.545   2.945   7.506  0.4665 -0.2445  0.4443
 4757SOL    HW125730   0.579   2.944   7.595  0.5829  0.2015  0.4034
 4757SOL    HW225731   0.483   2.873   7.520 -0.5931  1.0393  2.3493
 4758SOL     OW25732   3.782   3.913   4.575 -0.0067 -0.2486 -0.7154
 4758SOL    HW125733   3.743   4.000   4.585 -2.2551 -1.2239 -1.1154
 4758SOL    HW225734   3.835   3.928   4.653 -1.0154 -1.4708  0.1928
 4759SOL     OW25735   0.945   2.627   5.388 -0.3581  0.3073  0.0516
 4759SOL    HW125736   0.972   2.571   5.315  0.0099  0.7392 -0.1373
 4759SOL    HW225737   0.935   2.713   5.348  0.7341  0.5458  0.3128
 4760SOL     OW25738   4.423   0.861  16.318 -0.3958  0.3858  0.6282
 4760SOL    HW125739   4.455   0.857  16.228 -0.9819  0.4328  0.4174
 4760SOL    HW225740   4.452   0.950  16.341 -1.5362  1.9566 -4.0286
 4761SOL     OW25741   3.035   2.494  12.027  0.2230 -0.0321  0.0905
 4761SOL    HW125742   3.037   2.587  12.007 -0.5313 -0.2619 -1.0217
 4761SOL    HW225743   3.035   2.453  11.940 -2.2371 -0.1415  0.1542
 4762SOL     OW25744   4.068   2.387   5.645  0.2654  0.3005  0.3410
 4762SOL    HW125745   4.053   2.352   5.557 -0.1600  1.9680 -0.2544
 4762SOL    HW225746   3.993   2.338   5.680  0.8982 -0.8914  0.0349
 4763SOL     OW25747   4.394   3.469   5.024  0.0141  0.1524  0.2027
 4763SOL    HW125748   4.419   3.560   5.012  2.1696 -0.7394 -1.9586
 4763SOL    HW225749   4.372   3.440   4.936 -0.9633  1.7615 -0.0882
 4764SOL     OW25750   1.570   1.769   3.014 -0.3984 -0.1945 -0.0398
 4764SOL    HW125751   1.613   1.796   3.095 -1.2764  2.2879 -0.4037
 4764SOL    HW225752   1.643   1.785   2.954  1.5074  0.9818  2.5991
 4765SOL     OW25753   0.392   1.615  12.265  0.0962  0.5663  0.5535
 4765SOL    HW125754   0.368   1.638  12.355  0.4569 -0.9293  1.0436
 4765SOL    HW225755   0.356   1.526  12.263  0.4322  0.4608 -0.7386
 4766SOL     OW25756   0.317   2.509   5.621  0.6080 -0.1612  0.2175
 4766SOL    HW125757   0.233   2.514   5.666  0.0897 -3.5222 -0.3663
 4766SOL    HW225758   0.334   2.419   5.648  1.5991 -0.4088 -1.1980
 4767SOL     OW25759   2.209   4.456  17.226 -0.5327  0.0137  0.0741
 4767SOL    HW125760   2.132   4.476  17.279 -1.7220 -1.2839 -1.1899
 4767SOL    HW225761   2.279   4.451  17.292 -0.1512  0.9706 -0.2559
 4768SOL     OW25762   4.034   2.771  17.644  0.0763 -0.4509 -0.1913
 4768SOL    HW125763   4.067   2.796   0.038  1.9511 -0.0699 -0.9989
 4768SOL    HW225764   4.002   2.859  17.621  0.1043 -0.0294  1.3664
 4769SOL     OW25765   2.903   3.790   2.010 -0.1002  0.5100 -0.5030
 4769SOL    HW125766   2.901   3.745   2.095 -0.1393 -1.2449 -1.4428
 4769SOL    HW225767   2.996   3.809   2.006  0.4204 -1.2135  3.1038
 4770SOL     OW25768   2.507   1.907  13.596 -0.0315  0.1771 -0.4805
 4770SOL    HW125769   2.479   1.818  13.575 -2.2171  0.5423  0.9315
 4770SOL    HW225770   2.508   1.903  13.692  0.8282 -1.6456 -0.5720
 4771SOL     OW25771   0.824   3.375  16.006 -0.1028  0.0190 -0.0263
 4771SOL    HW125772   0.846   3.407  16.093 -0.6887 -1.6462  0.7420
 4771SOL    HW225773   0.785   3.453  15.966 -0.1963  0.4463  0.9004
 4772SOL     OW25774   4.056   3.976   4.124 -0.0719  0.4582 -0.0838
 4772SOL    HW125775   3.983   4.024   4.085  0.8002 -0.8065 -3.2055
 4772SOL    HW225776   4.007   3.935   4.195 -0.9243  0.8433 -0.4483
 4773SOL     OW25777   2.932   1.083   3.828  0.1941  0.5258  0.4685
 4773SOL    HW125778   2.839   1.061   3.837  0.1414  0.2576 -0.7472
 4773SOL    HW225779   2.961   1.055   3.741  1.3206  0.9098  0.7214
 4774SOL     OW25780   3.834   3.002   1.615 -0.0014 -0.9359  0.3245
 4774SOL    HW125781   3.836   3.033   1.525 -0.5120 -1.5445  0.1053
 4774SOL    HW225782   3.913   3.045   1.649 -1.5199  2.2203 -0.1414
 4775SOL     OW25783   0.296   1.269  16.952 -0.0113 -0.7154 -0.6605
 4775SOL    HW125784   0.367   1.308  16.900 -0.9001  0.2071 -1.1997
 4775SOL    HW225785   0.221   1.323  16.928  0.6586  1.1922  1.5085
 4776SOL     OW25786   4.327   1.922   4.444 -0.0676  0.0156  0.4836
 4776SOL    HW125787   4.289   2.009   4.431 -0.0037 -0.1752 -1.0201
 4776SOL    HW225788   4.407   1.927   4.391 -1.3531 -3.3084 -1.7236
 4777SOL     OW25789   1.708   4.250   7.249  0.1527 -0.1862  0.4162
 4777SOL    HW125790   1.742   4.302   7.176  2.3381 -2.3437 -0.0965
 4777SOL    HW225791   1.753   4.168   7.228  2.0150  0.8259  0.4931
 4778SOL     OW25792   4.389   0.349  16.438 -0.0557 -0.2390 -0.0705
 4778SOL    HW125793   4.294   0.354  16.443 -0.0287  0.6830 -0.4135
 4778SOL    HW225794   4.401   0.263  16.397  0.5962 -0.2653  0.1712
 4779SOL     OW25795   4.564   1.375  14.614  0.3955  0.6497  0.5095
 4779SOL    HW125796   4.542   1.312  14.682  2.2266  0.2311  0.7006
 4779SOL    HW225797   4.558   1.463  14.652 -1.2939  1.9212 -2.6833
 4780SOL     OW25798   4.175   1.659  13.834  0.3963 -0.6574  0.0091
 4780SOL    HW125799   4.269   1.651  13.821  0.2533  1.9748 -2.9633
 4780SOL    HW225800   4.142   1.652  13.744 -1.3766  2.0193  0.4120
 4781SOL     OW25801   2.331   1.044   8.298 -0.1509 -0.5365 -0.8731
 4781SOL    HW125802   2.267   1.056   8.369 -1.1144  0.1833 -1.8529
 4781SOL    HW225803   2.274   0.997   8.238 -1.3879 -0.8543  0.5519
 4782SOL     OW25804   1.448   0.032   5.780 -0.1328 -0.2376 -0.1994
 4782SOL    HW125805   1.526   0.082   5.802 -1.0100 -0.1263  2.5855
 4782SOL    HW225806   1.408   0.025   5.867  0.2783  0.4624  0.0421
 4783SOL     OW25807   0.416   3.216  15.110 -0.4902 -0.0930 -0.1519
 4783SOL    HW125808   0.373   3.147  15.159  0.3515  0.4210  1.3006
 4783SOL    HW225809   0.416   3.176  15.023  0.2419 -0.6982  0.1208
 4784SOL     OW25810   1.376   0.696   4.736  0.1548  0.6122  0.2958
 4784SOL    HW125811   1.398   0.776   4.689  0.3555 -0.1060 -0.8301
 4784SOL    HW225812   1.364   0.636   4.662 -1.0131  1.2824 -0.0572
 4785SOL     OW25813   2.534   2.966   8.888  0.2375 -0.1222 -0.4342
 4785SOL    HW125814   2.610   2.915   8.860 -0.0817 -1.7492  1.6725
 4785SOL    HW225815   2.578   3.049   8.907 -2.7195  0.8238  2.3500
 4786SOL     OW25816   2.359   1.333  16.477 -0.1858 -0.9927 -0.1916
 4786SOL    HW125817   2.337   1.412  16.427 -1.7450 -2.2985 -1.5616
 4786SOL    HW225818   2.280   1.280  16.468 -1.9386  1.5297  0.2701
 4787SOL     OW25819   0.682   0.985  16.511  0.2964  0.2825  0.3650
 4787SOL    HW125820   0.719   0.899  16.530  1.0458  0.3257 -0.8506
 4787SOL    HW225821   0.760   1.041  16.511 -1.4507  2.6954 -2.5576
 4788SOL     OW25822   1.818   2.884  17.364  0.2368 -0.3333  0.3752
 4788SOL    HW125823   1.775   2.950  17.311 -0.2164  0.6489  1.9759
 4788SOL    HW225824   1.795   2.920  17.450  1.8097  0.3496  0.5182
 4789SOL     OW25825   0.288   3.036   4.720 -0.1512  0.1407  0.9305
 4789SOL    HW125826   0.322   3.120   4.689  0.5692 -0.1167  1.0066
 4789SOL    HW225827   0.369   2.987   4.706  0.9830  2.0945  0.6299
 4790SOL     OW25828   2.607   4.069   4.241  0.1856 -0.1532 -0.0350
 4790SOL    HW125829   2.543   4.128   4.200  0.8007  1.2753  1.0497
 4790SOL    HW225830   2.562   4.020   4.309  0.3953  2.2023  1.8271
 4791SOL     OW25831   3.908   2.424  11.134  0.3394  0.7254 -0.2208
 4791SOL    HW125832   3.960   2.496  11.098 -0.9404  1.4468 -0.6430
 4791SOL    HW225833   3.917   2.445  11.227  1.1818 -0.7152  0.0151
 4792SOL     OW25834   4.530   2.816   0.583  1.0306 -0.7499  0.4357
 4792SOL    HW125835   4.478   2.835   0.506  1.0723 -1.0675  0.3277
 4792SOL    HW225836   4.473   2.848   0.653  0.4610 -2.5333  0.7795
 4793SOL     OW25837   3.808   1.214  15.064 -0.9116 -0.2161 -0.0895
 4793SOL    HW125838   3.870   1.141  15.060  2.5653  2.5365  3.0596
 4793SOL    HW225839   3.755   1.207  14.985 -1.6650  1.2534  0.2802
 4794SOL     OW25840   2.081   2.800   5.985  0.8630  0.2642  0.8204
 4794SOL    HW125841   2.092   2.839   6.072 -0.8740 -0.6782  1.4723
 4794SOL    HW225842   2.001   2.747   5.986 -0.3109  2.0138 -1.3350
 4795SOL     OW25843   0.632   0.001   4.348  0.1313  0.7559 -0.3305
 4795SOL    HW125844   0.586   4.664   4.407  0.5730  1.9838  1.2853
 4795SOL    HW225845   0.555   0.008   4.292 -1.3621  1.7465  1.8342
 4796SOL     OW25846   0.874   3.867  11.034 -0.1881  0.3246  0.5176
 4796SOL    HW125847   0.921   3.857  10.951  0.2819 -0.3319  0.8579
 4796SOL    HW225848   0.791   3.902  11.001 -0.6232 -1.5211 -0.3711
 4797SOL     OW25849   0.325   4.231   9.543  0.0456 -0.2604  0.0833
 4797SOL    HW125850   0.365   4.190   9.619 -0.8078  1.2413  1.3401
 4797SOL    HW225851   0.353   4.175   9.471  2.0987  1.6936 -0.6606
 4798SOL     OW25852   4.583   0.774  16.686 -0.0568  0.0796 -0.2753
 4798SOL    HW125853   4.630   0.788  16.768  1.1204  0.4397 -1.0046
 4798SOL    HW225854   4.520   0.712  16.722 -0.8227 -0.4346 -2.5044
 4799SOL     OW25855   0.497   3.326   6.886 -0.2836  0.5300  0.3717
 4799SOL    HW125856   0.588   3.313   6.858 -0.1540  0.7006  0.7130
 4799SOL    HW225857   0.495   3.254   6.949  1.2574 -0.5790 -0.8530
 4800SOL     OW25858   2.394   1.686   3.538 -0.1858 -0.2252  0.1901
 4800SOL    HW125859   2.357   1.599   3.551  1.3431 -0.6970  1.3292
 4800SOL    HW225860   2.482   1.666   3.507 -1.0827  0.0431 -2.5553
 4801SOL     OW25861   4.080   0.975   5.425 -0.2305 -0.7717 -0.0155
 4801SOL    HW125862   4.160   0.946   5.382  0.2256  1.8623 -0.9197
 4801SOL    HW225863   4.028   0.895   5.430 -0.1331 -0.8718 -0.6925
 4802SOL     OW25864   1.876   0.377  10.277 -0.0230 -0.6577  0.4171
 4802SOL    HW125865   1.926   0.449  10.314  0.0191  0.4313 -1.8044
 4802SOL    HW225866   1.883   0.386  10.182 -0.0419  1.6664  0.6484
 4803SOL     OW25867   3.338   0.686   8.692 -0.6550  0.0570 -0.0277
 4803SOL    HW125868   3.429   0.681   8.721  0.1367 -3.7381 -3.1657
 4803SOL    HW225869   3.338   0.599   8.652 -0.9587  1.0233 -2.1242
 4804SOL     OW25870   4.377   3.074   8.369 -0.1422  0.2560  0.0841
 4804SOL    HW125871   4.325   2.996   8.351  0.3577 -0.4484  1.6302
 4804SOL    HW225872   4.372   3.126   8.289 -2.1683 -1.5805 -0.9607
 4805SOL     OW25873   3.557   0.439   4.711 -0.0997 -0.4539 -0.6958
 4805SOL    HW125874   3.543   0.355   4.756 -2.3616 -0.2938 -1.0970
 4805SOL    HW225875   3.478   0.434   4.657 -0.7300 -2.5115  0.3973
 4806SOL     OW25876   1.291   1.458   6.467  0.6354  0.0756 -0.2260
 4806SOL    HW125877   1.244   1.379   6.441  1.6009 -0.7770  0.6245
 4806SOL    HW225878   1.233   1.529   6.439 -1.4357 -0.9878  1.3679
 4807SOL     OW25879   4.330   1.443   2.988  0.6454 -0.1257  0.3257
 4807SOL    HW125880   4.268   1.440   3.060 -0.8595  2.3442 -0.8766
 4807SOL    HW225881   4.286   1.459   2.904  2.2554 -0.8090 -0.6528
 4808SOL     OW25882   4.650   0.700   6.332  0.1079 -0.4684  0.4822
 4808SOL    HW125883   4.623   0.608   6.327 -1.1838 -0.0448 -0.3745
 4808SOL    HW225884   4.602   0.735   6.257 -1.2520 -0.3406  1.4100
 4809SOL     OW25885   2.660   1.116   5.978 -0.1125  0.1631 -0.5161
 4809SOL    HW125886   2.688   1.195   5.931 -1.8919  0.9125 -0.3012
 4809SOL    HW225887   2.717   1.129   6.055 -0.8721  0.6265 -0.0311
 4810SOL     OW25888   2.435   4.641   9.089 -0.1947  0.1297 -0.0214
 4810SOL    HW125889   2.395   4.675   9.009  1.0578  0.0605 -0.6811
 4810SOL    HW225890   2.479   4.720   9.120  1.7457 -0.7304 -0.5850
 4811SOL     OW25891   0.076   3.649  10.560  0.1640 -0.1356  0.0228
 4811SOL    HW125892   0.038   3.728  10.522  1.3762 -0.1798 -1.2640
 4811SOL    HW225893   0.067   3.664  10.654  1.0182 -1.0548  0.2563
 4812SOL     OW25894   0.473   1.708   8.088  0.4254 -0.1823 -0.3568
 4812SOL    HW125895   0.386   1.688   8.055 -0.7113  0.9088  1.9770
 4812SOL    HW225896   0.512   1.621   8.078  1.1162  0.0404  0.4084
 4813SOL     OW25897   1.122   1.201   4.220 -0.1806  0.0359 -0.5339
 4813SOL    HW125898   1.066   1.198   4.143 -1.6330  0.8592  0.4828
 4813SOL    HW225899   1.133   1.108   4.238  0.4834 -0.2303 -2.3716
 4814SOL     OW25900   0.599   2.992  17.495 -0.0107 -0.2407  0.2096
 4814SOL    HW125901   0.559   3.052  17.433 -1.3641 -1.9759 -0.6005
 4814SOL    HW225902   0.689   3.024  17.502 -0.1805  0.1279  0.6928
 4815SOL     OW25903   1.546   1.514  16.021 -0.0096  0.0129 -0.0499
 4815SOL    HW125904   1.519   1.444  15.962  2.4656 -0.8460 -0.1783
 4815SOL    HW225905   1.583   1.575  15.957 -1.5431 -0.8998 -1.7958
 4816SOL     OW25906   4.698   0.750  12.852 -0.3296  0.4362  0.4212
 4816SOL    HW125907   4.613   0.734  12.893  0.4628  1.6968  2.5049
 4816SOL    HW225908   0.027   0.782  12.926  0.2056  0.4730  0.0367
 4817SOL     OW25909   2.478   1.666   7.830  0.0339  0.1087  0.3382
 4817SOL    HW125910   2.443   1.657   7.919  0.8359  2.0353  0.8441
 4817SOL    HW225911   2.402   1.674   7.773 -2.1111 -1.5059  2.9580
 4818SOL     OW25912   0.469   3.695   9.236  0.7098 -0.4806  0.0657
 4818SOL    HW125913   0.458   3.760   9.306  1.2307 -1.6192  1.2111
 4818SOL    HW225914   0.544   3.739   9.197 -0.8937  1.9959 -0.2136
 4819SOL     OW25915   4.126   4.237   2.239  0.1391  0.9973 -0.2373
 4819SOL    HW125916   4.181   4.159   2.253 -0.3040  0.2512 -2.5521
 4819SOL    HW225917   4.190   4.300   2.272 -1.0835  3.0009 -1.6573
 4820SOL     OW25918   1.750   0.191   5.441  0.3351  0.3903 -0.3367
 4820SOL    HW125919   1.828   0.156   5.484 -0.7464 -1.4452  0.1337
 4820SOL    HW225920   1.731   0.276   5.481 -0.8933  0.2475 -0.6309
 4821SOL     OW25921   3.677   0.775   0.388  0.0226 -0.5885 -0.4752
 4821SOL    HW125922   3.595   0.736   0.360 -0.0396 -1.0000  0.2815
 4821SOL    HW225923   3.709   0.704   0.444  0.0248 -1.3351 -1.4378
 4822SOL     OW25924   3.735   1.427   3.978 -0.0664 -0.4093  0.3394
 4822SOL    HW125925   3.791   1.367   4.027 -1.1698 -0.2529  1.7722
 4822SOL    HW225926   3.665   1.364   3.957 -2.4892  1.9661  1.3922
 4823SOL     OW25927   3.111   0.055   7.657  0.1993 -0.1238 -0.1616
 4823SOL    HW125928   3.187   0.085   7.708 -0.7795  1.4650  0.3683
 4823SOL    HW225929   3.072   0.139   7.634 -0.7026 -0.2774  0.8456
 4824SOL     OW25930   0.183   1.768  15.969  0.0035  0.2077 -0.2339
 4824SOL    HW125931   0.113   1.706  15.988 -0.1133  0.1971 -0.7033
 4824SOL    HW225932   0.160   1.807  15.885  0.8969  0.5960 -0.2957
 4825SOL     OW25933   3.581   1.076   1.316  0.5882  0.0593  0.1815
 4825SOL    HW125934   3.508   1.134   1.293  0.1335  0.3971  2.4380
 4825SOL    HW225935   3.642   1.143   1.347  2.7194 -0.1636 -3.5860
 4826SOL     OW25936   0.692   2.624  10.037  0.2675  0.5909 -0.0622
 4826SOL    HW125937   0.768   2.632   9.980  1.4440  1.1477  1.6052
 4826SOL    HW225938   0.629   2.590   9.973 -0.2415  1.9351 -0.2751
 4827SOL     OW25939   1.607   1.388   0.286 -0.7437  0.3095 -0.3957
 4827SOL    HW125940   1.547   1.319   0.314 -0.0716 -0.0842  0.1079
 4827SOL    HW225941   1.571   1.422   0.205 -1.6793  1.2713  0.4205
 4828SOL     OW25942   2.956   4.514   3.807 -0.6687  0.2871 -0.1027
 4828SOL    HW125943   2.937   4.478   3.894  0.7492 -1.4527 -0.5443
 4828SOL    HW225944   3.014   4.588   3.826 -0.2661 -0.0262 -0.1363
 4829SOL     OW25945   1.421   2.910   4.866  0.6141 -0.6143 -0.8802
 4829SOL    HW125946   1.445   3.002   4.873  1.3367 -0.8145 -0.6971
 4829SOL    HW225947   1.416   2.888   4.773  1.0385 -2.1785 -0.5262
 4830SOL     OW25948   3.313   4.025   3.429  0.0662 -0.0648 -0.4022
 4830SOL    HW125949   3.392   4.045   3.479 -1.0579 -0.2997  1.4675
 4830SOL    HW225950   3.321   3.935   3.399 -0.8885 -0.5896  0.9092
 4831SOL     OW25951   1.751   4.161   7.958 -0.2143  0.3799 -0.2997
 4831SOL    HW125952   1.683   4.224   7.981 -0.1031  1.5755 -3.2100
 4831SOL    HW225953   1.799   4.213   7.893 -1.1911 -1.9685 -2.9184
 4832SOL     OW25954   0.402   2.928  13.012  0.1348 -0.1268 -0.0799
 4832SOL    HW125955   0.344   2.880  13.072  1.2518 -0.5350  0.6793
 4832SOL    HW225956   0.335   2.978  12.966  1.1715  0.6196 -0.7827
 4833SOL     OW25957   0.974   4.637   8.254  0.2137 -0.0197  0.3206
 4833SOL    HW125958   1.057   4.594   8.231  1.5866  1.3493  2.6054
 4833SOL    HW225959   0.967   4.701   8.183 -1.3608 -0.0899  0.4275
 4834SOL     OW25960   3.844   0.090   6.155 -0.4827  0.4228  0.3541
 4834SOL    HW125961   3.750   0.098   6.166 -0.3167  3.0872 -0.3268
 4834SOL    HW225962   3.853   0.018   6.091 -0.0450  0.0846  0.7910
 4835SOL     OW25963   1.335   0.169   0.894  0.4032 -0.1883  0.3947
 4835SOL    HW125964   1.299   0.174   0.805  1.0809 -0.8376  0.0846
 4835SOL    HW225965   1.415   0.118   0.884 -0.1594 -1.5558  2.9140
 4836SOL     OW25966   1.687   4.230   3.031  0.1946 -0.1206 -1.2779
 4836SOL    HW125967   1.713   4.182   2.953  0.9780 -0.9492 -0.5193
 4836SOL    HW225968   1.747   4.303   3.022 -1.1619  1.3378  1.5447
 4837SOL     OW25969   4.604   0.176  13.640  0.0169  0.0749 -0.3008
 4837SOL    HW125970   4.593   0.136  13.727  0.3417 -1.1804 -0.8282
 4837SOL    HW225971   4.611   0.267  13.668  0.4654 -0.0443 -0.0190
 4838SOL     OW25972   3.520   3.500   2.411 -0.5317 -0.0072 -0.0983
 4838SOL    HW125973   3.535   3.442   2.485  2.9040  0.3319 -0.5603
 4838SOL    HW225974   3.540   3.580   2.460  1.2759 -0.4045 -0.1839
 4839SOL     OW25975   0.567   0.156   8.386 -0.5592 -0.2840  0.4944
 4839SOL    HW125976   0.662   0.170   8.389 -0.4369 -0.2438 -2.7684
 4839SOL    HW225977   0.549   0.246   8.361 -0.4965 -0.3807  0.0932
 4840SOL     OW25978   3.760   3.288  15.948  0.3212 -0.1229  0.5534
 4840SOL    HW125979   3.668   3.287  15.976  0.4823  1.3207  1.1115
 4840SOL    HW225980   3.786   3.380  15.948  2.6251 -0.7659 -0.7014
 4841SOL     OW25981   0.117   3.729   3.831 -0.9628  0.4450 -0.5473
 4841SOL    HW125982   0.068   3.756   3.753 -1.2400 -0.1146 -0.5693
 4841SOL    HW225983   0.084   3.798   3.888 -2.5859  0.9693 -2.1010
 4842SOL     OW25984   1.363   0.288   8.500  0.3590 -0.2427 -0.4071
 4842SOL    HW125985   1.357   0.351   8.428 -2.7968 -1.6411 -1.3433
 4842SOL    HW225986   1.458   0.289   8.509  0.3807  1.4061 -0.8158
 4843SOL     OW25987   0.284   1.792   7.189  0.3956  0.7226  0.1408
 4843SOL    HW125988   0.343   1.741   7.244 -0.9622 -0.2504  0.7128
 4843SOL    HW225989   0.318   1.881   7.198 -0.4451  1.0117  0.4891
 4844SOL     OW25990   1.786   0.291   2.883  0.6398 -0.0648 -0.3274
 4844SOL    HW125991   1.743   0.320   2.964 -2.9321 -0.1954 -2.2341
 4844SOL    HW225992   1.734   0.331   2.814 -0.1029  0.3000  0.4346
 4845SOL     OW25993   1.499   0.993   6.246 -0.2766  0.1339  0.3001
 4845SOL    HW125994   1.412   0.959   6.225 -0.3554 -0.4908  1.6246
 4845SOL    HW225995   1.498   0.985   6.342 -1.5544 -1.8220  0.1151
 4846SOL     OW25996   3.131   1.151   5.040 -0.1566 -0.7439 -0.0094
 4846SOL    HW125997   3.197   1.159   4.970  0.3464  0.3774  0.6043
 4846SOL    HW225998   3.064   1.092   5.006  0.3440 -0.1828 -2.0247
 4847SOL     OW25999   0.420   0.350  11.508 -0.5865 -0.4759  0.1797
 4847SOL    HW126000   0.410   0.255  11.501 -1.2717 -0.2646 -1.8474
 4847SOL    HW226001   0.515   0.362  11.514 -0.5199 -0.9162 -0.0103
 4848SOL     OW26002   2.689   3.771   9.320  0.2544 -0.6282  0.3644
 4848SOL    HW126003   2.747   3.848   9.326 -1.4310  0.6192  0.5241
 4848SOL    HW226004   2.616   3.800   9.375 -0.9516 -0.4913 -1.3184
 4849SOL     OW26005   2.189   4.426   5.168  0.1469 -0.0800  0.1502
 4849SOL    HW126006   2.219   4.455   5.081 -0.6256  2.8487  0.8436
 4849SOL    HW226007   2.185   4.506   5.220  1.8763  0.5304 -0.6404
 4850SOL     OW26008   2.548   0.089   4.170 -0.5417  0.0648 -0.1703
 4850SOL    HW126009   2.513   0.074   4.083 -1.2267  0.3015  0.0643
 4850SOL    HW226010   2.641   0.075   4.154 -0.5980 -3.0434  2.1497
 4851SOL     OW26011   3.656   0.948  15.495  0.4149 -0.1264  0.1226
 4851SOL    HW126012   3.727   0.943  15.430 -1.2747  0.8132 -1.7770
 4851SOL    HW226013   3.715   0.949  15.570  1.0646  1.2406 -0.4042
 4852SOL     OW26014   2.499   1.997   6.637 -0.2814  0.1495 -0.3579
 4852SOL    HW126015   2.551   2.056   6.583  2.4184 -1.7613  0.1452
 4852SOL    HW226016   2.481   2.052   6.713  0.3052 -0.5801  0.3064
 4853SOL     OW26017   2.550   3.201   9.953 -0.6863 -0.0039  0.1053
 4853SOL    HW126018   2.498   3.264  10.001  0.1693 -0.6888  1.9281
 4853SOL    HW226019   2.614   3.260   9.913  1.0015 -1.6872  0.3136
 4854SOL     OW26020   0.260   2.951   5.522  0.1956 -0.0890  0.3324
 4854SOL    HW126021   0.301   3.036   5.504 -0.4041  0.0819 -0.2079
 4854SOL    HW226022   0.338   2.916   5.565  1.2804  0.7248 -0.9671
 4855SOL     OW26023   1.679   2.529   6.421  0.4163 -0.3303  0.5994
 4855SOL    HW126024   1.684   2.560   6.511 -1.1767  2.5178 -0.3112
 4855SOL    HW226025   1.667   2.436   6.442 -1.2515  0.1757  1.8350
 4856SOL     OW26026   0.763   1.970  11.506  0.0097 -0.0182  0.4358
 4856SOL    HW126027   0.842   1.917  11.504  1.2069  1.7871 -0.2576
 4856SOL    HW226028   0.805   2.036  11.451 -2.2086  0.7385 -0.3177
 4857SOL     OW26029   0.924   2.682   6.755 -0.2559 -0.0227  0.5356
 4857SOL    HW126030   0.831   2.666   6.738 -0.0062  0.8864 -1.6137
 4857SOL    HW226031   0.954   2.665   6.666 -1.2040  0.6155  0.1014
 4858SOL     OW26032   4.626   3.511   9.327 -0.0663 -0.7071  0.3231
 4858SOL    HW126033   4.634   3.602   9.296 -0.3385 -1.4022 -1.7663
 4858SOL    HW226034   4.680   3.525   9.406 -1.1348 -0.6689  1.0493
 4859SOL     OW26035   4.144   2.888   0.241  0.1562 -0.3831  0.7091
 4859SOL    HW126036   4.151   2.794   0.226 -0.9528 -0.7566  2.5758
 4859SOL    HW226037   4.234   2.915   0.261  0.4900 -0.9476 -0.0240
 4860SOL     OW26038   0.899   1.595   9.617 -0.3521 -0.2209 -0.0502
 4860SOL    HW126039   0.867   1.585   9.707 -1.8758  0.1719 -0.5503
 4860SOL    HW226040   0.930   1.506   9.600 -1.5843 -0.7137  0.2398
 4861SOL     OW26041   0.538   1.813   4.587  0.4487 -0.2353 -0.3363
 4861SOL    HW126042   0.591   1.869   4.530 -0.1511 -0.3355 -0.9980
 4861SOL    HW226043   0.450   1.835   4.555  0.6672  2.5425  0.9677
 4862SOL     OW26044   4.263   4.571   8.668  0.3088  0.1828  0.5673
 4862SOL    HW126045   4.168   4.571   8.675  0.3776 -2.0150  1.4619
 4862SOL    HW226046   4.288   4.478   8.661  2.7121  0.9339 -0.9249
 4863SOL     OW26047   1.002   1.411   4.697 -0.0550 -0.0029 -0.1930
 4863SOL    HW126048   0.991   1.343   4.764 -0.3199 -1.3185 -1.5639
 4863SOL    HW226049   1.097   1.416   4.690 -0.1838 -0.6179 -2.3745
 4864SOL     OW26050   1.888   1.352   1.430  0.4817 -0.1060  0.2162
 4864SOL    HW126051   1.923   1.273   1.389  2.0252  0.2216  0.8844
 4864SOL    HW226052   1.914   1.409   1.358 -0.4615  0.8547  0.6196
 4865SOL     OW26053   2.234   3.107   5.396  0.7869  0.0297  0.1065
 4865SOL    HW126054   2.289   3.186   5.399 -1.6205  1.6814  0.7798
 4865SOL    HW226055   2.195   3.108   5.484  0.4164  0.7104 -0.0699
 4866SOL     OW26056   1.509   3.937  15.971  0.1254 -0.0548 -0.1305
 4866SOL    HW126057   1.555   3.867  15.925 -0.6810 -1.0922  0.6457
 4866SOL    HW226058   1.445   3.963  15.904 -0.1705 -2.0528 -0.6146
 4867SOL     OW26059   1.549   0.411   2.420 -0.0174  0.0423 -0.0632
 4867SOL    HW126060   1.479   0.353   2.448  1.3919 -2.8153 -2.4076
 4867SOL    HW226061   1.557   0.383   2.329  2.4805 -0.9211  0.4524
 4868SOL     OW26062   0.429   2.559  11.345  0.2834  0.3835 -0.5592
 4868SOL    HW126063   0.396   2.504  11.416 -0.2444  0.2038 -0.9468
 4868SOL    HW226064   0.523   2.553  11.362  0.1159  0.5683  0.4254
 4869SOL     OW26065   4.521   3.630   5.855 -0.4421 -0.2907  0.4701
 4869SOL    HW126066   4.548   3.649   5.765 -2.4893  1.4383  0.2092
 4869SOL    HW226067   4.592   3.573   5.883  0.5116  0.2205 -0.9204
 4870SOL     OW26068   4.362   1.694   4.775  0.5496  0.3641 -0.1340
 4870SOL    HW126069   4.296   1.697   4.844  1.7796  2.1382  0.9705
 4870SOL    HW226070   4.369   1.600   4.758  0.7234  0.3849 -0.1795
 4871SOL     OW26071   2.731   3.577   7.059 -0.3898 -0.0601  0.0668
 4871SOL    HW126072   2.781   3.620   7.128  0.8620 -0.5744 -0.5203
 4871SOL    HW226073   2.686   3.660   7.043 -0.4881 -0.2541 -0.6900
 4872SOL     OW26074   3.997   0.890   1.463 -0.4016  0.1266 -0.3353
 4872SOL    HW126075   3.963   0.908   1.551 -2.5499 -0.1413 -1.1195
 4872SOL    HW226076   4.080   0.847   1.484 -0.5092  0.2120  0.2732
 4873SOL     OW26077   2.108   3.397   6.195  0.3811  0.1168  0.4446
 4873SOL    HW126078   2.047   3.401   6.121  0.6207 -1.3863  0.1736
 4873SOL    HW226079   2.085   3.311   6.230 -1.9332 -0.2872 -2.0661
 4874SOL     OW26080   1.143   1.405   8.179 -0.5553 -0.2502  0.0407
 4874SOL    HW126081   1.076   1.337   8.174  0.6597 -1.5334  1.1898
 4874SOL    HW226082   1.189   1.393   8.096  0.9449 -3.2532  1.2887
 4875SOL     OW26083   4.380   0.798  11.011 -0.2864 -0.1162 -0.1050
 4875SOL    HW126084   4.452   0.738  11.027 -0.3786 -0.8037 -2.2477
 4875SOL    HW226085   4.337   0.745  10.943  0.6112 -0.1646 -0.6306
 4876SOL     OW26086   1.803   3.484  11.883  0.6207  0.5248  0.1822
 4876SOL    HW126087   1.868   3.445  11.825 -0.5597  1.1537 -1.5621
 4876SOL    HW226088   1.783   3.422  11.953 -2.0621 -0.0472 -1.1273
 4877SOL     OW26089   4.312   3.946  14.222  0.5679  0.0256  0.6689
 4877SOL    HW126090   4.345   3.941  14.312  2.7976  0.5266 -0.1135
 4877SOL    HW226091   4.220   3.937  14.245  0.8130 -0.9842  1.2918
 4878SOL     OW26092   0.805   1.553   3.112 -0.4159 -0.1345 -0.1510
 4878SOL    HW126093   0.816   1.548   3.207  3.3538 -1.2986 -0.6728
 4878SOL    HW226094   0.852   1.479   3.074  1.6603  0.4364  1.2736
 4879SOL     OW26095   0.133   2.119   7.188 -0.5186  0.0152 -0.5621
 4879SOL    HW126096   0.166   2.118   7.098  0.9153  1.4417 -0.0469
 4879SOL    HW226097   0.049   2.077   7.171 -2.2183  2.6970  1.2331
 4880SOL     OW26098   3.277   0.411   4.580  0.7589  0.0827  0.3065
 4880SOL    HW126099   3.236   0.422   4.666 -1.1715 -1.1621 -0.4321
 4880SOL    HW226100   3.221   0.343   4.541  0.5196  0.5673 -0.1936
 4881SOL     OW26101   0.372   0.497   3.558 -0.2319 -0.3382 -0.0830
 4881SOL    HW126102   0.324   0.436   3.502 -2.1576  1.5712 -0.5325
 4881SOL    HW226103   0.383   0.445   3.637  0.9011  1.2316  0.7947
 4882SOL     OW26104   1.814   1.605  13.328  0.0331 -0.1813  0.1759
 4882SOL    HW126105   1.818   1.510  13.336 -4.1324 -0.1986  1.7687
 4882SOL    HW226106   1.905   1.629  13.346  0.0258 -0.2910  0.3604
 4883SOL     OW26107   4.053   4.559  15.201  0.4625 -0.2314  0.0042
 4883SOL    HW126108   4.027   4.546  15.292 -0.7768  0.1580 -0.2889
 4883SOL    HW226109   3.988   4.624  15.174 -0.8638 -1.6318 -0.2391
 4884SOL     OW26110   1.201   3.755   5.730  0.6277 -0.0543 -0.7909
 4884SOL    HW126111   1.170   3.843   5.753 -0.3551 -0.1909 -1.5814
 4884SOL    HW226112   1.115   3.714   5.727  0.6379 -0.1057 -0.3251
 4885SOL     OW26113   1.405   4.393  12.922  0.5297 -0.3617 -0.0644
 4885SOL    HW126114   1.398   4.345  13.005 -1.2863  0.1923  0.1012
 4885SOL    HW226115   1.363   4.324  12.870 -0.6720 -0.8964  1.6043
 4886SOL     OW26116   3.426   3.044   3.079 -0.0200 -0.0396 -0.2021
 4886SOL    HW126117   3.471   2.959   3.077 -0.6828 -0.4151  0.7531
 4886SOL    HW226118   3.481   3.096   3.137  0.8988  1.5273 -2.5221
 4887SOL     OW26119   4.416   1.404   1.961  0.4826  0.3655  0.2992
 4887SOL    HW126120   4.480   1.340   1.930  0.0433  0.2086 -0.2862
 4887SOL    HW226121   4.381   1.445   1.883 -0.2949 -0.4480  0.2197
 4888SOL     OW26122   4.652   4.199   2.873 -0.5659  0.3472  0.0372
 4888SOL    HW126123   4.699   4.282   2.870  2.6661 -1.4448  0.6017
 4888SOL    HW226124   0.003   4.138   2.866 -0.0037  1.0322 -0.0367
 4889SOL     OW26125   1.788   3.399   8.748  0.0610 -0.3804  0.3664
 4889SOL    HW126126   1.852   3.339   8.710  0.3461  1.2226 -1.6420
 4889SOL    HW226127   1.719   3.344   8.712 -2.0275  1.2517  1.8720
 4890SOL     OW26128   4.413   3.474   3.279  0.8716  0.2572  0.0269
 4890SOL    HW126129   4.319   3.476   3.298  1.1909  1.3170  1.5273
 4890SOL    HW226130   4.440   3.558   3.318 -0.8610  0.1592  1.4328
 4891SOL     OW26131   2.932   1.469   5.554  0.0181 -0.2778 -0.3862
 4891SOL    HW126132   2.925   1.377   5.580 -0.1863 -0.1740 -0.0795
 4891SOL    HW226133   2.995   1.498   5.620 -1.4355  0.9888  0.4212
 4892SOL     OW26134   2.424   3.796   6.055  0.0433 -0.1826 -0.3574
 4892SOL    HW126135   2.350   3.742   6.083 -0.1525  0.3150  0.0820
 4892SOL    HW226136   2.501   3.765   6.103 -0.1224 -0.0273  0.0087
 4893SOL     OW26137   1.029   1.505   1.158 -0.2558 -0.2140 -0.5102
 4893SOL    HW126138   1.093   1.435   1.159 -0.0424  0.0085  2.6606
 4893SOL    HW226139   0.951   1.464   1.121 -1.0392  0.3917  0.4643
 4894SOL     OW26140   2.726   0.080  10.241 -0.3867  0.3943  1.2606
 4894SOL    HW126141   2.760   4.719  10.275  0.2336  0.8915  1.8651
 4894SOL    HW226142   2.665   0.049  10.174  0.6230  1.1532 -0.0192
 4895SOL     OW26143   0.029   0.351  14.550 -0.4840  0.0156  0.7537
 4895SOL    HW126144   0.123   0.364  14.535 -0.5099  0.5596  1.0521
 4895SOL    HW226145   0.018   0.407  14.627  0.1016  0.9603  0.1532
 4896SOL     OW26146   2.817   2.676   2.011  0.0568  0.2882  0.3000
 4896SOL    HW126147   2.730   2.703   1.980  0.7999  0.7457 -1.3714
 4896SOL    HW226148   2.862   2.704   1.932  0.9717  0.5828  0.9266
 4897SOL     OW26149   0.950   0.779   8.472 -0.6209 -0.2190 -0.3238
 4897SOL    HW126150   0.880   0.843   8.461  0.1371  0.9492  1.6439
 4897SOL    HW226151   1.018   0.829   8.427 -0.2892 -0.8610 -0.5364
 4898SOL     OW26152   2.701   3.425   8.427 -0.1241  0.4283  0.4138
 4898SOL    HW126153   2.711   3.496   8.364 -1.7351 -0.9216 -1.3257
 4898SOL    HW226154   2.765   3.364   8.389 -1.0999  0.7617 -1.7204
 4899SOL     OW26155   1.720   0.757   6.010 -0.0882  0.1132  0.1439
 4899SOL    HW126156   1.643   0.702   6.018  0.7097 -1.4409 -2.9457
 4899SOL    HW226157   1.787   0.721   6.069  0.3611 -2.6865 -2.0630
 4900SOL     OW26158   1.689   0.899  10.667  0.3954 -0.6746  0.5770
 4900SOL    HW126159   1.700   0.823  10.725  2.7812 -2.1892 -1.8435
 4900SOL    HW226160   1.626   0.946  10.721 -0.1472  1.2344 -1.7142
 4901SOL     OW26161   3.102   3.538   7.718 -0.0837  0.2244 -0.7375
 4901SOL    HW126162   3.136   3.497   7.798 -2.0729  0.3404  0.1656
 4901SOL    HW226163   3.018   3.565   7.755  0.7375  0.0229  1.2732
 4902SOL     OW26164   1.294   4.143  11.712  0.1350  0.1076 -0.1106
 4902SOL    HW126165   1.280   4.052  11.740 -1.8792  0.1873 -0.8425
 4902SOL    HW226166   1.228   4.142  11.643  0.7543  0.1204 -0.7023
 4903SOL     OW26167   3.876   1.119   1.305 -0.4330  0.1872  0.3392
 4903SOL    HW126168   3.909   1.029   1.306 -1.7438 -0.2832  1.1032
 4903SOL    HW226169   3.893   1.144   1.214  0.9955 -1.0613  0.2520
 4904SOL     OW26170   0.060   4.103  17.220  0.5136  0.4429  0.0521
 4904SOL    HW126171   4.711   4.063  17.170  0.8876  0.5144 -0.5436
 4904SOL    HW226172   0.080   4.049  17.296 -1.2467  0.3508  0.4517
 4905SOL     OW26173   1.934   2.189   0.496  0.2399  0.6024  0.3580
 4905SOL    HW126174   1.868   2.215   0.432 -1.7269 -1.3808  1.6025
 4905SOL    HW226175   2.007   2.237   0.456  0.3698  1.2232  1.3253
 4906SOL     OW26176   1.140   3.512   8.116 -0.7806  0.2270  0.4142
 4906SOL    HW126177   1.209   3.536   8.054 -1.8508 -4.2575 -2.5550
 4906SOL    HW226178   1.166   3.420   8.123  2.2890  1.1038  0.8073
 4907SOL     OW26179   0.036   2.387   7.681 -0.4605 -0.5929  0.3683
 4907SOL    HW126180   0.130   2.399   7.687 -0.2875 -0.1467 -3.2431
 4907SOL    HW226181   0.038   2.323   7.610  2.4481  0.3370 -0.3866
 4908SOL     OW26182   3.538   3.911   1.878  0.6724 -0.5608 -0.2211
 4908SOL    HW126183   3.586   3.953   1.949 -1.5379  2.1546 -0.3377
 4908SOL    HW226184   3.468   3.861   1.920 -0.7822  1.5589 -0.0958
 4909SOL     OW26185   0.008   3.987   4.247 -0.1353 -0.5970 -0.9334
 4909SOL    HW126186   0.065   4.056   4.283  0.6011 -0.7265 -1.8387
 4909SOL    HW226187   0.016   3.916   4.311 -0.1394  0.1184 -0.1383
 4910SOL     OW26188   2.279   1.998  10.786 -0.0088  1.0239 -0.2809
 4910SOL    HW126189   2.350   1.957  10.736 -0.0247 -1.2025  1.5344
 4910SOL    HW226190   2.303   2.091  10.783  0.7031  0.8660  0.4385
 4911SOL     OW26191   3.868   4.395  16.300  0.4608  0.2344 -0.1041
 4911SOL    HW126192   3.813   4.437  16.367  0.4750 -0.0973  0.1151
 4911SOL    HW226193   3.835   4.306  16.311  1.1235 -0.0020 -0.0132
 4912SOL     OW26194   0.795   4.599   0.994  0.1638  0.3145  0.8309
 4912SOL    HW126195   0.731   4.569   1.058  0.5045 -0.1672  0.9463
 4912SOL    HW226196   0.873   4.548   1.017  1.0603  1.8103  1.0713
 4913SOL     OW26197   1.722   0.810   2.175 -0.2622  0.3135 -0.6240
 4913SOL    HW126198   1.685   0.722   2.168  2.1043 -0.7992  1.0493
 4913SOL    HW226199   1.780   0.803   2.099  0.9640 -1.0811  0.4576
 4914SOL     OW26200   3.252   3.364  13.792  0.2841  0.1616 -0.3303
 4914SOL    HW126201   3.180   3.304  13.776  0.0747  0.3132  0.0423
 4914SOL    HW226202   3.325   3.303  13.778  0.9142  0.6806  0.6954
 4915SOL     OW26203   0.592   2.794   3.959 -0.1549  0.8357  0.0944
 4915SOL    HW126204   0.600   2.762   3.869 -0.0542  0.6648  0.1646
 4915SOL    HW226205   0.682   2.779   3.988 -0.2970  1.5344  0.8867
 4916SOL     OW26206   4.079   2.843   4.247 -0.1718 -0.1657  0.0772
 4916SOL    HW126207   4.150   2.890   4.290  0.1311  0.6315 -1.3038
 4916SOL    HW226208   4.017   2.839   4.320  1.1369  0.3244  1.2198
 4917SOL     OW26209   4.031   4.345   3.543  0.3613 -0.4039  0.0141
 4917SOL    HW126210   3.947   4.373   3.507 -1.3900 -2.1463  2.6923
 4917SOL    HW226211   4.094   4.364   3.473 -0.2527  0.8910 -0.1774
 4918SOL     OW26212   4.156   0.269   0.700 -0.7125 -0.2109 -0.6307
 4918SOL    HW126213   4.244   0.288   0.733 -1.1551  0.5364  0.1188
 4918SOL    HW226214   4.158   0.279   0.605  1.7492  0.4214 -0.5125
 4919SOL     OW26215   2.732   0.503   5.167  0.1380 -0.0721 -0.1240
 4919SOL    HW126216   2.733   0.523   5.073  1.8090  1.0368  0.1390
 4919SOL    HW226217   2.735   0.593   5.200  1.9152 -0.3441  0.4278
 4920SOL     OW26218   1.287   0.037   3.973 -0.1587  0.0116 -0.6000
 4920SOL    HW126219   1.268   4.666   3.980  0.9010  0.0186  2.2569
 4920SOL    HW226220   1.231   0.072   4.043 -0.2519 -0.1047 -0.6154
 4921SOL     OW26221   0.088   2.502   3.731  0.8748 -0.2338  0.2177
 4921SOL    HW126222   0.086   2.426   3.788 -2.8614 -0.5774 -0.3301
 4921SOL    HW226223   0.083   2.467   3.642 -0.8525  0.5998 -0.0203
 4922SOL     OW26224   0.496   3.500  17.050  0.2372  0.0052  0.0146
 4922SOL    HW126225   0.562   3.543  17.105  1.0979 -0.9189 -0.3009
 4922SOL    HW226226   0.559   3.451  16.997 -1.4903 -1.4836 -0.6530
 4923SOL     OW26227   0.018   0.535   9.493  0.1442 -0.0440 -0.5616
 4923SOL    HW126228   4.662   0.518   9.544  2.1829 -0.3779  2.5182
 4923SOL    HW226229   4.722   0.622   9.458 -2.1279 -0.1152  0.4627
 4924SOL     OW26230   4.156   2.623   7.109  0.1112 -0.5035 -0.5746
 4924SOL    HW126231   4.066   2.653   7.100  0.0084 -0.3374  1.0631
 4924SOL    HW226232   4.193   2.699   7.153 -0.2930 -2.0653  2.4753
 4925SOL     OW26233   1.728   0.553   8.045 -0.5367 -0.2339  0.2003
 4925SOL    HW126234   1.741   0.571   8.138 -0.6420  1.1882 -0.0694
 4925SOL    HW226235   1.672   0.624   8.013  2.4345  2.1681  0.4312
 4926SOL     OW26236   1.560   1.957   5.376 -0.4207 -0.0592  0.8165
 4926SOL    HW126237   1.554   1.888   5.310 -0.7438  2.1073 -1.4183
 4926SOL    HW226238   1.581   2.031   5.319 -0.1657 -1.1249 -0.4765
 4927SOL     OW26239   2.164   1.672  10.080  0.3325 -0.2448  0.3635
 4927SOL    HW126240   2.188   1.614  10.152  0.2247 -0.4751  0.2115
 4927SOL    HW226241   2.162   1.749  10.138  0.1941 -2.0068  2.6835
 4928SOL     OW26242   0.709   1.051   3.341 -0.2966  0.4010 -0.0826
 4928SOL    HW126243   0.746   1.049   3.429 -1.4700 -0.5927  0.3837
 4928SOL    HW226244   0.657   1.131   3.352  1.1193  1.2045  0.7346
 4929SOL     OW26245   2.229   1.554   1.477 -0.2362 -0.0246 -0.0933
 4929SOL    HW126246   2.276   1.570   1.395 -1.8835 -1.3088 -1.2814
 4929SOL    HW226247   2.154   1.610   1.458 -1.2885 -1.0644  1.0618
 4930SOL     OW26248   0.736   3.196   9.077  0.1792  0.1472  0.0609
 4930SOL    HW126249   0.705   3.106   9.076  2.4465 -0.6441 -0.4743
 4930SOL    HW226250   0.761   3.196   8.984  0.8924  0.2540  0.2521
 4931SOL     OW26251   1.204   2.589   3.206  0.2259 -0.3066  0.0977
 4931SOL    HW126252   1.109   2.591   3.193  0.1671 -0.4409  0.5151
 4931SOL    HW226253   1.248   2.603   3.122 -1.2090  3.5683  0.0032
 4932SOL     OW26254   2.142   0.617   7.525  0.0659 -0.4198 -0.1116
 4932SOL    HW126255   2.187   0.597   7.443  1.7225 -0.6762  0.8687
 4932SOL    HW226256   2.105   0.531   7.542 -2.4620  0.2668 -2.1101
 4933SOL     OW26257   1.300   0.421   2.243  0.2307  0.7751  0.0886
 4933SOL    HW126258   1.290   0.448   2.151  0.3276  0.5548  0.0115
 4933SOL    HW226259   1.390   0.388   2.241 -0.4118 -1.0175  0.0936
 4934SOL     OW26260   1.877   2.206   4.557  0.5425 -0.2784  0.0203
 4934SOL    HW126261   1.970   2.182   4.560  1.1820  1.9868 -1.5534
 4934SOL    HW226262   1.870   2.270   4.486 -2.5049 -1.6439 -0.8731
 4935SOL     OW26263   0.836   2.539   6.070  0.1202  0.1739  0.2210
 4935SOL    HW126264   0.808   2.479   6.139 -2.6174  0.1364 -0.8965
 4935SOL    HW226265   0.787   2.614   6.103 -2.5607 -1.5347  0.1447
 4936SOL     OW26266   2.041   3.216  17.120 -0.2839  0.1768  0.0220
 4936SOL    HW126267   2.100   3.158  17.169 -1.5612  0.0459  1.4200
 4936SOL    HW226268   2.074   3.208  17.031 -0.4109 -0.8946  0.0757
 4937SOL     OW26269   3.278   3.035   8.836 -0.0685  0.0282  0.1307
 4937SOL    HW126270   3.222   2.959   8.849  0.9401 -0.8704 -0.7323
 4937SOL    HW226271   3.229   3.117   8.844  0.7705  0.4511  0.9713
 4938SOL     OW26272   3.851   3.999   8.127 -0.1948  0.5823  0.1606
 4938SOL    HW126273   3.843   4.079   8.075 -2.9689  0.5308  0.5062
 4938SOL    HW226274   3.858   4.041   8.212  0.7725  0.8376 -0.0465
 4939SOL     OW26275   1.416   2.880   9.228 -0.1766 -0.4834  0.2586
 4939SOL    HW126276   1.410   2.930   9.309  0.4451  0.8662 -0.5251
 4939SOL    HW226277   1.401   2.941   9.156 -1.3653  0.6989  1.5038
 4940SOL     OW26278   0.429   2.917   6.089 -0.5617 -0.3605  0.2939
 4940SOL    HW126279   0.442   2.992   6.031 -0.6470 -0.3239  0.3216
 4940SOL    HW226280   0.346   2.889   6.049 -0.0461 -0.8676 -0.4255
 4941SOL     OW26281   0.890   2.749   9.518 -0.7611  0.0034  1.0474
 4941SOL    HW126282   0.843   2.825   9.553 -0.6042  0.3222  0.5632
 4941SOL    HW226283   0.904   2.699   9.599 -0.7394 -2.3978 -0.4640
 4942SOL     OW26284   1.267   1.245   7.963  0.0821  0.0423  0.1889
 4942SOL    HW126285   1.358   1.268   7.949  1.1044 -3.4240  1.0657
 4942SOL    HW226286   1.243   1.207   7.878 -0.2285  1.3603 -0.3044
 4943SOL     OW26287   1.951   1.094   0.783  0.4794 -0.0940  0.2346
 4943SOL    HW126288   2.017   1.046   0.733 -0.5912 -0.8710 -0.4120
 4943SOL    HW226289   1.938   1.174   0.731  0.3087  1.3277  2.4729
 4944SOL     OW26290   4.602   2.308   9.355  0.1615  0.1859 -0.4952
 4944SOL    HW126291   4.637   2.225   9.387 -1.7758 -1.0378 -1.5083
 4944SOL    HW226292   4.523   2.312   9.409  2.3126 -1.7593  2.8405
 4945SOL     OW26293   0.503   1.227  12.874  0.0738 -0.3230  0.1727
 4945SOL    HW126294   0.453   1.219  12.955  1.1563  1.0583  0.9712
 4945SOL    HW226295   0.441   1.275  12.818 -1.5025 -1.7934  0.6358
 4946SOL     OW26296   3.152   4.173   2.588  0.1344 -0.1119 -0.5032
 4946SOL    HW126297   3.083   4.159   2.523  2.8655  2.6048 -4.0520
 4946SOL    HW226298   3.130   4.122   2.666 -2.9756 -1.2816 -2.1626
 4947SOL     OW26299   4.471   2.514   1.681 -0.3013 -0.7736  0.3681
 4947SOL    HW126300   4.421   2.570   1.622  0.3814  0.5710  1.0760
 4947SOL    HW226301   4.551   2.565   1.692  0.5768 -2.1499  0.4316
 4948SOL     OW26302   3.782   2.525   4.706 -0.1964 -0.2088 -0.5545
 4948SOL    HW126303   3.849   2.456   4.697  1.7701  1.5237  0.6562
 4948SOL    HW226304   3.761   2.539   4.614 -2.8109  0.3513  0.1335
 4949SOL     OW26305   1.590   1.917  11.993 -0.1427 -0.0191 -0.6347
 4949SOL    HW126306   1.588   1.821  11.993  0.2215 -0.0335  4.9469
 4949SOL    HW226307   1.673   1.944  12.032  1.0162  0.0090 -3.1741
 4950SOL     OW26308   0.067   0.412   2.560 -0.1329 -0.6289  0.2669
 4950SOL    HW126309   4.705   0.383   2.526  1.2744 -0.5736 -3.3111
 4950SOL    HW226310   0.097   0.475   2.494 -4.1715 -1.7819 -2.6809
 4951SOL     OW26311   3.076   3.260   7.059 -0.0825 -0.1611  0.1704
 4951SOL    HW126312   3.057   3.350   7.084  0.1311 -0.5982  1.9154
 4951SOL    HW226313   3.095   3.213   7.141  2.0982  0.7197  0.1636
 4952SOL     OW26314   2.402   0.896  11.674 -0.2061  0.0857  0.4347
 4952SOL    HW126315   2.431   0.913  11.584 -1.9034 -0.0348 -0.1352
 4952SOL    HW226316   2.478   0.926  11.725 -0.4890 -0.2645  1.0707
 4953SOL     OW26317   1.925   4.292   4.116  0.6384  0.9567  0.5110
 4953SOL    HW126318   1.849   4.285   4.058 -0.9294 -0.7163  2.7559
 4953SOL    HW226319   1.893   4.247   4.195 -2.5404  2.8652  0.3086
 4954SOL     OW26320   1.600   2.025   5.961 -0.3456 -0.0382 -0.2160
 4954SOL    HW126321   1.552   2.007   6.042  2.3320  1.5607  1.7040
 4954SOL    HW226322   1.558   1.972   5.893  0.6873 -2.3407  0.9417
 4955SOL     OW26323   1.521   3.986   9.371 -0.0483 -0.4013  0.1272
 4955SOL    HW126324   1.477   4.028   9.445  0.0639 -0.7991  0.4162
 4955SOL    HW226325   1.541   4.066   9.321 -0.5205 -1.1901 -1.3306
 4956SOL     OW26326   2.248   4.220  10.765  0.2777  0.1883  0.1583
 4956SOL    HW126327   2.278   4.162  10.834  0.7729  1.7683  1.2620
 4956SOL    HW226328   2.309   4.190  10.698 -0.1166  0.7124 -0.4494
 4957SOL     OW26329   0.266   4.691   2.476 -0.5584 -0.1515 -0.1922
 4957SOL    HW126330   0.221   4.647   2.547 -1.2503 -0.6860 -0.9556
 4957SOL    HW226331   0.250   4.627   2.406  1.8718  1.5938 -2.3839
 4958SOL     OW26332   0.418   1.146  10.308 -0.2554  0.1613  0.0058
 4958SOL    HW126333   0.362   1.223  10.314  0.7395  0.9306 -0.5037
 4958SOL    HW226334   0.379   1.097  10.235 -1.5231  2.4325 -0.8278
 4959SOL     OW26335   1.450   3.535   9.064  0.4906  0.1084 -0.3576
 4959SOL    HW126336   1.546   3.540   9.068  0.3678  1.7631  0.5991
 4959SOL    HW226337   1.442   3.470   9.134  1.6206 -0.2526 -0.5667
 4960SOL     OW26338   2.013   0.610   3.675 -0.4319  0.3334  0.1319
 4960SOL    HW126339   2.051   0.543   3.732 -0.9605  0.7385  0.9466
 4960SOL    HW226340   1.959   0.553   3.620  1.9415 -3.6946  1.9795
 4961SOL     OW26341   4.222   3.124   3.603 -0.5215 -0.1723  0.3779
 4961SOL    HW126342   4.228   3.034   3.572  1.4495 -0.2583  1.0111
 4961SOL    HW226343   4.145   3.121   3.660 -0.9806  0.8664 -0.1874
 4962SOL     OW26344   2.645   3.494   2.133  0.4913  0.9029 -0.0367
 4962SOL    HW126345   2.580   3.506   2.064 -1.3963 -0.5661  1.4840
 4962SOL    HW226346   2.637   3.398   2.132 -1.4249  1.0463  0.2747
 4963SOL     OW26347   3.162   1.696   8.499 -0.1826  0.0013 -0.1451
 4963SOL    HW126348   3.237   1.692   8.559 -1.0726 -0.8899  0.8993
 4963SOL    HW226349   3.203   1.653   8.424  3.5531  1.5409  0.9795
 4964SOL     OW26350   1.986   3.092   4.012  0.1945 -0.1894  0.2906
 4964SOL    HW126351   1.957   3.121   4.098 -1.5182  0.0312 -0.3624
 4964SOL    HW226352   2.059   3.031   4.023  0.3309 -0.6360 -3.0442
 4965SOL     OW26353   0.494   1.127   3.808 -0.0490  0.6002 -0.2778
 4965SOL    HW126354   0.505   1.169   3.893  1.2950  1.2146 -0.7615
 4965SOL    HW226355   0.583   1.115   3.776  0.0571 -1.5904  0.8099
 4966SOL     OW26356   4.590   3.624   7.399  0.6203 -0.3393  0.1678
 4966SOL    HW126357   4.656   3.611   7.332  1.0899  0.8420  0.4067
 4966SOL    HW226358   4.615   3.707   7.438  1.0205 -0.4763  0.2010
 4967SOL     OW26359   1.148   3.970   7.543 -0.2081  0.1818  0.3452
 4967SOL    HW126360   1.138   3.914   7.620 -2.5178 -0.7596 -0.6334
 4967SOL    HW226361   1.088   4.034   7.582 -0.5883  0.0109  0.0370
 4968SOL     OW26362   1.369   2.698   0.437  0.0290 -0.0908 -0.2948
 4968SOL    HW126363   1.323   2.782   0.447  1.2289  0.6788 -1.1637
 4968SOL    HW226364   1.303   2.631   0.446  1.5620 -1.2953  1.8039
 4969SOL     OW26365   2.310   4.438   8.256 -0.5031 -0.2356  0.7589
 4969SOL    HW126366   2.357   4.377   8.314  0.9217  0.2569  0.1216
 4969SOL    HW226367   2.235   4.380   8.244 -0.6839 -0.3474  2.4341
 4970SOL     OW26368   2.637   0.942   9.041 -0.3655 -0.0809  0.2362
 4970SOL    HW126369   2.659   0.971   9.129  2.3353 -1.5973  0.0640
 4970SOL    HW226370   2.588   0.861   9.058 -1.9191  0.3285 -2.2726
 4971SOL     OW26371   3.383   1.761   6.520  0.6143 -0.2311  0.0667
 4971SOL    HW126372   3.396   1.822   6.593 -0.3925  0.8002 -0.6069
 4971SOL    HW226373   3.471   1.724   6.509  0.3810 -1.0847  1.1359
 4972SOL     OW26374   0.900   0.186   6.622 -0.5737 -0.5487 -0.4443
 4972SOL    HW126375   0.891   0.282   6.621  2.6147 -0.2525 -1.8654
 4972SOL    HW226376   0.982   0.187   6.671 -0.4043 -0.4355 -0.7295
 4973SOL     OW26377   3.212   0.925   3.836 -0.2990 -0.2547  0.0770
 4973SOL    HW126378   3.118   0.918   3.821 -0.2359 -1.6851  0.3616
 4973SOL    HW226379   3.241   0.845   3.792 -0.3338 -0.3361  0.2008
 4974SOL     OW26380   1.804   4.711   8.744  0.4334 -0.1742 -0.3191
 4974SOL    HW126381   1.771   4.704   8.654 -1.1436 -0.0769  0.2613
 4974SOL    HW226382   1.897   0.007   8.731  0.9294 -1.4967  1.3042
 4975SOL     OW26383   0.348   3.142   7.437  0.2053  0.6134  0.2027
 4975SOL    HW126384   0.352   3.168   7.529  1.1744 -0.3951  0.4556
 4975SOL    HW226385   0.412   3.070   7.432 -0.2273  0.2855 -0.6661
 4976SOL     OW26386   1.968   1.552  10.944 -0.6151  0.4885  0.5124
 4976SOL    HW126387   2.009   1.594  11.020 -1.1021 -0.3469  1.2430
 4976SOL    HW226388   1.899   1.494  10.976 -0.4129 -0.6683 -1.1703
 4977SOL     OW26389   0.628   0.454  15.185  0.2327 -0.0433 -0.3072
 4977SOL    HW126390   0.550   0.413  15.222 -0.2613  1.1848  0.0116
 4977SOL    HW226391   0.601   0.518  15.119  2.3294  2.1069  0.9321
 4978SOL     OW26392   0.012   0.321   7.899 -0.4593 -0.1015  0.3133
 4978SOL    HW126393   0.107   0.332   7.904 -0.1811 -1.2402 -2.1816
 4978SOL    HW226394   4.702   0.408   7.876  1.5086  0.2367 -1.2397
 4979SOL     OW26395   4.718   0.097   1.547  0.0476 -0.0652 -0.1835
 4979SOL    HW126396   0.089   0.099   1.563 -0.1025 -0.9760  0.7719
 4979SOL    HW226397   4.717   0.164   1.478 -1.8255  2.6212  2.4686
 4980SOL     OW26398   2.288   3.064   3.000 -0.2758 -0.3180 -0.2615
 4980SOL    HW126399   2.345   3.069   2.924  0.2068  2.2814  0.2479
 4980SOL    HW226400   2.214   3.118   2.973 -0.6829 -0.0618  1.3665
 4981SOL     OW26401   4.027   0.111   2.554 -0.2025  0.5373  0.3100
 4981SOL    HW126402   4.010   0.083   2.464 -1.1757 -0.6112  0.8457
 4981SOL    HW226403   3.984   0.196   2.558  0.9706  1.0446  1.8727
 4982SOL     OW26404   4.442   1.661   6.411 -0.4288 -0.7058 -0.0035
 4982SOL    HW126405   4.366   1.643   6.356 -0.6302 -1.4678  0.5300
 4982SOL    HW226406   4.398   1.695   6.490  0.4943 -2.4069  1.2490
 4983SOL     OW26407   0.058   3.202   5.727 -0.1339  0.1086  0.1449
 4983SOL    HW126408   0.021   3.141   5.663  0.2108  0.1556 -0.1011
 4983SOL    HW226409   0.025   3.288   5.699 -3.2275 -1.3851 -0.9062
 4984SOL     OW26410   2.867   2.004   4.544 -0.3530  0.8165 -0.1809
 4984SOL    HW126411   2.921   2.041   4.614  0.8810 -0.4950 -0.4450
 4984SOL    HW226412   2.922   1.926   4.543 -1.0485  0.3352 -3.7690
 4985SOL     OW26413   1.873   2.255   3.565 -0.1455  0.0577 -0.4076
 4985SOL    HW126414   1.915   2.218   3.643 -2.1215  1.1421  1.1453
 4985SOL    HW226415   1.932   2.227   3.494  0.5952 -1.1503  0.6972
 4986SOL     OW26416   2.241   4.518   7.547 -0.1274  0.1178  0.3232
 4986SOL    HW126417   2.153   4.480   7.555  0.3361 -1.1778 -0.7120
 4986SOL    HW226418   2.302   4.458   7.590  0.9007  0.8584 -0.1237
 4987SOL     OW26419   0.322   4.483   9.025  0.2589  0.0426  0.2872
 4987SOL    HW126420   0.396   4.431   8.996  0.3190 -1.0053  2.3414
 4987SOL    HW226421   0.359   4.565   9.059 -2.5257  2.4677 -2.5536
 4988SOL     OW26422   0.705   3.343   6.283  0.2182  0.2745  0.1794
 4988SOL    HW126423   0.731   3.425   6.241  3.9096 -0.3896  1.1238
 4988SOL    HW226424   0.747   3.357   6.367 -0.6917 -0.3342  0.7345
 4989SOL     OW26425   4.496   1.566  11.946  0.1042  0.4634 -0.5072
 4989SOL    HW126426   4.417   1.594  11.900 -0.6447  1.2970  1.2970
 4989SOL    HW226427   4.558   1.575  11.873  0.0201 -2.7567 -0.9979
 4990SOL     OW26428   3.930   0.893   0.255 -0.0953  0.3450 -0.5546
 4990SOL    HW126429   3.861   0.906   0.190 -0.4213  3.4411  0.3834
 4990SOL    HW226430   3.867   0.879   0.326  1.4722 -1.5333  0.4667
 4991SOL     OW26431   2.583   2.864   9.534  0.7117  0.1804 -0.1344
 4991SOL    HW126432   2.518   2.859   9.465 -0.5903 -0.5078  1.1437
 4991SOL    HW226433   2.608   2.773   9.548 -2.1802 -0.5162  0.4238
 4992SOL     OW26434   2.340   0.901   5.650  0.2880  0.3528  0.1047
 4992SOL    HW126435   2.363   0.865   5.564  2.8501  1.6600  0.2545
 4992SOL    HW226436   2.426   0.897   5.691 -0.3440 -1.0118  1.2648
 4993SOL     OW26437   3.277   2.606   6.653 -0.3912 -0.0065  0.9391
 4993SOL    HW126438   3.330   2.585   6.729  0.2431 -2.1809 -0.1222
 4993SOL    HW226439   3.220   2.672   6.692  0.4227  1.4332 -0.3068
 4994SOL     OW26440   3.974   0.581   1.674  0.0453  0.7598  0.1817
 4994SOL    HW126441   3.949   0.496   1.709  0.1037  0.9378  0.6503
 4994SOL    HW226442   3.894   0.620   1.637 -0.1165  0.9851  0.7653
 4995SOL     OW26443   3.548   0.836  11.269  0.4505  0.2266  0.0816
 4995SOL    HW126444   3.613   0.842  11.199 -1.7418  0.1635 -1.9778
 4995SOL    HW226445   3.578   0.761  11.319 -0.3746 -1.0765 -1.3606
 4996SOL     OW26446   1.577   1.242  11.821  0.7226 -0.0373 -0.3094
 4996SOL    HW126447   1.573   1.232  11.726 -1.2941 -0.5021 -0.1760
 4996SOL    HW226448   1.517   1.170  11.842  1.3347 -0.5729 -0.3837
 4997SOL     OW26449   2.926   1.439  13.498 -0.6035 -0.6105  0.5887
 4997SOL    HW126450   2.920   1.509  13.434 -2.0673 -2.3453 -1.1594
 4997SOL    HW226451   2.834   1.417  13.515 -0.6969 -0.4682  0.2782
 4998SOL     OW26452   2.851   1.899  17.073  0.3936 -0.0973 -0.2608
 4998SOL    HW126453   2.835   1.840  17.148  1.5524  0.3270  0.3142
 4998SOL    HW226454   2.811   1.855  16.998  2.0706 -0.5368 -0.9026
 4999SOL     OW26455   3.169   0.324  12.628 -0.7922 -0.2544 -0.3211
 4999SOL    HW126456   3.092   0.355  12.580 -1.3909 -0.9231  0.2063
 4999SOL    HW226457   3.125   0.316  12.713 -2.2246  0.0998 -1.0207
 5000SOL     OW26458   3.444   0.298   2.293  0.2343 -0.0559  0.0204
 5000SOL    HW126459   3.439   0.394   2.292  0.4716 -0.0539 -0.5303
 5000SOL    HW226460   3.474   0.279   2.204 -1.1466 -0.2355 -0.3923
 5001SOL     OW26461   0.957   2.555  13.831  0.4948  0.4799 -0.2555
 5001SOL    HW126462   0.901   2.538  13.907 -0.4549 -0.6791 -1.2191
 5001SOL    HW226463   0.888   2.599  13.782  0.8105  0.7542 -0.4542
 5002SOL     OW26464   2.274   4.450   7.851 -0.0099  0.0250  0.0995
 5002SOL    HW126465   2.307   4.378   7.798 -0.8198  1.1439 -1.9046
 5002SOL    HW226466   2.196   4.408   7.888 -0.3222  1.5204  1.1376
 5003SOL     OW26467   1.117   1.581  14.454  0.5753 -0.2019 -0.0218
 5003SOL    HW126468   1.176   1.507  14.463 -1.5894 -2.0233 -0.7648
 5003SOL    HW226469   1.092   1.589  14.546 -0.6717  1.2132 -0.4901
 5004SOL     OW26470   0.697   3.621   0.262 -0.3799  0.1643  0.0236
 5004SOL    HW126471   0.783   3.605   0.299 -1.3176 -1.2265  1.6005
 5004SOL    HW226472   0.687   3.537   0.217 -0.8390  0.5859 -0.6597
 5005SOL     OW26473   0.219   2.150   9.579 -0.3718 -0.5966  0.0438
 5005SOL    HW126474   0.255   2.223   9.528 -0.4442 -0.2208  0.5323
 5005SOL    HW226475   0.159   2.105   9.520 -0.3122 -0.9085  0.2224
 5006SOL     OW26476   1.867   3.861   2.384 -0.0153 -0.8269 -0.1065
 5006SOL    HW126477   1.874   3.895   2.294 -1.4241 -0.2879 -0.0144
 5006SOL    HW226478   1.787   3.809   2.375  1.1730 -2.5172 -1.0299
 5007SOL     OW26479   1.561   4.240   5.839  0.1361 -0.2368 -0.3564
 5007SOL    HW126480   1.638   4.297   5.847 -1.5389  1.9001  0.2219
 5007SOL    HW226481   1.493   4.306   5.831 -0.1488 -0.6970 -1.6640
 5008SOL     OW26482   0.531   2.239  13.444  0.2968  0.3548 -0.1159
 5008SOL    HW126483   0.459   2.295  13.474 -0.1870 -1.0270  1.3010
 5008SOL    HW226484   0.484   2.156  13.445  3.5831 -1.4803 -1.0936
 5009SOL     OW26485   2.272   2.618   1.491 -0.4296  0.2238  0.6431
 5009SOL    HW126486   2.213   2.545   1.510 -0.1446 -0.0310  0.5482
 5009SOL    HW226487   2.322   2.622   1.572 -0.4236 -1.1045  0.7146
 5010SOL     OW26488   0.312   1.121   4.234  0.2658  0.4352 -0.0909
 5010SOL    HW126489   0.314   1.055   4.165  2.1428  1.0905 -0.6800
 5010SOL    HW226490   0.235   1.171   4.207  0.4038  2.0605  2.5255
 5011SOL     OW26491   0.326   1.026  13.212  0.0217 -0.4366  0.2812
 5011SOL    HW126492   0.356   1.094  13.152  0.3549 -1.6531 -0.9318
 5011SOL    HW226493   0.251   1.068  13.253  1.1134  0.8575  0.9442
 5012SOL     OW26494   4.233   1.259   0.846  0.1425  0.8689  0.1961
 5012SOL    HW126495   4.266   1.244   0.757 -0.7901  1.8444 -0.3118
 5012SOL    HW226496   4.284   1.334   0.874  0.5352  1.6651 -2.7092
 5013SOL     OW26497   2.590   2.482   7.716 -0.3248 -0.1908 -0.4829
 5013SOL    HW126498   2.595   2.577   7.719 -1.4729 -0.1957  1.6458
 5013SOL    HW226499   2.501   2.466   7.749  0.0114 -1.6373 -0.2556
 5014SOL     OW26500   3.538   0.348  16.445 -0.0773 -0.3129  0.3114
 5014SOL    HW126501   3.473   0.409  16.478 -0.9848 -1.3885  0.5206
 5014SOL    HW226502   3.614   0.393  16.482 -1.2848  0.8326  1.3704
 5015SOL     OW26503   3.814   3.355   2.008  0.3976 -0.5199 -0.5637
 5015SOL    HW126504   3.746   3.288   2.014 -0.1318  0.0701  0.0217
 5015SOL    HW226505   3.793   3.399   2.091 -1.4285  1.3893 -2.0432
 5016SOL     OW26506   3.548   3.816  12.738 -0.3375 -0.3975 -0.3332
 5016SOL    HW126507   3.458   3.842  12.761 -0.0581  0.4611 -0.1885
 5016SOL    HW226508   3.573   3.880  12.671 -1.8958 -1.0100 -1.5092
 5017SOL     OW26509   1.537   4.498  10.647 -0.2103  0.1802  0.0984
 5017SOL    HW126510   1.465   4.510  10.585  1.4209 -1.0700 -2.0730
 5017SOL    HW226511   1.616   4.546  10.620 -1.9644  1.5399 -2.5364
 5018SOL     OW26512   0.500   1.111   2.356 -0.0241  0.3579  0.3778
 5018SOL    HW126513   0.520   1.102   2.263 -0.7663  2.9639 -0.0526
 5018SOL    HW226514   0.563   1.055   2.400  0.5673  0.2891 -0.5715
 5019SOL     OW26515   1.515   3.199   2.700  0.4208  0.4777 -0.2063
 5019SOL    HW126516   1.487   3.238   2.782 -3.5728  0.1817 -1.4657
 5019SOL    HW226517   1.559   3.125   2.743  0.2722  0.4571 -0.0891
 5020SOL     OW26518   1.755   1.571  12.287  0.3706 -0.3962  0.1294
 5020SOL    HW126519   1.758   1.476  12.296  0.3965 -0.4559 -0.4836
 5020SOL    HW226520   1.835   1.581  12.235 -0.1368  0.7945 -0.4164
 5021SOL     OW26521   2.444   2.279   5.187 -0.0736 -0.0618  0.0623
 5021SOL    HW126522   2.475   2.213   5.125 -0.5578 -0.5115  0.3038
 5021SOL    HW226523   2.360   2.240   5.211 -0.9015  2.0798  0.6536
 5022SOL     OW26524   1.746   4.266  11.718 -0.0836 -0.9789 -0.4004
 5022SOL    HW126525   1.767   4.181  11.679 -1.5724 -0.4574 -2.3305
 5022SOL    HW226526   1.709   4.311  11.642  2.8022 -0.2489 -1.3742
 5023SOL     OW26527   2.145   4.117   7.812 -0.2950  0.5936  0.0872
 5023SOL    HW126528   2.209   4.071   7.866  0.8626  3.0906  0.8419
 5023SOL    HW226529   2.104   4.189   7.859  0.2616  0.4426  0.7977
 5024SOL     OW26530   1.056   3.080   9.015  0.0400  1.3804  0.5069
 5024SOL    HW126531   1.033   3.004   8.963  1.7250  1.1406  0.1304
 5024SOL    HW226532   1.050   3.152   8.953  1.5406  0.3738 -0.7878
 5025SOL     OW26533   0.088   2.550   0.637 -0.1301  0.1273  0.1106
 5025SOL    HW126534   0.182   2.568   0.642  0.0110 -0.4050 -0.5795
 5025SOL    HW226535   0.087   2.465   0.680 -2.7050 -1.1963 -2.5371
 5026SOL     OW26536   4.514   0.681  13.866 -0.1632 -0.0202  0.0819
 5026SOL    HW126537   4.505   0.597  13.821 -0.5545  0.7717 -1.3342
 5026SOL    HW226538   4.551   0.661  13.951 -0.0431  2.0352  0.5186
 5027SOL     OW26539   0.193   4.068   8.985 -0.2129 -0.0118  0.0455
 5027SOL    HW126540   0.102   4.083   8.957  0.0879 -0.9115 -1.4038
 5027SOL    HW226541   0.190   3.973   8.978  0.2883  0.0508 -1.1039
 5028SOL     OW26542   0.419   4.381  15.567  0.4987  0.9587  0.7768
 5028SOL    HW126543   0.348   4.343  15.515  2.4883 -1.1530 -0.4406
 5028SOL    HW226544   0.474   4.409  15.494  0.0700  2.3934  1.0025
 5029SOL     OW26545   4.197   0.363   6.084  0.4393  0.4685 -0.4618
 5029SOL    HW126546   4.249   0.433   6.044  0.2544 -0.2650 -1.9883
 5029SOL    HW226547   4.120   0.413   6.109 -0.2773 -1.5767  1.4422
 5030SOL     OW26548   0.319   2.570  16.545  0.0825  0.0487 -0.4064
 5030SOL    HW126549   0.299   2.623  16.468 -0.2735 -0.4830 -0.6808
 5030SOL    HW226550   0.244   2.512  16.534  1.9960 -2.7108  1.2370
 5031SOL     OW26551   4.453   1.884  11.828  0.2049 -0.0838 -0.1847
 5031SOL    HW126552   4.385   1.830  11.789 -0.3143  2.0716 -2.2678
 5031SOL    HW226553   4.528   1.844  11.785 -0.2685  1.3379 -2.3427
 5032SOL     OW26554   1.202   4.550  16.132 -0.0863  0.1013  0.3921
 5032SOL    HW126555   1.155   4.576  16.212  1.8042  1.5728  1.0483
 5032SOL    HW226556   1.292   4.581  16.147  0.0061  0.3844 -0.8037
 5033SOL     OW26557   3.665   0.667  13.349 -0.0127  0.1828 -0.3875
 5033SOL    HW126558   3.629   0.606  13.413 -2.5474  1.2794 -0.7483
 5033SOL    HW226559   3.677   0.603  13.279  1.4910 -0.0317  0.0599
 5034SOL     OW26560   3.487   3.307   2.629 -0.3577 -0.0890  0.1520
 5034SOL    HW126561   3.426   3.373   2.662  0.6164  0.7919  0.2190
 5034SOL    HW226562   3.473   3.233   2.687  0.0328  1.4655  2.2164
 5035SOL     OW26563   1.047   2.834   4.531 -0.0085 -0.0231  0.3965
 5035SOL    HW126564   1.069   2.853   4.440  0.3791  0.5772  0.6116
 5035SOL    HW226565   1.064   2.739   4.532 -1.2051 -0.2442 -1.1790
 5036SOL     OW26566   1.964   0.698   7.170 -0.2228 -0.4193  0.4095
 5036SOL    HW126567   2.053   0.719   7.139 -0.7596  1.0960 -0.0877
 5036SOL    HW226568   1.909   0.676   7.095 -1.0240 -0.8688  1.1280
 5037SOL     OW26569   1.848   1.694   3.309  0.3834  0.0512  0.0584
 5037SOL    HW126570   1.840   1.786   3.285 -1.3646 -0.0123  0.4071
 5037SOL    HW226571   1.884   1.655   3.229 -1.3343  0.0134 -0.6946
 5038SOL     OW26572   0.192   0.782   2.140  0.5853 -0.3130  0.3355
 5038SOL    HW126573   0.229   0.804   2.054 -2.0676  0.2638 -0.6599
 5038SOL    HW226574   0.183   0.872   2.170  0.3456 -0.2885  0.1913
 5039SOL     OW26575   1.380   1.162   4.110 -0.4532 -0.5851  0.0198
 5039SOL    HW126576   1.307   1.190   4.167 -0.0102 -1.3714  0.9788
 5039SOL    HW226577   1.392   1.244   4.063 -0.6498 -0.5395  0.0473
 5040SOL     OW26578   1.306   0.108  16.163  0.5543  0.0251  0.4928
 5040SOL    HW126579   1.347   0.022  16.176  1.9894  0.2642 -2.4690
 5040SOL    HW226580   1.379   0.169  16.167  1.5657 -1.2788  1.7414
 5041SOL     OW26581   2.995   0.768   1.824  0.6120 -0.5323 -0.6823
 5041SOL    HW126582   3.086   0.796   1.830  0.4211  0.2467 -1.3086
 5041SOL    HW226583   2.983   0.752   1.917 -0.4485  0.5413 -0.6247
 5042SOL     OW26584   4.317   3.184  13.067 -0.6196 -0.2919  0.4664
 5042SOL    HW126585   4.264   3.227  13.135 -0.9494  0.5499 -0.3283
 5042SOL    HW226586   4.258   3.122  13.024  0.4620 -0.9713 -0.0317
 5043SOL     OW26587   4.403   3.568   1.059 -0.5242 -0.3167 -0.2915
 5043SOL    HW126588   4.425   3.565   0.966 -0.8212  3.4328 -0.4647
 5043SOL    HW226589   4.412   3.662   1.074  2.3311 -0.6249 -0.1545
 5044SOL     OW26590   3.181   3.331  15.093  0.0862 -0.1439 -0.3673
 5044SOL    HW126591   3.262   3.329  15.042 -0.1563  0.1037 -0.7567
 5044SOL    HW226592   3.208   3.391  15.162 -1.5350 -0.6204  0.6947
 5045SOL     OW26593   4.399   3.945  15.220 -0.1897 -0.3739 -0.8780
 5045SOL    HW126594   4.311   3.916  15.246 -0.1354  0.0973 -0.1715
 5045SOL    HW226595   4.382   4.037  15.241 -0.3756 -1.2379  2.7254
 5046SOL     OW26596   0.140   2.622   7.450 -0.4411 -0.0036 -0.4405
 5046SOL    HW126597   0.144   2.707   7.407  0.5825 -0.9312 -2.1796
 5046SOL    HW226598   0.092   2.561   7.394 -0.4193  0.0847 -0.5552
 5047SOL     OW26599   0.589   2.352   3.412  0.4644  0.3130 -0.5644
 5047SOL    HW126600   0.626   2.423   3.465  1.7805 -1.4505  0.8995
 5047SOL    HW226601   0.663   2.301   3.377 -1.1738 -1.8589 -0.9023
 5048SOL     OW26602   0.306   0.563   1.784 -0.5632 -0.1342 -0.1189
 5048SOL    HW126603   0.327   0.495   1.849 -0.6481  0.2089  0.2698
 5048SOL    HW226604   0.343   0.518   1.709  0.9669  0.4368  0.2838
 5049SOL     OW26605   2.268   1.938   4.949 -0.1090 -0.0357  0.1282
 5049SOL    HW126606   2.217   1.933   5.030 -0.1787 -0.1723  0.0755
 5049SOL    HW226607   2.353   1.901   4.969 -0.3023 -0.9097 -0.6693
 5050SOL     OW26608   0.590   4.659   4.050  0.0747 -0.3037  0.4686
 5050SOL    HW126609   0.594   0.013   3.993 -1.4096 -1.2264 -0.8882
 5050SOL    HW226610   0.561   4.587   3.994 -1.7014 -0.4677  1.6196
 5051SOL     OW26611   3.085   2.979  16.371  0.4165  0.1528  0.4010
 5051SOL    HW126612   3.039   2.896  16.359 -1.4481  1.1412  0.7141
 5051SOL    HW226613   3.172   2.939  16.366  0.2585  0.0066 -1.1772
 5052SOL     OW26614   0.305   3.884  10.898 -0.8387 -0.8316 -0.3288
 5052SOL    HW126615   0.295   3.979  10.903 -0.3565 -0.8404  0.7009
 5052SOL    HW226616   0.253   3.877  10.818 -0.1865  0.3308 -0.8459
 5053SOL     OW26617   2.844   2.971   5.212 -0.5158  0.0766  0.3619
 5053SOL    HW126618   2.770   2.987   5.152  0.3480  1.0388 -0.4368
 5053SOL    HW226619   2.917   2.985   5.152  0.9949  0.5526  2.3197
 5054SOL     OW26620   4.504   2.249  13.439 -0.5271 -0.1810  0.0738
 5054SOL    HW126621   4.518   2.343  13.428 -0.9761 -0.1113  0.1089
 5054SOL    HW226622   4.542   2.235  13.526 -1.1097  1.2907  0.5509
 5055SOL     OW26623   1.774   3.515   9.382 -0.5580 -0.1078  0.2689
 5055SOL    HW126624   1.739   3.601   9.407  2.2587  0.9303  0.6317
 5055SOL    HW226625   1.783   3.526   9.287  1.8760 -0.1915  0.4963
 5056SOL     OW26626   3.923   2.531  10.807  0.0664 -0.4081  0.1885
 5056SOL    HW126627   3.834   2.499  10.797  0.3320 -0.8995 -0.5818
 5056SOL    HW226628   3.917   2.572  10.893 -0.7180 -0.6226  0.2311
 5057SOL     OW26629   1.850   0.252  14.526 -0.3898  0.1525 -0.0077
 5057SOL    HW126630   1.760   0.279  14.543  0.0964  1.1261  0.9510
 5057SOL    HW226631   1.860   0.285  14.437 -0.8367 -0.8557 -0.4393
 5058SOL     OW26632   1.900   3.298  14.317 -0.0606 -0.1483  0.2957
 5058SOL    HW126633   1.899   3.355  14.394 -2.5805 -0.6224  0.6144
 5058SOL    HW226634   1.863   3.362  14.257 -0.5897 -0.0690  0.7095
 5059SOL     OW26635   4.390   4.506   8.315  0.4278 -0.0606 -0.2090
 5059SOL    HW126636   4.391   4.601   8.325 -0.0223 -0.0915  0.1456
 5059SOL    HW226637   4.452   4.475   8.381 -0.4881 -1.7404 -0.1298
 5060SOL     OW26638   2.134   1.397   4.668  0.7600  0.5553  0.4154
 5060SOL    HW126639   2.104   1.441   4.588  1.4855 -0.9538 -0.6844
 5060SOL    HW226640   2.053   1.360   4.705  0.6220  1.5679  1.1241
 5061SOL     OW26641   4.253   2.327   3.086 -0.2129  0.1712 -0.0862
 5061SOL    HW126642   4.272   2.390   3.016  0.0245  0.9734  0.7016
 5061SOL    HW226643   4.190   2.382   3.134  1.7305  0.2973  2.3151
 5062SOL     OW26644   3.233   1.886   6.927  0.3262  0.0619 -0.5289
 5062SOL    HW126645   3.273   1.943   6.861  2.1375  2.4950  2.6300
 5062SOL    HW226646   3.180   1.826   6.875  0.4680  2.6684 -3.6975
 5063SOL     OW26647   4.018   1.166   1.582 -0.6231 -0.3440 -0.1208
 5063SOL    HW126648   4.113   1.172   1.586 -0.9030  4.1761 -0.0830
 5063SOL    HW226649   4.011   1.119   1.499 -0.5973  1.3259 -1.0696
 5064SOL     OW26650   1.181   2.256   7.343  0.4543  0.3429 -0.3266
 5064SOL    HW126651   1.174   2.188   7.409  1.1670  0.6532  0.0698
 5064SOL    HW226652   1.111   2.316   7.369  0.3268 -0.7300  1.7601
 5065SOL     OW26653   0.524   3.376   8.615  0.6210 -0.5341 -0.2076
 5065SOL    HW126654   0.491   3.408   8.699  1.5637  2.0878 -0.8296
 5065SOL    HW226655   0.502   3.283   8.612 -2.9805  0.3403 -0.1059
 5066SOL     OW26656   2.320   4.153   7.280  0.5381 -0.1784  0.7002
 5066SOL    HW126657   2.307   4.059   7.278  0.4837 -0.1438 -0.5666
 5066SOL    HW226658   2.297   4.177   7.370 -1.5931 -2.5686  0.7855
 5067SOL     OW26659   2.465   1.502   6.301  0.5507 -0.0958  0.1855
 5067SOL    HW126660   2.393   1.462   6.253 -0.3624  1.7492  0.0137
 5067SOL    HW226661   2.490   1.574   6.243 -1.4627  0.0886 -0.4340
 5068SOL     OW26662   3.129   2.812   6.324  0.0292  0.4627 -0.0308
 5068SOL    HW126663   3.110   2.778   6.411  1.7195  1.1463  0.6207
 5068SOL    HW226664   3.171   2.893   6.354 -1.0817  1.1595 -0.3513
 5069SOL     OW26665   1.583   4.197   6.209  0.0988  0.5575  0.2050
 5069SOL    HW126666   1.656   4.137   6.195 -0.1512  0.8420 -2.3501
 5069SOL    HW226667   1.505   4.168   6.162  0.7130  0.9476 -1.0473
 5070SOL     OW26668   2.398   2.665   8.276  0.7272  0.3343  0.3136
 5070SOL    HW126669   2.305   2.670   8.255  0.2652 -1.4215  1.9090
 5070SOL    HW226670   2.402   2.734   8.342  1.6711  0.2149  0.3773
 5071SOL     OW26671   2.944   2.469   3.418  0.3663  0.9380 -0.2359
 5071SOL    HW126672   2.901   2.485   3.502  0.0644  0.8533 -0.3739
 5071SOL    HW226673   2.872   2.488   3.358  0.3093 -0.7122 -0.7043
 5072SOL     OW26674   4.214   0.453  11.103 -0.2441 -0.1384 -0.2593
 5072SOL    HW126675   4.278   0.521  11.084 -0.1004  0.0611  0.9140
 5072SOL    HW226676   4.187   0.471  11.193  0.1877 -0.0710 -0.1414
 5073SOL     OW26677   1.652   0.436  15.859  0.1329 -0.5159  0.1062
 5073SOL    HW126678   1.661   0.341  15.859 -2.6826 -0.7845  1.3630
 5073SOL    HW226679   1.640   0.453  15.766 -2.7691 -0.6787  0.4390
 5074SOL     OW26680   2.823   4.397   6.150 -0.2444  0.1458 -0.0397
 5074SOL    HW126681   2.763   4.329   6.118 -0.5689  0.8897 -0.9915
 5074SOL    HW226682   2.884   4.341   6.198  0.2417  0.3055 -0.4804
 5075SOL     OW26683   3.136   2.525   3.611 -0.1856  0.0505  0.5324
 5075SOL    HW126684   3.081   2.514   3.533 -0.1979  2.4541  0.2050
 5075SOL    HW226685   3.083   2.590   3.657 -0.0511  3.2454 -3.8306
 5076SOL     OW26686   1.080   2.132   5.931 -0.0981  0.3368 -0.2999
 5076SOL    HW126687   1.036   2.082   5.999 -2.0364  1.8973 -0.4377
 5076SOL    HW226688   1.108   2.071   5.863 -1.7218  0.5726 -1.1733
 5077SOL     OW26689   0.196   1.507   7.646 -0.4591 -0.2389  0.3283
 5077SOL    HW126690   0.171   1.421   7.680  0.8416 -0.9551 -0.5439
 5077SOL    HW226691   0.229   1.553   7.724  2.6616  0.6317 -1.5330
 5078SOL     OW26692   3.735   2.309  16.048  0.1933  0.0565 -0.1008
 5078SOL    HW126693   3.643   2.284  16.057  0.1934  0.1343  0.1237
 5078SOL    HW226694   3.731   2.372  15.976 -1.0963 -0.3877 -0.4208
 5079SOL     OW26695   3.942   0.263  14.352  0.2721 -0.0570  0.4319
 5079SOL    HW126696   4.002   0.254  14.277  0.1796  0.2602  0.3207
 5079SOL    HW226697   3.859   0.278  14.308  0.1973  0.3626  0.7223
 5080SOL     OW26698   0.342   4.665  12.013  0.0391 -0.4593  0.4979
 5080SOL    HW126699   0.397   4.589  12.031  0.2292 -0.6383 -0.8067
 5080SOL    HW226700   0.362   4.701  11.927 -1.3819 -1.3646 -0.2169
 5081SOL     OW26701   0.640   4.303   5.632 -0.0160  0.4502 -0.1686
 5081SOL    HW126702   0.674   4.260   5.710 -2.3687  2.5951  2.0033
 5081SOL    HW226703   0.621   4.390   5.667  0.0327 -0.2617  1.6093
 5082SOL     OW26704   4.445   2.892   4.874  0.1831 -0.2659  0.3470
 5082SOL    HW126705   4.388   2.876   4.799  0.5213 -1.3038  0.3089
 5082SOL    HW226706   4.525   2.849   4.844 -1.0138 -2.3986  0.2111
 5083SOL     OW26707   1.495   1.257  13.852  0.9650  0.4914  0.4059
 5083SOL    HW126708   1.446   1.308  13.787  2.5743 -1.2867 -2.2012
 5083SOL    HW226709   1.509   1.171  13.813  0.3575  0.9931 -0.9147
 5084SOL     OW26710   1.084   0.643   6.845  0.2829 -0.3457 -0.6248
 5084SOL    HW126711   1.011   0.703   6.828  0.6170  0.1353 -0.3453
 5084SOL    HW226712   1.084   0.600   6.759 -1.8988  1.2990 -1.4495
 5085SOL     OW26713   2.745   2.237   8.163  0.1161 -0.1489  0.1936
 5085SOL    HW126714   2.833   2.201   8.173  0.0849  0.0404  1.1506
 5085SOL    HW226715   2.708   2.198   8.242  1.4882  1.5924  1.6834
 5086SOL     OW26716   0.596   2.362   6.551  0.6241  0.2582 -0.2268
 5086SOL    HW126717   0.636   2.331   6.633 -1.4410 -1.0932  0.2883
 5086SOL    HW226718   0.518   2.398   6.592  0.2660 -0.0910 -0.5955
 5087SOL     OW26719   2.336   3.031   9.045 -0.2331 -0.7235  0.0239
 5087SOL    HW126720   2.382   3.082   9.112 -1.5675  1.3815 -0.6677
 5087SOL    HW226721   2.397   3.012   8.974 -0.9052 -0.9932 -0.4761
 5088SOL     OW26722   2.349   1.354   7.158 -0.4543  0.4743  0.7434
 5088SOL    HW126723   2.357   1.443   7.124 -0.4557 -0.0693 -0.6818
 5088SOL    HW226724   2.422   1.354   7.220 -0.4782  1.5357  0.7740
 5089SOL     OW26725   1.467   2.214   0.981 -0.3935 -0.5698  0.0618
 5089SOL    HW126726   1.534   2.151   0.953  0.7055 -1.3691  4.4794
 5089SOL    HW226727   1.387   2.163   0.980  0.5224 -2.0371  0.6951
 5090SOL     OW26728   4.504   0.493   6.981 -0.1310 -0.7325  0.2983
 5090SOL    HW126729   4.493   0.520   7.072 -2.5151 -0.7254  0.0198
 5090SOL    HW226730   4.444   0.419   6.976 -0.7209 -0.2199 -0.2543
 5091SOL     OW26731   2.321   2.936  12.232  0.2203  0.9325  0.0303
 5091SOL    HW126732   2.247   2.935  12.171  1.9740  0.6929 -2.1243
 5091SOL    HW226733   2.347   2.844  12.231  0.3355  0.9984 -3.3242
 5092SOL     OW26734   3.678   0.309   4.149  0.6261 -0.4741 -0.1779
 5092SOL    HW126735   3.641   0.233   4.105 -0.1382  0.9811 -2.0521
 5092SOL    HW226736   3.636   0.303   4.234  1.0785 -2.5083 -0.1083
 5093SOL     OW26737   0.518   4.137   1.238 -0.8223 -0.2233 -0.2309
 5093SOL    HW126738   0.463   4.142   1.160 -1.7457  2.0181  0.5614
 5093SOL    HW226739   0.464   4.078   1.290 -0.7237  0.9785  1.2232
 5094SOL     OW26740   2.921   0.933   1.351 -0.6438  0.4384  0.6440
 5094SOL    HW126741   2.895   0.926   1.443 -0.5751 -1.4984  0.5249
 5094SOL    HW226742   2.955   1.021   1.341  2.5113 -0.8080  0.4148
 5095SOL     OW26743   0.883   0.933   4.206 -0.0642  0.0655 -0.3431
 5095SOL    HW126744   0.863   0.859   4.148 -2.0689  0.2922  0.0558
 5095SOL    HW226745   0.973   0.923   4.238 -0.5382 -1.2452  0.6087
 5096SOL     OW26746   4.464   4.057  14.759 -0.5341  0.1136  0.1276
 5096SOL    HW126747   4.423   4.079  14.843 -0.2213  1.0635  0.0291
 5096SOL    HW226748   4.403   3.995  14.719  0.0161 -0.7107  0.5431
 5097SOL     OW26749   2.496   4.069  13.211  0.4759  0.1307  0.1263
 5097SOL    HW126750   2.464   3.985  13.179 -0.9961  0.3627  1.0157
 5097SOL    HW226751   2.576   4.032  13.249  0.1120  0.4145  1.1710
 5098SOL     OW26752   0.956   4.030   9.552 -0.6239 -0.1028  0.9600
 5098SOL    HW126753   0.893   4.070   9.612 -0.1473 -0.9892  2.0495
 5098SOL    HW226754   0.927   4.060   9.466 -1.0254 -1.1398  0.7345
 5099SOL     OW26755   3.642   2.911   3.509 -0.0184  0.0871 -0.1552
 5099SOL    HW126756   3.591   2.852   3.453 -1.2633  0.7783  0.2568
 5099SOL    HW226757   3.728   2.868   3.513 -0.5971 -0.9770  0.8321
 5100SOL     OW26758   1.377   4.237   2.029  0.5116 -0.3083  0.1908
 5100SOL    HW126759   1.461   4.268   2.063 -0.5839  1.2180  1.4867
 5100SOL    HW226760   1.343   4.203   2.112  0.8171 -3.3785 -0.9432
 5101SOL     OW26761   3.255   0.529   1.101  0.3812  0.2112  0.2787
 5101SOL    HW126762   3.168   0.568   1.088 -0.4812 -1.5353  0.8494
 5101SOL    HW226763   3.257   0.451   1.046  0.2292 -1.9576  3.3765
 5102SOL     OW26764   1.692   3.944   2.086  0.7035  0.3416 -0.2048
 5102SOL    HW126765   1.688   4.012   2.018  0.5442 -0.5367 -1.0783
 5102SOL    HW226766   1.787   3.932   2.081  0.6995 -0.4557  1.6860
 5103SOL     OW26767   1.883   1.138   3.903  0.1525  0.3675  0.3844
 5103SOL    HW126768   1.969   1.126   3.945  1.1460 -0.3009 -1.8723
 5103SOL    HW226769   1.815   1.103   3.961  0.7476 -1.6949 -0.1474
 5104SOL     OW26770   2.849   1.699   9.622  0.3078 -0.1013 -0.1275
 5104SOL    HW126771   2.938   1.727   9.599  0.4209 -2.1366 -2.0519
 5104SOL    HW226772   2.801   1.780   9.605 -0.3590 -0.6480 -0.8668
 5105SOL     OW26773   0.014   3.738   3.059 -0.4449 -0.2866  0.3815
 5105SOL    HW126774   0.004   3.720   3.153  0.4949 -0.6291  0.4177
 5105SOL    HW226775   0.049   3.653   3.033 -1.0501 -0.1346 -0.9152
 5106SOL     OW26776   0.075   3.920  10.708 -0.1963  0.5271  0.1689
 5106SOL    HW126777   0.035   3.915  10.795 -1.2983 -0.7156 -0.4163
 5106SOL    HW226778   0.014   3.868  10.656  0.5748  0.3239 -0.5287
 5107SOL     OW26779   1.516   1.626   6.467  0.4114 -0.0066  0.1979
 5107SOL    HW126780   1.439   1.571   6.480 -2.0578  2.6429 -3.3318
 5107SOL    HW226781   1.486   1.667   6.386 -0.7230 -0.9981  0.1183
 5108SOL     OW26782   1.319   1.922   4.374  0.2029  0.0875  0.4092
 5108SOL    HW126783   1.282   1.917   4.462 -1.2506 -0.4778 -0.2306
 5108SOL    HW226784   1.340   2.016   4.375  1.0551 -0.0708 -1.7803
 5109SOL     OW26785   1.992   3.420   8.266 -0.1436 -0.0356 -0.2164
 5109SOL    HW126786   2.008   3.400   8.174  1.7071  1.4365 -0.2129
 5109SOL    HW226787   2.047   3.354   8.308  0.9627  0.0164 -1.5731
 5110SOL     OW26788   2.041   0.328   2.763  0.0333  0.1739  0.0390
 5110SOL    HW126789   1.999   0.330   2.677  2.4805  3.0476 -1.1062
 5110SOL    HW226790   1.963   0.305   2.813  0.1807  1.4083  0.8480
 5111SOL     OW26791   0.314   0.246  15.998 -0.3291 -0.5606  0.2824
 5111SOL    HW126792   0.397   0.267  16.039 -0.8867  2.1386  0.0026
 5111SOL    HW226793   0.253   0.280  16.063 -0.2026 -0.2531  0.2384
 5112SOL     OW26794   3.272   4.252   7.585  0.1314 -0.0297  0.3913
 5112SOL    HW126795   3.204   4.308   7.622 -0.0035 -1.0597  1.6994
 5112SOL    HW226796   3.226   4.203   7.516 -2.2694  1.5649  0.8351
 5113SOL     OW26797   1.713   1.738   1.491  0.5280 -0.0835  0.1306
 5113SOL    HW126798   1.726   1.666   1.429  0.5649  0.0086  0.0303
 5113SOL    HW226799   1.621   1.744   1.514  0.6665 -0.6502  0.8360
 5114SOL     OW26800   4.209   4.029   2.554  0.0234  0.5413 -0.9592
 5114SOL    HW126801   4.292   4.019   2.599 -0.1949  1.9984 -0.2133
 5114SOL    HW226802   4.197   4.124   2.543 -2.1287  0.3027 -0.7808
 5115SOL     OW26803   3.399   2.848   8.553  0.2871  0.4594 -0.1717
 5115SOL    HW126804   3.358   2.813   8.632 -1.3679  0.2781 -1.1090
 5115SOL    HW226805   3.340   2.923   8.540 -0.6885 -0.0647  1.1587
 5116SOL     OW26806   3.902   3.531  14.210  0.5758 -0.0498 -0.1234
 5116SOL    HW126807   3.843   3.606  14.218  1.5501  0.7341 -0.3262
 5116SOL    HW226808   3.947   3.553  14.129  0.2498 -1.8004 -0.7905
 5117SOL     OW26809   0.797   4.197   7.543  0.4589  0.4055  0.2979
 5117SOL    HW126810   0.865   4.133   7.561  0.4029 -0.4292 -2.4833
 5117SOL    HW226811   0.720   4.141   7.549  0.6935 -0.1221 -1.7856
 5118SOL     OW26812   1.650   1.772  12.950  0.0883  0.1904 -0.1398
 5118SOL    HW126813   1.663   1.860  12.916  0.0630  0.8571  1.5690
 5118SOL    HW226814   1.736   1.766  12.993  0.1956  1.5835 -0.1657
 5119SOL     OW26815   0.030   4.202   5.193  0.1411 -0.0969  0.0546
 5119SOL    HW126816   0.109   4.170   5.237 -0.6522 -2.3539 -0.1357
 5119SOL    HW226817   0.043   4.296   5.186 -0.0838  0.1348  2.8151
 5120SOL     OW26818   1.214   1.690   4.762  0.0230  0.5260 -0.3229
 5120SOL    HW126819   1.277   1.669   4.831  0.0911 -2.0529 -1.1650
 5120SOL    HW226820   1.237   1.627   4.694  1.3365 -0.9743  1.5363
 5121SOL     OW26821   2.050   1.020   9.767 -0.4379  0.3640 -0.3071
 5121SOL    HW126822   2.051   0.937   9.719 -0.3760  0.3374 -0.2605
 5121SOL    HW226823   1.967   1.067   9.759 -0.0801  1.0602  0.0663
 5122SOL     OW26824   3.690   2.412   2.269  0.0915 -0.3586  0.0372
 5122SOL    HW126825   3.614   2.386   2.218  0.6771  0.4173 -1.2364
 5122SOL    HW226826   3.753   2.340   2.256 -0.9754 -1.0557 -1.2754
 5123SOL     OW26827   3.885   3.381   4.804  0.4893 -0.1057 -0.1822
 5123SOL    HW126828   3.914   3.306   4.856 -0.1453 -1.8696 -2.3802
 5123SOL    HW226829   3.934   3.448   4.853 -0.7753  0.9044 -0.3071
 5124SOL     OW26830   2.901   0.648  16.567  0.5579 -0.6881  0.1607
 5124SOL    HW126831   2.943   0.717  16.516 -0.3414  0.7357  1.3672
 5124SOL    HW226832   2.813   0.676  16.591  1.6417  1.4761  1.6364
 5125SOL     OW26833   2.108   0.875  11.148  0.5733 -0.4505 -0.1420
 5125SOL    HW126834   2.017   0.894  11.126  0.0621  0.5822  2.8117
 5125SOL    HW226835   2.120   0.802  11.087  2.1024 -0.8607  0.6311
 5126SOL     OW26836   1.516   1.478   7.807 -0.4903 -0.0616 -0.1837
 5126SOL    HW126837   1.606   1.499   7.785 -0.0755 -0.2742  1.3220
 5126SOL    HW226838   1.530   1.393   7.848  0.3488 -1.2581 -3.0078
 5127SOL     OW26839   2.984   2.221   2.028  0.0250 -0.3480 -0.1985
 5127SOL    HW126840   2.938   2.166   1.965 -0.0029 -0.8815  0.2818
 5127SOL    HW226841   2.939   2.193   2.108  1.2709 -0.9932  0.2905
 5128SOL     OW26842   3.306   1.613  15.649 -0.2265 -0.0979 -0.2787
 5128SOL    HW126843   3.228   1.655  15.613  0.1547 -0.3446 -1.4093
 5128SOL    HW226844   3.276   1.523  15.660 -0.7882  0.2660  1.1000
 5129SOL     OW26845   3.823   4.165  12.125 -0.2211 -0.1322  0.0995
 5129SOL    HW126846   3.861   4.077  12.126  1.6987  0.6946 -1.4161
 5129SOL    HW226847   3.786   4.173  12.213  2.0206 -2.5116  1.2810
 5130SOL     OW26848   0.390   4.230   8.820 -0.1584  0.0603 -0.2455
 5130SOL    HW126849   0.312   4.186   8.853 -0.0785 -0.4448 -0.7280
 5130SOL    HW226850   0.413   4.155   8.765  2.0647  0.7147 -0.1876
 5131SOL     OW26851   3.886   4.652  16.960  0.3091  0.0686  0.2315
 5131SOL    HW126852   3.810   4.682  17.009 -0.1341  0.9487 -0.9802
 5131SOL    HW226853   3.855   4.574  16.915 -0.7318 -0.0751  1.2179
 5132SOL     OW26854   0.635   1.267   0.594  0.0064 -0.2398 -0.1864
 5132SOL    HW126855   0.659   1.206   0.663 -0.3610 -0.2355 -0.0551
 5132SOL    HW226856   0.705   1.332   0.587 -1.1582  1.2169  1.8415
 5133SOL     OW26857   0.737   1.045   3.727  0.3988 -0.7384  0.1929
 5133SOL    HW126858   0.805   1.029   3.661  1.5057  0.0302  1.1523
 5133SOL    HW226859   0.711   0.955   3.747 -1.0802 -0.1162  1.0460
 5134SOL     OW26860   2.902   3.114  11.008 -0.4932 -0.1742  0.2921
 5134SOL    HW126861   2.996   3.128  11.024 -0.5620 -2.0588  2.3463
 5134SOL    HW226862   2.884   3.184  10.945  0.1555  0.3090  0.6378
 5135SOL     OW26863   4.312   1.132   3.159  0.0514  0.0566  0.6256
 5135SOL    HW126864   4.229   1.176   3.139  0.5475  0.9320  0.4715
 5135SOL    HW226865   4.369   1.208   3.173  1.8269 -1.1170 -0.1573
 5136SOL     OW26866   4.583   1.068   0.554 -0.0806  0.3577 -0.1078
 5136SOL    HW126867   4.582   0.973   0.542  1.3216  0.5099 -1.4098
 5136SOL    HW226868   4.639   1.108   0.487 -0.8023  3.0694  0.9122
 5137SOL     OW26869   4.714   1.598  17.212 -0.2635  0.0100  0.4839
 5137SOL    HW126870   0.019   1.565  17.298  0.9881  0.9186  0.4335
 5137SOL    HW226871   4.689   1.689  17.228  0.2255  0.1476  0.4739
 5138SOL     OW26872   2.298   0.458   4.380 -0.4379  0.1145  0.1130
 5138SOL    HW126873   2.333   0.375   4.348  1.2203  0.3596  1.2539
 5138SOL    HW226874   2.231   0.467   4.312 -0.0402  0.6494 -0.2075
 5139SOL     OW26875   2.486   4.123   5.418 -0.0535 -0.5332 -0.0109
 5139SOL    HW126876   2.500   4.195   5.479  0.3792  0.0033 -0.7503
 5139SOL    HW226877   2.565   4.125   5.364  0.5027 -0.5344  0.8017
 5140SOL     OW26878   3.173   4.572  10.204  0.1439  0.1278  0.3906
 5140SOL    HW126879   3.162   4.654  10.252  1.3593  0.3586  0.2738
 5140SOL    HW226880   3.101   4.527  10.247 -0.7686  0.5731 -0.6601
 5141SOL     OW26881   0.148   0.826  13.071  0.4235 -0.0583 -0.5568
 5141SOL    HW126882   0.232   0.798  13.108  0.8458 -0.0524 -1.5057
 5141SOL    HW226883   0.170   0.918  13.056  1.2015 -0.4230 -1.6586
 5142SOL     OW26884   1.016   1.087   5.524  0.3054  0.4229  0.0193
 5142SOL    HW126885   1.034   1.060   5.434 -0.6954 -0.6833  0.1548
 5142SOL    HW226886   0.945   1.150   5.517  2.1854  2.4136 -1.1418
 5143SOL     OW26887   4.549   3.010   5.767  0.4026  0.1516  0.5008
 5143SOL    HW126888   4.488   3.065   5.718 -0.8000 -1.1880  0.4852
 5143SOL    HW226889   4.565   2.931   5.716  0.9918  0.1520  0.6881
 5144SOL     OW26890   3.328   2.610   5.520 -0.0107 -0.3328  0.4566
 5144SOL    HW126891   3.272   2.617   5.443 -0.4997  1.5098  0.9776
 5144SOL    HW226892   3.404   2.633   5.467  0.1176  1.8044  1.5344
 5145SOL     OW26893   0.873   2.930  16.640  0.3811  0.3232 -0.6423
 5145SOL    HW126894   0.943   2.989  16.612 -0.8774  2.2052  0.1694
 5145SOL    HW226895   0.918   2.846  16.637  0.2524  0.2171  0.4117
 5146SOL     OW26896   1.169   4.377  13.388 -0.3446  0.1105 -0.6204
 5146SOL    HW126897   1.238   4.337  13.441  0.3503  1.9360 -0.1244
 5146SOL    HW226898   1.121   4.301  13.357  2.1130 -1.4331 -0.6243
 5147SOL     OW26899   4.420   0.349   5.761  0.0019 -0.0526 -0.2653
 5147SOL    HW126900   4.325   0.337   5.767 -0.3324  1.1187 -2.8518
 5147SOL    HW226901   4.442   0.355   5.853 -1.4898 -0.7619  0.1360
 5148SOL     OW26902   3.106   0.448   5.649  0.3455  0.2961  0.1871
 5148SOL    HW126903   3.043   0.384   5.614 -0.4753  0.6791  0.9832
 5148SOL    HW226904   3.046   0.481   5.716  0.4659 -1.0370  0.9438
 5149SOL     OW26905   2.299   2.886  10.590 -0.6717 -0.0836 -0.2632
 5149SOL    HW126906   2.339   2.922  10.669 -1.6609 -0.5243  0.4361
 5149SOL    HW226907   2.238   2.957  10.570  0.1646  0.1503 -1.9977
 5150SOL     OW26908   2.933   0.615   4.808 -0.2167 -0.5331 -0.1163
 5150SOL    HW126909   2.856   0.583   4.855 -0.0810  1.1559  1.2393
 5150SOL    HW226910   2.890   0.641   4.726  0.3670 -0.2987 -0.3435
 5151SOL     OW26911   2.797   2.154   1.554  0.2497 -0.6886  0.2219
 5151SOL    HW126912   2.830   2.140   1.642  1.0062  1.3275  0.2614
 5151SOL    HW226913   2.885   2.170   1.518  0.8301  1.1443  2.4887
 5152SOL     OW26914   1.542   0.701   8.916 -0.2499 -0.3201 -0.5581
 5152SOL    HW126915   1.635   0.720   8.912 -0.3231 -0.4936 -3.2345
 5152SOL    HW226916   1.517   0.788   8.884 -1.9117 -0.4472  0.3745
 5153SOL     OW26917   2.971   1.832   5.942 -0.7767  0.5625 -0.1462
 5153SOL    HW126918   3.019   1.895   5.889 -0.0504  2.5968  2.9327
 5153SOL    HW226919   3.041   1.771   5.965 -0.8773  0.3570 -0.3726
 5154SOL     OW26920   4.097   1.524   6.679  0.1926 -0.3151  0.1622
 5154SOL    HW126921   4.023   1.503   6.622 -0.5174  0.0715  0.9464
 5154SOL    HW226922   4.121   1.605   6.633  0.5279 -0.1494  0.6304
 5155SOL     OW26923   2.863   1.421   6.553  0.6281 -0.3886 -0.0070
 5155SOL    HW126924   2.797   1.367   6.598  0.1289 -0.4488 -0.8105
 5155SOL    HW226925   2.934   1.361   6.532 -0.2916 -1.8408  0.9694
 5156SOL     OW26926   4.552   2.483   2.101 -0.7445 -0.3315 -0.3166
 5156SOL    HW126927   4.625   2.542   2.080 -1.8377  1.0643 -0.1990
 5156SOL    HW226928   4.496   2.551   2.138  3.6632  2.3747  1.5033
 5157SOL     OW26929   3.412   4.059  10.530  0.1577 -0.0644  0.4480
 5157SOL    HW126930   3.417   4.072  10.625  0.4781  5.0643 -0.3006
 5157SOL    HW226931   3.472   4.125  10.498 -0.5828  0.0176 -0.7552
 5158SOL     OW26932   1.364   1.552   4.213  0.4262  0.2513  0.1292
 5158SOL    HW126933   1.390   1.538   4.122  1.4436 -0.8508  0.5960
 5158SOL    HW226934   1.268   1.548   4.211  0.4685 -0.8424  1.1983
 5159SOL     OW26935   1.966   3.990   5.052  0.2963  0.1307 -0.2325
 5159SOL    HW126936   1.900   3.922   5.066  1.7816 -0.9712  1.4602
 5159SOL    HW226937   1.974   4.031   5.138 -1.7170  3.0912 -1.4595
 5160SOL     OW26938   4.471   0.192   4.775 -0.3451  0.2144  0.5093
 5160SOL    HW126939   4.467   0.281   4.810 -0.2997  0.4300 -0.0289
 5160SOL    HW226940   4.381   0.161   4.787 -0.0643 -0.5863  0.5502
 5161SOL     OW26941   2.027   1.580   6.065  0.0380  0.6748  0.0267
 5161SOL    HW126942   1.959   1.530   6.019  1.4826 -0.5103 -0.8089
 5161SOL    HW226943   1.973   1.639   6.119 -0.5172  1.7231 -1.6772
 5162SOL     OW26944   2.541   2.244   3.507 -0.0749 -0.1009  0.0216
 5162SOL    HW126945   2.611   2.260   3.443  0.9120 -0.0237  1.1221
 5162SOL    HW226946   2.498   2.175   3.456 -0.1152 -0.4612  0.5520
 5163SOL     OW26947   2.834   4.174  13.180  0.2013  0.0120  0.8322
 5163SOL    HW126948   2.794   4.110  13.239 -0.0172  0.6584  1.3675
 5163SOL    HW226949   2.897   4.122  13.129  1.0069 -0.2503  2.1077
 5164SOL     OW26950   4.260   3.007   3.222  0.5246  0.4735 -0.1635
 5164SOL    HW126951   4.174   3.004   3.263  0.1806  1.7280 -0.8047
 5164SOL    HW226952   4.225   3.001   3.133 -1.3739 -0.1363  0.6260
 5165SOL     OW26953   4.697   1.158  16.220  0.0182 -0.0371 -0.2489
 5165SOL    HW126954   0.033   1.093  16.182  0.1854  0.1880 -0.3725
 5165SOL    HW226955   0.007   1.167  16.309  2.7861 -3.2775 -0.9113
 5166SOL     OW26956   0.959   3.162   5.162  0.1154 -0.1432  0.2288
 5166SOL    HW126957   0.987   3.248   5.195  1.1321  0.5649 -2.5072
 5166SOL    HW226958   1.024   3.149   5.092 -0.9767 -2.1445 -0.3737
 5167SOL     OW26959   3.830   4.430   5.492  0.4855  0.3778  0.2593
 5167SOL    HW126960   3.867   4.355   5.445 -0.5678 -0.2242  0.3846
 5167SOL    HW226961   3.863   4.508   5.448 -1.2197  0.4348 -0.8864
 5168SOL     OW26962   2.567   2.113  17.498 -0.6783  0.2700 -0.4924
 5168SOL    HW126963   2.567   2.157  17.413 -0.7256  2.5285  0.7081
 5168SOL    HW226964   2.629   2.166  17.549  0.5782 -0.3325 -1.3790
 5169SOL     OW26965   0.971   2.326   4.759 -0.4166 -0.0685  0.1904
 5169SOL    HW126966   0.896   2.329   4.699  1.2067 -0.1106 -1.8301
 5169SOL    HW226967   0.958   2.244   4.807 -2.9240  0.4228  0.3890
 5170SOL     OW26968   0.124   1.534   2.700 -0.2131  0.0718 -0.2697
 5170SOL    HW126969   0.135   1.576   2.785  0.2252 -0.3159 -0.1305
 5170SOL    HW226970   0.191   1.583   2.652  0.5806 -0.3657  0.3875
 5171SOL     OW26971   2.842   0.547   7.697  0.2346 -0.0875  0.3945
 5171SOL    HW126972   2.888   0.570   7.777 -0.0114 -1.2604  0.8748
 5171SOL    HW226973   2.761   0.598   7.702 -0.8210 -1.8926  1.9585
 5172SOL     OW26974   4.101   0.713   0.577 -0.6793  0.1125 -0.1019
 5172SOL    HW126975   4.107   0.657   0.654 -0.3270 -1.9529 -1.6340
 5172SOL    HW226976   4.099   0.647   0.507 -2.2117  0.0352  0.0143
 5173SOL     OW26977   4.603   0.142   3.481  0.5270 -0.3765 -0.0391
 5173SOL    HW126978   4.570   0.141   3.571 -0.8267  0.1826 -0.5337
 5173SOL    HW226979   4.694   0.170   3.494  0.7774 -1.0916 -0.2337
 5174SOL     OW26980   0.467   3.527  15.567 -0.2361 -0.1685  0.4727
 5174SOL    HW126981   0.492   3.474  15.643 -0.4798 -1.6797 -0.4856
 5174SOL    HW226982   0.549   3.575  15.565  1.0694 -2.4927 -1.5220
 5175SOL     OW26983   0.442   2.498   9.145 -0.3021 -0.4472  0.0788
 5175SOL    HW126984   0.522   2.544   9.169 -1.1190  2.3369 -2.5852
 5175SOL    HW226985   0.440   2.411   9.185  1.1229 -1.5689 -2.2824
 5176SOL     OW26986   4.269   1.262  15.183  0.4989 -0.0553 -0.0432
 5176SOL    HW126987   4.219   1.221  15.113 -1.0079 -0.2881  1.1558
 5176SOL    HW226988   4.239   1.350  15.162  0.0665 -0.4252 -0.9660
 5177SOL     OW26989   1.909   1.952   3.184 -0.1520 -0.2173  0.0872
 5177SOL    HW126990   1.942   1.943   3.095 -0.4939  1.5761 -0.2364
 5177SOL    HW226991   1.846   2.025   3.182  0.5766  0.4384  1.2380
 5178SOL     OW26992   4.523   3.101   8.600 -0.4458  0.2897  0.1382
 5178SOL    HW126993   4.455   3.087   8.535 -0.6079  2.6334 -0.2003
 5178SOL    HW226994   4.592   3.050   8.560 -1.1427 -1.3288  0.9860
 5179SOL     OW26995   3.034   3.529   8.504  0.3525 -0.3947  0.6211
 5179SOL    HW126996   3.092   3.507   8.430  1.2225 -0.2321  1.2518
 5179SOL    HW226997   3.045   3.624   8.497 -1.0450 -0.4259 -2.1057
 5180SOL     OW26998   1.676   1.583   3.979 -0.6781 -0.1619 -0.4600
 5180SOL    HW126999   1.655   1.500   3.936  0.1605 -1.0241  0.7991
 5180SOL    HW227000   1.597   1.629   3.952  0.4323  1.8705 -0.3121
 5181SOL     OW27001   0.088   4.311   6.171  0.1043  0.4882 -0.1806
 5181SOL    HW127002   0.097   4.398   6.131  1.6687  1.1009  1.4603
 5181SOL    HW227003   0.017   4.335   6.230 -0.3695 -4.3586  1.1837
 5182SOL     OW27004   1.440   4.317   7.939  0.1330 -1.1205 -0.6890
 5182SOL    HW127005   1.354   4.342   7.905 -0.4526 -1.5999  0.4447
 5182SOL    HW227006   1.419   4.275   8.022  2.5689  0.6554  0.8312
 5183SOL     OW27007   3.210   3.609   3.977  0.1384  0.6004  0.3322
 5183SOL    HW127008   3.177   3.519   3.983  3.0989 -0.5807 -1.1918
 5183SOL    HW227009   3.253   3.611   3.892  0.5445  1.9727  0.5742
 5184SOL     OW27010   2.336   1.511   6.811 -0.0749  0.4389  0.5226
 5184SOL    HW127011   2.425   1.502   6.844  1.1429  0.8517 -2.6266
 5184SOL    HW227012   2.354   1.509   6.717 -2.4992 -0.1646  0.0479
 5185SOL     OW27013   0.029   2.181   5.717  0.6714 -0.1099 -0.0444
 5185SOL    HW127014   4.665   2.175   5.678  0.6041 -2.1289  0.4163
 5185SOL    HW227015   0.092   2.174   5.645 -0.9549 -0.8707 -1.3784
 5186SOL     OW27016   3.257   0.468  10.381  0.9421  0.2429  0.2656
 5186SOL    HW127017   3.219   0.548  10.417 -0.8355 -1.6705  2.6536
 5186SOL    HW227018   3.176   0.418  10.384 -1.0798  3.5923  2.2140
 5187SOL     OW27019   3.446   3.036   6.393  0.0713 -0.5152 -0.4677
 5187SOL    HW127020   3.353   3.052   6.413 -0.8645 -1.0543 -4.2988
 5187SOL    HW227021   3.472   2.966   6.452  1.1884 -0.8850 -1.3983
 5188SOL     OW27022   0.177   4.437   4.191 -0.1980  0.1564  0.7928
 5188SOL    HW127023   0.095   4.399   4.221 -0.1033 -2.2090 -1.9413
 5188SOL    HW227024   0.189   4.379   4.116 -0.9306  2.0918 -0.8132
 5189SOL     OW27025   1.865   0.272   2.548 -0.1884  0.0580 -0.0763
 5189SOL    HW127026   1.788   0.226   2.516  1.3344 -2.5204  0.0156
 5189SOL    HW227027   1.878   0.328   2.471  0.6161 -1.5621 -1.1224
 5190SOL     OW27028   2.144   0.597   9.816 -0.1916  0.6105  0.7687
 5190SOL    HW127029   2.077   0.635   9.872 -1.9591 -0.4343 -0.6588
 5190SOL    HW227030   2.136   0.502   9.820  0.1171  0.4890 -1.0789
 5191SOL     OW27031   1.063   4.249   6.638  0.9149  0.0683  0.1457
 5191SOL    HW127032   1.021   4.329   6.607  0.7879 -0.5833 -1.3822
 5191SOL    HW227033   1.037   4.268   6.728  0.2277 -0.0076 -0.0356
 5192SOL     OW27034   0.401   2.053   3.781  0.0644  0.4359 -0.0566
 5192SOL    HW127035   0.388   1.962   3.753 -0.4294  0.6967 -0.6900
 5192SOL    HW227036   0.426   2.098   3.700  0.1796 -0.4308 -0.5114
 5193SOL     OW27037   4.643   3.709   4.493 -0.8780  0.0584  0.0174
 5193SOL    HW127038   4.585   3.775   4.530 -0.0312  1.8537 -1.8281
 5193SOL    HW227039   4.607   3.713   4.404 -0.1849 -2.3558 -0.3812
 5194SOL     OW27040   3.537   0.936   2.902 -0.6846 -0.1670  0.7580
 5194SOL    HW127041   3.479   0.953   2.827 -0.7132 -1.3738  0.5074
 5194SOL    HW227042   3.553   1.027   2.926  0.6894 -0.1750 -0.1550
 5195SOL     OW27043   0.773   3.030   8.503 -0.2268  0.6266  0.7557
 5195SOL    HW127044   0.765   2.944   8.544 -2.0325 -0.7468 -2.4844
 5195SOL    HW227045   0.684   3.048   8.473  0.3633  3.2078  0.5091
 5196SOL     OW27046   2.682   0.332   6.555  0.1427 -0.2457 -0.3219
 5196SOL    HW127047   2.710   0.323   6.464 -2.8090  1.1113 -1.3829
 5196SOL    HW227048   2.625   0.258   6.576  1.5257 -1.3406 -0.4049
 5197SOL     OW27049   3.503   2.978   2.461  0.0369  0.2201 -0.6717
 5197SOL    HW127050   3.475   3.069   2.459  0.5752  0.4104  0.3127
 5197SOL    HW227051   3.592   2.993   2.432  0.8582 -0.4826  1.4710
 5198SOL     OW27052   3.088   4.638   3.304  0.7678  0.0064  0.0877
 5198SOL    HW127053   3.154   4.582   3.346  0.5846 -0.1001  0.2304
 5198SOL    HW227054   3.107   4.719   3.350  0.9712 -0.6861  1.2276
 5199SOL     OW27055   1.905   0.785   5.359 -0.2327  0.4848 -0.4605
 5199SOL    HW127056   1.934   0.872   5.386 -0.1004  0.4685 -0.5461
 5199SOL    HW227057   1.823   0.777   5.407 -0.1185  0.8797 -0.1942
 5200SOL     OW27058   3.954   2.442   0.198 -0.0982 -0.1786 -0.0279
 5200SOL    HW127059   3.939   2.349   0.181  0.3852 -0.0426 -1.1310
 5200SOL    HW227060   3.872   2.457   0.246 -0.0735 -1.0333  0.2821
 5201SOL     OW27061   2.340   0.591   8.213  0.5141 -0.2889  0.1078
 5201SOL    HW127062   2.397   0.515   8.200 -1.6472 -1.7541 -0.8222
 5201SOL    HW227063   2.403   0.656   8.246 -0.2037  0.2539  0.4100
 5202SOL     OW27064   0.176   3.644   7.485 -0.0980  0.2537 -0.0723
 5202SOL    HW127065   0.121   3.719   7.461  0.9695  1.4482  1.2278
 5202SOL    HW227066   0.195   3.605   7.399 -1.1654  0.1813 -0.2802
 5203SOL     OW27067   1.817   0.317   3.973  0.2485  0.1723 -0.7082
 5203SOL    HW127068   1.784   0.389   3.920 -1.2616 -0.7137 -0.9708
 5203SOL    HW227069   1.815   0.255   3.900  0.9314 -1.4789  0.6704
 5204SOL     OW27070   1.758   1.195  13.508 -0.5654 -0.7804 -0.2311
 5204SOL    HW127071   1.745   1.263  13.574 -1.1025 -1.2628  0.1591
 5204SOL    HW227072   1.671   1.163  13.485 -1.3955  1.3430 -0.0432
 5205SOL     OW27073   1.460   1.251   2.315 -0.3323  0.1429 -0.6264
 5205SOL    HW127074   1.490   1.226   2.403  2.0000  0.6773 -1.2636
 5205SOL    HW227075   1.532   1.312   2.299 -0.0470 -0.1667 -0.5354
 5206SOL     OW27076   1.474   3.363   5.500  0.0500  0.2375  0.8033
 5206SOL    HW127077   1.388   3.326   5.482  0.9352  1.3443 -5.6051
 5206SOL    HW227078   1.473   3.436   5.439 -3.7020 -0.0992  0.4514
 5207SOL     OW27079   2.062   1.248   5.881  0.1863 -0.7437  0.1128
 5207SOL    HW127080   2.136   1.308   5.871 -0.1315  0.1899  3.3585
 5207SOL    HW227081   2.103   1.168   5.848  0.2621 -0.8341  0.4311
 5208SOL     OW27082   2.093   0.614   2.877  0.2170 -0.1620  0.3235
 5208SOL    HW127083   2.074   0.701   2.840 -0.5119 -0.8021 -0.7890
 5208SOL    HW227084   2.186   0.610   2.856  0.6150 -1.3798  2.3201
 5209SOL     OW27085   3.842   4.134   1.501 -0.3828  0.3512 -0.1040
 5209SOL    HW127086   3.911   4.197   1.483 -0.8991 -0.1315 -3.7793
 5209SOL    HW227087   3.875   4.093   1.581 -0.9932 -1.0209 -0.5627
 5210SOL     OW27088   2.552   1.311   4.832 -0.1878 -0.1950 -0.0567
 5210SOL    HW127089   2.612   1.275   4.767 -2.1814 -0.8951 -1.5203
 5210SOL    HW227090   2.590   1.389   4.872 -0.5580 -1.3661  2.5631
 5211SOL     OW27091   2.573   0.092   2.885 -0.0685 -0.5188 -0.1893
 5211SOL    HW127092   2.545   0.012   2.929  1.0394 -0.3575  0.8121
 5211SOL    HW227093   2.551   0.062   2.797  0.1671  2.4313 -1.2631
 5212SOL     OW27094   0.712   2.915   9.658 -0.4431  0.0011 -0.2244
 5212SOL    HW127095   0.679   2.996   9.698  0.7276  0.2258  0.2903
 5212SOL    HW227096   0.636   2.874   9.617  1.0360  0.5025 -3.4073
 5213SOL     OW27097   3.024   2.223   6.580 -0.3047 -0.3704  0.2298
 5213SOL    HW127098   2.991   2.217   6.670 -0.9147  2.3713  0.2132
 5213SOL    HW227099   3.025   2.317   6.562 -1.1282 -0.5854 -0.9331
 5214SOL     OW27100   4.271   1.877  16.883 -0.1965 -0.5552 -0.5872
 5214SOL    HW127101   4.366   1.866  16.889 -0.1024 -0.5375 -2.0348
 5214SOL    HW227102   4.242   1.855  16.971  0.4591 -0.5940 -0.3783
 5215SOL     OW27103   2.463   3.513   9.022  0.8257  0.0626 -0.2335
 5215SOL    HW127104   2.374   3.507   8.986  0.7359  1.9115 -0.3277
 5215SOL    HW227105   2.487   3.604   9.006 -2.0321  0.8927  0.2304
 5216SOL     OW27106   3.453   1.654  16.937 -0.2815 -0.0057  0.8650
 5216SOL    HW127107   3.396   1.705  16.880  0.1923  0.0392  0.4301
 5216SOL    HW227108   3.430   1.566  16.908  2.1330  0.2497 -1.8219
 5217SOL     OW27109   1.041   1.468  11.151  0.2911  0.0990 -0.1491
 5217SOL    HW127110   1.071   1.536  11.091 -1.8464  1.4719  0.3336
 5217SOL    HW227111   0.984   1.517  11.210  1.5834  1.7912 -0.2953
 5218SOL     OW27112   1.148   0.275   8.665 -0.2687  0.5997 -0.3705
 5218SOL    HW127113   1.233   0.266   8.622  0.7174  1.2781  1.4291
 5218SOL    HW227114   1.094   0.258   8.588  1.3992 -0.5531 -1.3012
 5219SOL     OW27115   1.133   1.705   0.673 -0.2761  0.5534 -0.0195
 5219SOL    HW127116   1.173   1.636   0.725  1.4717  0.5449 -1.3726
 5219SOL    HW227117   1.202   1.709   0.607  0.4674 -5.3678  0.4705
 5220SOL     OW27118   1.312   1.726  17.498 -0.2853  0.2539 -0.3199
 5220SOL    HW127119   1.287   1.750  17.409  0.5654  0.8750 -0.4004
 5220SOL    HW227120   1.375   1.797  17.515 -0.2325 -0.4406  2.5066
 5221SOL     OW27121   4.440   2.275   3.559 -0.1100 -0.5039  0.7301
 5221SOL    HW127122   4.440   2.240   3.470  1.2667  2.0180 -0.2300
 5221SOL    HW227123   4.348   2.254   3.575 -0.1538 -1.7853 -1.1829
 5222SOL     OW27124   1.717   3.084  16.166 -0.3925 -0.3288 -0.1352
 5222SOL    HW127125   1.802   3.050  16.138  0.6028  1.3398  0.8347
 5222SOL    HW227126   1.673   3.074  16.081  1.8179  1.6488 -1.5453
 5223SOL     OW27127   0.096   0.424   9.750 -0.2927 -0.1690 -0.4423
 5223SOL    HW127128   0.088   0.472   9.667  0.2069  1.1786  0.2899
 5223SOL    HW227129   0.189   0.428   9.771 -0.1440  1.9791 -1.5258
 5224SOL     OW27130   3.893   4.603   0.084  0.0428 -0.1341 -0.2264
 5224SOL    HW127131   3.821   4.568   0.137  0.7004 -1.5251 -0.2605
 5224SOL    HW227132   3.929   4.517   0.062  0.8313 -0.3003  1.7097
 5225SOL     OW27133   2.663   2.459   2.069  0.1144 -0.2361 -0.5931
 5225SOL    HW127134   2.678   2.425   2.158  1.0199 -1.3227 -1.1556
 5225SOL    HW227135   2.714   2.539   2.061 -0.0465 -0.2890 -2.0416
 5226SOL     OW27136   0.141   3.625   5.473  0.2426 -0.2228 -0.7113
 5226SOL    HW127137   0.120   3.718   5.480 -2.0609 -0.7636 -0.4697
 5226SOL    HW227138   0.081   3.591   5.407 -0.2488 -1.5789  0.4304
 5227SOL     OW27139   3.935   3.060  15.979 -0.3194  0.0978 -0.2896
 5227SOL    HW127140   3.891   3.144  15.973 -2.3797 -1.0150 -0.9585
 5227SOL    HW227141   3.919   3.030  16.069  0.0825  0.9930  0.0784
 5228SOL     OW27142   3.779   0.852   5.815  0.1981  0.1686  0.0027
 5228SOL    HW127143   3.742   0.774   5.857  1.6847 -0.4800  0.1148
 5228SOL    HW227144   3.801   0.902   5.893 -1.4762 -1.0705  1.2722
 5229SOL     OW27145   4.365   4.648   9.239  0.2604 -0.3357  0.3057
 5229SOL    HW127146   4.302   4.582   9.267 -1.6775  1.5985  0.5030
 5229SOL    HW227147   4.393   4.598   9.162 -2.2201 -1.0092 -0.1690
 5230SOL     OW27148   0.522   0.365   3.991  0.2746  0.2622 -0.3390
 5230SOL    HW127149   0.491   0.437   3.936 -1.3859 -0.3364 -0.1999
 5230SOL    HW227150   0.476   0.379   4.074  4.2592 -2.2559  2.3053
 5231SOL     OW27151   0.792   1.171   2.809 -0.4534  0.0170 -0.6430
 5231SOL    HW127152   0.782   1.195   2.717  0.4675 -1.8215 -1.2117
 5231SOL    HW227153   0.817   1.080   2.797  0.1229  0.0428  0.3428
 5232SOL     OW27154   3.732   2.591   3.737 -0.4711 -0.4383 -0.2659
 5232SOL    HW127155   3.729   2.570   3.643 -0.7214  0.1868 -0.4010
 5232SOL    HW227156   3.701   2.509   3.774 -1.2355 -0.4053 -0.8324
 5233SOL     OW27157   1.707   2.000  17.429  0.3478  0.3880 -0.3096
 5233SOL    HW127158   1.625   1.988  17.477  1.2609  0.2751  1.1981
 5233SOL    HW227159   1.736   2.074  17.482  2.0647 -0.1184 -0.5395
 5234SOL     OW27160   0.461   0.111   3.140  0.0295 -0.5349  0.8995
 5234SOL    HW127161   0.532   0.074   3.088 -1.3220  2.8513 -3.3401
 5234SOL    HW227162   0.388   0.049   3.143  0.5268 -1.1396  0.4431
 5235SOL     OW27163   3.539   0.742   7.692 -0.1760 -0.1352 -0.1293
 5235SOL    HW127164   3.452   0.764   7.726 -0.7321 -0.8151 -1.1287
 5235SOL    HW227165   3.562   0.826   7.651 -1.5566  1.0605  1.5287
 5236SOL     OW27166   1.069   2.546   9.464 -0.5946 -0.6609  0.1052
 5236SOL    HW127167   1.013   2.619   9.493  1.0669 -0.0460  1.8075
 5236SOL    HW227168   1.148   2.599   9.462  0.1791 -1.8024  0.6896
 5237SOL     OW27169   3.323   0.377  13.335  0.4954  0.8625 -0.1764
 5237SOL    HW127170   3.348   0.405  13.424 -0.4671  1.5824 -0.1345
 5237SOL    HW227171   3.318   0.461  13.290 -2.8563  0.5172 -0.4447
 5238SOL     OW27172   2.716   0.348  15.737  0.1365  0.3350 -0.0051
 5238SOL    HW127173   2.651   0.417  15.747  1.1814  0.6998  4.0224
 5238SOL    HW227174   2.755   0.387  15.658  0.8570 -0.1853  0.0906
 5239SOL     OW27175   1.388   3.527   6.791  0.4423  0.2844  0.0170
 5239SOL    HW127176   1.428   3.455   6.743 -1.0079 -0.2529 -0.3867
 5239SOL    HW227177   1.436   3.605   6.763  0.1629  0.5904  0.3883
 5240SOL     OW27178   4.572   2.385  14.861 -0.3567 -0.3668  0.6504
 5240SOL    HW127179   4.646   2.425  14.816 -0.4082  2.5610  3.1121
 5240SOL    HW227180   4.519   2.464  14.871 -0.3473 -0.1671 -0.8829
 5241SOL     OW27181   0.143   4.538  15.055  0.5605 -0.2625  0.0714
 5241SOL    HW127182   0.227   4.567  15.019 -0.0935  0.1214 -1.1638
 5241SOL    HW227183   0.173   4.458  15.098  2.1032 -0.3296 -1.0979
 5242SOL     OW27184   3.428   0.054  11.957  0.3378 -0.3427 -0.3177
 5242SOL    HW127185   3.508   0.017  11.995  0.8709 -0.7889 -1.8685
 5242SOL    HW227186   3.360   0.002  12.000 -0.9483  2.9231  1.5909
 5243SOL     OW27187   0.236   3.196  13.869  0.3310  0.5240 -0.0971
 5243SOL    HW127188   0.276   3.243  13.796 -0.5812  0.2531 -0.7697
 5243SOL    HW227189   0.148   3.233  13.866  0.9256  1.9896  0.7795
 5244SOL     OW27190   3.006   3.701   1.300  0.1167  0.3503 -0.3000
 5244SOL    HW127191   3.076   3.635   1.297 -0.2008 -0.0991  2.0886
 5244SOL    HW227192   3.041   3.777   1.346 -1.6524  1.8716 -1.5176
 5245SOL     OW27193   0.575   4.597   8.601  0.2598  0.1640 -0.0862
 5245SOL    HW127194   0.583   4.649   8.522  0.9370  0.7591  0.3714
 5245SOL    HW227195   0.642   4.635   8.659  0.2815  1.2680 -0.8388
 5246SOL     OW27196   4.570   1.930   8.128  0.2979  0.1138  0.2954
 5246SOL    HW127197   4.532   1.861   8.182  1.8651 -0.8144  0.2069
 5246SOL    HW227198   4.633   1.968   8.189  3.5765 -1.3824 -2.1477
 5247SOL     OW27199   0.206   2.129   5.337  0.5954 -0.3416 -0.1846
 5247SOL    HW127200   0.229   2.064   5.271 -3.2288 -0.1599 -1.7151
 5247SOL    HW227201   0.275   2.101   5.397  1.8364  0.7010 -1.1361
 5248SOL     OW27202   2.513   3.084   7.006  0.0261 -0.6971  0.4739
 5248SOL    HW127203   2.606   3.065   6.990  0.8983  4.5090 -0.6422
 5248SOL    HW227204   2.515   3.179   6.997  1.5987 -0.9828 -2.2697
 5249SOL     OW27205   2.182   3.901  13.571 -0.0363  0.3629  0.3273
 5249SOL    HW127206   2.168   3.849  13.650 -0.6260 -0.3011 -0.2127
 5249SOL    HW227207   2.263   3.946  13.594 -0.8542  1.2232  1.5708
 5250SOL     OW27208   1.655   3.150   9.459 -0.1560  0.3706  0.3143
 5250SOL    HW127209   1.582   3.088   9.458  0.0576  0.1478 -1.5522
 5250SOL    HW227210   1.700   3.110   9.384 -0.5043  0.6259 -0.0310
 5251SOL     OW27211   4.481   4.143   3.286  0.6683  0.1897  0.3054
 5251SOL    HW127212   4.550   4.209   3.289 -0.0209  0.9064  0.2984
 5251SOL    HW227213   4.457   4.155   3.194 -1.6701  2.0079  1.1696
 5252SOL     OW27214   4.424   0.781   4.647  0.2615 -0.4067 -0.5726
 5252SOL    HW127215   4.413   0.794   4.741 -1.8453  3.4719 -1.3768
 5252SOL    HW227216   4.338   0.772   4.607 -0.4648 -3.0352  1.5134
 5253SOL     OW27217   3.573   0.277   2.856  0.0124  0.5818 -0.0783
 5253SOL    HW127218   3.536   0.365   2.865 -1.0424  0.0946  0.4051
 5253SOL    HW227219   3.532   0.241   2.778  2.8175 -0.6168 -0.9867
 5254SOL     OW27220   0.399   1.385   0.533 -0.3207  0.1082 -0.3405
 5254SOL    HW127221   0.354   1.322   0.478 -1.1436  0.1976  0.2300
 5254SOL    HW227222   0.485   1.349   0.557 -0.2067  0.0617 -0.8213
 5255SOL     OW27223   1.799   4.278   9.453 -0.4966 -0.4177  0.0988
 5255SOL    HW127224   1.704   4.276   9.467 -0.8875  0.8315 -2.3748
 5255SOL    HW227225   1.842   4.221   9.517 -0.8316 -1.4459 -0.6042
 5256SOL     OW27226   0.074   0.713   2.795 -0.2710 -0.7191  0.0374
 5256SOL    HW127227   0.003   0.651   2.810  0.1194 -0.9234  1.0911
 5256SOL    HW227228   0.142   0.675   2.851  0.8528 -1.0705 -1.5468
 5257SOL     OW27229   2.472   1.514   6.579 -0.5743  0.2313 -0.1683
 5257SOL    HW127230   2.487   1.495   6.487 -0.3439 -0.1298 -0.0571
 5257SOL    HW227231   2.494   1.607   6.581  2.6489 -0.4743 -2.6167
 5258SOL     OW27232   3.896   0.976   1.713 -0.4411 -0.0465  0.4990
 5258SOL    HW127233   3.946   1.050   1.679 -1.0091  0.2412  0.2771
 5258SOL    HW227234   3.810   1.017   1.706  0.0540  0.6656 -1.5375
 5259SOL     OW27235   1.553   0.798   7.569  0.4030 -0.0940  0.4240
 5259SOL    HW127236   1.529   0.707   7.550  2.7859 -0.5547 -0.3119
 5259SOL    HW227237   1.648   0.800   7.577  0.4888  0.8276 -0.8444
 5260SOL     OW27238   1.478   3.415   3.593  0.2476  0.5146 -0.2118
 5260SOL    HW127239   1.502   3.508   3.594  0.8563  0.3307  1.4939
 5260SOL    HW227240   1.383   3.420   3.602  0.0831 -1.2012 -1.0648
 5261SOL     OW27241   1.644   0.213   5.857  0.2299 -0.0388 -0.3940
 5261SOL    HW127242   1.731   0.209   5.816 -0.5054 -0.0795 -1.9338
 5261SOL    HW227243   1.614   0.299   5.830  2.9170  0.2896 -2.3341
 5262SOL     OW27244   3.651   3.126   2.086 -0.0950 -0.0931 -0.4441
 5262SOL    HW127245   3.702   3.052   2.054 -2.6530 -0.5783 -3.4191
 5262SOL    HW227246   3.570   3.106   2.038  0.8125 -0.3968 -1.8587
 5263SOL     OW27247   0.015   3.538   5.230 -0.1049 -0.6081 -0.3284
 5263SOL    HW127248   0.020   3.484   5.150 -1.9065 -1.7982  0.3681
 5263SOL    HW227249   4.648   3.570   5.239  0.9299  1.8195  1.2508
 5264SOL     OW27250   3.420   1.880   1.531  0.3609  0.8238 -0.5554
 5264SOL    HW127251   3.496   1.932   1.504  0.4263  1.3296  0.6145
 5264SOL    HW227252   3.449   1.813   1.593 -0.7839 -0.4795 -1.4113
 5265SOL     OW27253   0.970   3.140  11.128  0.2963  0.1919  0.7865
 5265SOL    HW127254   0.988   3.064  11.183 -0.5347 -0.2106  0.5107
 5265SOL    HW227255   0.875   3.130  11.116  0.0446  0.3031  2.7070
 5266SOL     OW27256   3.817   4.590   6.011 -0.0543  0.0352 -0.4948
 5266SOL    HW127257   3.859   4.604   5.926  2.1797  0.7957  0.7425
 5266SOL    HW227258   3.879   4.545   6.068 -2.7534 -1.8846  0.9516
 5267SOL     OW27259   2.964   0.145   7.910 -0.2331  0.4928 -0.1819
 5267SOL    HW127260   3.042   0.170   7.959  0.5500  0.2433 -1.2879
 5267SOL    HW227261   2.923   0.226   7.880 -0.3390  0.5341  0.0704
 5268SOL     OW27262   0.587   2.863   9.360  0.3496 -0.5066  0.4991
 5268SOL    HW127263   0.636   2.885   9.280 -0.1071  0.0309  0.3597
 5268SOL    HW227264   0.612   2.772   9.371 -0.3734 -0.5689  1.6367
 5269SOL     OW27265   3.396   2.506  11.101 -0.0442  0.1560  0.2636
 5269SOL    HW127266   3.400   2.528  11.194  2.5170 -0.0321  0.1952
 5269SOL    HW227267   3.480   2.466  11.081  0.1447  1.0441 -0.7208
 5270SOL     OW27268   3.106   1.328   0.719 -0.1156 -0.0726  0.1657
 5270SOL    HW127269   3.161   1.251   0.706  0.6957  0.5912 -0.3699
 5270SOL    HW227270   3.123   1.384   0.643  1.5194 -0.5589  0.1844
 5271SOL     OW27271   2.633   0.228   3.521  0.6492 -0.6207 -0.4433
 5271SOL    HW127272   2.539   0.233   3.502  0.6251 -3.0495 -0.9889
 5271SOL    HW227273   2.644   0.182   3.604 -1.8894 -0.8624 -0.2256
 5272SOL     OW27274   4.213   3.180   6.398 -0.2749  0.0362  0.2112
 5272SOL    HW127275   4.228   3.089   6.372 -1.9770 -0.3533  0.5510
 5272SOL    HW227276   4.217   3.235   6.321  0.7710  0.5089  0.6086
 5273SOL     OW27277   1.862   3.076   7.383 -0.5227 -0.0322  0.0177
 5273SOL    HW127278   1.784   3.063   7.328  0.3463  0.2391 -1.2643
 5273SOL    HW227279   1.914   3.005   7.347 -1.6505 -0.1888 -1.2711
 5274SOL     OW27280   3.463   2.526   3.845 -0.0675 -0.6055 -0.2996
 5274SOL    HW127281   3.375   2.492   3.863 -1.0877  2.0585 -0.2263
 5274SOL    HW227282   3.519   2.456   3.878  0.7676  0.4173  0.4266
 5275SOL     OW27283   4.330   0.824   7.264 -0.3046  0.3506 -0.8915
 5275SOL    HW127284   4.377   0.881   7.325 -1.1392 -1.5911  1.5480
 5275SOL    HW227285   4.266   0.883   7.224 -0.6368  1.3859  1.1918
 5276SOL     OW27286   1.071   3.206   2.492 -0.1811  0.1685  0.3402
 5276SOL    HW127287   1.075   3.278   2.429  3.1452  1.0697  1.5394
 5276SOL    HW227288   1.162   3.186   2.516  0.0272  2.0919  1.1176
 5277SOL     OW27289   1.211   4.277   7.532 -0.3925  0.1695  0.2287
 5277SOL    HW127290   1.153   4.298   7.459  1.1455 -0.0669 -1.0504
 5277SOL    HW227291   1.153   4.242   7.600 -1.4826  1.4117 -0.0512
 5278SOL     OW27292   2.005   2.122  10.682 -0.8130  0.1415 -0.5924
 5278SOL    HW127293   1.955   2.048  10.647 -0.9157 -0.6313  1.1665
 5278SOL    HW227294   2.071   2.063  10.721  0.2222  1.6672 -0.0504
 5279SOL     OW27295   2.097   3.184  10.982  0.1633  0.3322  0.6053
 5279SOL    HW127296   2.041   3.253  10.944  0.0737 -0.1719 -0.1860
 5279SOL    HW227297   2.041   3.143  11.048 -0.1959 -0.3027 -0.0989
 5280SOL     OW27298   1.005   2.137   4.344 -0.0993  0.4147  0.2097
 5280SOL    HW127299   0.966   2.089   4.271  3.3864  0.0665 -1.4025
 5280SOL    HW227300   0.973   2.087   4.420  1.8700 -1.5242 -0.2150
 5281SOL     OW27301   2.963   1.512  10.254 -0.0182 -0.4658 -0.3011
 5281SOL    HW127302   2.890   1.573  10.255 -0.3481 -0.8879  1.2312
 5281SOL    HW227303   2.975   1.471  10.168 -0.2138  1.0260 -1.0479
 5282SOL     OW27304   4.656   4.413   1.868 -0.2350 -0.6172  0.1547
 5282SOL    HW127305   4.689   4.502   1.854  1.2700 -1.2110 -0.0559
 5282SOL    HW227306   4.710   4.389   1.943  0.7313 -0.8691 -0.6160
 5283SOL     OW27307   0.319   0.834  15.400 -0.1305 -0.5139 -0.4244
 5283SOL    HW127308   0.234   0.875  15.385 -0.1184 -0.4891 -0.4262
 5283SOL    HW227309   0.326   0.783  15.319  2.9836  0.6330 -0.8918
 5284SOL     OW27310   1.145   3.822   9.669  0.3549 -0.2015 -0.5909
 5284SOL    HW127311   1.104   3.908   9.657  3.5167  1.5623  1.2876
 5284SOL    HW227312   1.071   3.769   9.637  0.4494 -1.1506  0.7770
 5285SOL     OW27313   3.520   3.266   8.133 -0.0812  0.0844 -0.4348
 5285SOL    HW127314   3.456   3.231   8.196 -0.8191 -1.3473 -1.9850
 5285SOL    HW227315   3.483   3.352   8.116 -0.2451 -0.0406 -0.7095
 5286SOL     OW27316   0.050   3.451   1.569  0.8480 -0.3596 -0.0266
 5286SOL    HW127317   4.696   3.467   1.513  0.2295 -1.3491  0.5320
 5286SOL    HW227318   0.121   3.467   1.508  1.8698 -2.4488  0.6091
 5287SOL     OW27319   0.608   3.979   6.247  0.3588  0.5339  0.0613
 5287SOL    HW127320   0.631   4.072   6.249 -1.4811  0.9850  0.0136
 5287SOL    HW227321   0.665   3.968   6.170 -0.1438 -1.0552 -0.0787
 5288SOL     OW27322   1.930   4.218   0.221 -0.4787 -0.3283 -0.1248
 5288SOL    HW127323   1.879   4.281   0.272 -0.8162 -0.2259 -0.5856
 5288SOL    HW227324   1.971   4.278   0.158 -0.5074 -2.4114 -2.1563
 5289SOL     OW27325   3.933   1.832   8.113 -0.1962 -0.0976 -0.2994
 5289SOL    HW127326   3.869   1.893   8.150  0.6544  0.2247  0.6469
 5289SOL    HW227327   3.862   1.772   8.090  0.6638 -1.4394  0.5865
 5290SOL     OW27328   3.353   1.892   7.202  0.6762 -0.3051  0.1119
 5290SOL    HW127329   3.330   1.900   7.109 -1.2755 -1.5440  0.4731
 5290SOL    HW227330   3.442   1.857   7.203  0.1456 -1.6838 -2.0464
 5291SOL     OW27331   3.192   0.578  12.860  0.9525  0.1289 -0.4971
 5291SOL    HW127332   3.195   0.497  12.912  1.1734  0.4251 -0.0524
 5291SOL    HW227333   3.101   0.574  12.831  0.4604  1.9643  0.8237
 5292SOL     OW27334   0.683   3.345  14.742 -0.0441 -0.1543  0.4936
 5292SOL    HW127335   0.674   3.250  14.730  0.9059 -0.1941  0.0649
 5292SOL    HW227336   0.767   3.339  14.788  0.7969  3.6024 -0.6159
 5293SOL     OW27337   1.049   1.162   2.269  0.6045  0.1989 -0.2202
 5293SOL    HW127338   1.135   1.174   2.228  0.9523  0.2025  0.5046
 5293SOL    HW227339   1.070   1.083   2.319 -2.8687  0.2091  1.2807
 5294SOL     OW27340   2.593   1.262   0.185  0.1734 -0.1518 -0.1373
 5294SOL    HW127341   2.641   1.345   0.182 -0.2940  0.1297  0.0501
 5294SOL    HW227342   2.614   1.216   0.104 -1.6911 -1.5214  0.1596
 5295SOL     OW27343   1.498   2.948   6.055 -0.1012 -0.2735 -0.2118
 5295SOL    HW127344   1.481   3.039   6.078 -0.6518 -1.6008  4.6114
 5295SOL    HW227345   1.540   2.915   6.134 -0.9779 -3.0194 -0.8974
 5296SOL     OW27346   3.694   3.365   4.419 -0.1058  0.0011 -0.0572
 5296SOL    HW127347   3.620   3.319   4.379  0.0951 -0.2135 -0.1833
 5296SOL    HW227348   3.653   3.403   4.497 -0.7619  1.3432 -1.0573
 5297SOL     OW27349   3.344   1.119   6.865  0.6440 -0.1730 -0.3843
 5297SOL    HW127350   3.370   1.029   6.885 -1.4852 -0.7643 -0.3578
 5297SOL    HW227351   3.262   1.111   6.817  0.4905  1.9794 -0.4568
 5298SOL     OW27352   3.253   3.451   2.733  0.3201  0.5071 -0.1801
 5298SOL    HW127353   3.158   3.458   2.724  0.5129  1.1480 -1.7414
 5298SOL    HW227354   3.270   3.519   2.798 -2.4449  1.3692 -0.3297
 5299SOL     OW27355   3.861   3.169   0.141 -0.6106 -0.3492 -0.1658
 5299SOL    HW127356   3.785   3.204   0.093 -0.3333  1.4420  0.7066
 5299SOL    HW227357   3.930   3.193   0.079 -0.9286  0.3720 -0.2415
 5300SOL     OW27358   4.691   2.970   6.829 -0.0024 -0.2150 -0.0871
 5300SOL    HW127359   4.706   3.052   6.876 -2.6775  0.3094 -0.1120
 5300SOL    HW227360   4.617   2.987   6.771  2.4933  0.3531 -3.0873
 5301SOL     OW27361   2.600   2.129   5.449 -0.1357  0.0413 -0.2409
 5301SOL    HW127362   2.622   2.194   5.382  0.0072 -0.4410 -0.6631
 5301SOL    HW227363   2.680   2.078   5.436 -1.3406 -2.5224  2.3540
 5302SOL     OW27364   1.274   1.798   5.055  0.2483  0.0217  0.0896
 5302SOL    HW127365   1.187   1.757   5.060 -0.8518  2.3116 -0.0638
 5302SOL    HW227366   1.267   1.871   5.116 -0.6321  0.4262 -0.4913
 5303SOL     OW27367   3.783   0.286   6.851  0.8833  0.6773  0.1386
 5303SOL    HW127368   3.829   0.213   6.810 -1.4534 -0.7484  0.1033
 5303SOL    HW227369   3.697   0.248   6.868  0.7671  0.0945 -1.7097
 5304SOL     OW27370   4.100   1.932   7.446 -0.0521 -0.1984  0.0892
 5304SOL    HW127371   4.101   2.021   7.480 -1.2033  1.0301 -3.1575
 5304SOL    HW227372   4.013   1.913   7.413  0.3596 -1.2850 -0.3969
 5305SOL     OW27373   1.618   1.718   0.765 -0.1507  0.3728  0.1239
 5305SOL    HW127374   1.634   1.640   0.818  0.5240  0.1066 -0.4710
 5305SOL    HW227375   1.543   1.762   0.806 -1.3745 -0.3106 -1.3659
 5306SOL     OW27376   4.513   3.839   2.344  0.8435 -0.2563 -0.5972
 5306SOL    HW127377   4.572   3.764   2.337  1.2570  0.2049 -1.9355
 5306SOL    HW227378   4.577   3.901   2.311  0.4556 -0.0420 -0.9318
 5307SOL     OW27379   3.355   4.513   2.112  0.6320  0.7971 -0.3783
 5307SOL    HW127380   3.268   4.480   2.132  0.1597  2.4248  0.2395
 5307SOL    HW227381   3.401   4.472   2.185  0.7520  0.5536 -0.5892
 5308SOL     OW27382   0.847   2.050   4.783 -0.1041 -0.3425  0.7318
 5308SOL    HW127383   0.790   2.126   4.767  1.2031  0.2232 -1.2771
 5308SOL    HW227384   0.838   2.048   4.878 -0.5584 -1.4784  0.6532
 5309SOL     OW27385   2.313   4.480  11.072 -0.0635  0.0162  0.2176
 5309SOL    HW127386   2.397   4.437  11.054  0.9836  2.1796 -0.0069
 5309SOL    HW227387   2.280   4.493  10.983  0.0482  1.5623  0.4104
 5310SOL     OW27388   2.731   0.098   7.362 -0.2825 -0.3290 -0.5052
 5310SOL    HW127389   2.769   0.140   7.285 -2.0937  0.1123 -1.1610
 5310SOL    HW227390   2.784   0.019   7.367 -0.8988 -0.7943 -1.4270
 5311SOL     OW27391   3.071   1.038   8.235 -0.6135  0.2798 -0.5228
 5311SOL    HW127392   3.071   1.084   8.318 -0.7805  0.3047 -0.5365
 5311SOL    HW227393   2.978   1.023   8.218 -0.9506  2.8815 -0.9816
 5312SOL     OW27394   3.690   1.339  10.552  0.2808  0.1890  0.1669
 5312SOL    HW127395   3.771   1.331  10.501 -2.3729  0.2983 -4.0569
 5312SOL    HW227396   3.666   1.247  10.565  0.6385 -0.1952 -1.8397
 5313SOL     OW27397   3.174   2.862   9.205 -0.0938  0.0965 -0.4762
 5313SOL    HW127398   3.157   2.777   9.247  4.7819  0.7977  2.8299
 5313SOL    HW227399   3.269   2.863   9.217 -0.6403  1.1219  3.7369
 5314SOL     OW27400   3.708   1.781   2.184 -0.3187  0.1887  0.1420
 5314SOL    HW127401   3.694   1.875   2.168  0.0590  0.4940  1.6087
 5314SOL    HW227402   3.784   1.767   2.127 -0.5763 -2.8732  0.5635
 5315SOL     OW27403   2.388   1.698   4.277 -0.5656  0.1272  0.0092
 5315SOL    HW127404   2.435   1.758   4.335 -1.6250 -1.5206  2.5828
 5315SOL    HW227405   2.302   1.735   4.295 -1.5960 -1.5562 -1.4387
 5316SOL     OW27406   4.126   3.101   7.862 -0.0974 -0.1118 -0.7377
 5316SOL    HW127407   4.178   3.181   7.870  0.2431 -0.2483 -1.6228
 5316SOL    HW227408   4.135   3.087   7.768 -0.7225  1.4797 -1.0380
 5317SOL     OW27409   1.791   0.204  10.505 -0.2488 -0.0359 -0.1584
 5317SOL    HW127410   1.707   0.239  10.535  0.4492  1.9020 -0.4270
 5317SOL    HW227411   1.792   0.239  10.416 -3.3182  0.0320 -0.1638
 5318SOL     OW27412   4.666   0.946   3.056  0.2049  0.5078 -0.0114
 5318SOL    HW127413   0.037   0.946   3.038  0.4113 -0.8454  1.0301
 5318SOL    HW227414   4.669   1.011   3.126 -0.6553 -1.1092  1.5403
 5319SOL     OW27415   3.184   2.829   8.175  0.1318 -0.5130 -0.1442
 5319SOL    HW127416   3.092   2.804   8.186  0.2836 -2.4711 -3.3484
 5319SOL    HW227417   3.216   2.774   8.246 -0.4634 -0.4414  0.1819
 5320SOL     OW27418   4.361   4.357   1.380  0.1028  0.1824  0.2781
 5320SOL    HW127419   4.435   4.367   1.440 -0.5053  4.0806  0.3869
 5320SOL    HW227420   4.306   4.423   1.422 -1.0087 -1.1040  0.8426
 5321SOL     OW27421   1.856   4.335  15.168  0.1732  0.4677 -0.6368
 5321SOL    HW127422   1.774   4.376  15.145 -0.5364  0.0544  1.1270
 5321SOL    HW227423   1.828   4.246  15.193  2.1718 -0.1209 -0.4513
 5322SOL     OW27424   4.158   1.260  15.849  0.3013  0.0265 -0.0540
 5322SOL    HW127425   4.105   1.241  15.771 -0.0829 -1.6375  0.6125
 5322SOL    HW227426   4.164   1.176  15.893 -1.0623  0.3974  0.8545
 5323SOL     OW27427   4.040   4.327   1.471  0.2759 -0.3870  0.0684
 5323SOL    HW127428   4.099   4.261   1.508 -0.6697 -0.9329  0.5850
 5323SOL    HW227429   4.069   4.406   1.516  0.0634  1.5233 -3.1456
 5324SOL     OW27430   1.618   3.220   2.416 -0.0293 -0.0227  0.2345
 5324SOL    HW127431   1.591   3.249   2.503  0.3054  3.3485 -0.8061
 5324SOL    HW227432   1.696   3.275   2.404 -0.1911  0.0683 -0.4130
 5325SOL     OW27433   4.212   1.667   4.444  0.2825 -0.0284  0.1789
 5325SOL    HW127434   4.182   1.667   4.353  1.1013 -0.0230 -0.0882
 5325SOL    HW227435   4.250   1.755   4.446  0.4418 -0.0287 -2.0628
 5326SOL     OW27436   2.516   1.952   8.935 -0.0479  0.1084  0.8168
 5326SOL    HW127437   2.537   2.039   8.970  1.2640  0.0856  0.0662
 5326SOL    HW227438   2.421   1.957   8.947 -0.2766 -0.6208 -0.7099
 5327SOL     OW27439   4.223   0.181  11.127 -0.0413 -0.8115 -0.4498
 5327SOL    HW127440   4.251   0.270  11.102  0.5601 -0.6812  0.7022
 5327SOL    HW227441   4.299   0.131  11.097 -0.1239 -1.2034  0.0076
 5328SOL     OW27442   3.859   1.491   2.358  0.2471 -0.4930 -0.0876
 5328SOL    HW127443   3.833   1.511   2.268  3.2384  0.8094 -0.6541
 5328SOL    HW227444   3.828   1.563   2.412  0.4231 -1.1945  0.9337
 5329SOL     OW27445   1.948   1.616   8.153 -0.0117 -0.0470  0.1832
 5329SOL    HW127446   1.891   1.683   8.116  1.0762  0.7264 -0.0836
 5329SOL    HW227447   1.905   1.600   8.237  0.8221  1.7392  0.9538
 5330SOL     OW27448   1.892   2.816   2.704  0.6053 -0.2226  0.8524
 5330SOL    HW127449   1.917   2.789   2.793 -0.1869  1.5903  1.6221
 5330SOL    HW227450   1.956   2.886   2.690 -0.7851  0.5490 -1.6251
 5331SOL     OW27451   4.603   2.268  13.703 -0.1955 -0.2980  0.1163
 5331SOL    HW127452   4.638   2.183  13.676  1.2348  1.1054 -2.3584
 5331SOL    HW227453   4.683   2.314  13.729 -1.6630  2.8188 -0.9191
 5332SOL     OW27454   2.835   0.654   5.483 -0.0148  0.4009 -0.0166
 5332SOL    HW127455   2.857   0.695   5.566  1.1598 -1.6341  0.6646
 5332SOL    HW227456   2.829   0.561   5.503 -0.3702  1.0813  2.9207
 5333SOL     OW27457   2.136   1.632   3.254  0.1098 -0.2436 -0.1428
 5333SOL    HW127458   2.159   1.566   3.319  1.5730  0.4809  0.0856
 5333SOL    HW227459   2.063   1.594   3.205 -0.1710  1.1474 -0.7837
 5334SOL     OW27460   4.207   1.496   1.750 -0.1743  0.2505 -0.2429
 5334SOL    HW127461   4.199   1.504   1.655 -0.2366 -3.6716 -0.5316
 5334SOL    HW227462   4.127   1.544   1.774  0.8715  0.3832  3.0455
 5335SOL     OW27463   3.812   4.376   8.990 -0.2016  0.1831 -0.3621
 5335SOL    HW127464   3.781   4.328   9.067  2.3109 -3.6196 -1.7689
 5335SOL    HW227465   3.886   4.325   8.958  0.9201 -0.2249  2.8530
 5336SOL     OW27466   0.734   3.853  16.157  0.3416 -0.0307 -0.0462
 5336SOL    HW127467   0.701   3.942  16.168 -0.0504 -0.5574  3.1763
 5336SOL    HW227468   0.739   3.839  16.063  2.1982  2.0303 -0.2364
 5337SOL     OW27469   3.611   1.350  17.294  0.1939  0.4816 -0.6638
 5337SOL    HW127470   3.574   1.296  17.224 -0.2835 -0.1563  0.0872
 5337SOL    HW227471   3.690   1.299  17.310 -0.8583 -0.7036  0.7111
 5338SOL     OW27472   0.370   2.437   6.642 -0.4954  0.4322 -0.0792
 5338SOL    HW127473   0.300   2.383   6.678  0.3441 -0.7742 -0.2924
 5338SOL    HW227474   0.326   2.520   6.661 -0.9277  0.3196 -0.5976
 5339SOL     OW27475   2.837   4.040   6.569 -0.4240  0.0924 -0.3631
 5339SOL    HW127476   2.747   4.041   6.601  0.2106 -2.6335  1.4203
 5339SOL    HW227477   2.844   3.966   6.508  0.5156  1.1772 -1.5747
 5340SOL     OW27478   2.033   3.161   4.758 -0.2786  0.1019  0.8947
 5340SOL    HW127479   2.038   3.067   4.777 -0.2188 -0.1368 -0.2479
 5340SOL    HW227480   2.020   3.207   4.840 -1.2953  0.9547  0.2516
 5341SOL     OW27481   3.402   1.492   7.055  0.0066  0.4666 -0.2382
 5341SOL    HW127482   3.322   1.544   7.066 -0.6857 -0.8090  0.7430
 5341SOL    HW227483   3.399   1.479   6.961 -1.2771 -0.8134 -0.0306
 5342SOL     OW27484   2.607   4.574   6.878  0.2863 -0.2892 -0.5387
 5342SOL    HW127485   2.518   4.600   6.900  2.5181  4.0057  3.6352
 5342SOL    HW227486   2.648   4.658   6.856 -2.5829  1.7568  1.9540
 5343SOL     OW27487   2.490   4.599  15.902  0.2012  0.3278  0.2474
 5343SOL    HW127488   2.527   4.623  15.987  0.0827 -1.4673  0.8169
 5343SOL    HW227489   2.513   4.675  15.849  2.0157 -0.0980  0.4395
 5344SOL     OW27490   4.002   0.039  11.763 -0.2042  0.2169  0.2414
 5344SOL    HW127491   3.933   0.079  11.816 -2.8313 -2.0575 -1.5325
 5344SOL    HW227492   4.007   0.108  11.697 -1.0415  1.7936  1.8277
 5345SOL     OW27493   3.693   0.114   1.298  0.2837  0.3748  0.3304
 5345SOL    HW127494   3.696   0.129   1.392 -1.6998 -0.1309  0.4755
 5345SOL    HW227495   3.607   0.151   1.281 -0.1597 -1.3523 -1.2184
 5346SOL     OW27496   3.591   2.031   5.362 -0.5080 -0.8155  0.1585
 5346SOL    HW127497   3.681   2.056   5.341 -0.9473  1.5144  1.0789
 5346SOL    HW227498   3.559   2.115   5.396 -0.7861  0.5388 -3.4875
 5347SOL     OW27499   0.836   3.665   7.386  0.1322  0.0534 -0.1779
 5347SOL    HW127500   0.868   3.582   7.422  0.4866  2.0439  4.1714
 5347SOL    HW227501   0.788   3.635   7.309 -1.6963  0.4866  0.8075
 5348SOL     OW27502   1.376   0.979   3.604  0.0860  0.1723  0.1534
 5348SOL    HW127503   1.451   0.977   3.545  0.5496  1.2858  0.6920
 5348SOL    HW227504   1.314   0.917   3.564 -2.2980  0.4738  3.3237
 5349SOL     OW27505   3.006   4.137  16.030 -0.4131 -0.0303 -0.2117
 5349SOL    HW127506   2.922   4.109  16.066 -0.8249  0.5495 -0.7059
 5349SOL    HW227507   3.062   4.088  16.090  1.9331  1.2859 -1.3266
 5350SOL     OW27508   0.728   4.034  15.930  0.2057 -0.3145 -0.2335
 5350SOL    HW127509   0.817   4.037  15.894  0.2707 -1.0186 -0.1309
 5350SOL    HW227510   0.710   4.128  15.941 -0.4198 -0.5431  0.6801
 5351SOL     OW27511   4.385   4.362   2.741 -0.2977  0.1407 -0.8230
 5351SOL    HW127512   4.356   4.411   2.664 -1.7634  2.7477  1.3705
 5351SOL    HW227513   4.427   4.286   2.703 -1.6287 -0.7623 -0.4953
 5352SOL     OW27514   4.398   2.954   6.528 -0.8305  0.2006 -0.1833
 5352SOL    HW127515   4.339   2.970   6.602 -0.0375  0.1011  0.4747
 5352SOL    HW227516   4.454   3.031   6.541  0.6099 -1.2543  2.2807
 5353SOL     OW27517   1.791   0.568   9.093  0.1914 -0.4355 -1.0304
 5353SOL    HW127518   1.725   0.500   9.108 -0.7993  0.8307  0.3540
 5353SOL    HW227519   1.877   0.537   9.121  0.0757  0.6900  0.5920
 5354SOL     OW27520   1.258   3.929   2.560 -0.4561 -0.3971  0.4897
 5354SOL    HW127521   1.308   3.870   2.503  0.6144 -2.1800  3.2432
 5354SOL    HW227522   1.330   3.951   2.620 -0.4689  0.9414  0.0101
 5355SOL     OW27523   3.316   1.250   5.959  0.3658  0.9130 -0.4204
 5355SOL    HW127524   3.351   1.215   5.877  2.0218  1.3716  0.0799
 5355SOL    HW227525   3.222   1.248   5.941  0.3531 -1.7040 -0.1250
 5356SOL     OW27526   0.481   0.675   4.352  0.0501 -0.5928 -0.3717
 5356SOL    HW127527   0.537   0.608   4.391  2.0750  2.3720  1.7204
 5356SOL    HW227528   0.440   0.706   4.433  0.7150 -0.8458  0.0607
 5357SOL     OW27529   2.002   2.602   7.001  0.1871  0.9819  0.5794
 5357SOL    HW127530   2.004   2.581   7.095  3.4437 -2.6351 -0.2707
 5357SOL    HW227531   2.093   2.632   6.996  0.6418 -0.4325  0.4036
 5358SOL     OW27532   0.524   1.563  11.562 -0.3195 -0.0217 -0.1382
 5358SOL    HW127533   0.495   1.563  11.654  0.6547 -0.9707  0.1680
 5358SOL    HW227534   0.498   1.647  11.524 -2.0349  0.3354  1.8204
 5359SOL     OW27535   1.972   0.360   7.306  0.4845 -0.4759  0.3505
 5359SOL    HW127536   2.066   0.359   7.289  0.8005  3.4910  1.8662
 5359SOL    HW227537   1.960   0.455   7.316  0.4354 -0.4113 -0.3379
 5360SOL     OW27538   0.858   4.026  17.105 -0.2984 -0.2716 -0.0095
 5360SOL    HW127539   0.769   4.009  17.072 -1.0138  1.6679  0.9426
 5360SOL    HW227540   0.861   4.120  17.089  2.7371 -1.0123 -3.8116
 5361SOL     OW27541   3.842   1.933   3.072 -0.5039  0.0586  0.3232
 5361SOL    HW127542   3.866   2.024   3.094 -0.7871  0.0543  0.6601
 5361SOL    HW227543   3.823   1.909   3.163 -2.8926  1.4064  0.1970
 5362SOL     OW27544   3.523   3.199  13.752 -0.0677  0.5570 -0.4324
 5362SOL    HW127545   3.489   3.182  13.840  0.5184 -0.2334 -0.3547
 5362SOL    HW227546   3.605   3.247  13.764  0.3848  0.3884 -2.9393
 5363SOL     OW27547   3.399   2.401   1.949 -0.5266 -0.5369  0.1904
 5363SOL    HW127548   3.491   2.399   1.922 -0.8375  0.2861 -0.9559
 5363SOL    HW227549   3.359   2.423   1.865 -0.5251 -1.8197 -0.1518
 5364SOL     OW27550   3.620   0.555   1.801  0.0320  0.2870  0.4517
 5364SOL    HW127551   3.536   0.567   1.757 -0.5471 -2.9325  0.6917
 5364SOL    HW227552   3.672   0.601   1.735  0.1395 -1.2699 -0.5471
 5365SOL     OW27553   3.722   2.461   8.237 -0.5986 -0.1747  0.2018
 5365SOL    HW127554   3.693   2.386   8.185 -2.2171  0.8708 -0.4073
 5365SOL    HW227555   3.791   2.409   8.279 -1.8654 -0.6858  1.6442
 5366SOL     OW27556   3.080   0.533   1.576 -0.2772 -0.0293 -0.1100
 5366SOL    HW127557   3.065   0.585   1.655 -0.3164 -2.3014  1.3757
 5366SOL    HW227558   3.083   0.445   1.614  1.2115 -0.5163 -1.3645
 5367SOL     OW27559   3.983   4.250   3.072  0.0171 -0.0441  0.6301
 5367SOL    HW127560   4.053   4.192   3.041 -0.1994 -0.0092  0.0631
 5367SOL    HW227561   3.984   4.314   3.000 -1.9412 -1.3071 -0.5356
 5368SOL     OW27562   3.746   3.073   4.269 -0.0058  1.3815  0.6595
 5368SOL    HW127563   3.807   3.147   4.263  2.5318 -0.5489  3.0567
 5368SOL    HW227564   3.783   3.027   4.344  0.4210 -0.9495 -0.9820
 5369SOL     OW27565   1.569   4.472   6.167  0.2207 -0.3079  0.2904
 5369SOL    HW127566   1.477   4.460   6.145 -0.5308  1.4122  2.4928
 5369SOL    HW227567   1.594   4.380   6.156  0.7514 -0.4872  2.8795
 5370SOL     OW27568   0.923   3.530  14.056  0.2356  0.2034 -0.2198
 5370SOL    HW127569   0.892   3.532  13.965 -0.7277 -0.9620  0.0781
 5370SOL    HW227570   0.847   3.550  14.111  0.0020 -0.3341 -0.3364
 5371SOL     OW27571   0.262   1.402   7.152 -0.1249 -0.2184  0.2447
 5371SOL    HW127572   0.325   1.459   7.109 -1.1398  1.0654  0.4508
 5371SOL    HW227573   0.245   1.349   7.074 -1.7364  1.5182 -0.5840
 5372SOL     OW27574   4.014   1.053  16.175 -0.2345  0.1911 -0.6595
 5372SOL    HW127575   4.094   1.065  16.225  1.0558  1.9242 -3.1561
 5372SOL    HW227576   4.052   1.022  16.093 -0.5861  2.7654 -1.7783
 5373SOL     OW27577   3.706   0.541  16.550 -0.1076  0.5256  0.1178
 5373SOL    HW127578   3.799   0.522  16.536 -0.2027 -0.0217  0.2022
 5373SOL    HW227579   3.684   0.614  16.493 -0.7224  0.7039  0.5846
 5374SOL     OW27580   2.944   2.919  15.769 -0.0857  0.1458 -0.1469
 5374SOL    HW127581   2.898   2.967  15.699  1.1319 -0.9741 -1.7169
 5374SOL    HW227582   3.025   2.902  15.720  0.5209 -0.3342  1.0409
 5375SOL     OW27583   0.378   0.746   4.963  0.0056  0.2282  0.1238
 5375SOL    HW127584   0.438   0.769   4.892  0.9056 -1.5117  0.3378
 5375SOL    HW227585   0.303   0.801   4.938  0.6366 -0.1416 -2.6040
 5376SOL     OW27586   1.175   3.069   5.004  0.1486 -0.1033  0.5500
 5376SOL    HW127587   1.147   3.002   4.941 -0.5937 -0.9737  1.8023
 5376SOL    HW227588   1.227   3.129   4.950 -0.0956  0.4924  0.9722
 5377SOL     OW27589   1.332   1.405   6.750  0.4416 -0.3377 -0.1116
 5377SOL    HW127590   1.304   1.428   6.662 -0.3028  0.2539  0.2742
 5377SOL    HW227591   1.397   1.475   6.759 -0.0380 -0.0102  0.8665
 5378SOL     OW27592   4.562   3.291   8.810 -0.0586  0.4048 -0.0091
 5378SOL    HW127593   4.649   3.301   8.850  0.7347  0.5418 -1.8023
 5378SOL    HW227594   4.574   3.223   8.745  0.2686  0.8377 -0.4014
 5379SOL     OW27595   1.327   3.935  15.262 -0.7398 -0.2339  0.1897
 5379SOL    HW127596   1.336   3.999  15.192  1.4015  0.8651  1.4962
 5379SOL    HW227597   1.393   3.869  15.242 -1.0796 -0.2385 -0.9546
 5380SOL     OW27598   2.987   4.420   7.098 -0.3563  0.4609  0.1781
 5380SOL    HW127599   2.891   4.424   7.099 -0.3807 -0.0320 -0.0538
 5380SOL    HW227600   3.002   4.511   7.071  1.6253  0.1620  0.2880
 5381SOL     OW27601   4.161   3.402   8.869 -0.0001 -0.6220 -0.0395
 5381SOL    HW127602   4.085   3.407   8.928 -0.3322 -0.2286 -0.5005
 5381SOL    HW227603   4.116   3.358   8.797  0.7472 -0.2048 -0.7690
 5382SOL     OW27604   0.026   2.684  15.460 -0.4645 -0.5965  0.0203
 5382SOL    HW127605   4.699   2.603  15.469 -0.5263 -0.4446  0.9911
 5382SOL    HW227606   4.676   2.740  15.434  0.5585  0.2503 -1.0386
 5383SOL     OW27607   3.531   1.447   0.981 -1.2478  0.0028 -0.1643
 5383SOL    HW127608   3.613   1.431   0.934 -1.3434 -1.2760  0.1022
 5383SOL    HW227609   3.547   1.538   1.003 -0.4618 -0.3505  0.7379
 5384SOL     OW27610   3.399   3.481   1.886  0.1504  0.2156  0.4635
 5384SOL    HW127611   3.407   3.469   1.981 -0.0925  1.0208  0.5876
 5384SOL    HW227612   3.360   3.568   1.879 -1.7357 -0.9180 -3.1170
 5385SOL     OW27613   3.069   3.846   0.304 -0.3457  0.4596 -0.1345
 5385SOL    HW127614   3.101   3.825   0.391  2.4268 -0.1952 -1.3156
 5385SOL    HW227615   3.060   3.941   0.305  0.3467  0.5144  0.8818
 5386SOL     OW27616   2.085   1.387  12.036  0.9451 -0.0867 -0.4377
 5386SOL    HW127617   2.054   1.474  12.063  1.8425  0.3419 -0.7888
 5386SOL    HW227618   2.156   1.395  11.972  1.4884  0.2233  0.1892
 5387SOL     OW27619   3.394   2.419  15.202  0.5278  0.0565 -0.1758
 5387SOL    HW127620   3.378   2.353  15.135  0.0917 -0.8167  0.7913
 5387SOL    HW227621   3.421   2.375  15.282  1.4577  0.6767 -0.1433
 5388SOL     OW27622   0.959   2.485   0.914 -0.2755 -0.2403 -0.3426
 5388SOL    HW127623   1.033   2.489   0.853  1.4566 -0.9583  1.6789
 5388SOL    HW227624   1.002   2.487   1.000  0.1258 -0.2800 -0.5389
 5389SOL     OW27625   3.190   1.402   8.658  0.2122  0.2171  0.3011
 5389SOL    HW127626   3.201   1.323   8.710 -1.2352  0.2447  0.6443
 5389SOL    HW227627   3.203   1.475   8.719 -2.6800  0.9708 -0.0212
 5390SOL     OW27628   0.198   1.176   8.115 -0.6143  0.1683 -0.0769
 5390SOL    HW127629   0.230   1.127   8.039 -0.4849 -0.7460  0.5684
 5390SOL    HW227630   0.108   1.145   8.125 -0.3122 -1.1940 -1.5553
 5391SOL     OW27631   0.182   2.244   3.837 -0.2916  0.1848 -0.0401
 5391SOL    HW127632   0.252   2.213   3.895 -0.0729  0.4674 -0.1498
 5391SOL    HW227633   0.168   2.171   3.777  2.6672  1.1497 -1.9062
 5392SOL     OW27634   3.260   1.142  16.139 -0.0279  0.0436  0.0074
 5392SOL    HW127635   3.262   1.208  16.208  0.4387 -1.3207  1.2960
 5392SOL    HW227636   3.306   1.184  16.065  1.8050  0.7998  1.5666
 5393SOL     OW27637   1.206   4.386  14.384  0.6993 -0.5646 -0.5030
 5393SOL    HW127638   1.260   4.401  14.462 -0.1250 -0.9447  0.1329
 5393SOL    HW227639   1.267   4.430  14.325  1.9932 -1.3670  0.2095
 5394SOL     OW27640   3.290   2.509   5.237 -0.0219 -0.1354  0.0537
 5394SOL    HW127641   3.229   2.524   5.164 -0.0889 -0.9391 -0.0514
 5394SOL    HW227642   3.360   2.560   5.197  0.7401  0.1917  1.8025
 5395SOL     OW27643   1.231   2.330   4.616  0.4326  0.1657 -0.0308
 5395SOL    HW127644   1.185   2.280   4.684  0.9709  0.4737  0.5522
 5395SOL    HW227645   1.175   2.408   4.609  1.1200  0.4811 -2.1533
 5396SOL     OW27646   3.430   2.785   1.984 -0.2113 -0.1008  0.0166
 5396SOL    HW127647   3.493   2.739   1.929  1.7518  4.0841 -1.2408
 5396SOL    HW227648   3.445   2.875   1.954  1.5484  0.3078  2.1098
 5397SOL     OW27649   1.053   2.464   6.867  0.6578 -0.0004  0.3335
 5397SOL    HW127650   1.038   2.426   6.781  2.0592 -2.2444  1.0758
 5397SOL    HW227651   1.003   2.545   6.860 -1.1134 -1.2379 -1.0976
 5398SOL     OW27652   3.945   2.813   7.693 -0.4319  0.1767  0.4196
 5398SOL    HW127653   3.906   2.879   7.750  2.6991  1.6592  0.8844
 5398SOL    HW227654   4.012   2.786   7.755 -1.0865 -3.3710 -0.4356
 5399SOL     OW27655   2.750   3.269   6.246  0.3143  0.2818  0.6132
 5399SOL    HW127656   2.779   3.178   6.242  0.3946  0.2132  2.5567
 5399SOL    HW227657   2.656   3.264   6.234  0.4770 -1.0154 -0.1565
 5400SOL     OW27658   4.108   0.378  16.100  0.3179 -0.6465 -0.1139
 5400SOL    HW127659   4.176   0.351  16.038 -0.1795  0.3702 -1.0920
 5400SOL    HW227660   4.117   0.473  16.098  1.1929 -0.7067  1.1965
 5401SOL     OW27661   0.932   1.121   3.979  0.1228  0.1422  0.3349
 5401SOL    HW127662   0.858   1.062   3.995 -0.0345  0.1897 -0.2092
 5401SOL    HW227663   0.993   1.086   3.914  0.3236 -1.5030  1.4062
 5402SOL     OW27664   2.599   2.979   6.441 -0.1229 -0.0263  0.7102
 5402SOL    HW127665   2.562   2.935   6.364  0.2026 -1.8144  1.5589
 5402SOL    HW227666   2.511   2.987   6.478 -1.5378 -2.3007 -2.1663
 5403SOL     OW27667   3.492   0.461   8.673 -0.4737 -0.3065 -0.2555
 5403SOL    HW127668   3.539   0.454   8.755 -0.8642 -0.4834 -0.0462
 5403SOL    HW227669   3.563   0.488   8.615  0.0546 -2.8712 -0.7952
 5404SOL     OW27670   1.400   3.540   0.226 -0.3426  0.1190  0.4253
 5404SOL    HW127671   1.328   3.591   0.190  0.4913  1.3373  0.4741
 5404SOL    HW227672   1.367   3.506   0.309 -1.6741  0.3653 -0.0069
 5405SOL     OW27673   2.725   1.658   6.007  0.0476 -0.1876  0.0478
 5405SOL    HW127674   2.728   1.744   5.966 -1.5055 -0.3671 -0.4284
 5405SOL    HW227675   2.726   1.673   6.102 -0.9134  0.2608 -0.0127
 5406SOL     OW27676   0.617   2.053  10.277 -0.0164  0.2159  0.1947
 5406SOL    HW127677   0.639   2.146  10.275  0.2600  0.1290 -0.6749
 5406SOL    HW227678   0.559   2.039  10.202 -0.0001 -0.0161  0.2258
 5407SOL     OW27679   0.199   1.029  10.181  0.7422 -0.0358 -0.3094
 5407SOL    HW127680   0.203   1.053  10.088  1.3900 -2.5921 -0.9327
 5407SOL    HW227681   0.146   0.949  10.174  0.3026  0.2374 -0.1375
 5408SOL     OW27682   4.325   0.524   0.567  0.0053 -0.3126  0.0697
 5408SOL    HW127683   4.294   0.571   0.644 -1.9699 -0.5406 -0.6034
 5408SOL    HW227684   4.383   0.588   0.525 -3.1469  1.8011 -1.0099
 5409SOL     OW27685   4.295   4.406   3.090 -0.4116  0.6336  0.4128
 5409SOL    HW127686   4.251   4.355   3.159  1.8197 -0.1695  1.2447
 5409SOL    HW227687   4.365   4.342   3.076  1.4874  2.7325  0.3085
 5410SOL     OW27688   0.080   3.467   2.992  0.5793 -0.0183 -0.1783
 5410SOL    HW127689   0.060   3.373   2.991  2.2760 -0.3937  1.3139
 5410SOL    HW227690   0.164   3.461   3.038  1.1494 -0.9410 -1.2983
 5411SOL     OW27691   1.826   2.423   5.281  0.2299 -0.0537  0.1909
 5411SOL    HW127692   1.811   2.473   5.361  1.4708  1.1271 -0.3149
 5411SOL    HW227693   1.798   2.471   5.203  2.4258 -0.7197 -1.0174
 5412SOL     OW27694   0.382   1.063  15.992 -0.6469  0.5669  0.6296
 5412SOL    HW127695   0.472   1.083  15.965 -1.6155  0.9194 -2.2114
 5412SOL    HW227696   0.357   1.154  15.973 -0.0200  0.8233  0.9941
 5413SOL     OW27697   2.790   2.483  14.318  0.3564  0.0576  0.5547
 5413SOL    HW127698   2.755   2.396  14.338  1.3262 -0.5273 -0.3055
 5413SOL    HW227699   2.874   2.484  14.364 -1.2114 -2.0188  3.4641
 5414SOL     OW27700   0.442   3.862   9.725  1.0271  0.0449 -0.7627
 5414SOL    HW127701   0.536   3.847   9.722  1.0725  0.4617 -1.4157
 5414SOL    HW227702   0.423   3.783   9.776 -0.4797  1.4910  0.9198
 5415SOL     OW27703   1.059   2.865   6.916  0.4931 -0.4473 -0.8828
 5415SOL    HW127704   0.993   2.819   6.866 -0.1057  0.6000 -1.0520
 5415SOL    HW227705   1.105   2.791   6.956  2.7889  0.7875 -1.2137
 5416SOL     OW27706   1.648   0.945   5.216  0.0588  0.3470 -0.1752
 5416SOL    HW127707   1.673   0.897   5.137  1.2652  1.2785 -0.3651
 5416SOL    HW227708   1.654   0.885   5.291 -1.4410  0.0742 -0.2701
 5417SOL     OW27709   0.240   4.576   2.214  0.4553  0.5395  0.2410
 5417SOL    HW127710   0.218   4.536   2.130  1.0756  0.1891  0.2473
 5417SOL    HW227711   0.277   4.659   2.184 -0.6926  0.8780 -0.2362
 5418SOL     OW27712   4.096   4.258  11.949 -0.4195  0.0279  0.1314
 5418SOL    HW127713   4.066   4.242  12.039 -1.2005 -0.5109 -0.2231
 5418SOL    HW227714   4.105   4.353  11.953  2.2722 -0.1902 -0.9800
 5419SOL     OW27715   2.081   0.865   7.411 -0.2360 -0.2818  0.5251
 5419SOL    HW127716   2.097   0.818   7.492 -0.5429 -0.5631  0.4282
 5419SOL    HW227717   2.064   0.791   7.351 -1.0103  0.3271 -0.0159
 5420SOL     OW27718   1.057   3.101  16.267 -0.0791  0.5918 -0.2942
 5420SOL    HW127719   1.080   3.128  16.356 -1.1170  0.8727 -0.1047
 5420SOL    HW227720   1.052   3.006  16.266 -0.3391  0.6026  0.2088
 5421SOL     OW27721   4.342   1.426  11.554  0.3482 -0.2396 -0.3529
 5421SOL    HW127722   4.314   1.432  11.646  3.1228  2.0850  0.3411
 5421SOL    HW227723   4.422   1.373  11.555  1.5329  1.5467 -1.3454
 5422SOL     OW27724   2.287   3.101  10.825  0.6758  0.4800  0.0495
 5422SOL    HW127725   2.213   3.130  10.879  1.1468  1.3536  0.2251
 5422SOL    HW227726   2.316   3.024  10.873 -0.6841 -0.2273 -0.2775
 5423SOL     OW27727   3.485   3.469   5.767  0.3223 -0.4858  0.3331
 5423SOL    HW127728   3.541   3.503   5.837  1.6553 -1.8781 -0.0595
 5423SOL    HW227729   3.531   3.385   5.768  0.5565 -0.3321  2.4812
 5424SOL     OW27730   4.620   3.774   3.668  0.4794  0.2810 -0.2957
 5424SOL    HW127731   4.527   3.751   3.677  0.4889  0.5584  0.5390
 5424SOL    HW227732   4.611   3.836   3.596  0.9141  1.3154  0.5342
 5425SOL     OW27733   1.881   1.061  11.141 -0.2712 -0.1884  0.1309
 5425SOL    HW127734   1.841   1.077  11.226  1.8862  0.8151  0.9626
 5425SOL    HW227735   1.806   1.028  11.092 -1.2509  1.0665  0.7800
 5426SOL     OW27736   3.230   1.451   7.930 -0.0316  0.5339 -0.1475
 5426SOL    HW127737   3.209   1.360   7.949  1.5307  0.4008  0.9075
 5426SOL    HW227738   3.204   1.501   8.007  0.2446  2.3244 -1.1997
 5427SOL     OW27739   2.237   1.867   3.386 -0.3433  0.5996 -0.2980
 5427SOL    HW127740   2.288   1.793   3.419 -0.1587  1.0249  0.3909
 5427SOL    HW227741   2.176   1.823   3.327  0.5553  0.1567 -0.8843
 5428SOL     OW27742   3.329   4.033   5.643  0.0838 -0.0278 -0.2734
 5428SOL    HW127743   3.404   3.979   5.617 -0.3765 -1.6323  1.7538
 5428SOL    HW227744   3.266   3.966   5.617 -1.2017  1.5104 -1.1168
 5429SOL     OW27745   4.385   3.467   8.411 -0.0991  0.4284 -0.3473
 5429SOL    HW127746   4.398   3.439   8.501 -1.6391 -1.9146 -0.8443
 5429SOL    HW227747   4.299   3.506   8.397  0.3048  0.8685 -1.6470
 5430SOL     OW27748   0.230   2.280   4.446  0.4149  0.3450  0.2945
 5430SOL    HW127749   0.204   2.223   4.518 -1.5089  0.7622 -0.0522
 5430SOL    HW227750   0.191   2.359   4.482 -3.8663 -0.4309 -2.5285
 5431SOL     OW27751   3.604   2.789   5.447 -0.5238 -0.2305  0.0696
 5431SOL    HW127752   3.693   2.820   5.465  0.1602 -0.8607 -2.1396
 5431SOL    HW227753   3.547   2.856   5.483 -0.5689 -0.6726  0.8076
 5432SOL     OW27754   1.133   3.648   6.897  0.4963  0.4967 -0.5389
 5432SOL    HW127755   1.208   3.604   6.857  0.8162  1.0405 -0.5291
 5432SOL    HW227756   1.168   3.735   6.916  1.0666 -0.4723  2.9780
 5433SOL     OW27757   4.437   1.436   4.729  0.2877  0.5560  0.0848
 5433SOL    HW127758   4.525   1.432   4.692  0.0897 -0.7353 -0.2509
 5433SOL    HW227759   4.403   1.347   4.742 -0.9649  0.9950 -0.1145
 5434SOL     OW27760   1.700   0.987   2.570  0.2876  0.2021  0.1462
 5434SOL    HW127761   1.771   1.007   2.631  1.3685 -3.2344  0.0540
 5434SOL    HW227762   1.732   0.977   2.480 -1.0458 -0.7658 -0.2244
 5435SOL     OW27763   0.677   3.890   4.450  0.3108  0.1747  0.5360
 5435SOL    HW127764   0.759   3.841   4.444  0.1433  0.0216 -0.4459
 5435SOL    HW227765   0.704   3.965   4.503  0.5774  0.7773 -0.4576
 5436SOL     OW27766   4.496   4.100   1.976  0.2674  0.0407  0.1614
 5436SOL    HW127767   4.575   4.080   2.025  1.1380  1.8112 -0.5480
 5436SOL    HW227768   4.441   4.027   2.004  1.0211 -0.2337  0.9106
 5437SOL     OW27769   1.279   0.967   2.989  0.1711 -0.2524 -0.3840
 5437SOL    HW127770   1.194   0.967   2.946  0.2159 -0.1724 -0.4724
 5437SOL    HW227771   1.334   1.034   2.949 -0.2522  0.4046  0.1370
 5438SOL     OW27772   3.803   1.901  10.491 -0.3314  0.4006  0.3764
 5438SOL    HW127773   3.821   1.968  10.557 -0.9262  0.6430  0.2895
 5438SOL    HW227774   3.756   1.836  10.542  1.2022 -0.7747  0.3109
 5439SOL     OW27775   2.294   0.493   7.325 -0.1577  0.2894 -0.1267
 5439SOL    HW127776   2.281   0.499   7.230  2.2245 -0.9353 -0.5378
 5439SOL    HW227777   2.291   0.400   7.347  0.2309  0.9201  2.6547
 5440SOL     OW27778   3.383   3.517   9.051 -0.5097  0.1302  0.3411
 5440SOL    HW127779   3.398   3.424   9.069  1.1991 -0.1431 -2.5549
 5440SOL    HW227780   3.431   3.523   8.968  1.0849 -2.3282  1.0922
 5441SOL     OW27781   1.184   1.044   2.680 -0.0745 -0.6009  0.4193
 5441SOL    HW127782   1.274   1.025   2.705  1.0820  0.1247 -3.1303
 5441SOL    HW227783   1.191   0.993   2.599 -0.2891  0.4435 -0.2712
 5442SOL     OW27784   3.597   0.613   1.002  0.7996  0.0175 -0.3271
 5442SOL    HW127785   3.636   0.673   0.939  0.5607  0.1286 -0.3687
 5442SOL    HW227786   3.551   0.677   1.057  1.2553  0.5577 -0.5838
 5443SOL     OW27787   3.190   2.986   1.860  0.4052  0.0686 -0.2132
 5443SOL    HW127788   3.199   2.892   1.844  1.5592  0.0554  0.5515
 5443SOL    HW227789   3.128   2.983   1.933 -1.4595  2.3209 -1.7223
 5444SOL     OW27790   2.226   0.676   0.915 -0.6535 -0.0268 -0.1707
 5444SOL    HW127791   2.232   0.609   0.848 -0.0650  2.0856 -2.2284
 5444SOL    HW227792   2.286   0.645   0.983  0.7184 -0.3915 -1.5362
 5445SOL     OW27793   4.380   3.475   0.180 -0.0210  0.0982  0.1321
 5445SOL    HW127794   4.334   3.481   0.097 -0.1332 -2.1092  0.0320
 5445SOL    HW227795   4.446   3.407   0.169  2.1692  2.5018 -1.5354
 5446SOL     OW27796   1.814   0.657   8.294  0.2850 -0.1595  0.1120
 5446SOL    HW127797   1.798   0.703   8.376 -1.1616  2.0212 -1.3975
 5446SOL    HW227798   1.905   0.632   8.311  0.8312  0.8434 -1.3900
 5447SOL     OW27799   0.222   1.808   3.324 -0.0999 -0.5202 -0.4018
 5447SOL    HW127800   0.240   1.887   3.273 -1.1807 -0.9763 -1.4919
 5447SOL    HW227801   0.129   1.826   3.327  0.2800  1.2943  0.4555
 5448SOL     OW27802   1.837   0.575   4.147 -0.2545 -0.5202  0.2181
 5448SOL    HW127803   1.794   0.531   4.073 -0.7802  0.2321  0.0831
 5448SOL    HW227804   1.834   0.666   4.118 -1.9916 -0.4974  0.4759
 5449SOL     OW27805   3.116   1.309  13.954 -0.0117  0.3589  0.2194
 5449SOL    HW127806   3.210   1.324  13.947 -0.0943  0.5861 -0.3824
 5449SOL    HW227807   3.108   1.236  13.892 -1.5362 -0.8710  1.8346
 5450SOL     OW27808   0.011   2.399   8.143  0.1790  0.2610  0.0352
 5450SOL    HW127809   4.712   2.306   8.138  1.4069  0.0250 -0.8441
 5450SOL    HW227810   0.082   2.401   8.079 -0.6406  1.1664 -0.8465
 5451SOL     OW27811   0.239   0.116   8.467 -0.2765  0.1681  0.0775
 5451SOL    HW127812   0.166   0.054   8.463 -1.7078  1.8328 -0.0748
 5451SOL    HW227813   0.270   0.115   8.377 -0.7096  2.0753 -0.0947
 5452SOL     OW27814   1.319   4.229  13.157  0.2560 -0.2180  0.2872
 5452SOL    HW127815   1.302   4.139  13.130  1.4256 -0.9739  2.0427
 5452SOL    HW227816   1.230   4.253  13.183 -0.1357 -0.9786 -0.3588
 5453SOL     OW27817   1.512   2.065  10.536 -0.6559  0.4629 -0.1595
 5453SOL    HW127818   1.592   2.118  10.531 -0.8915  0.7609 -0.8195
 5453SOL    HW227819   1.457   2.118  10.594 -1.6529 -1.4683  0.6574
 5454SOL     OW27820   1.389   2.816   5.248 -0.1610 -0.2863 -0.9755
 5454SOL    HW127821   1.464   2.764   5.222 -0.2609 -0.6352 -0.5705
 5454SOL    HW227822   1.401   2.825   5.343  1.8381  1.8837 -1.4425
 5455SOL     OW27823   4.653   1.607   0.103  0.4959  0.0351 -0.2952
 5455SOL    HW127824   4.602   1.686   0.083  0.0866  0.6061  2.9459
 5455SOL    HW227825   4.611   1.558   0.033 -1.6537 -0.2933  1.2147
 5456SOL     OW27826   1.970   4.056   5.809  0.2791 -0.6626 -0.3278
 5456SOL    HW127827   1.939   4.071   5.719  0.6379 -0.5573 -0.4336
 5456SOL    HW227828   1.948   3.964   5.823  1.3386 -0.6813  1.1670
 5457SOL     OW27829   3.045   1.176   5.862  0.5594 -0.6763 -0.1915
 5457SOL    HW127830   2.994   1.144   5.937 -0.9181 -0.9305 -1.2885
 5457SOL    HW227831   3.049   1.102   5.801 -1.9159 -0.7590 -0.2870
 5458SOL     OW27832   3.400   3.134  17.243 -0.0186 -0.4428  0.8660
 5458SOL    HW127833   3.478   3.174  17.280  0.5771 -1.1529  0.3724
 5458SOL    HW227834   3.397   3.049  17.287  0.3924 -0.6019  0.5880
 5459SOL     OW27835   1.494   4.492   9.331  0.1782 -0.2794 -0.3872
 5459SOL    HW127836   1.444   4.453   9.260  1.1863 -3.0067  0.4166
 5459SOL    HW227837   1.499   4.583   9.300 -0.0289 -0.9247 -2.3028
 5460SOL     OW27838   3.410   1.100  14.829  0.7809  0.3665 -0.6191
 5460SOL    HW127839   3.500   1.113  14.858  1.5452 -0.4353 -2.6642
 5460SOL    HW227840   3.424   1.127  14.738  1.5928 -0.6116 -0.7741
 5461SOL     OW27841   4.073   2.834   1.347 -0.1113  0.0788 -0.3639
 5461SOL    HW127842   4.056   2.913   1.296 -0.3645 -0.4399 -1.0910
 5461SOL    HW227843   4.164   2.818   1.321 -0.1828 -2.2841  0.8255
 5462SOL     OW27844   0.471   4.112   3.481 -0.5460  0.6092  0.6953
 5462SOL    HW127845   0.545   4.167   3.456 -1.2818 -0.0172 -2.7856
 5462SOL    HW227846   0.521   4.038   3.515 -1.0928  0.1846  0.5725
 5463SOL     OW27847   0.798   4.181   3.999  0.7164  0.4356 -0.1342
 5463SOL    HW127848   0.710   4.154   3.973  0.5158 -1.6009  2.6088
 5463SOL    HW227849   0.801   4.242   3.926 -0.5127  1.6797  0.8506
 5464SOL     OW27850   2.112   0.413   6.271 -0.0404 -0.0297 -0.3277
 5464SOL    HW127851   2.071   0.364   6.342 -1.0515 -0.2280 -1.0495
 5464SOL    HW227852   2.204   0.409   6.296 -0.5466  0.0300  1.5006
 5465SOL     OW27853   3.406   4.124   8.379 -0.0154  0.3957  0.3013
 5465SOL    HW127854   3.339   4.191   8.377  0.6767  1.0914  0.3346
 5465SOL    HW227855   3.358   4.054   8.423  1.9507 -0.1154  1.6562
 5466SOL     OW27856   2.671   4.091   1.055 -0.2022  0.6472 -0.2218
 5466SOL    HW127857   2.579   4.081   1.083  0.7246 -2.4521  1.7565
 5466SOL    HW227858   2.717   4.026   1.108  0.7281  1.1245 -0.4530
 5467SOL     OW27859   0.168   0.976   2.624  0.1368 -0.2392 -0.5900
 5467SOL    HW127860   0.189   1.011   2.537  0.1176 -0.6329 -0.7548
 5467SOL    HW227861   0.124   1.050   2.665 -0.8974 -0.1943 -1.7537
 5468SOL     OW27862   0.163   2.192   6.453  0.2337 -0.3226 -0.1822
 5468SOL    HW127863   0.191   2.100   6.449 -1.3635 -0.8277  0.1969
 5468SOL    HW227864   0.117   2.197   6.536 -0.5147 -1.3327 -0.5309
 5469SOL     OW27865   1.956   1.775   5.608 -0.0081  0.3877 -0.2511
 5469SOL    HW127866   1.996   1.697   5.569 -0.3951 -0.4391  1.0210
 5469SOL    HW227867   2.001   1.775   5.692  0.1367  2.9227 -0.3292
 5470SOL     OW27868   4.093   4.062   3.402  0.1341 -0.4224  0.4567
 5470SOL    HW127869   4.066   4.076   3.311 -1.0374  0.2299  0.9093
 5470SOL    HW227870   4.166   4.123   3.405 -2.3061  2.4950 -0.0856
 5471SOL     OW27871   1.154   1.425   5.403  0.3319  0.2744  0.6288
 5471SOL    HW127872   1.246   1.409   5.384  0.6411  4.1514 -1.1034
 5471SOL    HW227873   1.132   1.335   5.426  2.1257 -0.1171  0.7630
 5472SOL     OW27874   4.210   1.516   8.272 -0.0421 -0.3481 -0.0813
 5472SOL    HW127875   4.129   1.551   8.311  1.2707  2.0720  0.4500
 5472SOL    HW227876   4.185   1.530   8.181  1.3338 -3.4205 -0.9229
 5473SOL     OW27877   1.402   2.574   6.683 -0.4644 -0.8949 -0.3993
 5473SOL    HW127878   1.357   2.509   6.737 -1.6323  0.6961  0.5618
 5473SOL    HW227879   1.335   2.572   6.614  0.0028 -0.1180 -0.8707
 5474SOL     OW27880   2.789   0.856   8.689 -0.1895 -0.1003  0.6356
 5474SOL    HW127881   2.788   0.935   8.743  3.2092 -0.3837  1.1071
 5474SOL    HW227882   2.725   0.889   8.626 -0.3909  0.9495  1.3977
 5475SOL     OW27883   3.493   0.812   1.949  0.6595 -0.0506  0.7224
 5475SOL    HW127884   3.402   0.837   1.934  0.8891 -0.5485 -1.3920
 5475SOL    HW227885   3.506   0.748   1.879  3.9133  0.5709  0.7639
 5476SOL     OW27886   4.115   2.637   4.043 -0.2687 -0.5103 -0.0701
 5476SOL    HW127887   4.040   2.602   4.091 -1.3965 -0.6251 -1.9458
 5476SOL    HW227888   4.108   2.729   4.070  0.2909 -0.4961  0.0204
 5477SOL     OW27889   1.163   2.968   5.741 -0.0512 -0.4621  0.1836
 5477SOL    HW127890   1.166   2.889   5.687 -0.7224 -0.5389  0.2518
 5477SOL    HW227891   1.081   2.949   5.788 -1.0675 -1.3124 -1.9192
 5478SOL     OW27892   2.212   0.084   6.570 -0.2297 -0.3773 -0.2595
 5478SOL    HW127893   2.208   4.712   6.553  0.3074 -0.5556  0.6661
 5478SOL    HW227894   2.181   0.094   6.659 -0.6697 -0.0409 -0.4509
 5479SOL     OW27895   1.484   2.038   6.582 -0.4426 -0.7819  0.0501
 5479SOL    HW127896   1.544   1.964   6.576  1.3846  0.6566  0.4491
 5479SOL    HW227897   1.501   2.062   6.673 -2.0816  2.3673 -0.4512
 5480SOL     OW27898   3.113   3.209  17.160  0.4319 -0.1420  0.8011
 5480SOL    HW127899   3.069   3.175  17.237 -1.5858  1.8575  0.5339
 5480SOL    HW227900   3.201   3.223  17.194  0.5402  0.8668  0.1285
 5481SOL     OW27901   3.394   0.889  17.202  0.0397 -0.2229  0.1940
 5481SOL    HW127902   3.466   0.866  17.260 -0.0277  0.4384  0.5309
 5481SOL    HW227903   3.353   0.955  17.258 -0.3070 -1.8895  1.9337
 5482SOL     OW27904   1.340   2.417  15.549 -0.0514  0.0905  0.0184
 5482SOL    HW127905   1.392   2.450  15.622  0.7894  1.1207 -1.0425
 5482SOL    HW227906   1.260   2.455  15.585 -0.4791 -1.1316  0.3716
 5483SOL     OW27907   4.198   3.323   4.572 -0.1960  0.0717  0.1510
 5483SOL    HW127908   4.168   3.232   4.574 -0.8367  0.2561 -1.0662
 5483SOL    HW227909   4.118   3.369   4.549  1.2513  0.6694 -3.6742
 5484SOL     OW27910   1.640   2.024   0.846  0.2496 -0.0130 -0.3992
 5484SOL    HW127911   1.617   2.013   0.754  1.2796 -0.7510 -0.5662
 5484SOL    HW227912   1.586   1.954   0.882  1.1536 -0.2478  0.5109
 5485SOL     OW27913   1.056   4.481   7.441  0.3573  0.5468 -0.1861
 5485SOL    HW127914   1.089   4.523   7.362  2.9195 -1.1364 -0.0048
 5485SOL    HW227915   1.089   4.541   7.508  0.0122 -0.0893  0.5507
 5486SOL     OW27916   0.704   3.392   0.469 -0.0554  0.3127  0.1442
 5486SOL    HW127917   0.684   3.463   0.529 -1.3814 -0.3611  0.5007
 5486SOL    HW227918   0.686   3.317   0.525 -0.7576  0.9110  0.7062
 5487SOL     OW27919   2.619   0.366   0.971  0.6393  0.8735  0.0600
 5487SOL    HW127920   2.576   0.410   1.044 -0.3407 -1.7740  1.0361
 5487SOL    HW227921   2.551   0.374   0.904  1.2864  1.1315 -0.5843
 5488SOL     OW27922   3.506   3.197  16.064 -0.0516 -0.4591  0.7161
 5488SOL    HW127923   3.572   3.133  16.089  2.3938  1.4524 -0.7984
 5488SOL    HW227924   3.457   3.138  16.006  1.1492 -0.8533  0.1072
 5489SOL     OW27925   3.916   4.104  11.762 -0.3304  0.1893  0.0241
 5489SOL    HW127926   3.981   4.159  11.807  1.0318 -1.9443  0.6953
 5489SOL    HW227927   3.909   4.142  11.674 -2.7377  0.3260  0.2829
 5490SOL     OW27928   3.691   0.662  10.272 -0.2208 -0.6640  0.3687
 5490SOL    HW127929   3.614   0.646  10.217 -1.0198  0.0881  1.2571
 5490SOL    HW227930   3.717   0.571  10.285  0.3924 -0.6951 -1.0548
 5491SOL     OW27931   3.347   3.130  16.929  0.3193 -0.9471  0.0661
 5491SOL    HW127932   3.407   3.109  17.001 -0.6797  1.5135  1.6372
 5491SOL    HW227933   3.271   3.171  16.970  1.3264  0.5615  0.4365
 5492SOL     OW27934   4.088   2.901  14.535 -0.4846  0.0593 -0.1842
 5492SOL    HW127935   4.128   2.916  14.621 -1.2331 -0.1330  0.1972
 5492SOL    HW227936   4.142   2.963  14.486  0.8622 -1.5039 -0.6692
 5493SOL     OW27937   0.947   3.336   4.045 -0.5720  0.0575 -0.0865
 5493SOL    HW127938   1.006   3.262   4.029  0.0418 -0.0412  2.6659
 5493SOL    HW227939   0.939   3.384   3.962  0.9531 -1.3258 -1.0439
 5494SOL     OW27940   1.391   3.503   7.072 -0.6504  0.1597 -0.1312
 5494SOL    HW127941   1.393   3.534   6.982  1.0551 -0.5762 -0.3560
 5494SOL    HW227942   1.484   3.521   7.090 -0.9255  1.8106 -0.3379
 5495SOL     OW27943   4.558   1.495   5.517  0.1165 -0.0098  0.3080
 5495SOL    HW127944   4.489   1.552   5.549  0.4656  0.6318 -0.0708
 5495SOL    HW227945   4.618   1.561   5.483  0.1076 -0.3897 -0.4376
 5496SOL     OW27946   2.944   3.125  17.369 -0.1667 -0.3735 -0.1384
 5496SOL    HW127947   3.018   3.087  17.416 -1.0427 -2.2485 -0.2415
 5496SOL    HW227948   2.881   3.053  17.367  0.6789 -1.1241  0.2621
 5497SOL     OW27949   0.723   0.117  16.241 -0.2512  0.3670  0.5397
 5497SOL    HW127950   0.715   0.050  16.174  0.1827  1.1064 -0.2574
 5497SOL    HW227951   0.815   0.143  16.241  0.2000 -1.2480  2.4242
 5498SOL     OW27952   3.204   0.147   9.196  0.0406 -0.2465  0.2827
 5498SOL    HW127953   3.267   0.219   9.201  0.5730 -0.7237  0.4080
 5498SOL    HW227954   3.220   0.102   9.279  0.6813  0.5740  0.5995
 5499SOL     OW27955   2.580   3.237   3.286  0.3239 -0.0974  0.3388
 5499SOL    HW127956   2.495   3.276   3.306 -0.4991 -1.1357 -1.1575
 5499SOL    HW227957   2.628   3.309   3.246 -2.3361  0.6333 -1.5008
 5500SOL     OW27958   0.574   0.250   9.568 -0.1379 -0.0203  0.8211
 5500SOL    HW127959   0.605   0.259   9.658  1.1653  0.0800  0.3670
 5500SOL    HW227960   0.485   0.215   9.573 -0.8108  1.0951 -3.7764
 5501SOL     OW27961   4.648   1.239   5.555  0.0609 -0.6118  0.5548
 5501SOL    HW127962   4.610   1.276   5.475 -0.3571 -1.2933  0.4405
 5501SOL    HW227963   4.711   1.310   5.571 -0.3837 -0.3684  1.2357
 5502SOL     OW27964   3.152   0.943   1.557 -0.2672 -0.1253  0.2738
 5502SOL    HW127965   3.202   0.923   1.479 -1.5270 -0.8283 -0.3609
 5502SOL    HW227966   3.076   0.889   1.535 -1.0130  0.9792  0.1237
 5503SOL     OW27967   3.207   0.655   7.584  0.1455 -0.4327 -0.2985
 5503SOL    HW127968   3.149   0.617   7.650 -0.1531 -0.5978 -0.6592
 5503SOL    HW227969   3.223   0.594   7.512 -0.4963  1.6914 -2.2418
 5504SOL     OW27970   2.258   0.732  11.834  0.6662 -0.7404 -0.4132
 5504SOL    HW127971   2.275   0.656  11.779  1.2956 -0.8583 -0.0472
 5504SOL    HW227972   2.315   0.795  11.790  0.1970 -0.2440 -0.3245
 5505SOL     OW27973   0.821   0.439   1.974  0.3204  0.0141 -0.1920
 5505SOL    HW127974   0.728   0.458   1.987  0.5450 -0.6442  2.2719
 5505SOL    HW227975   0.844   0.404   2.060  1.2510 -0.3347 -0.5887
 5506SOL     OW27976   0.988   1.774   2.738  0.8792 -0.3604  1.1842
 5506SOL    HW127977   1.030   1.849   2.696 -0.8075 -0.1834 -0.2365
 5506SOL    HW227978   1.028   1.765   2.824 -1.2062  0.5896  2.2694
 5507SOL     OW27979   0.548   2.445   2.582  0.1037 -0.1336 -0.1916
 5507SOL    HW127980   0.643   2.451   2.578  0.1857 -0.6956  1.1189
 5507SOL    HW227981   0.538   2.368   2.525 -0.3791 -0.4237  0.2821
 5508SOL     OW27982   3.170   4.498   2.372 -0.2006 -0.3151 -0.0976
 5508SOL    HW127983   3.132   4.441   2.304 -2.2476 -1.5010  2.0580
 5508SOL    HW227984   3.201   4.578   2.330  1.5451 -1.9532 -1.9904
 5509SOL     OW27985   2.410   2.529   3.897  0.4050 -0.2246  0.2764
 5509SOL    HW127986   2.496   2.491   3.918  0.0764  0.4367  2.8520
 5509SOL    HW227987   2.386   2.483   3.817  2.5689 -0.9555  0.0472
 5510SOL     OW27988   3.516   3.773   4.311  0.1733 -0.1185 -0.2365
 5510SOL    HW127989   3.447   3.815   4.363  0.1111 -0.7350  0.1757
 5510SOL    HW227990   3.475   3.687   4.299 -1.3714  0.6771 -0.7647
 5511SOL     OW27991   0.093   4.671  11.444 -0.3613 -0.2893 -0.4445
 5511SOL    HW127992   0.121   4.585  11.475  3.0736  0.0732 -2.5206
 5511SOL    HW227993   0.011   4.681  11.491  0.4107 -1.1883  1.0974
 5512SOL     OW27994   0.655   4.246   6.160  0.1196  0.1104  0.0067
 5512SOL    HW127995   0.575   4.236   6.109 -0.9590 -1.0099  1.9244
 5512SOL    HW227996   0.617   4.265   6.246 -0.4145  1.1796 -0.4670
 5513SOL     OW27997   2.173   2.988   9.463  0.3898 -0.3155 -0.2021
 5513SOL    HW127998   2.211   2.911   9.505 -0.0212 -1.2740 -1.5778
 5513SOL    HW227999   2.084   2.976   9.497 -0.4870 -0.3835 -2.5167
 5514SOL     OW28000   0.916   1.942   5.442 -0.4134 -0.2794 -0.5233
 5514SOL    HW128001   0.986   1.885   5.411  1.9633  0.9889  2.6697
 5514SOL    HW228002   0.908   1.907   5.530 -1.1468 -0.1925 -0.5475
 5515SOL     OW28003   3.686   0.771   0.786 -0.3111 -0.1801 -0.1158
 5515SOL    HW128004   3.708   0.713   0.713 -0.8464 -0.3923 -0.1118
 5515SOL    HW228005   3.763   0.827   0.789 -1.2976  1.1676  0.1349
 5516SOL     OW28006   1.542   1.376  12.066  0.1667  0.1672  0.6658
 5516SOL    HW128007   1.584   1.388  11.981 -1.8544 -1.0234 -0.5225
 5516SOL    HW228008   1.580   1.292  12.093 -0.5913 -1.2391 -2.6335
 5517SOL     OW28009   0.385   1.797   3.613 -0.1984 -0.2140  0.5840
 5517SOL    HW128010   0.336   1.714   3.616 -3.0930  1.4607 -0.1712
 5517SOL    HW228011   0.452   1.780   3.547 -1.1708 -0.3443 -0.3670
 5518SOL     OW28012   3.762   3.817   7.437 -0.0791 -0.1527  0.6080
 5518SOL    HW128013   3.761   3.753   7.366  1.2428  1.8377 -1.1940
 5518SOL    HW228014   3.671   3.848   7.427 -0.0672 -0.4329 -0.2995
 5519SOL     OW28015   4.444   4.275  10.099  0.2472  0.0299  0.6642
 5519SOL    HW128016   4.379   4.340  10.128  1.7850  2.2239 -0.7786
 5519SOL    HW228017   4.525   4.318  10.128  1.7580 -1.8917 -0.7555
 5520SOL     OW28018   1.572   1.034  17.613  0.1939  0.6260  0.4806
 5520SOL    HW128019   1.618   0.983  17.679 -1.7978 -1.2645  0.4023
 5520SOL    HW228020   1.480   1.017  17.633  0.1876 -1.1178 -1.1025
 5521SOL     OW28021   4.494   1.392  12.759 -0.3279 -0.3473  0.4661
 5521SOL    HW128022   4.512   1.372  12.851 -1.2584  1.5827  1.0613
 5521SOL    HW228023   4.411   1.438  12.763 -0.7683 -1.1403  0.5642
 5522SOL     OW28024   0.672   0.508   0.396  0.3083  0.1270  0.1323
 5522SOL    HW128025   0.765   0.487   0.406  0.0500 -0.2639  1.7481
 5522SOL    HW228026   0.661   0.453   0.319 -0.0839  0.7921 -0.2794
 5523SOL     OW28027   2.393   1.739  10.841 -0.0941  0.2188  0.5857
 5523SOL    HW128028   2.329   1.810  10.837  0.2556  0.5979  1.7342
 5523SOL    HW228029   2.456   1.740  10.769  0.3079 -0.7568  0.9247
 5524SOL     OW28030   4.292   0.691   6.482 -0.6225  0.3722 -0.2334
 5524SOL    HW128031   4.343   0.612   6.499 -2.1540 -0.1219  2.2085
 5524SOL    HW228032   4.232   0.694   6.557 -0.2207  1.3763  0.0512
 5525SOL     OW28033   0.507   3.836   8.866 -0.1721  0.1605  0.0225
 5525SOL    HW128034   0.551   3.873   8.942 -1.6102  2.2635 -0.1539
 5525SOL    HW228035   0.425   3.811   8.907  0.6242 -0.5080  1.2048
 5526SOL     OW28036   3.198   0.228  10.127 -0.5587  0.3633  0.4667
 5526SOL    HW128037   3.293   0.221  10.114 -0.3870  4.5384 -0.5294
 5526SOL    HW228038   3.189   0.182  10.210 -1.3164  1.4365  0.9712
 5527SOL     OW28039   3.356   4.036  10.789  0.4731  0.0268  0.5618
 5527SOL    HW128040   3.377   3.996  10.873  1.7103  2.7855  1.5556
 5527SOL    HW228041   3.295   4.100  10.827  0.2479  0.7051 -0.9268
 5528SOL     OW28042   1.650   0.638  15.272 -0.2299 -0.5926 -0.1074
 5528SOL    HW128043   1.557   0.658  15.281 -0.2829 -0.8230 -0.1370
 5528SOL    HW228044   1.656   0.543  15.279 -1.8449 -0.9031 -3.0696
 5529SOL     OW28045   4.234   0.766   1.204 -0.1206 -0.0812 -0.7040
 5529SOL    HW128046   4.271   0.846   1.242 -1.5851  1.5561 -2.7310
 5529SOL    HW228047   4.143   0.783   1.178  0.4519 -1.0367 -3.3563
 5530SOL     OW28048   2.220   3.847   6.699 -0.1577  0.6842  0.2446
 5530SOL    HW128049   2.301   3.811   6.663 -0.1681  0.9740 -0.0720
 5530SOL    HW228050   2.221   3.815   6.789  1.9442 -0.4610 -0.1755
 5531SOL     OW28051   0.680   2.654   5.538  0.1107  0.1031  0.3318
 5531SOL    HW128052   0.758   2.665   5.483  1.0893 -1.5491  1.4001
 5531SOL    HW228053   0.706   2.632   5.627 -1.4187  0.3000  0.8260
 5532SOL     OW28054   2.436   0.111   3.914  0.1007  0.4142  0.0557
 5532SOL    HW128055   2.436   0.205   3.931 -0.0545  0.4419 -0.0967
 5532SOL    HW228056   2.349   0.089   3.947  0.4108 -0.9066 -0.0160
 5533SOL     OW28057   0.211   1.053   2.170  0.1311  0.4964  0.1940
 5533SOL    HW128058   0.127   1.095   2.148 -0.0508  0.2120  0.3488
 5533SOL    HW228059   0.263   1.066   2.091  1.2893 -1.9939  0.5479
 5534SOL     OW28060   0.708   3.312   3.768  0.0619 -0.5861 -0.1498
 5534SOL    HW128061   0.638   3.290   3.706 -0.0642 -1.3170  0.2501
 5534SOL    HW228062   0.750   3.227   3.783  0.9431  0.0005  0.7010
 5535SOL     OW28063   0.429   3.597   4.880 -0.3294 -0.4585  0.1383
 5535SOL    HW128064   0.469   3.510   4.889 -0.4610 -0.6671 -1.3310
 5535SOL    HW228065   0.506   3.648   4.854 -1.1641  0.7667  0.0763
 5536SOL     OW28066   4.218   0.508   2.430  0.1990 -0.2420  0.1920
 5536SOL    HW128067   4.178   0.532   2.347 -3.3941 -0.5282  1.8407
 5536SOL    HW228068   4.210   0.589   2.480 -0.9210  0.4659 -1.1524
 5537SOL     OW28069   4.438   4.148   3.029  0.2661 -0.4072 -0.1021
 5537SOL    HW128070   4.449   4.053   3.025 -2.1014 -0.8121  2.8022
 5537SOL    HW228071   4.516   4.171   2.978 -1.2850  0.6596 -2.0145
 5538SOL     OW28072   3.652   3.797   2.201 -0.0585  0.3657 -0.5212
 5538SOL    HW128073   3.642   3.877   2.252 -0.7372  0.3503 -0.6258
 5538SOL    HW228074   3.574   3.800   2.145 -1.1132 -1.2605  0.8497
 5539SOL     OW28075   3.800   3.477   1.415  1.0277 -0.0288 -0.4078
 5539SOL    HW128076   3.799   3.561   1.460 -0.4845 -0.3774  0.1918
 5539SOL    HW228077   3.749   3.495   1.336 -0.7427 -0.7253  0.5767
 5540SOL     OW28078   4.006   0.468  13.182  0.6503 -0.5539  0.5150
 5540SOL    HW128079   3.990   0.552  13.139  2.8926  0.2195  1.1778
 5540SOL    HW228080   4.093   0.447  13.149  1.1899  2.4823  0.0152
 5541SOL     OW28081   0.400   4.416   2.411  0.0432 -0.0029 -0.5490
 5541SOL    HW128082   0.461   4.488   2.396 -1.8680  0.9374 -3.8679
 5541SOL    HW228083   0.333   4.437   2.346  0.6331 -1.1875 -1.5482
 5542SOL     OW28084   2.356   2.326   3.719  0.4258  0.0890  0.1797
 5542SOL    HW128085   2.326   2.236   3.710  0.4232  0.2180 -1.1185
 5542SOL    HW228086   2.436   2.322   3.666  0.3390  2.0514 -0.1230
 5543SOL     OW28087   4.582   0.949   2.000  0.8843 -0.1386  0.2895
 5543SOL    HW128088   4.595   0.920   1.910  1.1012 -2.7916  1.1606
 5543SOL    HW228089   4.511   0.892   2.032 -0.6222  0.2253 -2.4567
 5544SOL     OW28090   0.361   1.111  12.167  0.3205 -0.3580  0.4883
 5544SOL    HW128091   0.361   1.080  12.258 -0.5426 -0.0682  0.5888
 5544SOL    HW228092   0.453   1.108  12.141  0.0239  0.4434 -0.6288
 5545SOL     OW28093   4.357   3.576   7.262  0.6147  0.2685 -0.0557
 5545SOL    HW128094   4.448   3.577   7.291  0.7159  0.7363 -0.3799
 5545SOL    HW228095   4.319   3.660   7.288  0.8539  0.1167  0.7922
 5546SOL     OW28096   3.586   2.501   3.198 -0.0109  0.1925 -0.2481
 5546SOL    HW128097   3.639   2.428   3.169  1.1978  0.2850  1.7119
 5546SOL    HW228098   3.503   2.484   3.153 -1.8850  3.3837  1.9337
 5547SOL     OW28099   1.615   3.619  13.788 -0.0119 -0.2564 -0.2777
 5547SOL    HW128100   1.660   3.645  13.869  0.3029  1.4242 -0.9942
 5547SOL    HW228101   1.583   3.534  13.818 -1.9595  0.6064  0.0636
 5548SOL     OW28102   1.739   0.381   7.575  0.4790 -0.3080 -0.2210
 5548SOL    HW128103   1.670   0.444   7.596  1.1716  0.6205 -0.7490
 5548SOL    HW228104   1.806   0.436   7.534  0.6969  0.2224  0.8458
 5549SOL     OW28105   3.220   1.768   2.225 -0.3498 -0.8878  0.3113
 5549SOL    HW128106   3.125   1.771   2.214 -0.5437  0.1977  2.3259
 5549SOL    HW228107   3.247   1.859   2.231  1.3631 -1.2968 -1.2689
 5550SOL     OW28108   4.456   3.263   3.054  0.4384  0.5333 -0.6562
 5550SOL    HW128109   4.548   3.290   3.053  0.8233 -0.7388  1.9408
 5550SOL    HW228110   4.439   3.225   2.968 -2.3756 -2.2285  1.1592
 5551SOL     OW28111   1.897   1.276   4.778  0.7431  0.3341  0.6896
 5551SOL    HW128112   1.820   1.282   4.721  0.8213 -0.4344  0.4994
 5551SOL    HW228113   1.854   1.304   4.858 -1.7370 -1.2266 -0.0790
 5552SOL     OW28114   3.068   0.522   2.475 -0.2462 -0.6270 -0.3073
 5552SOL    HW128115   3.067   0.429   2.452  1.5436 -0.2967 -1.7585
 5552SOL    HW228116   2.991   0.514   2.532 -0.1211 -0.0250 -0.0563
 5553SOL     OW28117   3.701   2.178   6.737 -1.0138 -0.2379 -0.1356
 5553SOL    HW128118   3.626   2.236   6.748 -0.3668  0.4806  0.4355
 5553SOL    HW228119   3.766   2.234   6.696 -1.2783 -0.0713 -0.3266
 5554SOL     OW28120   2.027   4.350   7.919  0.0279  0.6198  0.4509
 5554SOL    HW128121   1.949   4.341   7.865  1.3251 -0.5579 -1.2538
 5554SOL    HW228122   1.989   4.387   7.998 -0.3431 -1.4929  1.2652
 5555SOL     OW28123   3.973   2.968   8.963 -0.6611  0.4309 -0.2361
 5555SOL    HW128124   3.988   2.880   8.928 -1.5291  0.6571 -1.1887
 5555SOL    HW228125   4.024   2.962   9.044  2.1137  0.8121 -1.9504
 5556SOL     OW28126   2.225   3.570   4.626  0.5318 -0.1096 -0.1522
 5556SOL    HW128127   2.256   3.598   4.540 -0.8434  2.8930  0.3310
 5556SOL    HW228128   2.157   3.505   4.606 -0.8243  1.4758 -0.6829
 5557SOL     OW28129   3.356   2.523   3.067 -0.5909 -0.1259  0.4612
 5557SOL    HW128130   3.316   2.440   3.040 -0.1345 -0.3365  0.4421
 5557SOL    HW228131   3.327   2.582   2.998  0.8110  0.6486  0.5436
 5558SOL     OW28132   3.622   2.650   1.831  0.5392 -0.0635 -0.1347
 5558SOL    HW128133   3.638   2.557   1.816 -2.2109 -0.3284 -1.4952
 5558SOL    HW228134   3.710   2.685   1.815  0.2665 -0.4749 -2.5919
 5559SOL     OW28135   3.794   0.661   6.306 -0.2832  0.4411  0.1623
 5559SOL    HW128136   3.784   0.579   6.257 -0.9012  0.9720 -0.5906
 5559SOL    HW228137   3.713   0.652   6.357 -0.0744  1.7903  0.7364
 5560SOL     OW28138   2.746   2.537   5.163  0.4773 -0.5324  0.1565
 5560SOL    HW128139   2.685   2.542   5.090  2.0048 -0.9250 -1.1448
 5560SOL    HW228140   2.707   2.606   5.217  2.2126 -0.6156  1.5188
 5561SOL     OW28141   3.263   2.322   0.051  0.2362  0.6862  0.6648
 5561SOL    HW128142   3.321   2.360   0.117  0.9845 -1.0532  1.0153
 5561SOL    HW228143   3.310   2.243   0.025  0.2925  0.0006  2.8309
 5562SOL     OW28144   2.151   4.064   1.111 -0.3031  0.7310 -0.8182
 5562SOL    HW128145   2.177   4.152   1.136  0.7786  0.2620 -0.3014
 5562SOL    HW228146   2.197   4.009   1.175  0.7803  1.8035 -0.6854
 5563SOL     OW28147   2.084   0.330   5.841 -0.6115  0.2104 -0.2006
 5563SOL    HW128148   2.106   0.263   5.906 -0.1744  0.8260  0.2852
 5563SOL    HW228149   2.083   0.408   5.897 -1.0121  0.5572 -0.6921
 5564SOL     OW28150   4.004   2.684   6.083  0.2380  0.3003 -0.1222
 5564SOL    HW128151   3.939   2.667   6.151  1.6697 -2.1938  0.6432
 5564SOL    HW228152   4.081   2.668   6.137  0.0349 -3.1765 -0.8741
 5565SOL     OW28153   0.299   1.838  13.572  0.5716  0.1081  0.2658
 5565SOL    HW128154   0.332   1.917  13.530 -1.4421  0.9431  0.2569
 5565SOL    HW228155   0.351   1.841  13.652 -1.2458 -0.0995  1.4367
 5566SOL     OW28156   4.243   0.051  10.685  1.0008  0.7703 -0.5390
 5566SOL    HW128157   4.207   0.140  10.684  2.1076  1.2437  0.9275
 5566SOL    HW228158   4.250   0.038  10.780  0.7673  0.6466 -0.5395
 5567SOL     OW28159   0.820   0.759   2.536  0.0716  0.4730 -0.2968
 5567SOL    HW128160   0.819   0.784   2.443  0.6762  2.2091  0.1599
 5567SOL    HW228161   0.913   0.770   2.554  0.0663  0.6485 -0.3751
 5568SOL     OW28162   0.895   2.888   6.109 -0.0900 -0.2235 -0.3579
 5568SOL    HW128163   0.820   2.835   6.136  0.6326 -1.4332 -0.7133
 5568SOL    HW228164   0.859   2.976   6.118 -2.3514 -1.1316 -0.5116
 5569SOL     OW28165   1.230   3.988   8.992  0.0810 -0.2760  0.2681
 5569SOL    HW128166   1.267   3.915   9.042 -0.9255 -0.6919  0.4123
 5569SOL    HW228167   1.255   3.970   8.901  0.8610  0.1715  0.3929
 5570SOL     OW28168   2.787   1.568  17.058 -0.0848 -0.0661 -0.1185
 5570SOL    HW128169   2.801   1.609  16.973 -0.4563 -1.2901 -0.7642
 5570SOL    HW228170   2.700   1.601  17.077 -0.3578 -2.0218  2.1108
 5571SOL     OW28171   2.718   0.659   1.412  0.3254  0.0852  0.1574
 5571SOL    HW128172   2.669   0.620   1.485  0.1995  1.7662  0.9695
 5571SOL    HW228173   2.762   0.730   1.459 -0.3099  0.4051  0.2608
 5572SOL     OW28174   4.141   1.509   3.180  0.4481  0.4683  0.5439
 5572SOL    HW128175   4.103   1.424   3.204  2.0408  0.0600  1.6267
 5572SOL    HW228176   4.074   1.569   3.212 -0.3493  0.7049 -1.5580
 5573SOL     OW28177   4.713   4.379   5.512 -0.7590 -0.0682 -0.3850
 5573SOL    HW128178   0.043   4.449   5.473  0.9183 -1.2308 -0.1742
 5573SOL    HW228179   0.007   4.390   5.606 -0.0339  1.6536 -0.7039
 5574SOL     OW28180   2.165   1.377   4.017  0.0747  0.1646 -0.3256
 5574SOL    HW128181   2.224   1.406   4.086  5.1517 -1.8863 -3.8190
 5574SOL    HW228182   2.107   1.321   4.069  0.2124  0.5461  0.2389
 5575SOL     OW28183   4.316   4.661   5.174  0.0487 -0.9010  0.7944
 5575SOL    HW128184   4.352   4.599   5.111 -1.4368  0.6149 -1.5420
 5575SOL    HW228185   4.305   4.612   5.256 -0.5987 -0.4429  0.9817
 5576SOL     OW28186   3.257   3.434  11.263  0.2086  0.2526  0.1329
 5576SOL    HW128187   3.227   3.483  11.339  1.0608 -1.1301  1.3686
 5576SOL    HW228188   3.223   3.487  11.192 -0.2472 -1.1601 -0.7062
 5577SOL     OW28189   1.165   2.508   2.666  0.2545  0.2371 -0.7963
 5577SOL    HW128190   1.125   2.595   2.662 -0.3375  0.1234  2.6534
 5577SOL    HW228191   1.102   2.461   2.611 -0.4413  0.2288  0.0097
 5578SOL     OW28192   2.256   0.327  11.926 -0.3617  0.0781  0.0778
 5578SOL    HW128193   2.338   0.374  11.911  0.2949 -0.6742  1.3353
 5578SOL    HW228194   2.286   0.275  12.001  2.8443  1.9229  0.1054
 5579SOL     OW28195   1.661   3.079   5.076 -0.0115  0.3037  0.4241
 5579SOL    HW128196   1.603   3.012   5.111  0.4048 -0.3961 -0.2127
 5579SOL    HW228197   1.664   3.147   5.143  0.7357 -0.4913  1.2014
 5580SOL     OW28198   1.515   3.856   3.901  0.1637  0.7356  0.8083
 5580SOL    HW128199   1.477   3.828   3.818  2.6385  0.2543 -0.1519
 5580SOL    HW228200   1.440   3.908   3.931  0.8508  2.7530 -0.9428
 5581SOL     OW28201   3.927   0.311   4.720  0.4245 -0.7127 -0.1643
 5581SOL    HW128202   4.020   0.298   4.739  0.5769 -0.1253 -0.5339
 5581SOL    HW228203   3.886   0.292   4.804 -0.1560  1.0773 -0.0500
 5582SOL     OW28204   0.620   0.022   1.224 -0.2804 -0.0165  0.0252
 5582SOL    HW128205   0.592   0.096   1.168 -2.7898 -0.9864 -0.0112
 5582SOL    HW228206   0.580   4.676   1.171 -0.4150 -0.7360  1.0733
 5583SOL     OW28207   0.507   2.653  10.685 -0.1385 -0.5578 -0.0899
 5583SOL    HW128208   0.576   2.651  10.751 -1.6392 -0.5264  1.4675
 5583SOL    HW228209   0.432   2.621  10.736 -1.4683  0.7263 -1.2353
 5584SOL     OW28210   0.287   1.276  17.644  0.2791  0.3782  0.3825
 5584SOL    HW128211   0.317   1.197  17.600 -0.0812 -1.6550  3.7469
 5584SOL    HW228212   0.235   1.320  17.577 -2.4388 -1.1303  1.5240
 5585SOL     OW28213   3.455   0.097  15.759  0.0628  0.0327 -0.3188
 5585SOL    HW128214   3.498   0.162  15.814 -1.0836  1.1302 -0.7177
 5585SOL    HW228215   3.472   0.134  15.673 -0.6969 -0.1567 -0.5510
 5586SOL     OW28216   3.567   1.369  10.120  0.5319  0.4487  0.1026
 5586SOL    HW128217   3.613   1.363  10.204  1.2359  0.0623 -0.3106
 5586SOL    HW228218   3.635   1.365  10.052  2.9379 -0.8610  2.5719
 5587SOL     OW28219   2.301   0.622  16.500 -0.1023  0.1787  0.6368
 5587SOL    HW128220   2.308   0.714  16.524 -0.7172  0.4980 -0.3939
 5587SOL    HW228221   2.219   0.624  16.450 -0.5022  2.9153  1.4214
 5588SOL     OW28222   2.475   4.390   6.186  0.0975 -0.3257 -0.1739
 5588SOL    HW128223   2.504   4.391   6.277  1.3565  0.5006 -0.5897
 5588SOL    HW228224   2.395   4.339   6.203 -1.8324  1.9221 -2.5902
 5589SOL     OW28225   0.575   0.962  17.389 -0.5261  0.1734  0.0519
 5589SOL    HW128226   0.618   0.962  17.303 -1.8591  3.1608 -0.6373
 5589SOL    HW228227   0.643   0.920  17.441 -1.0543  2.5426  2.6658
 5590SOL     OW28228   1.092   4.654  16.364  0.3203 -1.1540 -0.3103
 5590SOL    HW128229   1.028   4.600  16.410 -1.7748  0.6742 -1.0794
 5590SOL    HW228230   1.125   4.703  16.440  1.3000 -0.1443 -1.3851
 5591SOL     OW28231   2.712   1.530   7.753 -0.2334  0.0764  0.3052
 5591SOL    HW128232   2.762   1.565   7.826  0.2353 -0.1115  0.0697
 5591SOL    HW228233   2.626   1.541   7.794 -0.4907  0.9776 -0.4791
 5592SOL     OW28234   2.621   0.752  10.190  0.5823 -0.4740 -0.2536
 5592SOL    HW128235   2.702   0.740  10.241  1.2502  1.3942 -0.8878
 5592SOL    HW228236   2.554   0.698  10.233 -0.2048 -0.3543 -1.3328
 5593SOL     OW28237   2.220   3.256   4.314  0.7530 -0.4324 -0.5806
 5593SOL    HW128238   2.157   3.272   4.384  2.1934 -1.6191  0.9674
 5593SOL    HW228239   2.194   3.325   4.252  1.4120  0.7627  0.4808
 5594SOL     OW28240   0.333   4.069   4.180 -0.4041  0.1701 -0.6975
 5594SOL    HW128241   0.286   3.997   4.221  0.0191  0.7850  0.8542
 5594SOL    HW228242   0.374   4.107   4.257  0.2842 -0.1621 -0.9048
 5595SOL     OW28243   0.673   3.788   9.086 -0.1464 -0.1254 -0.1813
 5595SOL    HW128244   0.755   3.836   9.097 -0.1484  0.2189 -1.6227
 5595SOL    HW228245   0.706   3.698   9.089 -0.4598 -0.1272  2.9866
 5596SOL     OW28246   4.122   3.921   7.992 -0.3357 -0.5782  1.1226
 5596SOL    HW128247   4.045   3.902   7.938  0.4677  2.3786 -1.0730
 5596SOL    HW228248   4.093   3.984   8.058 -1.1883 -0.2192  0.4032
 5597SOL     OW28249   2.257   2.598   7.343  0.2606 -0.2273  0.2297
 5597SOL    HW128250   2.350   2.601   7.319  0.1113 -0.6402 -0.3824
 5597SOL    HW228251   2.266   2.594   7.439 -0.1019 -0.8504  0.2354
 5598SOL     OW28252   4.628   3.601   6.281 -0.3480  0.3479 -0.1136
 5598SOL    HW128253   4.654   3.688   6.249 -0.9299  0.8098  0.6500
 5598SOL    HW228254   4.708   3.549   6.271 -0.1881  0.1831  1.9946
 5599SOL     OW28255   4.263   0.274   2.527  0.2041 -0.2335 -0.0188
 5599SOL    HW128256   4.183   0.226   2.505 -0.7995  0.2249  2.5510
 5599SOL    HW228257   4.244   0.356   2.482  1.0432  0.1738  0.3700
 5600SOL     OW28258   3.172   0.497   9.130  0.1064  0.3960 -0.2441
 5600SOL    HW128259   3.139   0.498   9.040 -1.4075 -1.3422  0.3041
 5600SOL    HW228260   3.106   0.548   9.176 -0.1567  1.0969 -1.3869
 5601SOL     OW28261   4.247   3.535  12.550 -0.2706 -0.3087 -0.1645
 5601SOL    HW128262   4.206   3.499  12.471 -0.9213 -0.9666  0.4671
 5601SOL    HW228263   4.203   3.620  12.555 -0.2220 -0.2860 -0.1227
 5602SOL     OW28264   3.447   4.688  10.977 -0.1098  0.1312 -0.3962
 5602SOL    HW128265   3.442   4.648  10.890  1.6727  0.1108 -0.4788
 5602SOL    HW228266   3.511   0.028  10.945 -1.0182  1.2885  0.0538
 5603SOL     OW28267   3.210   2.068   5.368  0.1651  0.2347  0.3740
 5603SOL    HW128268   3.115   2.076   5.382  0.0174 -0.0482 -0.4599
 5603SOL    HW228269   3.238   2.145   5.418  0.4170 -0.4585  1.2866
 5604SOL     OW28270   0.489   3.452  15.834  0.1893  0.4274  0.3833
 5604SOL    HW128271   0.519   3.364  15.859  0.0693  0.1148 -0.5647
 5604SOL    HW228272   0.564   3.501  15.869  0.0383  0.8987  0.0389
 5605SOL     OW28273   1.721   0.103  15.311  0.2681  0.1427  0.4142
 5605SOL    HW128274   1.680   0.087  15.227  0.0446 -0.8705  0.7185
 5605SOL    HW228275   1.814   0.086  15.298  1.1318  3.1139  2.6398
 5606SOL     OW28276   3.929   3.012  17.589 -0.0435 -0.0827  0.0229
 5606SOL    HW128277   3.949   2.997  17.497  2.2267  0.6579  0.3931
 5606SOL    HW228278   3.995   3.079  17.609  1.6713 -1.3102 -1.4924
 5607SOL     OW28279   2.914   1.787   2.335 -0.1104 -0.1704  0.3862
 5607SOL    HW128280   2.926   1.794   2.240  0.6348 -3.4039  0.2262
 5607SOL    HW228281   2.825   1.818   2.349  0.0734 -0.2230  1.6909
 5608SOL     OW28282   3.847   4.105   4.018  0.1081 -0.7926  0.3433
 5608SOL    HW128283   3.790   4.093   3.942  1.7514 -0.0060 -1.0201
 5608SOL    HW228284   3.809   4.190   4.042  1.0401  0.3094 -2.1560
 5609SOL     OW28285   4.335   2.066  15.119 -0.6015 -0.0830  0.5950
 5609SOL    HW128286   4.426   2.058  15.146 -0.6546  0.4077  0.9101
 5609SOL    HW228287   4.294   2.106  15.196  1.6999 -0.9932  2.2815
 5610SOL     OW28288   0.645   2.022   3.266  0.1498 -0.7053 -0.3725
 5610SOL    HW128289   0.680   2.111   3.259 -1.7920  0.2217  1.7216
 5610SOL    HW228290   0.677   1.980   3.186  1.3247 -1.5716  0.5432
 5611SOL     OW28291   0.669   1.600   2.870 -0.0042  0.2282 -0.1099
 5611SOL    HW128292   0.692   1.685   2.833  2.8848 -0.9731 -1.0983
 5611SOL    HW228293   0.727   1.594   2.946  2.1089 -0.9435 -1.8052
 5612SOL     OW28294   1.010   4.521   3.769 -0.1435 -0.2671  0.2588
 5612SOL    HW128295   0.929   4.573   3.763  0.0732  0.2183  1.7159
 5612SOL    HW228296   0.972   4.434   3.758 -0.1207 -0.2588  0.1192
 5613SOL     OW28297   3.425   2.230   0.314  0.0955  0.1223 -0.0140
 5613SOL    HW128298   3.400   2.319   0.287  0.7258  0.1364 -0.5805
 5613SOL    HW228299   3.507   2.214   0.267 -0.5730 -0.4338 -0.9953
 5614SOL     OW28300   0.359   0.091  13.069  0.4210 -0.0018 -0.6769
 5614SOL    HW128301   0.313   0.007  13.066 -0.3320  0.3741  0.5821
 5614SOL    HW228302   0.431   0.075  13.131 -0.8977  0.4257  0.9576
 5615SOL     OW28303   0.400   1.116   3.413  0.6171  0.1732 -0.0507
 5615SOL    HW128304   0.421   1.032   3.372 -1.5954 -0.2448 -0.3626
 5615SOL    HW228305   0.381   1.097   3.505 -0.2239  0.1692 -0.2215
 5616SOL     OW28306   1.475   2.118  15.226 -0.1639  0.5057  0.5579
 5616SOL    HW128307   1.483   2.210  15.252 -0.0956  0.4680  0.6685
 5616SOL    HW228308   1.390   2.089  15.261 -0.1990  0.8313  0.7436
 5617SOL     OW28309   0.551   2.791  17.202  0.2822  0.1942  0.2241
 5617SOL    HW128310   0.467   2.745  17.206  0.6513 -0.4477  0.6368
 5617SOL    HW228311   0.545   2.818  17.110 -1.5524  2.0486  0.8912
 5618SOL     OW28312   3.669   3.363   7.332 -0.4391  0.1653  0.4176
 5618SOL    HW128313   3.699   3.413   7.408 -1.2793  0.9531  0.2253
 5618SOL    HW228314   3.702   3.275   7.349  2.1138  1.1805  0.5930
 5619SOL     OW28315   0.197   3.827   2.194 -0.3195  0.1768 -0.0810
 5619SOL    HW128316   0.139   3.755   2.169  0.9521 -0.7324 -0.3545
 5619SOL    HW228317   0.262   3.772   2.237 -2.2366 -1.3298  0.9120
 5620SOL     OW28318   1.045   2.756   2.669  0.0436 -0.1173  0.2002
 5620SOL    HW128319   0.967   2.729   2.717 -0.0731  0.0379  0.0999
 5620SOL    HW228320   1.016   2.807   2.593 -1.1121  1.6856  1.8405
 5621SOL     OW28321   1.509   3.391   8.260 -0.0617  0.3392  0.0147
 5621SOL    HW128322   1.427   3.348   8.234 -1.0161  0.9560  2.0281
 5621SOL    HW228323   1.546   3.312   8.298  1.3273  1.6330  1.3405
 5622SOL     OW28324   3.525   2.786   1.293 -0.6067 -0.9762 -0.4358
 5622SOL    HW128325   3.509   2.877   1.267 -1.5454 -1.4536 -1.5293
 5622SOL    HW228326   3.619   2.785   1.313 -0.9091  2.0668  1.2105
 5623SOL     OW28327   3.149   2.743   5.754  0.0337  0.2958 -0.0353
 5623SOL    HW128328   3.213   2.723   5.822 -0.8587 -2.2138  0.0742
 5623SOL    HW228329   3.136   2.661   5.706 -0.9406 -1.8299  3.7706
 5624SOL     OW28330   3.116   3.575   7.420  0.4654  0.3678 -0.2005
 5624SOL    HW128331   3.093   3.550   7.510 -1.5250  0.1025 -0.7856
 5624SOL    HW228332   3.211   3.588   7.429  0.8761 -1.4968 -1.9561
 5625SOL     OW28333   4.580   1.588   9.791 -0.2988  0.3040 -0.3128
 5625SOL    HW128334   4.546   1.670   9.753  0.9329  1.2935  0.7227
 5625SOL    HW228335   4.634   1.543   9.726  0.3474 -0.8017  1.0040
 5626SOL     OW28336   2.623   3.193   2.112 -0.2552  0.5402 -0.5127
 5626SOL    HW128337   2.578   3.110   2.096 -3.0163  2.0545 -0.5427
 5626SOL    HW228338   2.703   3.163   2.156 -0.5598 -1.7409 -1.5297
 5627SOL     OW28339   1.024   0.095   7.567  0.5138 -0.1433  0.0112
 5627SOL    HW128340   1.094   0.159   7.585  2.2182 -1.7421 -0.9962
 5627SOL    HW228341   0.998   0.115   7.477  0.5996  1.1761  0.2760
 5628SOL     OW28342   2.593   2.827   1.888  0.0673  0.2299  0.3446
 5628SOL    HW128343   2.511   2.818   1.840 -1.0031  1.2139  1.9683
 5628SOL    HW228344   2.584   2.915   1.926 -2.3014 -0.5251  1.5629
 5629SOL     OW28345   0.028   3.481  14.222 -0.6461  0.5975  0.1851
 5629SOL    HW128346   4.683   3.543  14.197  0.6906  1.1284 -2.0805
 5629SOL    HW228347   4.701   3.401  14.241  0.2470 -0.3919 -1.6503
 5630SOL     OW28348   1.195   3.193   4.000 -0.3172  0.0327  0.4490
 5630SOL    HW128349   1.284   3.185   3.966  0.0624 -2.3220  2.0484
 5630SOL    HW228350   1.203   3.160   4.089  0.2461 -0.3680  0.2528
 5631SOL     OW28351   0.133   4.398   2.876  0.7200 -0.0226 -0.2317
 5631SOL    HW128352   0.115   4.458   2.804  2.5446  1.3024  0.4313
 5631SOL    HW228353   0.218   4.434   2.900  0.3908 -0.3476  1.4864
 5632SOL     OW28354   2.031   0.418   3.053  0.2218 -0.7323 -0.5392
 5632SOL    HW128355   1.990   0.460   3.129  3.3360  1.0416  0.1466
 5632SOL    HW228356   2.029   0.489   2.988  0.6758  1.3388  1.7072
 5633SOL     OW28357   0.586   1.748   9.530  0.7627 -0.1461 -0.1586
 5633SOL    HW128358   0.581   1.666   9.579  0.4070 -0.9322 -1.4952
 5633SOL    HW228359   0.628   1.814   9.584 -0.1916 -0.6719  1.2131
 5634SOL     OW28360   0.946   2.548   3.797 -0.5674 -0.1844 -0.1064
 5634SOL    HW128361   0.979   2.638   3.803 -0.3944 -0.3409  1.3996
 5634SOL    HW228362   0.872   2.554   3.857 -2.4248 -2.7414 -2.1881
 5635SOL     OW28363   0.467   4.464   3.697  0.5308  0.1872 -0.3960
 5635SOL    HW128364   0.428   4.550   3.705 -1.9859 -0.8741 -1.2180
 5635SOL    HW228365   0.399   4.404   3.665  0.5712  1.5930 -3.1137
 5636SOL     OW28366   4.067   2.506  17.654 -0.1960  0.2719 -0.2584
 5636SOL    HW128367   4.030   2.594  17.644 -3.1962 -0.9581  0.0351
 5636SOL    HW228368   4.027   2.482   0.045 -0.8846 -0.6097 -0.8445
 5637SOL     OW28369   4.515   2.722  15.177  0.0562 -0.5259  0.0371
 5637SOL    HW128370   4.424   2.729  15.148  0.2859 -2.5685 -1.1395
 5637SOL    HW228371   4.500   2.726  15.272  0.7795 -3.0508  0.2548
 5638SOL     OW28372   4.352   1.913   5.678 -0.1419  0.3895 -0.4358
 5638SOL    HW128373   4.281   1.929   5.740  0.9725  0.8421  0.7084
 5638SOL    HW228374   4.354   1.992   5.625 -1.6411 -0.0135 -1.1107
 5639SOL     OW28375   0.281   3.290   6.058  0.0254 -0.5037 -0.3504
 5639SOL    HW128376   0.358   3.251   6.100 -0.0970  1.2704  1.5206
 5639SOL    HW228377   0.291   3.261   5.967 -1.0537 -0.3287 -0.5266
 5640SOL     OW28378   1.601   2.973   2.100  0.7403 -0.0396  0.1081
 5640SOL    HW128379   1.514   2.948   2.066  0.9586 -0.4398 -0.1537
 5640SOL    HW228380   1.616   2.903   2.164 -3.2750 -0.0943  1.0061
 5641SOL     OW28381   2.738   1.305   5.762 -0.1427 -0.4385 -0.4256
 5641SOL    HW128382   2.736   1.242   5.690  2.8547  1.4256 -2.1391
 5641SOL    HW228383   2.825   1.300   5.802 -0.3592  2.6470  0.4371
 5642SOL     OW28384   1.280   4.010   6.310  0.3401 -0.4508  0.3733
 5642SOL    HW128385   1.297   4.044   6.222  1.4814  1.4397  1.3211
 5642SOL    HW228386   1.201   3.959   6.292 -0.4618  0.4891  1.2148
 5643SOL     OW28387   2.347   4.443   3.865 -0.1515  0.0875  0.1870
 5643SOL    HW128388   2.342   4.358   3.822  1.2365  1.4637 -2.7248
 5643SOL    HW228389   2.368   4.420   3.955  0.4666 -1.6437 -0.4058
 5644SOL     OW28390   1.214   2.616   6.492 -0.0039  0.0274  0.5175
 5644SOL    HW128391   1.125   2.651   6.494 -0.0356  0.0408 -1.7861
 5644SOL    HW228392   1.250   2.640   6.407 -3.6161  1.6687 -0.5208
 5645SOL     OW28393   4.471   4.399   3.835  0.3466 -0.3136  0.3470
 5645SOL    HW128394   4.452   4.476   3.889  1.5077  0.7787 -0.8051
 5645SOL    HW228395   4.387   4.354   3.836  0.1485  0.0524  0.2515
 5646SOL     OW28396   4.602   2.595   4.948  0.7826  0.1244  0.0819
 5646SOL    HW128397   4.567   2.620   5.034 -1.2204 -0.4023 -0.5789
 5646SOL    HW228398   4.527   2.583   4.890  0.4094 -0.5645  0.7019
 5647SOL     OW28399   3.192   3.662   6.484 -0.4317  0.4765 -0.3316
 5647SOL    HW128400   3.286   3.680   6.487  0.2011 -3.0442  0.9394
 5647SOL    HW228401   3.175   3.668   6.578 -1.5014  0.6176 -0.5365
 5648SOL     OW28402   2.545   1.812   0.808 -0.1707 -0.2248 -0.5205
 5648SOL    HW128403   2.554   1.888   0.866  0.8994 -1.8243  1.4236
 5648SOL    HW228404   2.450   1.803   0.806 -0.3144  0.7756  1.2762
 5649SOL     OW28405   1.204   0.635   4.261 -0.3792 -0.1999 -0.6840
 5649SOL    HW128406   1.248   0.674   4.185  0.3128  0.4875  0.0600
 5649SOL    HW228407   1.277   0.637   4.323 -0.6106  0.8479 -0.4530
 5650SOL     OW28408   3.212   2.920   3.264  0.5016 -0.4696 -0.3535
 5650SOL    HW128409   3.175   2.834   3.242  1.6496 -0.2771 -3.0908
 5650SOL    HW228410   3.194   2.926   3.358 -0.3362 -0.7011 -0.4923
 5651SOL     OW28411   4.050   0.997  14.789 -0.0452  0.3681 -0.1481
 5651SOL    HW128412   3.963   0.984  14.827 -0.3568  1.5169 -0.4812
 5651SOL    HW228413   4.065   0.906  14.762  0.8265  0.4585  0.0224
 5652SOL     OW28414   3.822   2.246   1.574  0.3548  0.3421 -0.6582
 5652SOL    HW128415   3.873   2.167   1.553  0.2689 -0.2639  1.4434
 5652SOL    HW228416   3.883   2.300   1.624  0.0157 -0.9260  1.1105
 5653SOL     OW28417   3.407   2.614   6.889  0.0382  0.2351  0.8262
 5653SOL    HW128418   3.368   2.637   6.973 -2.4156 -1.3990  0.1275
 5653SOL    HW228419   3.490   2.659   6.907  0.3841 -1.1314  2.6248
 5654SOL     OW28420   4.538   2.443   5.721 -0.3694 -0.0223  0.2218
 5654SOL    HW128421   4.479   2.422   5.794  0.2371 -0.0710  0.7009
 5654SOL    HW228422   4.621   2.462   5.766 -0.3860 -2.2089  1.1834
 5655SOL     OW28423   3.419   2.896   7.633  0.5650  0.0548 -0.2518
 5655SOL    HW128424   3.405   2.949   7.554  0.5178  1.0136  0.3991
 5655SOL    HW228425   3.467   2.962   7.683  1.7042 -0.7045 -0.3508
 5656SOL     OW28426   0.574   3.085   4.049  0.1901 -0.6731  0.2683
 5656SOL    HW128427   0.484   3.091   4.015  0.8522  1.6442 -1.0439
 5656SOL    HW228428   0.598   2.997   4.019 -0.0014 -1.3851  2.2097
 5657SOL     OW28429   1.631   0.075   7.074 -0.4358 -0.0609  0.6693
 5657SOL    HW128430   1.633   0.040   6.985 -1.4726 -1.0850  1.0496
 5657SOL    HW228431   1.719   0.113   7.083  0.1994 -1.2850 -0.3293
 5658SOL     OW28432   2.674   2.590  10.327 -0.7253 -0.3163  0.8221
 5658SOL    HW128433   2.677   2.538  10.407 -2.8185 -3.5008 -1.1644
 5658SOL    HW228434   2.710   2.674  10.357 -1.6775  0.2096  0.5071
 5659SOL     OW28435   1.045   0.114  16.581 -0.1097  0.3809 -0.3433
 5659SOL    HW128436   0.967   0.096  16.634  0.5254  0.3726  0.5808
 5659SOL    HW228437   1.092   0.168  16.644 -1.9235 -0.2008  1.4936
 5660SOL     OW28438   1.741   3.947   6.924  0.0678  0.1142  0.5348
 5660SOL    HW128439   1.679   4.003   6.878  2.5519  4.6953  2.7534
 5660SOL    HW228440   1.728   3.972   7.016 -0.7250 -0.0896  0.4784
 5661SOL     OW28441   3.098   2.826   8.621  0.1981  0.2626  0.1073
 5661SOL    HW128442   3.086   2.752   8.680  1.1178  0.1402  0.1406
 5661SOL    HW228443   3.026   2.879   8.654  0.2832 -0.6829  1.7982
 5662SOL     OW28444   1.690   3.274  12.590  0.3490 -0.2944 -0.3190
 5662SOL    HW128445   1.623   3.272  12.522  0.2914 -2.8228 -0.2050
 5662SOL    HW228446   1.764   3.291  12.532  0.5248 -0.6122 -0.1884
 5663SOL     OW28447   0.739   1.072   1.758 -0.0002 -0.3674 -0.1873
 5663SOL    HW128448   0.671   1.139   1.766  0.5363  0.4201 -2.1843
 5663SOL    HW228449   0.811   1.096   1.815  2.8283 -1.7843 -3.1839
 5664SOL     OW28450   3.767   3.471  11.616  0.0507 -0.1606 -0.3293
 5664SOL    HW128451   3.756   3.533  11.544 -1.0141  0.9411  0.7847
 5664SOL    HW228452   3.858   3.485  11.643  0.6006 -1.6866 -1.4122
 5665SOL     OW28453   4.122   2.499   9.661  0.4175 -0.2246 -0.5018
 5665SOL    HW128454   4.073   2.424   9.695  0.5722 -0.3923 -0.6501
 5665SOL    HW228455   4.085   2.570   9.713 -1.3612 -2.1707  0.9085
 5666SOL     OW28456   0.414   1.369   2.953 -0.0733 -0.2713 -0.4821
 5666SOL    HW128457   0.346   1.435   2.963 -0.1995 -0.2237 -1.6899
 5666SOL    HW228458   0.424   1.373   2.858  0.2774  0.4278 -0.4131
 5667SOL     OW28459   2.580   1.223   4.518 -0.4616  0.0676  0.6647
 5667SOL    HW128460   2.561   1.189   4.431  1.4610  0.3545  0.1235
 5667SOL    HW228461   2.674   1.210   4.533 -0.1336 -1.5764 -2.8459
 5668SOL     OW28462   3.784   2.039   8.215  0.2546  0.3266  0.1691
 5668SOL    HW128463   3.716   2.102   8.194 -0.4690 -0.9827 -1.4145
 5668SOL    HW228464   3.865   2.089   8.208  1.0076 -1.0451 -1.0275
 5669SOL     OW28465   2.466   0.486   9.771  0.2931 -0.2997  0.4306
 5669SOL    HW128466   2.430   0.482   9.859 -0.2758 -4.7569 -0.0325
 5669SOL    HW228467   2.393   0.527   9.726 -0.6760 -2.5292 -0.0145
 5670SOL     OW28468   3.966   4.501  15.468 -0.1195  0.4488  0.0456
 5670SOL    HW128469   3.917   4.483  15.548 -2.3358 -2.2651 -1.9506
 5670SOL    HW228470   4.046   4.453  15.490 -0.1483 -0.7427 -2.4445
 5671SOL     OW28471   4.170   4.313  17.318 -0.2102 -0.4833 -0.8627
 5671SOL    HW128472   4.093   4.356  17.356  1.9200  0.0380  2.8834
 5671SOL    HW228473   4.183   4.369  17.242  2.6123 -1.9834 -1.4687
 5672SOL     OW28474   0.614   4.300   3.242 -0.0918 -0.2966 -0.4522
 5672SOL    HW128475   0.605   4.375   3.300 -0.2630 -2.6775  2.6020
 5672SOL    HW228476   0.689   4.329   3.190 -2.3945  1.3004 -2.8914
 5673SOL     OW28477   0.508   2.197   6.331 -0.1696  0.0097  0.1202
 5673SOL    HW128478   0.509   2.248   6.412  2.0310  2.1363 -1.2757
 5673SOL    HW228479   0.522   2.105   6.356  0.2589 -0.1330 -0.6466
 5674SOL     OW28480   3.387   3.149  16.503  0.0830  0.1700  0.2657
 5674SOL    HW128481   3.355   3.175  16.417 -0.0615  0.2519  0.3430
 5674SOL    HW228482   3.330   3.194  16.566 -1.3808  0.4549 -1.2646
 5675SOL     OW28483   3.760   4.261   6.958 -0.1131 -0.1939 -0.1718
 5675SOL    HW128484   3.739   4.341   7.005 -0.1313 -0.3716  0.1201
 5675SOL    HW228485   3.717   4.268   6.872  1.8755  0.1397 -1.1508
 5676SOL     OW28486   1.470   4.250   4.678 -0.2224  0.4439 -0.2957
 5676SOL    HW128487   1.431   4.319   4.625 -0.3894 -0.0989 -0.8800
 5676SOL    HW228488   1.405   4.181   4.669 -0.5836  0.8030 -0.4245
 5677SOL     OW28489   4.723   2.684   1.136 -0.3591  0.0890 -0.0817
 5677SOL    HW128490   4.721   2.610   1.077  1.5269  0.3004 -0.3864
 5677SOL    HW228491   4.642   2.680   1.189 -1.1559  0.8524 -1.2432
 5678SOL     OW28492   3.349   3.030  15.940 -0.1089  0.2448  0.3697
 5678SOL    HW128493   3.272   2.995  15.984 -0.6945 -0.4941 -1.2423
 5678SOL    HW228494   3.362   2.963  15.872  1.0607  1.1132 -0.2639
 5679SOL     OW28495   4.182   4.314   9.051  0.1727  0.0029 -0.5229
 5679SOL    HW128496   4.124   4.310   9.128  0.7465  3.5335  0.1102
 5679SOL    HW228497   4.190   4.221   9.032  0.1750 -0.0620 -0.2029
 5680SOL     OW28498   1.844   0.506   5.688 -0.2277 -0.1510 -0.3245
 5680SOL    HW128499   1.916   0.448   5.712 -2.2470 -1.7326  1.9085
 5680SOL    HW228500   1.886   0.591   5.701 -0.0606 -0.3984  0.7435
 5681SOL     OW28501   2.523   4.020   1.295 -0.0863 -0.0923  0.1741
 5681SOL    HW128502   2.446   3.963   1.302  0.8444 -1.5830 -1.8635
 5681SOL    HW228503   2.593   3.955   1.302  0.7032  0.5898 -1.3418
 5682SOL     OW28504   3.662   3.198   6.923  0.3079 -0.3767  0.2157
 5682SOL    HW128505   3.584   3.239   6.961  1.2062  0.7899  0.8040
 5682SOL    HW228506   3.722   3.265   6.956  1.3184 -0.6589 -1.0386
 5683SOL     OW28507   4.177   3.032  15.032  0.4190  0.3864  0.3302
 5683SOL    HW128508   4.121   3.106  15.008  1.1369  1.1706  1.0752
 5683SOL    HW228509   4.179   3.030  15.128  0.0856  2.9149  0.3878
 5684SOL     OW28510   2.468   0.879   5.388  0.0690  0.1107 -0.1023
 5684SOL    HW128511   2.479   0.785   5.374  1.2714  0.2246  0.0478
 5684SOL    HW228512   2.434   0.909   5.304 -0.8441 -0.7039 -0.0196
 5685SOL     OW28513   1.817   0.927  13.373 -0.1441  0.2748  0.1605
 5685SOL    HW128514   1.825   0.968  13.287  1.8790 -0.8060 -0.1564
 5685SOL    HW228515   1.890   0.866  13.366 -1.1983 -1.0873  0.9890
 5686SOL     OW28516   4.269   1.392   3.615  0.5606 -0.2638 -0.1690
 5686SOL    HW128517   4.268   1.436   3.530 -0.3620  1.5271  0.7834
 5686SOL    HW228518   4.336   1.324   3.606  0.7114 -0.0264 -0.8578
 5687SOL     OW28519   2.504   4.370   4.844  0.5667  0.1328 -0.0914
 5687SOL    HW128520   2.596   4.347   4.837  0.7228 -0.3221  3.2258
 5687SOL    HW228521   2.506   4.417   4.927  2.8828 -0.1415  0.0129
 5688SOL     OW28522   3.293   4.624   4.289 -0.4288  0.4734  0.1150
 5688SOL    HW128523   3.341   4.678   4.351  2.0647  1.3431 -2.5794
 5688SOL    HW228524   3.304   4.537   4.327 -2.7948 -1.0768 -2.6720
 5689SOL     OW28525   2.452   2.427   8.145  0.3981 -0.2371 -0.0861
 5689SOL    HW128526   2.543   2.402   8.161  0.3174 -2.7390 -3.4698
 5689SOL    HW228527   2.444   2.511   8.191  0.5300 -0.3275  0.0998
 5690SOL     OW28528   2.599   0.596   9.374  0.1539  0.2074 -0.1723
 5690SOL    HW128529   2.661   0.585   9.446  0.6256  3.4276 -0.0743
 5690SOL    HW228530   2.522   0.617   9.426  0.1149  0.2622 -0.2504
 5691SOL     OW28531   1.025   0.957   8.003 -0.0515  0.2581  0.6479
 5691SOL    HW128532   0.934   0.936   7.983 -0.2723  0.6494  1.2139
 5691SOL    HW228533   1.062   0.983   7.919  1.1823 -0.0628  1.1030
 5692SOL     OW28534   3.888   4.141   8.355 -0.1812 -0.1199  0.7514
 5692SOL    HW128535   3.890   4.228   8.395 -1.4635  0.7054 -0.9896
 5692SOL    HW228536   3.822   4.101   8.412 -1.0010  0.8578  0.4897
 5693SOL     OW28537   4.269   3.540   3.782 -0.5434  0.0368 -0.3951
 5693SOL    HW128538   4.362   3.534   3.761  0.6231  2.4509  3.9260
 5693SOL    HW228539   4.268   3.559   3.876 -1.0068 -2.0269  0.0091
 5694SOL     OW28540   3.931   2.036   1.189  0.3079  0.4336 -0.0846
 5694SOL    HW128541   4.021   2.022   1.159  0.8098  0.3413  1.4588
 5694SOL    HW228542   3.886   2.023   1.106 -1.1372  1.0640  0.6025
 5695SOL     OW28543   3.857   4.409   2.655  0.7966 -0.2123 -0.2203
 5695SOL    HW128544   3.812   4.491   2.636  1.5335 -0.0909 -1.4078
 5695SOL    HW228545   3.787   4.352   2.625  0.2730  1.0378 -1.3577
 5696SOL     OW28546   2.596   2.044   4.713  0.2731  0.2726 -0.0908
 5696SOL    HW128547   2.638   1.995   4.642 -0.6046 -1.7693  0.8144
 5696SOL    HW228548   2.556   2.118   4.667  1.1649  1.8785  1.7063
 5697SOL     OW28549   0.022   4.647   0.972  0.5157  0.1398  0.2143
 5697SOL    HW128550   4.699   0.004   0.997  0.2736 -0.2520  1.0001
 5697SOL    HW228551   4.679   4.607   0.915  0.2140 -1.7399  1.8548
 5698SOL     OW28552   2.896   1.189  10.068 -0.0161  0.0482 -0.0913
 5698SOL    HW128553   2.813   1.145  10.086  0.1660 -0.5557 -0.7304
 5698SOL    HW228554   2.884   1.224   9.980  0.3928  1.0730  0.2513
 5699SOL     OW28555   0.827   2.951   5.051 -0.2704  0.3852 -0.1810
 5699SOL    HW128556   0.898   2.922   4.994 -0.0494 -0.7178  0.6542
 5699SOL    HW228557   0.843   3.044   5.068 -1.5937  0.1716  2.2608
 5700SOL     OW28558   1.458   2.650  14.411  0.0482  1.3739  0.0797
 5700SOL    HW128559   1.464   2.574  14.353 -0.7919  0.6825  0.9043
 5700SOL    HW228560   1.525   2.623  14.474 -1.2605 -0.4674  0.6773
 5701SOL     OW28561   2.553   1.939   8.637 -0.2831 -0.3307 -0.5941
 5701SOL    HW128562   2.557   1.940   8.733  1.3490 -1.6237 -0.6626
 5701SOL    HW228563   2.458   1.936   8.625 -0.4234  1.4306  0.0712
 5702SOL     OW28564   1.212   2.609   9.732  0.2602 -0.5319  0.0544
 5702SOL    HW128565   1.294   2.570   9.761  1.3230  1.4407 -0.2517
 5702SOL    HW228566   1.240   2.640   9.645 -0.0988  0.4023  0.2662
 5703SOL     OW28567   1.458   2.705   8.802 -0.2003 -0.4684  0.1148
 5703SOL    HW128568   1.507   2.623   8.790  2.7382  1.3481 -0.3254
 5703SOL    HW228569   1.515   2.766   8.849  1.1091 -2.0455  0.5742
 5704SOL     OW28570   2.349   1.727  14.534  0.0829  0.0541  0.0900
 5704SOL    HW128571   2.354   1.694  14.445 -1.8006  0.3938 -0.1349
 5704SOL    HW228572   2.267   1.775  14.526 -0.2311 -0.5087  0.0136
 5705SOL     OW28573   0.294   3.162   5.833  0.2081  0.0400  0.2543
 5705SOL    HW128574   0.337   3.151   5.748  0.3839 -0.5213  0.4180
 5705SOL    HW228575   0.204   3.169   5.801 -0.2892  2.9596  2.3408
 5706SOL     OW28576   0.988   2.962   7.762  0.8792 -0.3107 -0.0178
 5706SOL    HW128577   0.948   2.900   7.702 -0.4232 -0.7940  1.3524
 5706SOL    HW228578   0.943   2.947   7.845  3.2697 -0.3293  1.2863
 5707SOL     OW28579   3.417   3.146   8.355 -0.1177  0.1270  1.2817
 5707SOL    HW128580   3.484   3.079   8.371  0.8952  1.3011  1.8642
 5707SOL    HW228581   3.347   3.118   8.415 -0.2849  0.0379  1.0482
 5708SOL     OW28582   0.214   0.393   6.283 -0.0888 -0.3916 -0.4190
 5708SOL    HW128583   0.164   0.419   6.360  2.7437  2.1373  0.5584
 5708SOL    HW228584   0.211   0.478   6.238 -1.0858  0.5372  1.4255
 5709SOL     OW28585   4.333   2.386  15.582 -0.1864 -0.2800 -0.3773
 5709SOL    HW128586   4.403   2.346  15.635 -4.1644 -2.6473  3.1420
 5709SOL    HW228587   4.280   2.314  15.548 -0.5820 -0.2683  0.2020
 5710SOL     OW28588   1.577   0.240  14.542  0.4173 -0.2778 -0.2271
 5710SOL    HW128589   1.520   0.226  14.466  1.7936 -1.5322 -1.0143
 5710SOL    HW228590   1.514   0.211  14.608  0.7005  1.0657  0.6418
 5711SOL     OW28591   4.279   2.517   4.842  0.1297 -0.1683 -0.0872
 5711SOL    HW128592   4.189   2.541   4.863  0.8321 -0.0375  2.7441
 5711SOL    HW228593   4.271   2.422   4.837 -2.7501  0.0517  0.8013
 5712SOL     OW28594   2.799   1.768   7.274 -0.4772  0.1322 -0.1810
 5712SOL    HW128595   2.849   1.689   7.252  1.3305  0.6572  1.9492
 5712SOL    HW228596   2.762   1.736   7.357  1.4801 -0.0093  0.6515
 5713SOL     OW28597   4.151   0.543   1.446 -0.2844  0.2938  0.5948
 5713SOL    HW128598   4.097   0.587   1.511 -1.5298  0.7143 -0.7372
 5713SOL    HW228599   4.179   0.612   1.386 -0.2941 -0.7144 -0.5640
 5714SOL     OW28600   1.070   2.384   2.227  0.2918  0.1552 -0.1429
 5714SOL    HW128601   1.150   2.426   2.258  0.7508 -0.3137 -0.6839
 5714SOL    HW228602   1.022   2.375   2.310  1.4010 -1.2491  0.3470
 5715SOL     OW28603   0.786   3.262   8.186 -0.7670 -0.4471  0.3422
 5715SOL    HW128604   0.722   3.294   8.250 -0.3646 -0.3799  0.7036
 5715SOL    HW228605   0.763   3.304   8.103  1.8956  0.0005 -0.1478
 5716SOL     OW28606   1.539   3.448   9.578 -0.1278 -0.4302 -0.0515
 5716SOL    HW128607   1.477   3.521   9.576  0.2636 -0.0979 -0.0375
 5716SOL    HW228608   1.507   3.407   9.658  0.0332 -1.2338 -0.3965
 5717SOL     OW28609   3.561   3.759   3.569  0.3250  0.5479 -0.3578
 5717SOL    HW128610   3.559   3.854   3.580  0.1920  0.6517 -1.2174
 5717SOL    HW228611   3.603   3.726   3.647 -0.6350  0.3477  0.0787
 5718SOL     OW28612   0.534   4.695   5.528 -0.6452 -0.0335  0.0426
 5718SOL    HW128613   0.567   4.620   5.577  1.0898  0.8011  0.1618
 5718SOL    HW228614   0.611   0.027   5.511 -0.4066 -0.8046 -1.3240
 5719SOL     OW28615   3.790   2.774   1.285 -0.0120 -0.3875 -0.2863
 5719SOL    HW128616   3.812   2.848   1.341 -2.1211  0.1422 -0.1581
 5719SOL    HW228617   3.871   2.751   1.239  0.1010 -0.0339 -0.2644
 5720SOL     OW28618   4.140   2.411   2.026  0.2323 -0.1445 -0.8303
 5720SOL    HW128619   4.196   2.393   2.102 -0.1443 -0.1623 -0.5571
 5720SOL    HW228620   4.189   2.466   1.965 -2.0956  2.3776 -0.3691
 5721SOL     OW28621   4.660   2.087   1.208 -0.4176  0.1014  0.0507
 5721SOL    HW128622   0.029   2.085   1.180 -0.5399  3.6900 -0.5517
 5721SOL    HW228623   4.643   2.013   1.266  0.1374 -0.7952 -0.9389
 5722SOL     OW28624   2.508   0.006  13.689 -0.0479 -0.2077 -0.3316
 5722SOL    HW128625   2.544   0.094  13.699 -0.0471 -0.3486  0.9044
 5722SOL    HW228626   2.588   4.679  13.671 -0.3010  0.7323 -4.1004
 5723SOL     OW28627   1.726   0.623   6.682  0.3200  0.2561 -0.4048
 5723SOL    HW128628   1.640   0.603   6.718  1.1068  0.7340  1.7378
 5723SOL    HW228629   1.725   0.572   6.601 -1.2220 -0.4770  0.0736
 5724SOL     OW28630   0.310   1.813   2.392 -0.0824 -0.6791 -0.6108
 5724SOL    HW128631   0.364   1.761   2.333  1.7642  2.4612 -1.6451
 5724SOL    HW228632   0.316   1.773   2.479 -0.7059 -0.6461 -0.5533
 5725SOL     OW28633   0.633   3.374   0.164  0.7065 -0.2321 -0.4001
 5725SOL    HW128634   0.648   3.388   0.070 -1.3627 -1.0209 -0.8444
 5725SOL    HW228635   0.707   3.316   0.182 -0.7120 -1.4747  1.3876
 5726SOL     OW28636   1.868   2.603   4.743  0.4763 -0.1243  0.8561
 5726SOL    HW128637   1.931   2.660   4.699  1.1010 -1.8420 -0.4318
 5726SOL    HW228638   1.926   2.532   4.769  0.7115 -0.1943  0.1188
 5727SOL     OW28639   4.521   2.093   0.940  0.2417  0.1519  0.0934
 5727SOL    HW128640   4.560   2.138   1.015 -3.1845 -1.0875  2.6709
 5727SOL    HW228641   4.429   2.112   0.959  0.3172 -0.7148  1.3472
 5728SOL     OW28642   4.030   4.050   9.431 -0.1475 -0.0877 -0.0315
 5728SOL    HW128643   4.040   3.989   9.504  2.9563 -2.2372 -2.3030
 5728SOL    HW228644   4.100   4.112   9.453 -0.0796  0.3953 -1.6017
 5729SOL     OW28645   2.478   0.340   5.779  0.1024 -0.1363  0.0085
 5729SOL    HW128646   2.449   0.281   5.849  1.5040 -0.4512  0.3306
 5729SOL    HW228647   2.526   0.280   5.722  0.8695  1.1851 -0.7594
 5730SOL     OW28648   3.454   3.443   1.407 -0.8993  0.4633 -0.3582
 5730SOL    HW128649   3.537   3.476   1.371 -1.6282  1.4504 -1.1556
 5730SOL    HW228650   3.483   3.386   1.478 -0.1574  1.0213 -0.2182
 5731SOL     OW28651   2.013   4.371   7.479 -0.2233 -0.3286 -0.1381
 5731SOL    HW128652   2.021   4.398   7.388 -0.9397 -1.2057 -0.4694
 5731SOL    HW228653   1.917   4.369   7.477 -0.2237 -0.3437 -0.0996
 5732SOL     OW28654   2.633   3.270   6.860 -0.2211  0.2433  0.9549
 5732SOL    HW128655   2.670   3.182   6.852 -0.2903  0.4289 -1.3845
 5732SOL    HW228656   2.651   3.307   6.774  2.8145  0.7943  1.8242
 5733SOL     OW28657   1.973   2.025   9.898  0.2317  0.1982  0.2882
 5733SOL    HW128658   2.058   2.065   9.919  1.6302 -2.2575 -0.7362
 5733SOL    HW228659   1.958   2.072   9.816  1.3457 -1.1166 -0.6706
 5734SOL     OW28660   0.863   0.113   4.183  0.1674  0.0477 -0.0883
 5734SOL    HW128661   0.861   0.206   4.159  0.9133  0.0600 -0.1003
 5734SOL    HW228662   0.792   0.104   4.247 -0.2019  1.1814 -0.3298
 5735SOL     OW28663   2.444   0.636  16.019 -0.4575  0.4133  0.2365
 5735SOL    HW128664   2.421   0.680  16.101 -1.1066  1.7158 -0.6570
 5735SOL    HW228665   2.386   0.560  16.024  1.1547 -0.5852  4.2244
 5736SOL     OW28666   0.120   1.960   5.835  0.3697 -0.3736  0.2335
 5736SOL    HW128667   0.039   1.909   5.832  0.3434 -0.3681  0.9074
 5736SOL    HW228668   0.088   2.049   5.817 -1.5682 -1.3494 -1.1549
 5737SOL     OW28669   4.011   4.210   7.415  0.1163 -0.0841 -0.4939
 5737SOL    HW128670   3.992   4.120   7.441 -1.2151  0.4869  0.5407
 5737SOL    HW228671   3.978   4.212   7.325  0.1435 -3.0601 -0.5516
 5738SOL     OW28672   4.348   3.246   7.504  0.0151  0.6220  0.5282
 5738SOL    HW128673   4.424   3.291   7.542 -0.2061 -0.9474  2.8090
 5738SOL    HW228674   4.285   3.318   7.513 -0.3418  0.5050 -1.0542
 5739SOL     OW28675   0.588   0.730  16.057 -0.1833 -0.1595  0.4459
 5739SOL    HW128676   0.576   0.783  16.136  1.2188  0.9793 -0.1053
 5739SOL    HW228677   0.671   0.764  16.024 -1.4408  0.1463 -2.3350
 5740SOL     OW28678   0.764   3.921   5.761 -0.1159  0.0064  0.0734
 5740SOL    HW128679   0.692   3.881   5.713  0.0045  1.1337 -1.0314
 5740SOL    HW228680   0.767   4.010   5.725 -0.8356  0.9774  2.3953
 5741SOL     OW28681   1.962   1.740  12.779 -0.2697 -0.4952 -0.3864
 5741SOL    HW128682   1.918   1.811  12.731  1.1754 -0.2962 -1.4230
 5741SOL    HW228683   1.921   1.756  12.864  0.7725 -1.6165  0.3251
 5742SOL     OW28684   1.103   4.090  11.548  0.4065 -0.1708 -0.0983
 5742SOL    HW128685   1.053   4.081  11.467 -0.8297 -1.5789  0.8018
 5742SOL    HW228686   1.049   4.150  11.600 -1.4877 -2.4060  0.5599
 5743SOL     OW28687   4.391   4.672   6.081 -0.1117  0.0133  0.3050
 5743SOL    HW128688   4.360   4.592   6.123 -0.2729  0.5372  1.1857
 5743SOL    HW228689   4.325   4.684   6.013 -0.1052 -0.3260  0.2395
 5744SOL     OW28690   0.715   0.302   0.136  0.1760 -0.6010 -1.1244
 5744SOL    HW128691   0.641   0.276   0.190  0.9961  0.5628  0.5473
 5744SOL    HW228692   0.774   0.230   0.159 -0.3831 -0.1442  1.6834
 5745SOL     OW28693   0.622   4.106  16.255 -0.0614 -0.2503 -0.0896
 5745SOL    HW128694   0.585   4.170  16.316  0.4424 -0.1351  0.0942
 5745SOL    HW228695   0.650   4.161  16.183 -1.7142  1.7754  0.8107
 5746SOL     OW28696   1.498   0.916   4.920 -0.2703  0.1711  0.5737
 5746SOL    HW128697   1.540   0.841   4.877 -0.9857  0.5605 -0.7962
 5746SOL    HW228698   1.413   0.929   4.879 -1.2536 -1.5778  2.0966
 5747SOL     OW28699   2.560   0.971   3.603  0.6267 -0.0494  0.1894
 5747SOL    HW128700   2.523   0.977   3.515  2.9591 -0.3357 -0.8180
 5747SOL    HW228701   2.617   0.894   3.602  0.7516  0.0446  0.0513
 5748SOL     OW28702   4.419   2.505   8.214  0.3220 -0.1136  0.3934
 5748SOL    HW128703   4.459   2.535   8.295  0.0788  0.3958  0.3277
 5748SOL    HW228704   4.414   2.585   8.163 -1.7910 -1.7518 -1.9807
 5749SOL     OW28705   3.968   2.174   2.465  0.2541  0.6350 -0.6918
 5749SOL    HW128706   4.043   2.117   2.449  1.4646  1.9441  0.3165
 5749SOL    HW228707   4.011   2.259   2.457  2.1579 -0.3976 -1.2317
 5750SOL     OW28708   3.135   4.059  10.564 -0.2501  0.1366 -0.1230
 5750SOL    HW128709   3.223   4.020  10.563  0.9145  2.7483  0.2319
 5750SOL    HW228710   3.160   4.137  10.514 -2.2142 -0.7207 -2.4299
 5751SOL     OW28711   0.882   3.438   3.169  0.0482  0.3723  0.3311
 5751SOL    HW128712   0.810   3.381   3.144  2.4018 -1.9466 -1.0806
 5751SOL    HW228713   0.897   3.485   3.087 -2.8144 -0.5549 -0.7181
 5752SOL     OW28714   3.123   0.364   7.357 -0.3771 -0.9951 -1.0325
 5752SOL    HW128715   3.179   0.437   7.331  1.0804 -1.5699  0.5173
 5752SOL    HW228716   3.180   0.294   7.325  1.0703 -0.7605  0.9776
 5753SOL     OW28717   0.841   1.543   9.098 -0.0847  0.1801 -0.3054
 5753SOL    HW128718   0.793   1.570   9.176  0.2791  0.3868 -0.1510
 5753SOL    HW228719   0.794   1.466   9.067  1.9291 -0.5047 -1.6379
 5754SOL     OW28720   1.856   0.335  14.940  0.2693 -0.1549  0.1466
 5754SOL    HW128721   1.772   0.290  14.946 -0.3046  0.7354 -1.1017
 5754SOL    HW228722   1.832   0.407  14.881  0.8356 -1.2361 -1.4094
 5755SOL     OW28723   3.943   0.066   3.223  0.1450 -0.2036 -0.0182
 5755SOL    HW128724   3.922   4.696   3.226  0.5931 -0.3126 -0.2251
 5755SOL    HW228725   3.967   0.079   3.131  0.0146 -1.1717 -0.1859
 5756SOL     OW28726   0.921   1.903   6.007 -0.2289  0.5097 -0.4390
 5756SOL    HW128727   0.920   1.914   6.103 -0.7066  3.1127 -0.7290
 5756SOL    HW228728   0.829   1.888   5.984  0.4113 -1.6807 -1.5147
 5757SOL     OW28729   3.296   1.180   0.536  0.1392  0.0342  0.5944
 5757SOL    HW128730   3.249   1.189   0.453 -0.1449 -0.9970  0.6370
 5757SOL    HW228731   3.375   1.233   0.529 -0.4937  0.7353 -1.2800
 5758SOL     OW28732   0.316   2.675   8.730 -0.7571 -0.5056 -0.6949
 5758SOL    HW128733   0.344   2.634   8.812  0.6562 -0.7783 -1.3006
 5758SOL    HW228734   0.400   2.701   8.692 -1.3755  1.2673 -0.8156
 5759SOL     OW28735   4.082   1.378   1.272  0.4295  0.1198  0.3006
 5759SOL    HW128736   4.105   1.309   1.210  0.4616  1.2317 -0.9095
 5759SOL    HW228737   4.056   1.446   1.210  0.3501 -2.0567 -2.0190
 5760SOL     OW28738   3.821   0.097   7.443 -0.2345  0.0676 -0.5042
 5760SOL    HW128739   3.752   0.108   7.508 -0.4026 -2.0924 -0.3049
 5760SOL    HW228740   3.885   0.090   7.513  0.6766  0.0243 -1.3464
 5761SOL     OW28741   0.938   2.889  10.426 -0.0271 -0.1329 -0.3099
 5761SOL    HW128742   0.958   2.980  10.451 -0.3284 -0.0535 -0.3633
 5761SOL    HW228743   0.972   2.894  10.337 -1.9555 -0.5845 -1.0668
 5762SOL     OW28744   0.388   3.632   2.642  0.4439 -0.2374  0.3311
 5762SOL    HW128745   0.356   3.670   2.724  0.5390 -0.5429  0.5074
 5762SOL    HW228746   0.415   3.712   2.597 -0.7574 -0.5526 -0.9470
 5763SOL     OW28747   2.594   3.656  16.862  0.3201  0.4494  0.5834
 5763SOL    HW128748   2.502   3.631  16.861  0.0419  1.5041 -0.3845
 5763SOL    HW228749   2.611   3.668  16.769 -0.4212 -2.0974  0.1167
 5764SOL     OW28750   0.858   3.001  17.637  0.6446 -0.5179 -0.4394
 5764SOL    HW128751   0.878   3.029  17.547  0.2447  0.0537 -0.3550
 5764SOL    HW228752   0.838   3.081  17.686  1.9830  1.5782 -3.2851
 5765SOL     OW28753   2.365   0.153  10.550 -0.0478 -0.3733 -0.5641
 5765SOL    HW128754   2.288   0.098  10.563 -0.5118  0.0246 -1.6193
 5765SOL    HW228755   2.330   0.187  10.468 -0.7115 -1.3899 -0.7118
 5766SOL     OW28756   3.216   2.599  15.555 -0.6333 -0.0443 -0.2950
 5766SOL    HW128757   3.141   2.551  15.521 -1.1076 -0.8259  1.8412
 5766SOL    HW228758   3.267   2.530  15.597 -1.8701 -1.9784 -1.9732
 5767SOL     OW28759   2.712   2.858  10.645 -0.0275  0.1412 -0.2096
 5767SOL    HW128760   2.743   2.875  10.734 -0.6290  0.4797 -0.0665
 5767SOL    HW228761   2.653   2.786  10.669 -1.0491 -0.2894 -4.0871
 5768SOL     OW28762   0.035   2.034   6.246  0.1776  0.9008  0.3560
 5768SOL    HW128763   0.064   2.117   6.284  1.7283  1.0277 -1.1308
 5768SOL    HW228764   0.115   2.014   6.197 -1.0793 -2.7918 -0.1812
 5769SOL     OW28765   1.120   0.391   4.052 -0.2956 -0.3612 -0.2610
 5769SOL    HW128766   1.060   0.463   4.071  1.9154  1.5683 -0.5489
 5769SOL    HW228767   1.211   0.420   4.051  0.1118 -1.6333 -0.2451
 5770SOL     OW28768   0.188   0.992   3.996 -0.1526 -0.3321 -0.0449
 5770SOL    HW128769   0.174   0.912   3.946  0.4466 -0.5108  0.0791
 5770SOL    HW228770   0.095   1.016   4.001  0.1427  1.0993 -1.8102
 5771SOL     OW28771   3.558   2.329   4.112  0.6272  0.0072  0.5504
 5771SOL    HW128772   3.623   2.295   4.174  1.7915  0.0782 -0.6246
 5771SOL    HW228773   3.498   2.256   4.096  2.0122 -0.9471 -0.2296
 5772SOL     OW28774   3.199   2.593   8.934 -0.6132 -0.2536 -0.8351
 5772SOL    HW128775   3.105   2.606   8.930 -0.5521  1.5059  2.9681
 5772SOL    HW228776   3.218   2.574   9.026  0.1811  0.4570 -0.8527
 5773SOL     OW28777   4.453   1.352   3.246  0.2844 -0.2673 -0.1180
 5773SOL    HW128778   4.408   1.419   3.297  1.2889  2.1622 -2.4261
 5773SOL    HW228779   4.444   1.389   3.158 -2.2511 -0.6568 -0.0285
 5774SOL     OW28780   3.279   1.279   7.229  0.0752  0.3031  0.1267
 5774SOL    HW128781   3.326   1.361   7.219 -0.8084  0.6865 -0.8302
 5774SOL    HW228782   3.325   1.237   7.156  0.5240 -1.3109  1.3198
 5775SOL     OW28783   0.757   1.903   6.395 -0.0512 -0.7040 -0.4785
 5775SOL    HW128784   0.825   1.950   6.348  0.5456 -1.0265  0.0724
 5775SOL    HW228785   0.803   1.820   6.409  2.7714  1.1453  1.1339
 5776SOL     OW28786   3.760   1.535  10.903  0.3186  0.1862  0.9445
 5776SOL    HW128787   3.806   1.455  10.928 -2.0124 -1.6691 -0.6994
 5776SOL    HW228788   3.679   1.492  10.875  1.1865  0.0900 -1.3774
 5777SOL     OW28789   1.936   2.436  12.313  0.0461 -0.3539  0.0464
 5777SOL    HW128790   1.995   2.508  12.290  0.1220 -1.3915 -2.9222
 5777SOL    HW228791   1.994   2.390  12.374  1.7164  0.6346 -0.7912
 5778SOL     OW28792   3.601   4.308   6.115  0.3435  0.0195  0.7577
 5778SOL    HW128793   3.684   4.265   6.098 -0.1060  0.0021 -1.4688
 5778SOL    HW228794   3.592   4.386   6.061 -1.5566 -0.4346  0.4055
 5779SOL     OW28795   3.122   2.776  12.732  0.1659 -0.4883 -0.3733
 5779SOL    HW128796   3.043   2.818  12.764  0.2797 -0.5401 -0.0172
 5779SOL    HW228797   3.173   2.844  12.689  0.2376 -0.4472 -0.2231
 5780SOL     OW28798   0.165   1.320  14.295  0.3259  0.6695  0.4696
 5780SOL    HW128799   0.130   1.231  14.289  0.7901  0.4312  1.3128
 5780SOL    HW228800   0.240   1.290  14.346  0.6685 -1.7420 -1.4455
 5781SOL     OW28801   3.661   3.133  12.162  0.0873  0.3693  0.3785
 5781SOL    HW128802   3.693   3.148  12.251  3.8590  0.8709 -1.0585
 5781SOL    HW228803   3.731   3.080  12.123  0.9228  2.4049 -0.8731
 5782SOL     OW28804   0.757   4.651   3.444 -0.1277  0.1644  0.2491
 5782SOL    HW128805   0.695   4.682   3.379 -0.1561 -0.2543  0.0752
 5782SOL    HW228806   0.832   4.697   3.407  0.1048 -0.0015  0.5079
 5783SOL     OW28807   0.444   1.533   3.702  0.1878 -0.0483  0.3501
 5783SOL    HW128808   0.388   1.531   3.624 -0.6973 -2.1548  1.0459
 5783SOL    HW228809   0.510   1.467   3.679  0.1026 -0.4307  1.1960
 5784SOL     OW28810   0.620   0.565  12.937  0.4116  0.5324 -0.4742
 5784SOL    HW128811   0.628   0.550  12.843  1.5852 -0.3670 -0.2335
 5784SOL    HW228812   0.668   0.487  12.965  0.2476  1.4988  2.4406
 5785SOL     OW28813   3.371   2.214   7.095  0.2333 -0.0626  0.2389
 5785SOL    HW128814   3.399   2.193   7.005  0.7065 -0.0165  0.3730
 5785SOL    HW228815   3.439   2.164   7.140 -0.3677  0.4764  1.7318
 5786SOL     OW28816   1.473   0.353  13.139 -0.6879  0.6222 -0.4634
 5786SOL    HW128817   1.525   0.281  13.175 -0.6368  1.0899  0.3972
 5786SOL    HW228818   1.535   0.393  13.078 -0.6261  1.4456  0.1378
 5787SOL     OW28819   2.135   2.749   8.148 -0.2036 -0.0400 -0.2085
 5787SOL    HW128820   2.168   2.822   8.094  0.7236 -0.6169 -0.4199
 5787SOL    HW228821   2.084   2.799   8.213 -2.2346 -3.0465  0.4856
 5788SOL     OW28822   2.853   0.141   1.417  0.2086 -0.7538  0.1989
 5788SOL    HW128823   2.815   0.208   1.359 -3.2801 -2.0047  1.0539
 5788SOL    HW228824   2.864   0.067   1.358  2.8206 -0.4591  0.2873
 5789SOL     OW28825   3.740   0.341   7.906  0.1477 -0.3968  0.0364
 5789SOL    HW128826   3.792   0.369   7.982  0.1129  0.7825 -0.3728
 5789SOL    HW228827   3.748   0.421   7.853 -1.2608  0.4931  1.1645
 5790SOL     OW28828   0.033   2.133   2.971 -0.3979 -1.0349  0.2329
 5790SOL    HW128829   4.696   2.205   2.989 -1.4184 -0.5681 -4.8306
 5790SOL    HW228830   4.721   2.111   2.884 -0.6862 -0.3647  0.1803
 5791SOL     OW28831   0.378   3.347   5.316  0.0916 -0.3123 -0.6192
 5791SOL    HW128832   0.317   3.317   5.249  2.4138 -1.1858 -2.3412
 5791SOL    HW228833   0.439   3.275   5.331 -0.7615 -1.2791 -1.7909
 5792SOL     OW28834   0.125   1.015   6.407  0.0591 -0.1899  0.1748
 5792SOL    HW128835   0.134   1.073   6.482 -1.1167 -0.3863  0.4622
 5792SOL    HW228836   0.120   1.079   6.337  0.4195  0.9858  1.2391
 5793SOL     OW28837   4.151   0.559  12.374  0.1434 -0.3099 -0.1731
 5793SOL    HW128838   4.138   0.478  12.424  2.6242  0.5875  1.9277
 5793SOL    HW228839   4.185   0.621  12.438 -1.8824 -1.1221  1.7270
 5794SOL     OW28840   4.399   2.065   0.164  0.6547 -0.1054  0.5288
 5794SOL    HW128841   4.441   2.034   0.084 -2.9571  0.7710 -1.7423
 5794SOL    HW228842   4.331   2.113   0.116  1.5268  1.5002  0.8718
 5795SOL     OW28843   3.986   1.963   7.725 -0.2887 -0.1783  0.2743
 5795SOL    HW128844   3.931   2.023   7.674  0.8344  0.7585  0.1831
 5795SOL    HW228845   4.037   1.914   7.661  0.0546  0.9419 -0.2981
 5796SOL     OW28846   1.722   0.131   9.184 -0.2987  0.3991  0.0230
 5796SOL    HW128847   1.806   0.086   9.190 -1.0414 -0.8527  1.0298
 5796SOL    HW228848   1.703   0.119   9.091 -0.2650  0.0211  0.0673
 5797SOL     OW28849   4.426   1.032  15.539 -0.5017 -0.1318 -0.2303
 5797SOL    HW128850   4.346   1.074  15.506 -0.8721 -1.5402 -1.1554
 5797SOL    HW228851   4.488   1.099  15.511 -1.7625  0.1642 -2.3084
 5798SOL     OW28852   3.312   1.657   6.082  0.3797  0.2110 -0.1593
 5798SOL    HW128853   3.225   1.647   6.121 -0.8753  1.2921 -2.7146
 5798SOL    HW228854   3.346   1.738   6.119  3.6408 -0.5639 -1.4536
 5799SOL     OW28855   2.400   4.490   5.798  0.1689  0.1663  0.9368
 5799SOL    HW128856   2.356   4.566   5.760 -1.1606 -1.2821 -0.4633
 5799SOL    HW228857   2.412   4.526   5.885  0.5061 -0.6954  1.2499
 5800SOL     OW28858   0.589   1.311   3.553  0.6360  0.0360 -0.0470
 5800SOL    HW128859   0.506   1.272   3.524  2.1481 -1.6782 -2.0482
 5800SOL    HW228860   0.618   1.346   3.468  1.2029 -2.6073 -0.9383
 5801SOL     OW28861   3.345   2.189   1.310  0.1373 -0.2418 -0.2954
 5801SOL    HW128862   3.415   2.131   1.279 -0.1527 -0.5136 -0.4353
 5801SOL    HW228863   3.389   2.219   1.390  0.5816  0.3396 -0.7606
 5802SOL     OW28864   1.045   2.179   5.048 -0.4222  0.2441  0.0542
 5802SOL    HW128865   1.033   2.271   5.071  1.5793  0.8088 -1.1327
 5802SOL    HW228866   0.951   2.167   5.061 -0.7521  0.9875 -1.6488
 5803SOL     OW28867   3.441   0.578  15.055  0.0818  0.1362  0.1858
 5803SOL    HW128868   3.347   0.594  15.056 -0.1996 -1.4333 -1.2624
 5803SOL    HW228869   3.477   0.662  15.025 -0.9137  0.2344 -0.7228
 5804SOL     OW28870   0.600   1.993  13.603  0.4051 -0.2094 -0.0204
 5804SOL    HW128871   0.564   2.009  13.516  0.5380 -0.0979 -0.0561
 5804SOL    HW228872   0.616   2.084  13.629 -3.4358  0.3678  0.3532
 5805SOL     OW28873   2.687   1.606   5.496 -0.3459  0.2670  0.0638
 5805SOL    HW128874   2.737   1.660   5.556  1.4719 -1.7512  0.3802
 5805SOL    HW228875   2.744   1.530   5.484 -1.0395 -0.4261  1.1574
 5806SOL     OW28876   3.307   2.097   4.228  0.0992  0.3858 -0.5024
 5806SOL    HW128877   3.294   2.178   4.180 -0.6039  0.9350  0.6076
 5806SOL    HW228878   3.255   2.101   4.309 -1.7692  3.0299 -1.8415
 5807SOL     OW28879   1.162   3.424  13.795  0.1791 -0.2930 -0.2068
 5807SOL    HW128880   1.213   3.345  13.781  0.8683  0.3293 -1.2316
 5807SOL    HW228881   1.197   3.465  13.875  0.4408 -0.9024 -0.0130
 5808SOL     OW28882   2.129   2.755   3.809 -0.0436  0.1540  0.4641
 5808SOL    HW128883   2.174   2.836   3.833  0.3110 -0.5386  2.0886
 5808SOL    HW228884   2.200   2.715   3.759  0.9767 -1.2652  3.0539
 5809SOL     OW28885   1.822   1.758   0.595  0.1885  0.0147 -0.2472
 5809SOL    HW128886   1.770   1.755   0.675  0.2859  0.3384 -0.1721
 5809SOL    HW228887   1.751   1.795   0.543 -1.4147 -1.3707  0.9302
 5810SOL     OW28888   2.785   4.031   9.355  0.5446 -0.2548  0.2720
 5810SOL    HW128889   2.834   4.111   9.338 -0.9578  0.2121 -1.9525
 5810SOL    HW228890   2.708   4.080   9.384  0.6984 -1.2356  2.3228
 5811SOL     OW28891   0.946   4.068   7.966 -0.3744  0.1978 -0.2737
 5811SOL    HW128892   1.010   4.124   8.010 -1.9540  2.2436 -0.5293
 5811SOL    HW228893   0.868   4.094   8.016  0.1570  0.1304  0.5734
 5812SOL     OW28894   1.042   2.199   3.134  0.6045 -0.5216  0.0013
 5812SOL    HW128895   1.066   2.118   3.088  2.4334 -0.4288  0.7714
 5812SOL    HW228896   1.118   2.252   3.109  0.1575 -0.1266 -0.5143
 5813SOL     OW28897   1.430   2.167  15.641  0.2433  0.1480 -0.5165
 5813SOL    HW128898   1.417   2.240  15.580  0.3924  1.5627  1.1520
 5813SOL    HW228899   1.343   2.167  15.680 -0.0058 -0.3885 -1.0720
 5814SOL     OW28900   1.729   1.542   5.146  0.1916  0.3295 -0.1965
 5814SOL    HW128901   1.782   1.579   5.217  2.6133 -2.4137 -0.5534
 5814SOL    HW228902   1.654   1.599   5.159  0.0639  0.2771 -0.7202
 5815SOL     OW28903   2.020   3.841   6.499 -0.3154 -0.5466 -0.0721
 5815SOL    HW128904   2.074   3.909   6.538 -1.5516  0.5736 -0.3018
 5815SOL    HW228905   1.959   3.839   6.574 -0.4980 -0.9609 -0.2319
 5816SOL     OW28906   2.444   3.397   7.049  0.1157 -0.1029 -0.0287
 5816SOL    HW128907   2.427   3.415   6.956 -4.4123 -1.7965  0.4662
 5816SOL    HW228908   2.539   3.389   7.041  0.1745  0.9383 -0.3513
 5817SOL     OW28909   4.245   4.202   4.117 -0.0981 -0.4676  0.1090
 5817SOL    HW128910   4.173   4.254   4.082  0.0502  1.0206  1.9863
 5817SOL    HW228911   4.253   4.148   4.039  1.1593 -1.4071  0.8874
 5818SOL     OW28912   3.440   3.703   5.288 -0.4493 -0.4183  0.0308
 5818SOL    HW128913   3.390   3.643   5.343 -0.2764 -1.1258 -0.5840
 5818SOL    HW228914   3.439   3.781   5.343 -1.1243  0.4601 -1.2396
 5819SOL     OW28915   3.090   4.139   3.980  0.2667 -0.2105  0.0416
 5819SOL    HW128916   3.062   4.048   3.988 -0.6504  0.2056  1.7385
 5819SOL    HW228917   3.006   4.175   4.007  1.3756 -1.1208  4.8558
 5820SOL     OW28918   3.617   4.585  13.331 -0.4344  0.4410 -0.2687
 5820SOL    HW128919   3.551   4.565  13.397  1.5070  0.0874  1.5606
 5820SOL    HW228920   3.675   4.639  13.385 -2.6983  1.5736  1.0166
 5821SOL     OW28921   3.384   4.566  10.476  0.4989  0.1653  0.2672
 5821SOL    HW128922   3.445   4.533  10.410  3.0662 -2.5084  3.9788
 5821SOL    HW228923   3.346   4.486  10.512  2.6211 -1.1540 -0.3892
 5822SOL     OW28924   4.680   2.304  12.604 -0.0026  0.3523 -0.1093
 5822SOL    HW128925   4.689   2.296  12.509  0.8095  1.0765 -0.0963
 5822SOL    HW228926   4.649   2.217  12.628 -0.6579  0.9292  1.1722
 5823SOL     OW28927   4.110   0.339  15.388  0.1782 -0.4036  0.0222
 5823SOL    HW128928   4.160   0.299  15.459  0.1063 -0.6374 -0.0597
 5823SOL    HW228929   4.057   0.269  15.350 -1.8437  1.5798 -0.7919
 5824SOL     OW28930   1.606   2.786   1.857  0.1834  0.1941  0.4012
 5824SOL    HW128931   1.676   2.839   1.819  1.2856 -1.1888  0.5121
 5824SOL    HW228932   1.648   2.735   1.925 -0.4861  1.0946  1.4821
 5825SOL     OW28933   2.708   4.136   6.105 -0.5010  0.3356 -0.1246
 5825SOL    HW128934   2.771   4.065   6.119 -1.4686 -0.0219  2.4830
 5825SOL    HW228935   2.716   4.146   6.011  0.2864  0.3752 -0.0600
 5826SOL     OW28936   2.237   2.963   2.441  0.3991  0.1625 -0.5049
 5826SOL    HW128937   2.181   2.982   2.515  3.5805 -0.2790  2.0195
 5826SOL    HW228938   2.322   3.001   2.463  1.4194 -1.7592 -1.0165
 5827SOL     OW28939   3.933   1.749  10.800  0.1922  0.0951 -0.0586
 5827SOL    HW128940   4.009   1.696  10.777 -0.2757 -1.1003  1.1140
 5827SOL    HW228941   3.956   1.838  10.775  4.3955 -0.8529  0.4737
 5828SOL     OW28942   3.809   0.236   3.773 -0.2070 -1.0623 -0.2518
 5828SOL    HW128943   3.889   0.214   3.821  0.0749  2.3718  0.8615
 5828SOL    HW228944   3.750   0.161   3.778 -1.9710  0.2777 -0.5895
 5829SOL     OW28945   1.243   3.893  16.923 -0.7817  0.6236  0.0343
 5829SOL    HW128946   1.202   3.899  16.837 -1.3621  0.8664  0.3260
 5829SOL    HW228947   1.203   3.809  16.948 -1.8911  1.2774  0.4891
 5830SOL     OW28948   3.779   3.333   5.876 -0.0330  0.2349  0.1314
 5830SOL    HW128949   3.806   3.397   5.810  1.4331  0.1402  0.6498
 5830SOL    HW228950   3.747   3.260   5.823 -1.2316 -1.7193  3.5154
 5831SOL     OW28951   1.898   1.736   9.251 -0.3066  0.0802 -0.2973
 5831SOL    HW128952   1.862   1.822   9.274 -1.3213 -0.1819 -0.9175
 5831SOL    HW228953   1.963   1.755   9.183 -0.5002  2.2020  0.1114
 5832SOL     OW28954   0.217   1.027   3.027 -0.0572 -0.4502  0.5499
 5832SOL    HW128955   0.307   1.005   3.051  0.0465 -0.0151  0.5767
 5832SOL    HW228956   0.240   1.119   3.009 -1.3842 -0.4426 -1.1362
 5833SOL     OW28957   4.289   4.628  10.967  0.0695 -0.3839 -0.3726
 5833SOL    HW128958   4.259   4.542  10.997 -0.7668 -0.1374 -0.4958
 5833SOL    HW228959   4.382   4.624  10.987 -0.0158  0.7610  0.2521
 5834SOL     OW28960   2.294   2.661   2.009 -0.3952 -0.5665  0.0055
 5834SOL    HW128961   2.233   2.699   2.071 -0.0624  1.5187 -0.9592
 5834SOL    HW228962   2.332   2.594   2.066 -0.5375  0.2338  1.0317
 5835SOL     OW28963   1.908   2.947   5.602 -0.1946 -0.0929  0.3106
 5835SOL    HW128964   1.860   3.025   5.576 -2.5296 -1.1417  1.4609
 5835SOL    HW228965   1.854   2.915   5.674 -0.7439 -0.8718 -0.4571
 5836SOL     OW28966   1.772   2.544   2.269 -0.0662 -0.0602  0.1586
 5836SOL    HW128967   1.772   2.587   2.355 -0.0246  0.7185 -0.2357
 5836SOL    HW228968   1.692   2.491   2.277  0.4900 -1.0775 -1.0037
 5837SOL     OW28969   4.198   4.174   2.824 -0.0682 -0.4733 -0.2275
 5837SOL    HW128970   4.263   4.104   2.834  1.2205  0.6166 -1.0770
 5837SOL    HW228971   4.253   4.247   2.796  1.5326 -1.3444  0.6644
 5838SOL     OW28972   3.658   0.878   5.051 -0.2760 -0.3232 -0.5116
 5838SOL    HW128973   3.705   0.831   4.982  0.8876 -2.7748  1.9140
 5838SOL    HW228974   3.582   0.919   5.010  0.1117  0.3498 -0.5469
 5839SOL     OW28975   3.282   4.114   4.188  0.6879  0.2868  0.0430
 5839SOL    HW128976   3.243   4.140   4.105 -0.2016 -1.5052 -0.0878
 5839SOL    HW228977   3.204   4.138   4.238  1.1649  0.1339  0.8688
 5840SOL     OW28978   1.044   4.162   7.716  0.0681 -0.5618 -0.1000
 5840SOL    HW128979   1.044   4.112   7.798  1.2895 -2.5654 -1.3130
 5840SOL    HW228980   0.988   4.237   7.732 -0.8830 -1.7748  2.2908
 5841SOL     OW28981   4.387   3.997   9.274  0.3015 -0.8487 -0.7019
 5841SOL    HW128982   4.435   3.946   9.340  0.2183 -0.6048 -0.4545
 5841SOL    HW228983   4.306   4.028   9.314 -0.9901 -2.2569 -2.2469
 5842SOL     OW28984   2.452   4.090   6.184 -0.1326 -0.7487  0.2109
 5842SOL    HW128985   2.524   4.152   6.175 -0.9803  0.0668 -0.9062
 5842SOL    HW228986   2.475   4.027   6.116  0.1162  1.2370 -1.5443
 5843SOL     OW28987   1.127   2.795  13.572 -0.2903 -0.9322  0.4778
 5843SOL    HW128988   1.107   2.703  13.587  0.6512 -1.1016  0.6514
 5843SOL    HW228989   1.150   2.792  13.479  0.0791 -0.1185  0.5404
 5844SOL     OW28990   4.346   4.287  10.436  0.1544 -0.3918 -0.5771
 5844SOL    HW128991   4.381   4.254  10.519 -0.1982  1.3248  0.2776
 5844SOL    HW228992   4.420   4.290  10.376  0.4077 -0.2142 -0.2544
 5845SOL     OW28993   0.877   4.626   6.342 -0.2351  0.7424 -0.2849
 5845SOL    HW128994   0.821   4.600   6.415  0.4891  1.9322  0.7014
 5845SOL    HW228995   0.810   4.648   6.277 -2.7535 -1.7357  1.4596
 5846SOL     OW28996   1.475   0.023   9.255  0.2970 -0.8487  0.6953
 5846SOL    HW128997   1.550   0.079   9.234  0.0963 -1.3803 -1.4423
 5846SOL    HW228998   1.415   0.086   9.295 -0.8748 -0.5529 -1.5396
 5847SOL     OW28999   0.811   0.030   2.078 -0.3902 -0.3400  0.1423
 5847SOL    HW129000   0.737   4.692   2.080  0.1880 -1.1131 -1.3147
 5847SOL    HW229001   0.867   4.703   2.018 -0.7732 -0.5310 -0.0562
 5848SOL     OW29002   0.980   4.190  14.840 -0.0470  0.3327 -0.4919
 5848SOL    HW129003   1.013   4.116  14.789 -0.4878 -0.0316 -0.2566
 5848SOL    HW229004   1.001   4.265  14.785  1.7864 -0.3242 -0.6772
 5849SOL     OW29005   3.840   3.099   2.687 -0.3226  0.4366 -0.2242
 5849SOL    HW129006   3.822   3.135   2.774  0.9627  0.2845  0.1099
 5849SOL    HW229007   3.926   3.140   2.674 -1.0172  1.1691 -2.4744
 5850SOL     OW29008   3.953   0.267  16.769  0.0216 -0.0076  0.3133
 5850SOL    HW129009   3.888   0.245  16.702 -1.1400  0.8744  1.1587
 5850SOL    HW229010   3.961   0.181  16.809  0.5172 -0.7916 -1.4811
 5851SOL     OW29011   4.345   4.215  15.255  0.2175 -0.3289 -0.7751
 5851SOL    HW129012   4.262   4.177  15.287 -0.6340  0.0880 -2.4655
 5851SOL    HW229013   4.304   4.291  15.214  1.6431 -1.2641 -3.9499
 5852SOL     OW29014   2.544   0.813   9.613  0.2911  0.9978 -0.3488
 5852SOL    HW129015   2.610   0.752   9.646 -1.3504  1.0792  3.0154
 5852SOL    HW229016   2.513   0.848   9.696 -0.2308  0.3072 -0.2546
 5853SOL     OW29017   3.914   2.815   2.348 -0.5308 -0.0563 -0.0287
 5853SOL    HW129018   3.834   2.763   2.347 -0.6478  0.1125  0.2966
 5853SOL    HW229019   3.870   2.900   2.337 -2.9598 -1.2982  0.0017
 5854SOL     OW29020   0.067   1.692   5.126 -0.0526 -0.3006 -0.4314
 5854SOL    HW129021   0.063   1.700   5.031 -0.1644  2.8763 -0.1574
 5854SOL    HW229022   0.128   1.619   5.140  0.1060 -0.2040 -0.6176
 5855SOL     OW29023   4.250   0.795  16.646 -0.0341 -0.1010 -0.2290
 5855SOL    HW129024   4.342   0.815  16.630 -0.4805  0.3347 -2.1945
 5855SOL    HW229025   4.203   0.811  16.564  2.3824  2.7315 -1.0664
 5856SOL     OW29026   1.383   1.524  16.675 -0.4233 -0.4346  0.4829
 5856SOL    HW129027   1.465   1.475  16.669 -0.7141 -0.9933  1.1671
 5856SOL    HW229028   1.417   1.613  16.674 -2.1974  0.2452  1.9856
 5857SOL     OW29029   0.653   3.508   7.221 -0.1641  0.2919 -0.2583
 5857SOL    HW129030   0.593   3.435   7.211  1.8582 -1.0775 -2.4623
 5857SOL    HW229031   0.636   3.553   7.139 -0.6659  0.2496 -0.1767
 5858SOL     OW29032   0.028   0.824  12.227 -0.1296 -0.1967 -0.1339
 5858SOL    HW129033   0.100   0.860  12.176  0.7527 -1.5747  0.1372
 5858SOL    HW229034   0.067   0.743  12.262 -2.2446 -0.5530  1.4189
 5859SOL     OW29035   2.026   2.150   5.838 -0.1812 -0.1778  0.6600
 5859SOL    HW129036   2.096   2.157   5.903  1.6058 -1.3661 -1.1327
 5859SOL    HW229037   1.978   2.081   5.885 -1.0860  1.9920  2.9185
 5860SOL     OW29038   2.957   0.971   2.017 -0.2257  0.1361 -0.2981
 5860SOL    HW129039   2.981   1.054   2.059  0.1249  1.2829 -2.7773
 5860SOL    HW229040   2.917   0.929   2.094 -1.5248  0.8267 -0.5871
 5861SOL     OW29041   4.423   3.755   3.338 -0.9219  0.7217  0.1437
 5861SOL    HW129042   4.402   3.776   3.429 -1.1650  0.2296  0.2037
 5861SOL    HW229043   4.340   3.759   3.291  0.2000  0.1670 -1.8688
 5862SOL     OW29044   3.866   1.442   1.456 -0.1482 -0.1185 -0.0985
 5862SOL    HW129045   3.910   1.526   1.461  0.1409 -0.2450 -0.4717
 5862SOL    HW229046   3.917   1.380   1.402  0.6309  1.6097 -1.3509
 5863SOL     OW29047   3.682   0.434   6.179 -0.1080  0.6624 -0.3661
 5863SOL    HW129048   3.641   0.433   6.093 -0.1930  0.9836 -0.3267
 5863SOL    HW229049   3.603   0.433   6.234  0.7381  1.5481  0.8579
 5864SOL     OW29050   4.108   0.241   3.043 -0.2077 -0.1630 -0.5095
 5864SOL    HW129051   4.159   0.265   2.965  1.2052 -0.2427  0.3894
 5864SOL    HW229052   4.084   0.330   3.068  0.7331 -0.7426  2.4146
 5865SOL     OW29053   3.413   2.008  14.185 -0.1179  0.1565 -0.3137
 5865SOL    HW129054   3.491   2.064  14.177  0.4282 -0.6110 -0.4086
 5865SOL    HW229055   3.451   1.930  14.226 -2.2254 -0.5631  0.2431
 5866SOL     OW29056   0.448   3.788   4.516  0.8772 -0.3656  0.3390
 5866SOL    HW129057   0.526   3.829   4.478 -0.4951  2.4785  0.5749
 5866SOL    HW229058   0.479   3.769   4.604 -2.3280 -0.5147  1.4340
 5867SOL     OW29059   0.592   3.668  12.044 -0.7365 -0.2610 -0.1987
 5867SOL    HW129060   0.657   3.729  12.009  1.8423 -1.4218  2.6502
 5867SOL    HW229061   0.524   3.725  12.079  0.0554  1.6495 -1.7433
 5868SOL     OW29062   1.675   1.457   8.150 -0.6587  0.1512 -0.3153
 5868SOL    HW129063   1.692   1.533   8.093  3.0090 -0.0607  0.5132
 5868SOL    HW229064   1.655   1.497   8.234  1.1554 -3.7459  1.9774
 5869SOL     OW29065   0.820   2.934   3.640 -0.4157 -0.4458 -0.0387
 5869SOL    HW129066   0.829   3.025   3.610 -0.6450 -0.2180  0.5782
 5869SOL    HW229067   0.859   2.884   3.568  1.2933 -0.8039  1.1340
 5870SOL     OW29068   3.907   4.035  10.611  0.0581  0.1665 -0.3457
 5870SOL    HW129069   3.862   4.119  10.617 -0.2075 -0.0613  0.8147
 5870SOL    HW229070   3.871   3.995  10.532 -2.6901  0.1414  0.9509
 5871SOL     OW29071   1.552   4.278  11.926 -0.0485 -0.7434 -0.3256
 5871SOL    HW129072   1.589   4.221  11.993 -1.1783  0.0660  1.0163
 5871SOL    HW229073   1.610   4.269  11.851 -0.4935  1.4272 -0.9532
 5872SOL     OW29074   4.553   3.333   6.210  0.3735  0.3501 -0.3855
 5872SOL    HW129075   4.558   3.305   6.118 -1.2695 -0.9759 -0.0573
 5872SOL    HW229076   4.576   3.426   6.206  2.6121 -0.1986 -0.2775
 5873SOL     OW29077   3.827   4.131   8.788 -0.1444  0.0426  0.1246
 5873SOL    HW129078   3.745   4.105   8.830 -0.1970 -0.7516 -0.4614
 5873SOL    HW229079   3.870   4.047   8.772 -0.6060  0.2711 -2.3524
 5874SOL     OW29080   2.543   1.199  13.176  0.6305 -0.2809 -0.3624
 5874SOL    HW129081   2.626   1.168  13.215  1.4199  0.1915 -1.6667
 5874SOL    HW229082   2.575   1.229  13.091  3.5865  0.1923  0.9021
 5875SOL     OW29083   3.065   0.318   7.606 -0.0696 -0.4984 -1.0392
 5875SOL    HW129084   2.970   0.311   7.609 -0.1394  1.3433  0.8725
 5875SOL    HW229085   3.082   0.343   7.515 -0.0426 -0.4186 -1.0125
 5876SOL     OW29086   4.524   2.054  17.568 -0.0683 -0.0751 -0.2723
 5876SOL    HW129087   4.620   2.047  17.570 -0.0992 -0.6119 -0.8957
 5876SOL    HW229088   4.518   2.148  17.586  1.5166  0.2361 -1.3047
 5877SOL     OW29089   3.408   2.191  15.031 -0.0148 -0.0821  0.5619
 5877SOL    HW129090   3.489   2.178  14.982 -1.2242 -3.8962 -0.4307
 5877SOL    HW229091   3.351   2.125  14.992 -0.7269  0.7189  0.2365
 5878SOL     OW29092   1.027   3.431   1.603  0.0671  0.6502 -0.8139
 5878SOL    HW129093   1.027   3.515   1.649 -1.6263  0.5454 -0.6241
 5878SOL    HW229094   0.965   3.387   1.662 -1.3403  1.9314 -1.3190
 5879SOL     OW29095   2.866   4.511   2.587 -0.7379 -0.8929  0.4565
 5879SOL    HW129096   2.955   4.549   2.584  0.4083 -3.6590 -0.4722
 5879SOL    HW229097   2.833   4.550   2.668 -1.3922 -1.0624  0.2678
 5880SOL     OW29098   0.090   3.903  15.741 -0.0925  0.1418 -0.3620
 5880SOL    HW129099   0.047   3.865  15.664  1.3029  1.0266 -1.5771
 5880SOL    HW229100   0.166   3.845  15.742  0.8779  1.4321  0.0853
 5881SOL     OW29101   2.818   1.563   1.637 -0.1963 -0.4602 -0.3905
 5881SOL    HW129102   2.858   1.575   1.551 -1.2331  0.8493 -0.7014
 5881SOL    HW229103   2.726   1.538   1.625 -0.3044 -0.9371  1.4303
 5882SOL     OW29104   1.887   2.162   8.354 -0.2626  0.2057  0.2445
 5882SOL    HW129105   1.923   2.250   8.363 -1.0560  0.4410  1.1764
 5882SOL    HW229106   1.796   2.188   8.367 -0.5190 -1.0882  0.9706
 5883SOL     OW29107   1.264   3.803   0.686 -0.1687  0.2175  0.0023
 5883SOL    HW129108   1.181   3.771   0.721 -1.3083  2.0757 -1.0135
 5883SOL    HW229109   1.307   3.851   0.757 -0.3031  2.0509 -1.1593
 5884SOL     OW29110   3.460   3.545   8.039 -0.1007 -0.3865  0.1936
 5884SOL    HW129111   3.398   3.618   8.049 -0.4732 -0.6279 -0.3958
 5884SOL    HW229112   3.526   3.584   8.096 -0.7115 -1.9382  1.9698
 5885SOL     OW29113   2.144   0.780   9.595  0.4015  0.0902  0.1133
 5885SOL    HW129114   2.125   0.719   9.666  0.2482 -0.5138 -0.4426
 5885SOL    HW229115   2.103   0.744   9.517  2.1113 -4.3978  1.2693
 5886SOL     OW29116   4.246   2.415  13.475 -0.6246  0.2683  0.1101
 5886SOL    HW129117   4.323   2.437  13.527 -0.1795 -3.3521  0.9720
 5886SOL    HW229118   4.172   2.458  13.519 -1.9471 -0.3705 -1.4789
 5887SOL     OW29119   3.094   4.539   7.529 -0.0686 -0.2749 -0.4614
 5887SOL    HW129120   3.104   4.622   7.576  0.2903 -0.0203 -0.9822
 5887SOL    HW229121   3.158   4.556   7.460  1.1610 -1.2925  0.4174
 5888SOL     OW29122   2.403   3.434   3.685  0.1655 -0.2481 -0.0586
 5888SOL    HW129123   2.434   3.470   3.602  0.3196  1.1164  0.5880
 5888SOL    HW229124   2.360   3.358   3.647 -0.3203  0.1502 -0.3101
 5889SOL     OW29125   3.919   0.467   0.426  0.4301  0.3060 -0.3825
 5889SOL    HW129126   3.890   0.379   0.400 -0.8821  0.5746  0.1911
 5889SOL    HW229127   4.012   0.454   0.408  0.4653 -1.1589  0.8666
 5890SOL     OW29128   3.043   2.219  14.835  0.2261 -0.2689  0.2293
 5890SOL    HW129129   3.059   2.252  14.923 -0.0009 -1.8152  0.8508
 5890SOL    HW229130   3.133   2.201  14.807  0.0565  0.6894 -0.9547
 5891SOL     OW29131   4.590   1.346   7.849  0.1484  0.3451  0.1354
 5891SOL    HW129132   4.595   1.402   7.926  0.8286  1.1383 -0.4751
 5891SOL    HW229133   4.534   1.274   7.876 -0.1691  0.9854  1.1753
 5892SOL     OW29134   0.695   4.004  10.892  0.0724  0.2714  0.0771
 5892SOL    HW129135   0.665   4.073  10.952 -0.5532 -0.1900  0.2940
 5892SOL    HW229136   0.660   4.041  10.811  1.8549  2.8374  0.4769
 5893SOL     OW29137   0.782   3.885  13.781 -0.1010 -0.2359 -0.4337
 5893SOL    HW129138   0.765   3.894  13.687 -0.0676 -2.3575 -0.6493
 5893SOL    HW229139   0.740   3.800  13.797 -2.0599  0.6181 -1.1451
 5894SOL     OW29140   2.038   2.203   4.262  0.2159 -0.2315 -0.6544
 5894SOL    HW129141   1.978   2.243   4.199 -0.1841  1.5633  0.8662
 5894SOL    HW229142   2.078   2.279   4.303 -3.1547  0.2471  1.8191
 5895SOL     OW29143   0.544   0.952   2.578 -0.1925  0.0648  0.4516
 5895SOL    HW129144   0.453   0.965   2.604  0.1216 -1.1120  2.0983
 5895SOL    HW229145   0.544   0.858   2.560  0.1457  0.7384 -3.1209
 5896SOL     OW29146   2.481   0.140   5.230  0.0344  0.4893  0.1626
 5896SOL    HW129147   2.470   0.048   5.207  0.2498  0.7662 -1.0477
 5896SOL    HW229148   2.389   0.166   5.239 -0.0328 -0.6363  2.6851
 5897SOL     OW29149   2.428   2.554   1.276 -0.3649 -0.4744  0.0585
 5897SOL    HW129150   2.517   2.559   1.311 -0.6264 -1.1555  0.8296
 5897SOL    HW229151   2.373   2.587   1.347  1.4465  0.9123  0.8153
 5898SOL     OW29152   1.708   0.757   9.733 -0.0633 -0.2403  0.0721
 5898SOL    HW129153   1.632   0.719   9.690  0.1816 -1.3722  0.6237
 5898SOL    HW229154   1.752   0.800   9.660  0.7037 -0.7837  0.2104
 5899SOL     OW29155   3.371   1.850  14.656  0.0563 -0.1268  0.2507
 5899SOL    HW129156   3.459   1.868  14.689  0.1756  0.0362 -0.1528
 5899SOL    HW229157   3.397   1.781  14.595  1.2380  1.7929 -1.4177
 5900SOL     OW29158   2.341   2.745   5.427  0.3137 -0.1649  0.1844
 5900SOL    HW129159   2.249   2.743   5.454 -0.2442  1.4686 -1.5636
 5900SOL    HW229160   2.371   2.655   5.418 -1.0666 -0.6165  0.0522
 5901SOL     OW29161   1.374   1.438  11.608 -0.2398  0.3592 -0.4553
 5901SOL    HW129162   1.340   1.452  11.697  1.8041  0.8268  0.2597
 5901SOL    HW229163   1.386   1.530  11.584  0.1238 -0.5783 -3.8799
 5902SOL     OW29164   0.140   4.205   4.628  0.1058  0.2330 -0.0789
 5902SOL    HW129165   0.150   4.111   4.643  0.6739  0.3633  0.3771
 5902SOL    HW229166   0.223   4.236   4.666 -0.2390  0.7251  0.2831
 5903SOL     OW29167   2.889   2.619  12.592  0.2495  0.0315 -0.7059
 5903SOL    HW129168   2.974   2.576  12.585  1.4921  2.1289  1.3063
 5903SOL    HW229169   2.884   2.629  12.688 -0.4898 -2.8644 -0.4648
 5904SOL     OW29170   4.099   0.323   3.407  0.2355 -0.1638 -0.3639
 5904SOL    HW129171   4.082   0.324   3.501  0.9205  4.2710 -0.2584
 5904SOL    HW229172   4.035   0.390   3.384  1.0146 -0.5521 -3.5881
 5905SOL     OW29173   0.664   3.328  17.354  0.0039  0.2574 -0.7015
 5905SOL    HW129174   0.606   3.254  17.337  1.0428 -0.7221  0.0404
 5905SOL    HW229175   0.748   3.292  17.383 -0.3928 -0.5148 -0.5101
 5906SOL     OW29176   1.965   3.997  13.437 -0.3565 -1.2528  0.2360
 5906SOL    HW129177   1.990   4.018  13.347  1.4384  1.2683  1.3184
 5906SOL    HW229178   2.048   3.969  13.475 -0.2891 -2.8121 -1.0571
 5907SOL     OW29179   3.890   3.799   3.630 -0.3850 -0.3710 -0.0877
 5907SOL    HW129180   3.802   3.767   3.608 -0.3433 -0.5659  0.0280
 5907SOL    HW229181   3.935   3.719   3.657 -0.3269 -0.1232  0.5515
 5908SOL     OW29182   1.998   3.682  11.817  0.0724  0.6749 -0.3240
 5908SOL    HW129183   1.918   3.645  11.854  0.4631 -0.5333 -0.7155
 5908SOL    HW229184   2.038   3.613  11.765 -1.2034 -0.0044 -0.4098
 5909SOL     OW29185   0.353   2.279   5.737  0.4332  0.1758  0.3639
 5909SOL    HW129186   0.314   2.284   5.825  0.7830 -1.2233  0.5954
 5909SOL    HW229187   0.442   2.247   5.754  1.2648  1.6327 -1.2252
 5910SOL     OW29188   1.403   1.411   5.144  0.1294  0.4218 -0.0741
 5910SOL    HW129189   1.446   1.456   5.217  1.3881 -0.6548 -0.1579
 5910SOL    HW229190   1.428   1.320   5.155  1.0480  1.0268  2.7076
 5911SOL     OW29191   2.870   1.494  14.541  0.2670  0.3126 -0.2474
 5911SOL    HW129192   2.858   1.400  14.538 -4.8308  1.0670 -3.0633
 5911SOL    HW229193   2.887   1.511  14.634 -1.5821 -0.0953  0.1614
 5912SOL     OW29194   0.478   3.961  11.110  0.1564 -0.0901  0.2279
 5912SOL    HW129195   0.462   4.055  11.109 -0.5558 -0.2165 -0.6718
 5912SOL    HW229196   0.429   3.934  11.031  0.0340  0.7225  0.0274
 5913SOL     OW29197   3.246   1.267   2.970 -0.4475  0.6660  0.7527
 5913SOL    HW129198   3.330   1.253   3.014  1.4447  1.0247 -2.8198
 5913SOL    HW229199   3.249   1.197   2.905 -0.5665  0.3640  1.0667
 5914SOL     OW29200   4.237   3.723   4.805  0.6025  0.1257  0.0661
 5914SOL    HW129201   4.268   3.632   4.813 -4.2573 -1.5230 -0.1798
 5914SOL    HW229202   4.289   3.774   4.868 -1.2242  0.0570  1.6283
 5915SOL     OW29203   4.295   4.002   6.526 -0.0885 -0.3391 -0.5264
 5915SOL    HW129204   4.209   3.964   6.508 -0.2748  0.0148 -0.3772
 5915SOL    HW229205   4.292   3.986   6.621 -0.8510  1.1234 -0.3056
 5916SOL     OW29206   0.965   3.944  11.794 -0.0045 -0.1779  0.1574
 5916SOL    HW129207   0.950   4.017  11.854 -3.1619 -1.1248  0.5286
 5916SOL    HW229208   1.060   3.938  11.801  0.1570  0.1974 -1.5716
 5917SOL     OW29209   2.694   0.548  11.756 -0.3546  0.0699  0.0592
 5917SOL    HW129210   2.765   0.485  11.767  1.2863  1.7108 -1.0785
 5917SOL    HW229211   2.627   0.495  11.798  0.4313 -0.7063  0.3315
 5918SOL     OW29212   0.813   4.524   9.375 -0.0673 -0.3256 -0.6925
 5918SOL    HW129213   0.720   4.544   9.374  0.0491 -0.0146 -3.6207
 5918SOL    HW229214   0.847   4.610   9.351 -1.5035  0.5136  0.3205
 5919SOL     OW29215   2.073   3.963   2.857  0.2975  0.0901 -0.6269
 5919SOL    HW129216   2.015   3.976   2.782 -2.1730  0.7750  1.4321
 5919SOL    HW229217   2.088   4.054   2.885  1.2628  0.2699 -1.7185
 5920SOL     OW29218   2.490   0.142   7.125 -0.2464 -0.4880 -0.4245
 5920SOL    HW129219   2.550   0.103   7.189 -1.0994 -0.2073  0.5528
 5920SOL    HW229220   2.506   0.234   7.144 -2.2794  0.0930 -1.5308
 5921SOL     OW29221   3.904   3.895   9.241  0.0738 -0.2709 -0.2461
 5921SOL    HW129222   3.825   3.885   9.294 -1.5482  1.4816 -2.3305
 5921SOL    HW229223   3.965   3.939   9.301  0.4735 -1.4340  0.1992
 5922SOL     OW29224   3.985   2.075   2.067 -0.0024  0.3075 -0.1743
 5922SOL    HW129225   4.023   2.140   2.127 -3.5304  3.4356 -1.2652
 5922SOL    HW229226   3.937   2.125   2.001  0.8001  0.6411 -0.4974
 5923SOL     OW29227   2.367   1.765  16.744  0.1879  0.1759 -0.5470
 5923SOL    HW129228   2.363   1.842  16.688 -3.3201  0.3611 -0.0591
 5923SOL    HW229229   2.274   1.745  16.758 -0.0411  0.7853 -1.2143
 5924SOL     OW29230   0.184   2.220   1.980 -0.3152  0.6042 -0.4262
 5924SOL    HW129231   0.197   2.191   1.890  2.1218 -2.0271  0.7814
 5924SOL    HW229232   0.105   2.170   2.003 -0.5190  0.8452 -0.6023
 5925SOL     OW29233   3.851   1.319   2.647 -0.3717 -0.4836 -0.8610
 5925SOL    HW129234   3.872   1.280   2.562 -0.9701 -0.1347 -1.1733
 5925SOL    HW229235   3.934   1.321   2.693  0.3420  0.3203 -2.2054
 5926SOL     OW29236   0.594   1.267   4.059  0.4146  0.2115  0.5046
 5926SOL    HW129237   0.666   1.325   4.085 -1.4517  1.6450  2.4993
 5926SOL    HW229238   0.599   1.209   4.134  0.6275  1.2229  1.2756
 5927SOL     OW29239   2.592   0.279   2.269  0.5269  0.1620  0.3557
 5927SOL    HW129240   2.520   0.332   2.306 -0.6787  0.7139 -2.8215
 5927SOL    HW229241   2.562   0.189   2.281  2.8500 -0.5543  0.6728
 5928SOL     OW29242   1.685   3.895  11.296 -0.0683 -0.5060  0.0077
 5928SOL    HW129243   1.601   3.918  11.337 -0.2717  0.5006 -0.9538
 5928SOL    HW229244   1.716   3.980  11.266  2.4906 -0.4420  2.9065
 5929SOL     OW29245   1.655   3.612   8.611 -0.3222 -0.0845  0.1553
 5929SOL    HW129246   1.700   3.615   8.527 -1.8235 -0.0754 -0.6584
 5929SOL    HW229247   1.702   3.542   8.657  1.5169 -0.8428 -2.8935
 5930SOL     OW29248   4.453   2.884   1.006  0.6320  0.4487 -0.2997
 5930SOL    HW129249   4.530   2.850   0.961  0.4802  1.7857 -1.5863
 5930SOL    HW229250   4.397   2.911   0.933 -0.0702  1.3487  0.5762
 5931SOL     OW29251   3.519   4.472   4.017  0.1434  0.0967  0.7901
 5931SOL    HW129252   3.425   4.482   4.002  0.6770  0.8868 -2.1574
 5931SOL    HW229253   3.551   4.388   3.986 -0.3111 -0.0953  0.8499
 5932SOL     OW29254   0.556   4.127   2.126 -0.3229 -0.4320  0.0842
 5932SOL    HW129255   0.579   4.128   2.219  0.2282  0.6906 -0.0638
 5932SOL    HW229256   0.534   4.036   2.109  0.8273 -1.0043  1.6836
 5933SOL     OW29257   1.712   0.191  13.762  0.5931 -0.7848 -0.2487
 5933SOL    HW129258   1.789   0.180  13.707 -0.5914  2.6134 -2.6006
 5933SOL    HW229259   1.651   0.233  13.700 -1.4874 -2.2685  0.7805
 5934SOL     OW29260   1.691   1.572   8.693 -0.4141 -0.3202 -0.0815
 5934SOL    HW129261   1.700   1.478   8.682 -1.3560 -0.4208  0.0265
 5934SOL    HW229262   1.778   1.601   8.720  0.2769 -0.4252 -2.2664
 5935SOL     OW29263   0.426   0.517  16.036 -0.4162 -0.0311  0.2433
 5935SOL    HW129264   0.469   0.602  16.045  0.8873 -0.6980  0.3172
 5935SOL    HW229265   0.495   0.459  16.067  2.6350  2.1219 -2.6201
 5936SOL     OW29266   4.107   4.217  10.111  0.6341 -0.0805 -0.3352
 5936SOL    HW129267   4.119   4.122  10.120 -0.8959 -0.1799  0.5995
 5936SOL    HW229268   4.049   4.213  10.035 -1.9165 -0.2464  1.6471
 5937SOL     OW29269   0.899   4.134   9.311 -0.4359  0.0556  0.1151
 5937SOL    HW129270   0.828   4.191   9.283  2.5106  2.7009 -2.0108
 5937SOL    HW229271   0.903   4.078   9.233  1.8497 -0.9817  0.9550
 5938SOL     OW29272   4.218   4.557   1.865 -1.0831  0.4330  0.5731
 5938SOL    HW129273   4.253   4.643   1.889 -0.6779  0.9442 -1.8988
 5938SOL    HW229274   4.278   4.491   1.897 -2.1343 -1.1774 -0.7858
 5939SOL     OW29275   0.034   3.933   4.651 -0.8594  0.0253  0.0936
 5939SOL    HW129276   4.704   3.863   4.613 -2.4451 -0.7101  3.6558
 5939SOL    HW229277   0.053   3.885   4.732 -0.3620 -0.2560 -0.1884
 5940SOL     OW29278   1.306   0.219   6.921  0.2483 -0.3527 -0.2486
 5940SOL    HW129279   1.385   0.188   6.967 -0.0018 -0.4909  0.0902
 5940SOL    HW229280   1.257   0.276   6.980  0.0453  1.3883 -2.0904
 5941SOL     OW29281   0.270   3.917   1.331  0.0418  0.0315 -0.3568
 5941SOL    HW129282   0.215   3.843   1.356  2.6073 -1.6390  0.2849
 5941SOL    HW229283   0.345   3.865   1.302  0.0524 -1.0039  1.4979
 5942SOL     OW29284   4.587   2.173  16.129 -0.0331 -0.3136  0.4993
 5942SOL    HW129285   4.578   2.100  16.068 -0.8924  1.8363 -1.9304
 5942SOL    HW229286   4.515   2.227  16.095  0.7413  1.0425  1.0006
 5943SOL     OW29287   3.158   4.416  13.916 -0.1858 -0.2954  0.3586
 5943SOL    HW129288   3.095   4.388  13.982 -0.2305 -1.0937 -0.0348
 5943SOL    HW229289   3.202   4.482  13.970 -0.2898 -0.1944  0.3186
 5944SOL     OW29290   0.963   0.350   8.897 -0.4963 -0.5383  0.6744
 5944SOL    HW129291   0.947   0.433   8.853 -0.4471 -1.7810 -1.7007
 5944SOL    HW229292   1.041   0.323   8.847 -1.7821  0.0013 -1.6059
 5945SOL     OW29293   4.488   0.489   7.717 -0.5720  0.3123 -0.6640
 5945SOL    HW129294   4.550   0.443   7.660 -0.8264 -1.3494  0.3935
 5945SOL    HW229295   4.524   0.573   7.687  1.6845  0.2632  1.9238
 5946SOL     OW29296   2.191   2.011  10.318  0.8068  0.5879 -0.1303
 5946SOL    HW129297   2.239   1.984  10.396 -0.9938  0.3973  0.8958
 5946SOL    HW229298   2.142   2.086  10.351 -0.0118  1.1722 -2.6727
 5947SOL     OW29299   2.401   3.061   5.649 -0.3693 -0.1440 -0.2928
 5947SOL    HW129300   2.416   2.968   5.669  0.9246  0.5200  1.8350
 5947SOL    HW229301   2.306   3.067   5.651 -0.2635  1.3140  0.5136
 5948SOL     OW29302   3.689   1.349   7.824 -0.1591 -0.0352  0.1929
 5948SOL    HW129303   3.635   1.303   7.888  0.7623 -1.9775 -0.4470
 5948SOL    HW229304   3.627   1.387   7.762  0.9116  1.2631 -0.1053
 5949SOL     OW29305   1.132   4.367  15.065  0.2510 -0.0672 -0.1115
 5949SOL    HW129306   1.063   4.430  15.048  1.3260  1.0582 -0.2907
 5949SOL    HW229307   1.073   4.291  15.068 -0.6061  0.6257  0.8338
 5950SOL     OW29308   2.997   0.990   3.591  0.2413  0.1639  0.2467
 5950SOL    HW129309   3.045   1.057   3.542 -1.8971  1.8241  0.4438
 5950SOL    HW229310   3.055   0.914   3.578 -0.3509 -0.1923 -0.2807
 5951SOL     OW29311   2.692   3.894  13.280 -0.1297 -0.1713  0.4961
 5951SOL    HW129312   2.740   3.857  13.205  0.9778  0.6590  0.7899
 5951SOL    HW229313   2.691   3.812  13.329  2.4891 -0.3784  0.2261
 5952SOL     OW29314   0.589   0.344   3.062 -0.2933  0.3397 -0.4168
 5952SOL    HW129315   0.601   0.400   3.139 -1.1522 -0.8634  0.5929
 5952SOL    HW229316   0.522   0.284   3.097  0.6455 -0.1068  0.6475
 5953SOL     OW29317   3.152   3.483   2.231  0.4408  0.1420  0.1750
 5953SOL    HW129318   3.064   3.461   2.260  0.5358  0.6083  0.7965
 5953SOL    HW229319   3.167   3.573   2.258  1.0904 -0.0046  0.2966
 5954SOL     OW29320   0.756   0.885   0.268  0.5001  0.0553  0.2855
 5954SOL    HW129321   0.742   0.860   0.177  0.1446 -1.2064  0.6865
 5954SOL    HW229322   0.851   0.889   0.274  0.5510 -1.9161  0.6951
 5955SOL     OW29323   1.122   0.645   0.446  0.4219 -0.2360 -0.3533
 5955SOL    HW129324   1.098   0.678   0.359 -1.4320 -0.7935 -0.0593
 5955SOL    HW229325   1.156   0.557   0.427 -1.4571 -0.6268 -1.9825
 5956SOL     OW29326   0.913   3.622  13.360  0.1831  0.6726  0.1516
 5956SOL    HW129327   0.849   3.691  13.346 -0.2790  0.0922 -0.5774
 5956SOL    HW229328   0.926   3.615  13.454 -1.0586  2.1455  0.4366
 5957SOL     OW29329   3.355   4.324   2.535 -0.1610  0.6168  0.1194
 5957SOL    HW129330   3.290   4.258   2.561 -0.0719 -0.3506 -2.0999
 5957SOL    HW229331   3.303   4.369   2.469 -0.1127 -0.0927 -0.4029
 5958SOL     OW29332   2.527   2.643   4.289 -0.0361  0.4286  0.1901
 5958SOL    HW129333   2.504   2.735   4.281  0.1068  0.5533  1.2942
 5958SOL    HW229334   2.540   2.632   4.383  0.5320  2.9802  0.4006
 5959SOL     OW29335   4.217   0.570   0.811 -0.9590  0.1561 -0.5422
 5959SOL    HW129336   4.208   0.583   0.905 -0.3659 -0.6791 -0.3661
 5959SOL    HW229337   4.267   0.488   0.808  1.1710  1.3958  1.4287
 5960SOL     OW29338   2.815   3.676   8.819  0.2898 -0.3053  0.1269
 5960SOL    HW129339   2.805   3.687   8.914  2.9005  1.1346  0.2272
 5960SOL    HW229340   2.837   3.762   8.785 -2.0102  0.6708  1.0507
 5961SOL     OW29341   4.602   1.803   7.519  0.0718  0.0626  0.0463
 5961SOL    HW129342   4.509   1.799   7.496  0.7202 -0.4920 -2.5069
 5961SOL    HW229343   4.613   1.856   7.598  1.0451 -0.9468  0.5849
 5962SOL     OW29344   1.859   1.321   0.637  0.3664 -0.0276 -0.1600
 5962SOL    HW129345   1.800   1.393   0.615  0.9560  0.1169 -1.2736
 5962SOL    HW229346   1.931   1.343   0.578 -0.6026 -1.5176 -1.8971
 5963SOL     OW29347   2.667   3.033  11.133 -0.6660  0.0366 -0.0864
 5963SOL    HW129348   2.732   3.023  11.203 -1.9889 -0.6035  1.0686
 5963SOL    HW229349   2.722   3.094  11.085  0.4476 -1.3779 -0.6083
 5964SOL     OW29350   4.437   2.526   1.175 -0.4583  0.0160 -0.2477
 5964SOL    HW129351   4.389   2.485   1.247  2.8425 -0.5061  1.6660
 5964SOL    HW229352   4.397   2.487   1.098  0.6211 -0.5100 -0.5399
 5965SOL     OW29353   1.153   0.923   6.476  0.2301  0.7926  0.7632
 5965SOL    HW129354   1.086   0.968   6.424  1.8387  2.1834 -0.0880
 5965SOL    HW229355   1.218   0.911   6.407  0.3303  0.8679  0.8454
 5966SOL     OW29356   3.227   4.188   7.156  0.2333 -0.2428  0.0698
 5966SOL    HW129357   3.240   4.223   7.067  0.4257  1.6268  0.8205
 5966SOL    HW229358   3.132   4.180   7.160  0.2258 -0.5374 -0.7047
 5967SOL     OW29359   1.181   3.901   7.285 -0.1697  0.3883  0.0721
 5967SOL    HW129360   1.106   3.842   7.287  1.0474 -1.1693 -0.4663
 5967SOL    HW229361   1.179   3.926   7.377 -0.8845  1.2854 -0.1881
 5968SOL     OW29362   3.427   3.155  11.052 -0.0415 -0.4380 -0.4517
 5968SOL    HW129363   3.351   3.125  11.101 -1.2473  2.0492 -0.8204
 5968SOL    HW229364   3.383   3.204  10.983  0.6163 -0.0371 -0.5877
 5969SOL     OW29365   1.031   1.365   5.065 -0.0064 -0.4260 -0.0253
 5969SOL    HW129366   1.031   1.385   5.158 -0.5647 -1.7270  0.2593
 5969SOL    HW229367   0.989   1.440   5.022 -0.1158  0.1291  1.0702
 5970SOL     OW29368   1.804   1.340  14.631  0.7928 -0.6782 -0.0851
 5970SOL    HW129369   1.800   1.263  14.575 -2.7872 -0.5827  0.0528
 5970SOL    HW229370   1.877   1.387  14.589  1.3669 -2.1742 -0.7758
 5971SOL     OW29371   0.800   0.356   4.152 -0.4273 -0.0908 -0.2339
 5971SOL    HW129372   0.822   0.442   4.188  1.8070 -0.8647  0.2228
 5971SOL    HW229373   0.716   0.367   4.107 -0.4118 -0.2452 -0.2996
 5972SOL     OW29374   1.197   4.579   3.567 -0.5178  0.7988  0.0420
 5972SOL    HW129375   1.123   4.568   3.627 -0.5229  1.8568  0.2441
 5972SOL    HW229376   1.248   4.645   3.614 -1.8780  0.8192  1.4998
 5973SOL     OW29377   1.175   1.063   7.760  0.4529 -0.2896 -0.3510
 5973SOL    HW129378   1.258   1.020   7.738  0.4736  0.5880 -1.9907
 5973SOL    HW229379   1.157   1.096   7.672  0.4319 -0.3421 -0.3661
 5974SOL     OW29380   3.681   1.487   1.856 -0.5290  0.0168 -0.1089
 5974SOL    HW129381   3.740   1.440   1.797 -0.2880  1.0855 -0.7122
 5974SOL    HW229382   3.750   1.516   1.916  1.3455 -1.9281 -1.3042
 5975SOL     OW29383   0.134   3.478   4.063  0.4022 -0.0179  0.0982
 5975SOL    HW129384   0.055   3.516   4.024 -0.0864 -1.6126 -0.4495
 5975SOL    HW229385   0.198   3.480   3.993  0.9634 -1.5246  0.5905
 5976SOL     OW29386   0.855   1.791   1.643 -0.2754 -0.1389 -0.1810
 5976SOL    HW129387   0.852   1.697   1.625  0.9789 -0.2836  0.2931
 5976SOL    HW229388   0.803   1.789   1.723  1.1487  0.2600  0.7559
 5977SOL     OW29389   3.263   4.665   8.995  0.0125  0.0463  0.2529
 5977SOL    HW129390   3.228   4.580   9.020 -1.3795  0.2794 -0.9018
 5977SOL    HW229391   3.288   4.706   9.078  1.4078 -1.4002  0.5391
 5978SOL     OW29392   0.809   4.089   2.833 -0.0652 -0.0135 -0.5659
 5978SOL    HW129393   0.845   4.118   2.917  0.4888  0.2905 -0.9076
 5978SOL    HW229394   0.871   4.130   2.772 -3.1450  1.6095 -2.5811
 5979SOL     OW29395   2.131   0.596   5.616 -0.0400 -0.3645 -0.2079
 5979SOL    HW129396   2.197   0.618   5.681  0.3475 -0.0716 -0.7011
 5979SOL    HW229397   2.079   0.674   5.632 -3.0397 -2.4287  0.1720
 5980SOL     OW29398   1.132   2.610   6.023 -0.3678 -0.8311  0.1178
 5980SOL    HW129399   1.039   2.595   6.009 -0.0451 -1.9647 -0.7866
 5980SOL    HW229400   1.172   2.603   5.936  1.3066  0.2374  0.8043
 5981SOL     OW29401   1.826   4.341   5.857 -0.1092  0.4538 -0.2833
 5981SOL    HW129402   1.897   4.319   5.796 -0.9414  2.1422 -1.8356
 5981SOL    HW229403   1.862   4.412   5.909 -1.0762  0.0125  0.9913
 5982SOL     OW29404   4.291   2.936   4.406  0.2600  0.3311  0.0372
 5982SOL    HW129405   4.347   3.009   4.381  0.6423 -0.5051 -1.5670
 5982SOL    HW229406   4.215   2.981   4.443  0.3733 -0.3420  1.0994
 5983SOL     OW29407   2.995   4.634   1.231  0.0617  0.1339 -0.0897
 5983SOL    HW129408   2.995   4.601   1.321  1.2454  2.0002  0.5861
 5983SOL    HW229409   3.049   4.567   1.188 -0.3576  1.0035 -1.9582
 5984SOL     OW29410   2.754   0.886   4.709  0.0265  0.4392  0.3758
 5984SOL    HW129411   2.820   0.824   4.677 -1.1824 -0.1852 -0.8537
 5984SOL    HW229412   2.778   0.895   4.802 -2.1838  0.7056  0.9041
 5985SOL     OW29413   2.644   1.089   5.555 -0.1908 -0.2820  0.0731
 5985SOL    HW129414   2.623   1.031   5.628 -2.5038  0.3268 -0.0997
 5985SOL    HW229415   2.603   1.035   5.487  1.0951  0.5906 -1.4006
 5986SOL     OW29416   1.466   4.206   8.199  0.3719 -0.0432  0.7404
 5986SOL    HW129417   1.465   4.150   8.276 -1.6716  1.4161  1.7579
 5986SOL    HW229418   1.546   4.252   8.227 -1.4507  2.3832  1.9645
 5987SOL     OW29419   1.691   2.552   3.259 -0.4718 -0.0887 -0.0777
 5987SOL    HW129420   1.777   2.595   3.259  0.6045 -2.2408  2.0111
 5987SOL    HW229421   1.680   2.548   3.354 -1.2407 -0.4488 -0.1864
 5988SOL     OW29422   1.784   4.529  13.478 -0.4422  0.2294 -0.4482
 5988SOL    HW129423   1.817   4.487  13.398 -2.5866 -4.0736  0.9429
 5988SOL    HW229424   1.856   4.591  13.488  0.8042 -1.8026  3.1685
 5989SOL     OW29425   2.630   3.079   3.793  0.0357  0.3115  0.6059
 5989SOL    HW129426   2.619   2.990   3.759  3.5735 -0.1138  0.5586
 5989SOL    HW229427   2.676   3.118   3.718  0.3760  0.2993  0.8092
 5990SOL     OW29428   4.193   4.361   7.239 -0.1620 -0.2186  0.7294
 5990SOL    HW129429   4.129   4.342   7.308 -0.2471  0.1073  0.7373
 5990SOL    HW229430   4.273   4.379   7.287 -0.6785 -0.6288  1.7487
 5991SOL     OW29431   0.980   0.756  15.049 -1.0204 -0.4300  0.5578
 5991SOL    HW129432   0.895   0.796  15.030  0.9123  3.0476 -0.8433
 5991SOL    HW229433   0.966   0.663  15.032 -2.8965  0.0878 -0.7588
 5992SOL     OW29434   1.956   0.890   4.881 -0.5858  0.4100 -0.0476
 5992SOL    HW129435   1.922   0.928   4.799 -1.2633  0.8702  0.4460
 5992SOL    HW229436   2.036   0.942   4.882  0.1832 -0.8084  2.1492
 5993SOL     OW29437   1.280   4.269   3.812 -0.3565 -0.0706  0.5250
 5993SOL    HW129438   1.280   4.254   3.717 -0.0564 -1.9958  0.8374
 5993SOL    HW229439   1.211   4.336   3.817  1.5639  1.9310  0.1478
 5994SOL     OW29440   3.030   0.670   2.828 -0.6849 -0.4476 -0.0261
 5994SOL    HW129441   3.103   0.609   2.832  1.0779  1.4588 -3.2039
 5994SOL    HW229442   2.968   0.626   2.770  1.1110 -2.1088 -0.6834
 5995SOL     OW29443   3.821   0.600  16.879  0.4298 -0.0965  0.1112
 5995SOL    HW129444   3.775   0.516  16.877  2.3553 -1.1467  0.0194
 5995SOL    HW229445   3.807   0.627  16.788 -0.2793  0.5417  0.4033
 5996SOL     OW29446   0.139   0.671   4.750 -0.6275 -0.4890  0.8367
 5996SOL    HW129447   0.195   0.595   4.735 -0.4946 -0.6901  2.3579
 5996SOL    HW229448   0.057   0.654   4.704 -0.4422  0.0507  0.3051
 5997SOL     OW29449   2.568   4.127   2.753 -0.2118  0.3251 -0.3694
 5997SOL    HW129450   2.569   4.100   2.661  0.0962  0.2400 -0.3419
 5997SOL    HW229451   2.583   4.045   2.799  2.0877  1.0864  0.2728
 5998SOL     OW29452   2.355   1.299   9.340 -0.2636  0.2613 -0.0527
 5998SOL    HW129453   2.423   1.314   9.406 -0.3602 -2.7491  0.7510
 5998SOL    HW229454   2.319   1.226   9.391  1.4773 -0.7932 -0.3215
 5999SOL     OW29455   0.942   3.249   2.084 -0.1166 -0.2897 -0.4042
 5999SOL    HW129456   1.008   3.181   2.099  0.2378  0.0121 -0.5829
 5999SOL    HW229457   1.018   3.307   2.076  2.2329 -3.2938  0.0287
 6000SOL     OW29458   3.760   1.876   1.680 -0.2766 -0.5286  0.1210
 6000SOL    HW129459   3.828   1.933   1.715 -0.6515 -0.0618  0.0928
 6000SOL    HW229460   3.693   1.874   1.748  1.8035  1.0503  2.2052
 6001SOL     OW29461   0.018   1.942  16.466  0.4778  0.1602  0.0032
 6001SOL    HW129462   0.107   1.921  16.438  0.9637 -0.1404  1.7865
 6001SOL    HW229463   0.021   2.025  16.514  1.1921  1.7815 -2.8318
 6002SOL     OW29464   3.964   3.648   2.758  0.1808  0.9664  0.7328
 6002SOL    HW129465   3.920   3.722   2.800 -1.0231  0.4089  0.4233
 6002SOL    HW229466   4.050   3.691   2.749 -0.0820  1.1236 -1.0291
 6003SOL     OW29467   2.867   1.834   8.101  0.0007  0.4285 -0.2825
 6003SOL    HW129468   2.804   1.891   8.058  1.0340  0.9915 -1.0592
 6003SOL    HW229469   2.888   1.883   8.180 -0.1951  1.8317 -1.1043
 6004SOL     OW29470   4.068   2.657   7.903  0.0630 -0.5276 -0.2814
 6004SOL    HW129471   4.060   2.667   7.998  0.9096  1.8006 -0.4608
 6004SOL    HW229472   4.052   2.563   7.889  0.2328 -0.8119  1.4416
 6005SOL     OW29473   1.696   4.629  14.902 -0.5038  0.0152  0.2347
 6005SOL    HW129474   1.695   4.582  14.819  0.0161 -0.5858  0.5652
 6005SOL    HW229475   1.792   4.628  14.908 -0.5577  0.7845  1.2336
 6006SOL     OW29476   0.553   0.156   2.381  0.4864 -0.4164 -0.2433
 6006SOL    HW129477   0.594   0.203   2.453 -0.5659 -0.9864  0.7473
 6006SOL    HW229478   0.477   0.212   2.365  0.1904 -0.6100  0.4576
 6007SOL     OW29479   1.480   2.381   9.060 -0.1483  0.0549 -0.1975
 6007SOL    HW129480   1.483   2.475   9.080 -0.8104  0.5076 -2.2730
 6007SOL    HW229481   1.387   2.359   9.051 -0.3843  1.1536 -0.4184
 6008SOL     OW29482   0.748   0.836   5.232 -0.0649  0.1735 -0.4103
 6008SOL    HW129483   0.669   0.881   5.203 -0.4045 -0.4268 -0.4138
 6008SOL    HW229484   0.808   0.911   5.237 -2.7820  2.4323 -1.8974
 6009SOL     OW29485   2.427   2.796   5.684  0.0323 -0.2005 -0.3189
 6009SOL    HW129486   2.401   2.723   5.740 -1.5185  1.6433  1.3846
 6009SOL    HW229487   2.374   2.764   5.611  1.0431 -3.0492  0.2346
 6010SOL     OW29488   3.101   1.183  10.556  0.2041  0.2658 -0.7903
 6010SOL    HW129489   3.099   1.200  10.462  2.6364 -0.8083 -1.0251
 6010SOL    HW229490   3.173   1.121  10.558  0.0286  0.1472  1.6556
 6011SOL     OW29491   0.728   0.058   5.173 -0.4237 -0.5214  0.0041
 6011SOL    HW129492   0.807   0.061   5.227 -2.0534 -1.1801  2.3992
 6011SOL    HW229493   0.753   4.701   5.127  1.5971 -0.4185  0.9042
 6012SOL     OW29494   2.223   2.568   0.205 -0.1283 -0.2848  0.4715
 6012SOL    HW129495   2.201   2.635   0.270 -0.5081 -0.9912  1.0679
 6012SOL    HW229496   2.261   2.625   0.138 -2.0449 -0.2009 -0.5450
 6013SOL     OW29497   3.803   0.728   4.435  0.8247 -0.4554  1.3085
 6013SOL    HW129498   3.723   0.728   4.382  2.6075  1.8286 -1.3904
 6013SOL    HW229499   3.799   0.649   4.488 -2.3677 -2.5831 -2.0874
 6014SOL     OW29500   1.991   4.561   4.132 -0.1735 -0.3980  1.0463
 6014SOL    HW129501   1.975   4.466   4.135  1.0554 -0.5969  1.4097
 6014SOL    HW229502   1.988   4.590   4.223  2.0461 -1.1614  1.3760
 6015SOL     OW29503   2.065   4.561  15.146 -0.0591 -0.2974  0.0574
 6015SOL    HW129504   2.009   4.483  15.145 -0.2053 -0.2112  1.5686
 6015SOL    HW229505   2.019   4.623  15.089 -1.1388 -0.1794  1.0431
 6016SOL     OW29506   3.562   4.182   5.150  0.8589  0.1582  0.0364
 6016SOL    HW129507   3.634   4.137   5.194  0.9417  0.4509  0.2052
 6016SOL    HW229508   3.590   4.165   5.060  0.4653  0.7850 -0.2072
 6017SOL     OW29509   4.513   3.326  11.256  0.4185  0.3232 -1.0804
 6017SOL    HW129510   4.542   3.295  11.342 -0.6208  0.4686 -0.6785
 6017SOL    HW229511   4.588   3.380  11.228 -0.6782  1.5332 -1.7024
 6018SOL     OW29512   1.138   0.300  17.561 -0.2348 -0.4735 -0.1093
 6018SOL    HW129513   1.181   0.341  17.486  1.1611 -1.2567  0.2619
 6018SOL    HW229514   1.047   0.299  17.531 -0.7019 -0.7537  1.3098
 6019SOL     OW29515   3.967   3.905   2.977  0.3187 -0.3655  0.4142
 6019SOL    HW129516   4.047   3.943   3.012  0.7411  0.9710 -1.9865
 6019SOL    HW229517   3.956   3.968   2.905 -0.9535  0.9804  1.7906
 6020SOL     OW29518   4.595   3.531   7.766 -0.2079 -0.8504 -0.3335
 6020SOL    HW129519   4.642   3.453   7.799  0.1452 -0.2218  0.6610
 6020SOL    HW229520   4.519   3.487   7.728 -0.0370 -0.8619 -0.6563
 6021SOL     OW29521   4.222   3.200   8.563  0.0284 -0.0947 -0.0225
 6021SOL    HW129522   4.276   3.265   8.608 -0.2117 -1.5507  2.4167
 6021SOL    HW229523   4.285   3.176   8.496 -0.4800  0.6855 -0.7745
 6022SOL     OW29524   2.943   3.210   0.950  0.2069 -0.2360  0.1883
 6022SOL    HW129525   2.942   3.254   0.865 -0.6596  2.0061  1.3422
 6022SOL    HW229526   2.866   3.248   0.993 -0.2920 -1.0600  0.0153
 6023SOL     OW29527   2.102   1.217   6.195  0.2762  0.0392 -0.1526
 6023SOL    HW129528   2.106   1.174   6.280 -0.4673  0.7287  0.2385
 6023SOL    HW229529   2.039   1.161   6.149  0.4880  0.5506 -1.0725
 6024SOL     OW29530   3.003   1.146   0.415  0.4726 -0.4326 -0.5807
 6024SOL    HW129531   2.910   1.164   0.426  0.5939 -0.4067  0.4721
 6024SOL    HW229532   3.051   1.228   0.428  3.7556 -2.7811  2.0786
 6025SOL     OW29533   2.128   4.118   4.085  0.3557  0.3647 -0.2843
 6025SOL    HW129534   2.144   4.100   4.177  0.5925 -0.7810 -0.5430
 6025SOL    HW229535   2.071   4.195   4.078 -2.0344 -1.2247  1.6336
 6026SOL     OW29536   1.417   0.066   6.382  0.2069  0.4694 -0.5747
 6026SOL    HW129537   1.374   0.059   6.466 -0.3938 -2.5140 -1.1272
 6026SOL    HW229538   1.485   4.721   6.390  0.0440  0.5997  1.8806
 6027SOL     OW29539   1.166   4.605   6.284  0.5263 -0.0306 -0.8238
 6027SOL    HW129540   1.072   4.622   6.297  0.9958  1.9070  0.0838
 6027SOL    HW229541   1.196   4.633   6.370 -0.4114 -0.2805 -0.4143
 6028SOL     OW29542   2.718   4.669  13.416 -0.2608 -0.0447  1.0603
 6028SOL    HW129543   2.725   4.643  13.508 -0.0252 -0.4778  0.9217
 6028SOL    HW229544   2.787   4.610  13.386 -0.4478  0.4935 -0.4316
 6029SOL     OW29545   0.935   2.626   9.761  0.4915 -0.1007 -0.3007
 6029SOL    HW129546   1.023   2.595   9.784  0.5466 -0.6580 -1.2526
 6029SOL    HW229547   0.927   2.709   9.808 -1.7437 -0.2278 -0.4896
 6030SOL     OW29548   2.050   1.552   6.797  0.0572 -0.1157 -0.4615
 6030SOL    HW129549   2.145   1.558   6.799  0.2101 -1.9384 -1.7521
 6030SOL    HW229550   2.032   1.476   6.853 -0.8494 -0.8910 -1.7777
 6031SOL     OW29551   1.996   1.221   3.200 -0.5321 -0.7790 -0.0244
 6031SOL    HW129552   1.955   1.301   3.233  0.0342 -0.0005 -1.2217
 6031SOL    HW229553   2.074   1.214   3.256 -0.4544  0.1503 -0.0285
 6032SOL     OW29554   0.307   2.556  10.843  0.2321 -0.8000  0.2253
 6032SOL    HW129555   0.355   2.547  10.925  3.0230 -1.9161 -1.5193
 6032SOL    HW229556   0.221   2.573  10.881 -0.2135 -1.2879 -0.5494
 6033SOL     OW29557   1.195   4.061  14.360  0.1444  0.1060  1.0393
 6033SOL    HW129558   1.100   4.051  14.356 -0.0656  1.7138  2.2837
 6033SOL    HW229559   1.216   4.124  14.291 -0.6844 -0.5571  0.1812
 6034SOL     OW29560   2.142   2.328   7.729  0.0053 -0.1899  0.3297
 6034SOL    HW129561   2.229   2.295   7.753  0.0908  0.1970  0.5740
 6034SOL    HW229562   2.077   2.300   7.793 -0.7693 -1.0857 -0.8496
 6035SOL     OW29563   3.520   3.007   7.259 -0.3333 -0.4806  0.5145
 6035SOL    HW129564   3.583   3.070   7.223 -2.9091  1.4543 -0.5919
 6035SOL    HW229565   3.477   3.062   7.325 -0.8482 -2.2360  1.6394
 6036SOL     OW29566   2.364   1.879   5.989 -0.1461  0.2619  0.5677
 6036SOL    HW129567   2.459   1.888   5.979 -0.2404  1.3721  0.6786
 6036SOL    HW229568   2.342   1.812   5.925 -0.0925  1.2312 -0.4777
 6037SOL     OW29569   3.358   1.658   2.412  0.0983  0.0425  0.3232
 6037SOL    HW129570   3.301   1.688   2.340  1.6538  1.3364 -0.3609
 6037SOL    HW229571   3.357   1.562   2.407  0.1108  0.1148 -1.1782
 6038SOL     OW29572   3.197   0.231   8.025  0.3322 -0.1515  0.0308
 6038SOL    HW129573   3.267   0.268   7.970 -1.1935  0.3138 -1.5882
 6038SOL    HW229574   3.169   0.304   8.080  1.6508  0.2462  0.1736
 6039SOL     OW29575   2.250   4.427   9.204 -0.0063  0.5895  0.1035
 6039SOL    HW129576   2.302   4.383   9.137  0.2000  0.7975  0.1271
 6039SOL    HW229577   2.304   4.504   9.222  2.8191 -1.6061  0.8689
 6040SOL     OW29578   2.637   0.488  10.424  0.1213  0.1605 -0.3169
 6040SOL    HW129579   2.703   0.510  10.489  0.6086 -0.3600 -0.6412
 6040SOL    HW229580   2.574   0.559  10.439 -1.0478 -1.2319  1.2249
 6041SOL     OW29581   3.263   4.102  13.843 -0.3051  0.1839  0.5447
 6041SOL    HW129582   3.246   4.021  13.892  0.3491 -1.1138 -1.3970
 6041SOL    HW229583   3.223   4.074  13.761  0.5345 -0.1051  0.2423
 6042SOL     OW29584   0.628   0.801   3.836  0.3210 -0.1061 -0.0768
 6042SOL    HW129585   0.568   0.790   3.909  1.0586 -0.1300  0.5192
 6042SOL    HW229586   0.664   0.714   3.824  0.4096 -0.1523  0.5312
 6043SOL     OW29587   0.782   1.700   4.723 -0.0163  0.4146 -0.5671
 6043SOL    HW129588   0.709   1.758   4.703 -0.4850 -0.2612 -0.8358
 6043SOL    HW229589   0.835   1.705   4.643 -0.6067 -1.2830 -1.0691
 6044SOL     OW29590   2.458   3.545   2.953  0.2177 -0.1377 -0.5608
 6044SOL    HW129591   2.490   3.612   2.894  0.2698  1.9694  1.8505
 6044SOL    HW229592   2.452   3.479   2.884  0.2873  1.4858 -2.0914
 6045SOL     OW29593   1.978   3.929  16.225 -1.2933  0.8495 -0.6031
 6045SOL    HW129594   2.017   4.014  16.246 -0.2133  0.2541 -0.1745
 6045SOL    HW229595   1.886   3.941  16.249 -0.9902 -0.2982  1.0765
 6046SOL     OW29596   1.046   2.805   9.094 -0.1719 -0.1955 -0.0840
 6046SOL    HW129597   0.953   2.790   9.110  0.6820 -2.7523  2.4969
 6046SOL    HW229598   1.075   2.859   9.168 -0.8835  0.9522 -0.6537
 6047SOL     OW29599   3.214   2.937  12.019  0.2367  0.2906 -0.5182
 6047SOL    HW129600   3.271   2.952  11.943  1.6854 -1.8197  0.1682
 6047SOL    HW229601   3.278   2.954  12.089 -0.9789 -0.4522  0.7764
 6048SOL     OW29602   3.389   3.173   7.438  0.0625  0.3591  0.1434
 6048SOL    HW129603   3.418   3.264   7.450  0.3604  0.5272 -1.9860
 6048SOL    HW229604   3.314   3.194   7.382 -0.8336 -0.9881  0.8205
 6049SOL     OW29605   3.216   1.142  15.012 -0.2454  0.6395 -0.4331
 6049SOL    HW129606   3.270   1.144  14.933 -0.3084  0.2496 -0.4872
 6049SOL    HW229607   3.174   1.226  14.994  0.9665  1.0269 -1.4527
 6050SOL     OW29608   2.979   2.668   5.089  0.2316 -0.3081  0.1275
 6050SOL    HW129609   2.946   2.712   5.011  1.6473  0.2830 -0.1347
 6050SOL    HW229610   2.895   2.637   5.124  0.0979 -0.1238 -0.0318
 6051SOL     OW29611   2.303   0.264   8.350  0.0324 -0.2416 -0.2931
 6051SOL    HW129612   2.316   0.173   8.323 -2.9325 -0.2864 -1.5658
 6051SOL    HW229613   2.365   0.308   8.292 -0.4452  0.2949 -0.4012
 6052SOL     OW29614   3.569   1.473   5.558 -0.2617  0.3636  0.0582
 6052SOL    HW129615   3.587   1.481   5.465  1.4371 -0.5500  0.3178
 6052SOL    HW229616   3.581   1.378   5.566  1.1442  0.4770 -0.6833
 6053SOL     OW29617   4.221   1.159  16.309  0.1947  0.4172  0.2085
 6053SOL    HW129618   4.289   1.188  16.248  0.2983 -1.5946 -0.6371
 6053SOL    HW229619   4.228   1.222  16.380  0.4350  0.9252 -0.2604
 6054SOL     OW29620   0.792   2.359   0.344  0.2352  0.4467 -0.1977
 6054SOL    HW129621   0.784   2.298   0.417  1.5765  2.9220  2.0141
 6054SOL    HW229622   0.884   2.355   0.320  0.3156  1.0640  0.0030
 6055SOL     OW29623   3.462   2.765   0.535 -0.0891 -0.3465 -0.3646
 6055SOL    HW129624   3.487   2.683   0.577  0.6966 -0.1033 -0.3643
 6055SOL    HW229625   3.530   2.768   0.468  0.4479 -0.7976  0.1641
 6056SOL     OW29626   3.511   0.440  16.147  0.2229  0.3629  0.7046
 6056SOL    HW129627   3.521   0.404  16.235  0.3577  4.1315  2.2291
 6056SOL    HW229628   3.420   0.468  16.157 -0.3694 -0.3851 -2.5563
 6057SOL     OW29629   4.420   3.857   2.830 -0.3744 -0.3695 -0.1913
 6057SOL    HW129630   4.448   3.856   2.921  1.4125  1.4126 -0.7180
 6057SOL    HW229631   4.497   3.879   2.777  1.2852 -2.4636  1.3689
 6058SOL     OW29632   2.694   3.765   8.521 -0.0969 -0.1211  0.3555
 6058SOL    HW129633   2.681   3.746   8.614 -0.3879 -0.3482  0.2678
 6058SOL    HW229634   2.655   3.853   8.525  2.5436  1.0263  0.4648
 6059SOL     OW29635   4.377   0.450  14.707  0.4597 -0.2155  0.4598
 6059SOL    HW129636   4.389   0.543  14.687  0.3626 -0.1924  0.5080
 6059SOL    HW229637   4.312   0.451  14.777 -0.3915  0.8859 -0.3259
 6060SOL     OW29638   0.778   2.978  17.183  0.3706  0.0698 -0.7285
 6060SOL    HW129639   0.800   2.943  17.097 -1.4801 -2.7215 -0.0847
 6060SOL    HW229640   0.707   2.920  17.213  1.6231 -0.9460  0.2903
 6061SOL     OW29641   3.135   0.669   3.226  0.5564  0.0479 -0.5265
 6061SOL    HW129642   3.198   0.671   3.153 -0.7769 -2.1471 -1.7457
 6061SOL    HW229643   3.105   0.759   3.233  0.6331  0.0581 -0.3360
 6062SOL     OW29644   2.292   0.770   7.743  0.0252  0.0496 -0.4510
 6062SOL    HW129645   2.274   0.712   7.669  0.1896  2.1906 -2.2016
 6062SOL    HW229646   2.289   0.715   7.821  1.7920  0.8969  0.2296
 6063SOL     OW29647   2.167   0.811  10.709 -0.1117  0.2499 -0.9071
 6063SOL    HW129648   2.201   0.820  10.620  0.7146 -4.0739 -1.0609
 6063SOL    HW229649   2.136   0.900  10.721  0.5261  0.2964  0.4563
 6064SOL     OW29650   3.789   3.559  16.186  0.2500  0.2148  0.3909
 6064SOL    HW129651   3.850   3.633  16.181  2.1391 -1.3190  0.5753
 6064SOL    HW229652   3.773   3.547  16.092  1.6560 -0.1450  0.2002
 6065SOL     OW29653   4.491   2.630   6.026  0.3073 -0.5318 -0.1887
 6065SOL    HW129654   4.476   2.709   6.077  0.3134  0.2515 -1.3867
 6065SOL    HW229655   4.435   2.643   5.949 -0.8039 -0.0235  0.7047
 6066SOL     OW29656   4.376   4.099   9.915 -0.0516  0.0893  0.1297
 6066SOL    HW129657   4.313   4.071   9.981  0.7212 -1.6701  0.1089
 6066SOL    HW229658   4.421   4.172   9.959 -0.0066  0.1332  0.0103
 6067SOL     OW29659   0.501   3.778   0.379 -0.4764  0.3976  0.1997
 6067SOL    HW129660   0.448   3.704   0.407  1.6641 -0.7496  1.1971
 6067SOL    HW229661   0.563   3.719   0.336  0.9392  1.8221  0.2782
 6068SOL     OW29662   3.992   1.446   3.619  0.2428  0.0626  0.1440
 6068SOL    HW129663   3.976   1.352   3.628 -1.9673  0.5274  1.0959
 6068SOL    HW229664   4.084   1.455   3.643  0.2784 -1.7372  0.7306
 6069SOL     OW29665   1.343   3.600   7.928 -0.4424  0.0929  0.1570
 6069SOL    HW129666   1.385   3.515   7.913  0.7774  0.7499 -0.1315
 6069SOL    HW229667   1.359   3.646   7.846 -0.4876 -0.0425  0.0722
 6070SOL     OW29668   4.065   3.819   5.114 -0.2545  0.3375 -0.3021
 6070SOL    HW129669   4.124   3.876   5.065 -1.8102  1.2568 -1.1321
 6070SOL    HW229670   4.107   3.820   5.200  1.5799  1.7023 -1.2328
 6071SOL     OW29671   0.905   2.044   6.684 -0.5793 -0.7320  0.4093
 6071SOL    HW129672   0.911   1.950   6.666  0.4140 -0.2331 -1.8036
 6071SOL    HW229673   0.900   2.050   6.779  1.0053  0.1525  0.4292
 6072SOL     OW29674   0.023   2.440   6.987 -0.5814 -0.3813 -0.0271
 6072SOL    HW129675   4.687   2.385   7.039 -1.5234 -0.3936 -1.1148
 6072SOL    HW229676   4.690   2.460   6.913  1.6853  1.8171 -1.1303
 6073SOL     OW29677   3.666   2.630   8.014 -0.1322 -0.0246 -0.5985
 6073SOL    HW129678   3.717   2.710   8.026 -0.0732 -0.0426 -0.7303
 6073SOL    HW229679   3.687   2.580   8.092  1.2191  0.0464 -0.9141
 6074SOL     OW29680   0.625   2.247   5.442 -0.1402 -0.1367  0.0725
 6074SOL    HW129681   0.544   2.296   5.429  0.3527 -0.0861 -2.6710
 6074SOL    HW229682   0.685   2.307   5.485  0.1774 -0.2421 -0.2244
 6075SOL     OW29683   0.025   1.318   4.367 -0.2380 -0.0067 -0.3267
 6075SOL    HW129684   0.075   1.344   4.289 -1.8815 -0.0772 -1.4033
 6075SOL    HW229685   4.677   1.381   4.352  1.0701  1.5111 -0.0709
 6076SOL     OW29686   2.499   3.308   5.371  0.1791 -0.0154  0.3959
 6076SOL    HW129687   2.583   3.315   5.417  0.6709 -1.1340 -0.3365
 6076SOL    HW229688   2.442   3.341   5.441 -0.2894 -2.2700  1.0692
 6077SOL     OW29689   0.338   2.095   4.089  0.0147  0.1065 -0.3280
 6077SOL    HW129690   0.379   2.151   4.155 -1.4312 -1.2839  1.7549
 6077SOL    HW229691   0.324   2.017   4.143  0.9392  0.8175  0.9505
 6078SOL     OW29692   2.470   0.516   6.537  0.5382  0.0093 -0.1546
 6078SOL    HW129693   2.550   0.469   6.560  1.1567  0.8302 -0.6588
 6078SOL    HW229694   2.461   0.519   6.442 -1.4347  1.3734  0.0645
 6079SOL     OW29695   3.881   0.052  11.493  0.2391  0.4692 -0.1560
 6079SOL    HW129696   3.871   0.116  11.423 -0.0153 -0.7221 -1.2098
 6079SOL    HW229697   3.896   4.699  11.435  0.2510 -0.4149  0.9995
 6080SOL     OW29698   4.665   1.531   2.510 -0.4960 -0.0567  0.4668
 6080SOL    HW129699   0.018   1.475   2.493  0.4894  0.2368  3.8451
 6080SOL    HW229700   4.678   1.535   2.605 -0.0944 -0.6106  0.4328
 6081SOL     OW29701   1.436   3.209   6.162  0.0498 -0.3652 -0.2928
 6081SOL    HW129702   1.356   3.172   6.200  0.2322 -1.2936 -0.8216
 6081SOL    HW229703   1.467   3.225   6.251  1.8103 -1.7483 -0.6483
 6082SOL     OW29704   3.549   2.973   8.044  0.4349 -0.1221 -0.2684
 6082SOL    HW129705   3.632   2.925   8.044  1.6240  1.9409  2.7339
 6082SOL    HW229706   3.540   2.975   8.139 -0.2324 -0.1102 -0.3368
 6083SOL     OW29707   3.177   1.684   0.074 -0.0802  0.1158 -0.7622
 6083SOL    HW129708   3.254   1.655   0.024  0.2190 -0.8669  0.2652
 6083SOL    HW229709   3.208   1.745   0.140  1.0382 -0.7678 -0.4560
 6084SOL     OW29710   1.887   4.316   8.530  0.5714 -0.0224  0.1319
 6084SOL    HW129711   1.865   4.389   8.472 -2.2426 -2.5801 -2.0261
 6084SOL    HW229712   1.801   4.300   8.567  0.6264  4.2893  2.1431
 6085SOL     OW29713   0.958   4.485   5.792  0.7117 -0.3036  0.2783
 6085SOL    HW129714   0.894   4.511   5.859 -1.5577  0.7391 -2.2724
 6085SOL    HW229715   0.935   4.549   5.724 -1.0610 -0.6500  0.5413
 6086SOL     OW29716   4.185   0.489   8.637 -0.1352  0.2237  0.1958
 6086SOL    HW129717   4.127   0.420   8.670 -1.3310  0.5459 -1.2420
 6086SOL    HW229718   4.134   0.516   8.560  0.3831 -1.5866 -0.7924
 6087SOL     OW29719   2.215   1.065   7.938 -0.4093  0.2264  0.5740
 6087SOL    HW129720   2.139   1.033   7.890 -1.1717  2.2893  0.4235
 6087SOL    HW229721   2.231   1.005   8.011 -1.5646 -1.7026 -0.7854
 6088SOL     OW29722   3.458   2.364   4.525  0.1761 -0.6062 -0.3184
 6088SOL    HW129723   3.478   2.405   4.609 -0.3628  1.1288 -1.0428
 6088SOL    HW229724   3.369   2.334   4.545  0.4084  0.8847  2.9219
 6089SOL     OW29725   3.841   1.996   4.221  0.1384 -0.3178  0.1946
 6089SOL    HW129726   3.842   1.940   4.143 -0.2464 -1.0534  0.7145
 6089SOL    HW229727   3.754   2.032   4.202  0.5427  1.1649  1.1532
 6090SOL     OW29728   1.513   4.621  11.935  0.1536  0.0479  0.3912
 6090SOL    HW129729   1.577   4.572  11.883  0.0383  0.9187 -0.5666
 6090SOL    HW229730   1.453   4.556  11.972  1.5189 -2.7364 -2.2567
 6091SOL     OW29731   3.316   1.147   2.069 -0.6562  0.2191  0.0785
 6091SOL    HW129732   3.267   1.109   1.995  2.6615 -0.1129 -1.9323
 6091SOL    HW229733   3.380   1.204   2.027 -1.4828 -0.7499 -2.5603
 6092SOL     OW29734   0.755   1.596  11.063  0.1780 -0.0514 -0.2161
 6092SOL    HW129735   0.684   1.643  11.108  1.5979  0.8100  1.1452
 6092SOL    HW229736   0.797   1.566  11.144 -0.0521  1.2671  0.4000
 6093SOL     OW29737   3.437   1.027  11.433  0.3381 -0.6887 -0.4684
 6093SOL    HW129738   3.474   0.959  11.377 -0.5567 -0.5375 -1.2437
 6093SOL    HW229739   3.471   1.009  11.520  1.3854 -0.6840 -0.8769
 6094SOL     OW29740   2.117   0.439  11.205 -0.2540  0.4515  0.2338
 6094SOL    HW129741   2.060   0.382  11.257 -0.9862 -2.3519 -3.5900
 6094SOL    HW229742   2.120   0.370  11.138 -1.9605 -0.5941  1.2248
 6095SOL     OW29743   2.289   0.805  12.879  0.4242  0.6214  0.0258
 6095SOL    HW129744   2.332   0.721  12.866 -0.3269  0.1185  0.8035
 6095SOL    HW229745   2.232   0.814  12.803  1.5105 -0.9409 -0.9751
 6096SOL     OW29746   0.719   3.683   5.518 -0.1418 -0.1106  0.3184
 6096SOL    HW129747   0.681   3.771   5.521  1.5171  0.6385 -0.0428
 6096SOL    HW229748   0.647   3.634   5.480 -1.8505  1.9884  0.8365
 6097SOL     OW29749   2.628   3.834   5.060 -0.1389 -0.7412 -0.4789
 6097SOL    HW129750   2.612   3.794   5.145  1.0148 -0.6639 -0.2248
 6097SOL    HW229751   2.545   3.879   5.044 -0.7497 -1.8036 -0.3256
 6098SOL     OW29752   2.922   0.210  10.047  0.7243 -0.1374  0.4048
 6098SOL    HW129753   2.954   0.227   9.958  0.4661 -4.3992 -0.5120
 6098SOL    HW229754   3.002   0.227  10.096 -0.5392  0.6327  2.1846
 6099SOL     OW29755   4.382   0.537   7.229  0.2045  0.2674 -0.3163
 6099SOL    HW129756   4.356   0.629   7.237 -2.7724 -0.4685 -1.6425
 6099SOL    HW229757   4.324   0.501   7.295  1.0416  0.1274  0.3515
 6100SOL     OW29758   3.363   0.857   1.034 -0.1149  0.6163  0.1419
 6100SOL    HW129759   3.327   0.941   1.063 -0.3366 -0.4832  2.9693
 6100SOL    HW229760   3.454   0.880   1.019 -0.3553  2.3558  1.4030
 6101SOL     OW29761   0.065   2.544   3.155 -0.2405  0.0643  0.5422
 6101SOL    HW129762   0.053   2.449   3.162 -3.4120  0.4570  0.3852
 6101SOL    HW229763   0.073   2.558   3.061  0.9756  0.9194  0.7836
 6102SOL     OW29764   4.154   2.309   3.439  0.3680  0.2260 -0.2750
 6102SOL    HW129765   4.059   2.312   3.445  0.4090 -3.3533  2.3226
 6102SOL    HW229766   4.178   2.388   3.391 -0.7221  0.0085 -1.1692
 6103SOL     OW29767   4.356   1.106   6.341 -0.7482 -0.3394  0.1791
 6103SOL    HW129768   4.338   1.187   6.388  3.7685 -0.3583  2.0197
 6103SOL    HW229769   4.441   1.089   6.383  0.4878  4.6036 -0.3551
 6104SOL     OW29770   0.746   3.881  13.507 -0.0830 -0.3702 -0.0837
 6104SOL    HW129771   0.656   3.900  13.530  0.4668  1.3399  0.6190
 6104SOL    HW229772   0.746   3.912  13.417  0.2779 -0.3399 -0.0759
 6105SOL     OW29773   0.004   1.153   6.834  0.1975 -0.7540 -0.3314
 6105SOL    HW129774   4.716   1.246   6.815 -0.2906 -0.9123 -0.8474
 6105SOL    HW229775   4.635   1.128   6.824  0.6248 -1.9005 -1.4527
 6106SOL     OW29776   4.425   0.613   0.330 -0.1381  0.3368  0.4578
 6106SOL    HW129777   4.343   0.643   0.291  1.0615  3.2805  0.2362
 6106SOL    HW229778   4.480   0.602   0.252 -0.3343 -1.2917  0.5437
 6107SOL     OW29779   3.174   2.809  16.018 -0.3144  0.1461 -0.4819
 6107SOL    HW129780   3.194   2.736  15.959 -0.2630  1.2731 -1.8530
 6107SOL    HW229781   3.084   2.833  15.997 -1.2797 -1.7141  1.4308
 6108SOL     OW29782   3.741   4.159   9.812 -0.4414  0.2633  0.0452
 6108SOL    HW129783   3.682   4.145   9.738 -0.1790 -2.3970  0.3586
 6108SOL    HW229784   3.689   4.200   9.882  0.4466  1.7188 -0.1561
 6109SOL     OW29785   2.090   0.973   3.056 -0.2166  0.6565 -0.5517
 6109SOL    HW129786   2.006   0.935   3.031  0.1389 -1.3311  1.2467
 6109SOL    HW229787   2.069   1.057   3.096 -0.8076 -1.0231  2.6676
 6110SOL     OW29788   1.087   0.253   1.515  0.4418 -0.3654 -0.1634
 6110SOL    HW129789   1.100   0.269   1.608 -0.6632  2.2967 -0.4551
 6110SOL    HW229790   0.991   0.247   1.513  0.2978  1.7344  0.1646
 6111SOL     OW29791   3.437   2.582  17.579 -0.0168 -0.0842  0.1345
 6111SOL    HW129792   3.505   2.617  17.521 -0.1225  2.5749  1.6113
 6111SOL    HW229793   3.378   2.545  17.514 -1.0847  3.9506 -1.1760
 6112SOL     OW29794   3.822   4.700   2.670 -0.6485 -0.1871 -0.0644
 6112SOL    HW129795   3.907   4.719   2.629 -0.0998  0.6292  1.4412
 6112SOL    HW229796   3.821   0.052   2.729 -2.0519 -0.3370  0.1056
 6113SOL     OW29797   1.895   2.809   3.018  0.5519 -0.2690 -0.0724
 6113SOL    HW129798   1.848   2.891   3.033 -1.9949 -1.6472 -0.3740
 6113SOL    HW229799   1.983   2.831   3.045 -0.2529  3.6101 -0.6131
 6114SOL     OW29800   4.429   2.242   4.441  0.5274 -0.1454  0.0272
 6114SOL    HW129801   4.364   2.250   4.371  0.2513 -0.2530  0.2700
 6114SOL    HW229802   4.515   2.239   4.399 -0.2314  0.0080 -1.5523
 6115SOL     OW29803   3.160   4.044   2.223  0.4919  0.2182 -0.7256
 6115SOL    HW129804   3.148   4.004   2.137 -1.4470  0.3242 -0.5095
 6115SOL    HW229805   3.072   4.043   2.261  0.4353 -1.0516 -0.8980
 6116SOL     OW29806   3.938   1.410   6.502 -0.1886 -0.6040  0.7810
 6116SOL    HW129807   3.918   1.319   6.522 -0.3711 -0.8719 -0.6032
 6116SOL    HW229808   3.847   1.441   6.500 -0.3612 -1.2518 -1.2252
 6117SOL     OW29809   0.675   0.689   4.801  0.1617 -0.6281 -0.3966
 6117SOL    HW129810   0.736   0.677   4.874 -0.6951 -2.6882 -0.0278
 6117SOL    HW229811   0.636   0.602   4.795 -1.0934 -0.1615  0.8790
 6118SOL     OW29812   1.820   1.340   9.844 -0.1217  0.0497  0.0997
 6118SOL    HW129813   1.759   1.401   9.884  0.1328 -0.1064  0.7215
 6118SOL    HW229814   1.773   1.324   9.762 -1.2824  0.6319  0.6517
 6119SOL     OW29815   4.070   4.524   9.798 -0.4265 -0.1878  0.1516
 6119SOL    HW129816   4.116   4.440   9.801  2.1671  1.2285  0.4056
 6119SOL    HW229817   4.123   4.569   9.733 -1.1825 -1.3015 -1.2182
 6120SOL     OW29818   3.894   0.514   3.430 -0.1659 -0.6275  0.6912
 6120SOL    HW129819   3.847   0.597   3.430 -1.1903 -1.2030  2.0130
 6120SOL    HW229820   3.829   0.446   3.417  1.1329 -1.4912 -1.2775
 6121SOL     OW29821   4.594   1.084  15.105  0.4428 -0.5052  0.4540
 6121SOL    HW129822   4.590   1.161  15.162 -0.7739  0.0134 -0.3198
 6121SOL    HW229823   4.530   1.027  15.148 -0.9201  0.6615 -0.0302
 6122SOL     OW29824   1.259   3.044   8.699 -0.1781 -0.1180  0.0162
 6122SOL    HW129825   1.294   3.102   8.766  0.4507 -1.0028  0.4582
 6122SOL    HW229826   1.239   2.970   8.756  1.6578  0.4666  1.4244
 6123SOL     OW29827   4.613   2.150   7.920 -0.1449 -0.1189 -0.0664
 6123SOL    HW129828   4.641   2.087   7.987 -1.9185 -0.2221  0.5613
 6123SOL    HW229829   4.694   2.153   7.868 -0.1749 -1.7348 -0.1980
 6124SOL     OW29830   0.619   1.419   8.740 -0.8132 -0.2043 -0.0557
 6124SOL    HW129831   0.606   1.441   8.833  0.9051 -1.8145  0.5755
 6124SOL    HW229832   0.714   1.418   8.735 -0.5586 -2.9787  4.9109
 6125SOL     OW29833   1.940   2.080  11.222 -0.1094 -0.4709 -0.7035
 6125SOL    HW129834   1.862   2.108  11.174 -2.4317  0.2639  3.5045
 6125SOL    HW229835   1.997   2.064  11.148  2.7004  0.7708  1.2084
 6126SOL     OW29836   4.318   0.283   7.069  0.3942 -0.4319  0.1529
 6126SOL    HW129837   4.364   0.336   7.134 -0.3357  0.6173 -0.1801
 6126SOL    HW229838   4.279   0.218   7.127 -0.9589 -0.2189 -0.5232
 6127SOL     OW29839   4.079   3.756  12.524 -0.2838 -0.3809 -0.2694
 6127SOL    HW129840   4.013   3.734  12.589 -0.9841  1.4792 -0.3630
 6127SOL    HW229841   4.061   3.849  12.515 -0.1455 -0.0731  2.6915
 6128SOL     OW29842   1.469   2.165   4.151  0.2115 -0.2721 -0.3719
 6128SOL    HW129843   1.388   2.166   4.100 -0.4515 -2.2884  0.6413
 6128SOL    HW229844   1.436   2.163   4.241  2.0406  0.7330  0.3178
 6129SOL     OW29845   2.485   2.314   9.446  0.6363 -0.0781  0.2633
 6129SOL    HW129846   2.400   2.356   9.457  0.8326  0.1211  1.0578
 6129SOL    HW229847   2.490   2.290   9.354 -0.3578  1.6487 -0.2217
 6130SOL     OW29848   4.460   3.779   8.264  0.3429 -0.3101  0.0453
 6130SOL    HW129849   4.392   3.827   8.310  0.7230  0.9076 -0.6532
 6130SOL    HW229850   4.423   3.760   8.178 -0.0970  1.5260 -0.1535
 6131SOL     OW29851   3.736   0.522   8.552 -0.2541 -0.2934 -0.5911
 6131SOL    HW129852   3.769   0.612   8.548 -0.0908 -0.3157  0.2864
 6131SOL    HW229853   3.814   0.468   8.563  1.0072  1.4275 -0.9755
 6132SOL     OW29854   2.036   3.286  13.974  0.3142  0.4280  0.0014
 6132SOL    HW129855   1.978   3.359  13.993  0.5650  0.5080  0.4609
 6132SOL    HW229856   1.992   3.247  13.898 -0.7509  0.6290  0.5099
 6133SOL     OW29857   2.313   1.586   1.198 -0.4398 -0.2319 -0.5624
 6133SOL    HW129858   2.362   1.661   1.230 -1.0670  0.3934 -1.0607
 6133SOL    HW229859   2.358   1.557   1.119 -0.7475 -0.6211 -0.5932
 6134SOL     OW29860   0.384   2.459  16.926  0.7732 -0.3156 -0.1860
 6134SOL    HW129861   0.453   2.433  16.987  1.5390 -0.7021 -1.2361
 6134SOL    HW229862   0.433   2.448  16.845  0.3858 -2.8845 -0.0746
 6135SOL     OW29863   3.963   3.313   8.673 -0.8885  0.0041  0.5276
 6135SOL    HW129864   4.025   3.248   8.641 -1.0324  0.9031 -1.5732
 6135SOL    HW229865   3.878   3.283   8.639  0.3182 -0.6720 -1.8964
 6136SOL     OW29866   2.096   3.024   3.564  0.7252  0.2990  0.7080
 6136SOL    HW129867   2.016   3.024   3.617  1.8321 -0.9585  2.3883
 6136SOL    HW229868   2.079   3.103   3.513  0.2329 -1.0269 -1.1885
 6137SOL     OW29869   1.648   1.055   3.143  0.0295  0.4327 -0.4730
 6137SOL    HW129870   1.600   0.973   3.153 -1.1077  1.1256 -0.2361
 6137SOL    HW229871   1.590   1.120   3.182 -0.2965 -1.0331  1.5082
 6138SOL     OW29872   1.255   0.865   6.234 -0.4146  0.2167  0.5694
 6138SOL    HW129873   1.175   0.813   6.229 -0.9399  0.7594  3.1862
 6138SOL    HW229874   1.276   0.871   6.141 -2.3972 -2.0504 -0.0312
 6139SOL     OW29875   2.993   1.532   7.166  0.0340  0.5119 -0.2275
 6139SOL    HW129876   3.082   1.520   7.200  0.0940  0.6507 -0.3347
 6139SOL    HW229877   3.013   1.486   7.084  0.5840 -1.0844  0.8007
 6140SOL     OW29878   3.962   1.458   4.973 -0.0536  0.1853 -0.2114
 6140SOL    HW129879   3.943   1.512   5.050  2.1237  0.8351 -0.1429
 6140SOL    HW229880   3.892   1.493   4.918  0.7961  0.5426 -1.0666
 6141SOL     OW29881   3.620   4.611   2.826 -0.0868 -0.4078  0.4567
 6141SOL    HW129882   3.571   4.612   2.744  0.2273  0.7166  0.2880
 6141SOL    HW229883   3.704   4.634   2.784 -0.3031 -0.8435 -0.2229
 6142SOL     OW29884   3.648   4.304   1.841 -0.2864 -0.4315 -0.6176
 6142SOL    HW129885   3.646   4.245   1.917 -0.1445  0.5645  0.1704
 6142SOL    HW229886   3.743   4.310   1.826 -0.3484 -1.1704 -1.2734
 6143SOL     OW29887   0.107   2.457   9.233 -0.3340 -0.1468  0.8645
 6143SOL    HW129888   0.112   2.405   9.153  0.7811  0.6520  0.4270
 6143SOL    HW229889   0.025   2.424   9.270 -0.3541 -1.9256 -0.7643
 6144SOL     OW29890   2.148   3.221   3.760 -0.3139 -0.2085 -0.2338
 6144SOL    HW129891   2.082   3.269   3.809 -1.0650 -0.7056 -0.7613
 6144SOL    HW229892   2.105   3.214   3.675  1.3150 -0.9352 -1.0049
 6145SOL     OW29893   3.866   4.690   0.775 -0.0297  0.5998 -0.4291
 6145SOL    HW129894   3.855   0.007   0.862  0.2706  0.8455 -0.5034
 6145SOL    HW229895   3.940   4.633   0.796  0.1970  0.7342 -0.8699
 6146SOL     OW29896   1.305   2.221  16.058 -0.3453 -0.1255 -0.0667
 6146SOL    HW129897   1.372   2.154  16.074 -0.9454  0.0818  3.4175
 6146SOL    HW229898   1.263   2.197  15.976 -0.3549  1.7399 -0.6137
 6147SOL     OW29899   4.654   4.290   4.066 -0.4280  0.4160 -0.6736
 6147SOL    HW129900   4.603   4.285   3.985 -1.7665  0.4443  0.1686
 6147SOL    HW229901   0.021   4.275   4.036 -1.3615  1.4485 -4.0220
 6148SOL     OW29902   1.253   0.740   1.726 -0.6873  0.0015 -0.1270
 6148SOL    HW129903   1.328   0.689   1.756 -0.6928  0.1702  0.1844
 6148SOL    HW229904   1.192   0.666   1.720  0.4574 -0.8707 -0.8033
 6149SOL     OW29905   3.827   3.176  16.831  0.4741  0.3387  0.3053
 6149SOL    HW129906   3.819   3.185  16.736  0.1811  1.0902  0.3995
 6149SOL    HW229907   3.739   3.183  16.869 -0.2372  1.5122 -1.5781
 6150SOL     OW29908   2.042   0.451  11.581 -0.2098 -0.6199 -0.0285
 6150SOL    HW129909   2.037   0.390  11.654 -1.3478 -1.4143 -0.7745
 6150SOL    HW229910   2.122   0.501  11.600 -0.1858 -0.6590 -0.0258
 6151SOL     OW29911   0.704   1.597  12.578 -0.4179 -0.4629  0.5849
 6151SOL    HW129912   0.631   1.535  12.580 -0.0953 -0.9022 -1.0536
 6151SOL    HW229913   0.778   1.553  12.537  1.4325  0.7745  2.6046
 6152SOL     OW29914   3.803   4.466   3.483  0.4087  0.2237  0.1179
 6152SOL    HW129915   3.731   4.528   3.496 -0.4707 -0.6914 -0.4134
 6152SOL    HW229916   3.845   4.511   3.410  2.8712  2.0228  2.6339
 6153SOL     OW29917   1.479   0.908   2.016 -0.0957  0.2897 -0.2124
 6153SOL    HW129918   1.572   0.920   2.032 -0.0459  0.0925 -0.3495
 6153SOL    HW229919   1.488   0.872   1.928 -0.8761 -2.2684  0.7301
 6154SOL     OW29920   0.847   2.275   4.087 -0.2319  0.1355  0.3745
 6154SOL    HW129921   0.855   2.183   4.113 -0.4295  0.3860  1.3154
 6154SOL    HW229922   0.923   2.282   4.029 -1.6461  1.1967 -1.3187
 6155SOL     OW29923   2.922   3.452   2.383 -0.1651  0.0090 -0.7058
 6155SOL    HW129924   2.891   3.363   2.364 -1.1533  0.9980 -3.6069
 6155SOL    HW229925   2.946   3.430   2.473  0.8254 -1.2220 -1.2618
 6156SOL     OW29926   0.626   3.706   6.012  0.4358 -0.5218 -0.3430
 6156SOL    HW129927   0.710   3.698   6.059  0.5926 -2.5687 -0.9461
 6156SOL    HW229928   0.564   3.658   6.067  1.2408  0.1061  1.0972
 6157SOL     OW29929   2.809   1.915   5.288  0.1865  0.2517 -0.3849
 6157SOL    HW129930   2.842   1.847   5.347  0.0671 -0.0020 -0.6105
 6157SOL    HW229931   2.863   1.988   5.319 -0.4605  0.6058 -0.0850
 6158SOL     OW29932   0.602   0.638  14.989  0.3152 -0.0062 -0.2632
 6158SOL    HW129933   0.632   0.723  15.021  1.1691 -0.4317  0.0735
 6158SOL    HW229934   0.648   0.641  14.905 -0.9161  0.7530 -0.9118
 6159SOL     OW29935   0.604   3.304   4.186 -0.0299  0.4609  0.3541
 6159SOL    HW129936   0.619   3.213   4.159  0.4862  0.8387 -0.6374
 6159SOL    HW229937   0.576   3.353   4.108  0.4659  0.0199 -0.1052
 6160SOL     OW29938   3.252   3.976   0.109 -0.0151  0.1521 -0.0207
 6160SOL    HW129939   3.186   4.035   0.072 -1.7308 -3.1328 -2.1510
 6160SOL    HW229940   3.208   3.891   0.104  2.9102 -1.3242 -0.5644
 6161SOL     OW29941   1.511   2.883   5.512  0.4304 -0.0420  0.2595
 6161SOL    HW129942   1.533   2.862   5.603  1.3586  0.1008  0.0749
 6161SOL    HW229943   1.527   2.977   5.514 -2.5393  0.4223  2.0591
 6162SOL     OW29944   1.953   3.300   9.458  0.3717  0.1852 -0.4681
 6162SOL    HW129945   1.973   3.384   9.417  0.3782  0.7100  0.6261
 6162SOL    HW229946   2.042   3.268   9.473 -0.5651 -1.6184  1.2915
 6163SOL     OW29947   4.226   3.892   7.534 -0.0180  0.0990 -0.1639
 6163SOL    HW129948   4.268   3.909   7.449 -1.8667 -0.1640 -1.1274
 6163SOL    HW229949   4.141   3.930   7.512 -0.2549  0.9707  2.2838
 6164SOL     OW29950   3.019   4.505   8.462  0.1389  0.1690  0.3808
 6164SOL    HW129951   3.092   4.450   8.434 -0.4291 -0.6530  0.4885
 6164SOL    HW229952   2.986   4.445   8.529 -1.1132  0.5680  0.1167
 6165SOL     OW29953   3.473   1.246  17.078 -0.0695 -0.2491  0.0883
 6165SOL    HW129954   3.496   1.190  17.003 -1.1287 -0.6282  0.0319
 6165SOL    HW229955   3.400   1.301  17.049 -0.3854 -1.5307 -1.5982
 6166SOL     OW29956   3.136   0.021   5.481 -0.3209 -0.0075 -0.0409
 6166SOL    HW129957   3.220   4.708   5.510 -0.0339  1.8914  1.4427
 6166SOL    HW229958   3.164   0.095   5.427 -1.2723  0.2542 -0.1681
 6167SOL     OW29959   2.343   3.185   8.151 -0.2933 -0.0300  0.0116
 6167SOL    HW129960   2.418   3.131   8.128 -0.7928 -0.2073 -1.2327
 6167SOL    HW229961   2.396   3.259   8.181  0.3938 -0.0801 -1.0751
 6168SOL     OW29962   3.268   3.560  12.965 -0.2952  0.0225  0.3044
 6168SOL    HW129963   3.338   3.518  13.015  1.1068 -0.1319 -1.7662
 6168SOL    HW229964   3.196   3.548  13.027 -2.0616 -1.1698 -1.9621
 6169SOL     OW29965   3.202   3.160   2.279 -0.6126 -0.6183  0.0939
 6169SOL    HW129966   3.293   3.167   2.310 -0.6248 -0.5398  0.1115
 6169SOL    HW229967   3.196   3.244   2.234  1.3498 -0.8653 -0.6594
 6170SOL     OW29968   4.379   3.167   1.692  0.1697  0.0360  0.0216
 6170SOL    HW129969   4.324   3.197   1.619 -0.8532 -0.5316  0.5545
 6170SOL    HW229970   4.388   3.074   1.671  0.7084  0.2763 -0.8516
 6171SOL     OW29971   1.779   1.403  11.084  0.4121 -0.1060 -0.0834
 6171SOL    HW129972   1.719   1.407  11.159 -0.4862  2.0498 -0.9429
 6171SOL    HW229973   1.719   1.359  11.025  0.0628  0.5764 -0.2309
 6172SOL     OW29974   3.959   1.040   4.992  0.1077 -0.5492  0.1369
 6172SOL    HW129975   3.896   1.032   5.064 -3.0513  3.2432 -2.2048
 6172SOL    HW229976   4.021   1.106   5.025  0.9806  0.2395 -3.0592
 6173SOL     OW29977   0.229   1.160   2.418  0.1487 -0.1499 -0.0967
 6173SOL    HW129978   0.318   1.127   2.411 -0.6577 -2.7270  1.7138
 6173SOL    HW229979   0.200   1.137   2.330 -0.4394 -0.4082  0.1613
 6174SOL     OW29980   0.669   0.976   2.077 -0.1190 -0.1519  0.1764
 6174SOL    HW129981   0.606   0.904   2.079 -1.6093  1.1267 -1.1486
 6174SOL    HW229982   0.618   1.047   2.040  0.5645  0.2564  0.0116
 6175SOL     OW29983   0.998   3.174   3.759 -0.5110 -0.4260  0.3886
 6175SOL    HW129984   0.975   3.123   3.837  1.0024  0.0528  1.1430
 6175SOL    HW229985   1.080   3.216   3.783 -1.4452  0.2178  2.5416
 6176SOL     OW29986   3.448   3.867  15.711 -0.5479  0.5101 -0.2228
 6176SOL    HW129987   3.495   3.946  15.737  1.8438 -0.6053 -1.1026
 6176SOL    HW229988   3.405   3.842  15.793 -0.9696  1.1380 -0.2566
 6177SOL     OW29989   1.627   4.160   2.566  0.2576 -0.0569  0.7421
 6177SOL    HW129990   1.601   4.250   2.543  2.9551  0.2363 -1.1729
 6177SOL    HW229991   1.616   4.108   2.487  0.3921  0.2079  0.5471
 6178SOL     OW29992   0.584   0.990  13.146 -0.0883  0.1803 -0.4067
 6178SOL    HW129993   0.498   0.954  13.169  1.0567 -2.5802 -0.4372
 6178SOL    HW229994   0.613   0.910  13.102  2.8686  0.6837  0.6282
 6179SOL     OW29995   2.239   2.982   7.083 -0.3029 -0.0236  0.0819
 6179SOL    HW129996   2.208   3.064   7.044  3.4393  2.1605  1.6177
 6179SOL    HW229997   2.333   2.999   7.079 -0.7075  1.8766 -1.5858
 6180SOL     OW29998   1.561   4.117  14.613  0.0320  0.1016  0.5947
 6180SOL    HW129999   1.487   4.161  14.654 -0.0904  0.3599  0.0975
 6180SOL    HW230000   1.526   4.051  14.553 -0.3301 -0.4918  1.4631
 6181SOL     OW30001   3.819   0.229   3.401  0.5638  0.1705  0.5050
 6181SOL    HW130002   3.867   0.202   3.478  1.4792 -2.2548 -0.9230
 6181SOL    HW230003   3.842   0.174   3.326 -0.0897  0.5022  0.0518
 6182SOL     OW30004   1.300   2.262   3.017  0.1125  0.4666 -0.0388
 6182SOL    HW130005   1.282   2.345   2.974 -1.0513 -0.2468 -0.9243
 6182SOL    HW230006   1.380   2.291   3.060  0.7505 -0.7713 -0.3824
 6183SOL     OW30007   2.027   3.448  15.626  0.0093  0.0198  0.6124
 6183SOL    HW130008   2.064   3.451  15.715  1.4529 -0.0638  0.0152
 6183SOL    HW230009   1.938   3.438  15.659 -0.0942  2.2910  1.0019
 6184SOL     OW30010   2.461   4.539   5.116 -0.0544 -0.0829 -0.1309
 6184SOL    HW130011   2.385   4.596   5.105  0.9302  1.3324  0.3519
 6184SOL    HW230012   2.452   4.526   5.211 -4.0675 -0.6495 -0.5989
 6185SOL     OW30013   2.308   0.178  14.795  0.0065  0.1561  0.5170
 6185SOL    HW130014   2.267   0.107  14.747 -1.0828 -0.1116  1.8440
 6185SOL    HW230015   2.343   0.123  14.866 -0.1966  1.9403  2.0185
 6186SOL     OW30016   4.114   3.728  10.656  0.2090  0.7301  0.0129
 6186SOL    HW130017   4.066   3.677  10.722 -2.0715 -1.2323 -3.1467
 6186SOL    HW230018   4.159   3.795  10.708 -2.2957  3.2273 -1.0602
 6187SOL     OW30019   1.750   1.326   4.123  0.5150 -0.9647  0.1517
 6187SOL    HW130020   1.771   1.419   4.118 -1.5452 -0.5755 -1.1135
 6187SOL    HW230021   1.758   1.300   4.032  1.0334 -1.4072  0.3220
 6188SOL     OW30022   0.271   1.366  12.252  0.8346  0.4246  0.2711
 6188SOL    HW130023   0.269   1.328  12.340  0.0287  1.6909  0.8036
 6188SOL    HW230024   0.319   1.296  12.207  0.2599 -0.9106  1.7293
 6189SOL     OW30025   3.469   1.375  14.306 -0.2334  0.5741 -0.3212
 6189SOL    HW130026   3.504   1.400  14.220  1.9203 -0.3008  0.3202
 6189SOL    HW230027   3.380   1.350  14.280 -0.2267  0.2009  0.0203
 6190SOL     OW30028   2.602   0.836  13.404  0.2171  0.1847  0.3025
 6190SOL    HW130029   2.595   0.930  13.424  0.2311  0.3198 -0.3183
 6190SOL    HW230030   2.519   0.815  13.363 -1.2261  0.0622  3.3064
 6191SOL     OW30031   0.884   0.134   9.022  0.6629 -0.3531 -0.2389
 6191SOL    HW130032   0.948   0.101   8.959  1.1650 -1.5230  0.8650
 6191SOL    HW230033   0.883   0.224   8.990  0.2905 -0.1882  0.2403
 6192SOL     OW30034   1.316   0.049  12.727 -0.5014  0.0138 -0.0958
 6192SOL    HW130035   1.297   0.110  12.798 -0.8310  1.7684 -1.6940
 6192SOL    HW230036   1.248   0.069  12.662 -1.9064 -2.0644  0.7439
 6193SOL     OW30037   1.223   1.513   0.826 -0.5096 -0.4867  0.0242
 6193SOL    HW130038   1.305   1.483   0.787 -0.1654 -1.2149  1.3115
 6193SOL    HW230039   1.164   1.438   0.820  1.6955 -1.9464 -3.6182
 6194SOL     OW30040   3.743   0.862   3.086 -0.4046  0.1311 -0.2428
 6194SOL    HW130041   3.653   0.881   3.059 -0.5710  0.3741  0.4781
 6194SOL    HW230042   3.726   0.771   3.107 -1.2414  0.9369  2.5053
 6195SOL     OW30043   1.943   0.600   4.889  0.5685 -0.2298  0.4091
 6195SOL    HW130044   1.960   0.693   4.876  0.6862 -0.0035  2.2182
 6195SOL    HW230045   1.996   0.583   4.966 -0.7426 -0.3322  1.2925
 6196SOL     OW30046   0.873   0.658   7.371 -0.2852  0.2982 -0.2116
 6196SOL    HW130047   0.796   0.655   7.428 -0.8781  0.8790 -0.9935
 6196SOL    HW230048   0.940   0.622   7.429  0.0707  0.5179 -0.4879
 6197SOL     OW30049   4.277   3.793   8.684 -0.0305 -0.3912  0.0939
 6197SOL    HW130050   4.273   3.849   8.607 -2.3881  1.2209  1.4015
 6197SOL    HW230051   4.373   3.784   8.689  0.0724  0.5222 -0.1539
 6198SOL     OW30052   4.662   0.469   4.044 -0.7992 -0.3250 -0.1839
 6198SOL    HW130053   4.601   0.515   3.985 -1.1435  1.2801  1.4347
 6198SOL    HW230054   4.675   0.535   4.112 -1.9149 -0.6198  0.3118
 6199SOL     OW30055   2.782   2.215   2.504  0.5159  0.2921 -0.1691
 6199SOL    HW130056   2.698   2.185   2.537  0.5448 -0.2002 -0.5498
 6199SOL    HW230057   2.824   2.209   2.590  0.7297  1.0557 -0.2199
 6200SOL     OW30058   2.860   4.407   2.088  0.6950 -0.5551  0.5952
 6200SOL    HW130059   2.773   4.372   2.069  1.9562 -3.0313 -0.6183
 6200SOL    HW230060   2.843   4.469   2.159 -1.0200 -1.2468  0.7728
 6201SOL     OW30061   1.951   2.984   1.269  0.4675  0.1587  0.2520
 6201SOL    HW130062   1.968   2.918   1.336 -2.5957  0.3476  1.2102
 6201SOL    HW230063   1.911   3.043   1.332  3.2479  0.4078  1.7585
 6202SOL     OW30064   2.568   3.913  15.042 -0.3960  0.1938  0.2534
 6202SOL    HW130065   2.630   3.973  15.084 -0.5278  1.0605 -0.7767
 6202SOL    HW230066   2.509   3.982  15.012 -0.0449 -0.3797 -1.8179
 6203SOL     OW30067   1.182   4.658   5.922 -0.8030  0.1610 -0.4206
 6203SOL    HW130068   1.138   0.016   5.894 -1.4328 -0.0210  0.0344
 6203SOL    HW230069   1.127   4.599   5.871 -0.6362 -1.0984  0.8491
 6204SOL     OW30070   3.370   3.960   2.669 -0.0284  0.2898 -0.1344
 6204SOL    HW130071   3.306   4.011   2.719 -0.4458  1.1868 -1.5730
 6204SOL    HW230072   3.432   3.941   2.739  1.1013 -0.8994 -1.4885
 6205SOL     OW30073   3.293   2.675   4.642  0.2105  0.9855 -0.0609
 6205SOL    HW130074   3.352   2.625   4.698  0.7080  0.7262 -0.8216
 6205SOL    HW230075   3.211   2.641   4.680  0.7994  0.3753  0.6628
 6206SOL     OW30076   0.470   3.269   3.614  0.4609  0.6662 -0.0076
 6206SOL    HW130077   0.441   3.360   3.612  2.2427  1.2513  0.7455
 6206SOL    HW230078   0.393   3.225   3.651  0.0819 -0.8880 -2.5794
 6207SOL     OW30079   2.537   1.631   2.689 -0.0424  0.3899 -0.1831
 6207SOL    HW130080   2.505   1.620   2.779 -1.0774  0.7510 -0.5041
 6207SOL    HW230081   2.457   1.618   2.639  0.7563 -2.5330 -0.7124
 6208SOL     OW30082   3.390   0.634  17.020 -0.2946  0.0165 -0.0603
 6208SOL    HW130083   3.356   0.551  17.055 -0.1785  0.1125  0.2766
 6208SOL    HW230084   3.402   0.684  17.101 -2.1632 -0.4062  0.4889
 6209SOL     OW30085   2.080   2.807   7.814  0.1516  0.0353 -0.1623
 6209SOL    HW130086   2.111   2.881   7.866  0.6046 -0.3085  0.0567
 6209SOL    HW230087   2.097   2.836   7.724  2.6229  0.1548  0.3416
 6210SOL     OW30088   3.247   3.520   1.261  0.2428 -0.0155  0.3636
 6210SOL    HW130089   3.290   3.582   1.202  3.7583 -1.2622  1.6252
 6210SOL    HW230090   3.315   3.482   1.316 -0.4977 -2.0676 -0.1191
 6211SOL     OW30091   2.123   0.269  14.977  0.1475  0.5697  0.0199
 6211SOL    HW130092   2.032   0.283  14.949  0.2244  1.1455  0.0609
 6211SOL    HW230093   2.179   0.280  14.901  0.9902  1.2908  0.7553
 6212SOL     OW30094   1.260   3.108   9.420  0.4233  0.7152 -0.2810
 6212SOL    HW130095   1.332   3.051   9.448 -0.4457 -0.4107 -0.3901
 6212SOL    HW230096   1.277   3.186   9.474 -1.1996  0.1324  1.0578
 6213SOL     OW30097   2.137   3.520   5.306 -0.2822  0.6532  0.5427
 6213SOL    HW130098   2.105   3.462   5.237 -0.4159  1.3870 -0.0184
 6213SOL    HW230099   2.200   3.565   5.249 -0.0458  0.2299  0.4715
 6214SOL     OW30100   3.292   3.024   6.984 -0.3030  0.5394 -0.0598
 6214SOL    HW130101   3.198   3.037   6.991 -0.4311  0.8675 -2.4225
 6214SOL    HW230102   3.307   2.966   7.058 -1.0088 -0.5425 -0.7695
 6215SOL     OW30103   2.548   0.764   2.724 -0.4569 -0.3434  0.8104
 6215SOL    HW130104   2.622   0.819   2.751 -2.6061  2.3215  1.2569
 6215SOL    HW230105   2.503   0.831   2.673 -0.0383  0.1372  1.0731
 6216SOL     OW30106   3.041   3.673   4.252  0.1648 -0.8359  0.1213
 6216SOL    HW130107   3.064   3.631   4.169 -2.6856 -2.3718  0.0925
 6216SOL    HW230108   3.082   3.612   4.313 -0.4579  0.1046  1.5002
 6217SOL     OW30109   3.122   0.173   6.497 -0.4743 -0.1256 -0.0773
 6217SOL    HW130110   3.069   0.248   6.471 -0.2032 -0.2886 -1.0985
 6217SOL    HW230111   3.141   0.144   6.408  0.9245 -1.1853  0.5588
 6218SOL     OW30112   0.989   4.349   9.507  0.1764  0.2623  0.1117
 6218SOL    HW130113   0.960   4.270   9.463  0.9611  0.8366 -1.4335
 6218SOL    HW230114   0.932   4.407   9.457  0.2434 -0.1141 -0.3910
 6219SOL     OW30115   2.948   3.634   6.260  0.3673 -0.1773 -0.4000
 6219SOL    HW130116   2.986   3.673   6.182 -0.8451 -1.0291 -1.4168
 6219SOL    HW230117   3.024   3.616   6.316  0.4059 -1.0348 -0.7369
 6220SOL     OW30118   4.438   3.757   0.405  0.0174 -0.5204  0.0163
 6220SOL    HW130119   4.467   3.686   0.348  0.1672 -0.6067  0.1965
 6220SOL    HW230120   4.512   3.791   0.455  0.3960 -0.5990 -0.4913
 6221SOL     OW30121   3.038   0.568   9.470  0.2418 -0.3133  0.1070
 6221SOL    HW130122   3.126   0.552   9.502  0.7386  1.6283 -0.2859
 6221SOL    HW230123   3.049   0.628   9.395  2.1697 -0.8775 -0.0568
 6222SOL     OW30124   1.075   4.306  16.977  0.3837  0.3077 -0.4384
 6222SOL    HW130125   1.107   4.239  17.038 -1.2649  0.7170  0.8822
 6222SOL    HW230126   0.981   4.300  16.991  0.1146 -0.1484 -2.4702
 6223SOL     OW30127   1.000   2.528   8.025 -0.4345  0.0486  0.4228
 6223SOL    HW130128   0.961   2.443   8.045 -2.4586  0.7966 -0.3714
 6223SOL    HW230129   1.061   2.549   8.096  0.6431 -0.9993 -0.1885
 6224SOL     OW30130   1.890   0.609   2.674  0.3292 -0.2060 -0.1165
 6224SOL    HW130131   1.905   0.702   2.692 -0.2472  0.8393 -4.9607
 6224SOL    HW230132   1.957   0.574   2.732 -4.4872 -2.0750  4.2047
 6225SOL     OW30133   0.453   2.396   4.741  0.5591  0.0897  0.1056
 6225SOL    HW130134   0.376   2.340   4.750  0.2578  0.4921  0.0114
 6225SOL    HW230135   0.486   2.420   4.828 -1.1833 -3.2495  1.6708
 6226SOL     OW30136   2.466   3.070   7.711  0.6108 -0.5182 -0.0520
 6226SOL    HW130137   2.409   3.042   7.640  0.1577 -3.0443  1.3251
 6226SOL    HW230138   2.552   3.056   7.671  0.9295 -0.7227  0.7109
 6227SOL     OW30139   3.596   2.059   6.114  0.3697 -0.4737  0.2113
 6227SOL    HW130140   3.648   2.019   6.044 -1.2948 -0.5452 -0.9896
 6227SOL    HW230141   3.521   2.000   6.119 -1.0152  1.1159 -1.6417
 6228SOL     OW30142   2.097   0.003   8.801  0.3825  0.1646 -0.2491
 6228SOL    HW130143   2.118   4.646   8.850  1.3971  0.9145  0.5431
 6228SOL    HW230144   2.133   0.065   8.865  0.9313  0.4216 -0.8091
 6229SOL     OW30145   0.645   2.196   4.318  0.4519 -0.2341 -0.1227
 6229SOL    HW130146   0.684   2.266   4.266 -0.1533 -0.6418 -1.1330
 6229SOL    HW230147   0.554   2.209   4.290  0.2561  1.4689  1.3264
 6230SOL     OW30148   3.776   4.269  10.549 -0.0762 -0.0818 -0.1476
 6230SOL    HW130149   3.683   4.269  10.573 -0.4843 -2.0417 -1.6816
 6230SOL    HW230150   3.778   4.303  10.460  0.5574 -1.7021 -0.7474
 6231SOL     OW30151   3.564   2.635   5.009  0.2302 -0.5522  0.3494
 6231SOL    HW130152   3.621   2.703   4.973 -1.5863  1.7729  1.9221
 6231SOL    HW230153   3.501   2.690   5.056 -0.2702 -0.8670  0.0493
 6232SOL     OW30154   4.558   4.424   8.055 -0.4947  0.3060 -0.0259
 6232SOL    HW130155   4.481   4.396   8.105  0.5920  2.5197  2.9155
 6232SOL    HW230156   4.589   4.472   8.132  1.4846  1.1315 -1.3688
 6233SOL     OW30157   0.800   2.455   2.697  0.5663 -0.5734 -0.2009
 6233SOL    HW130158   0.738   2.512   2.742  0.6868  0.9188 -1.9076
 6233SOL    HW230159   0.790   2.374   2.747  0.6870  2.0544  4.0812
 6234SOL     OW30160   0.399   4.515  13.015 -0.2175 -0.0384 -0.4634
 6234SOL    HW130161   0.417   4.499  12.922 -0.0218 -0.6368 -0.3249
 6234SOL    HW230162   0.487   4.494  13.046  0.3541 -1.0534 -2.7780
 6235SOL     OW30163   0.503   1.811  13.772 -0.3266 -0.6814  0.4127
 6235SOL    HW130164   0.541   1.844  13.854  1.4822  0.3297 -0.8059
 6235SOL    HW230165   0.553   1.862  13.707  2.0805 -0.0053  2.7575
 6236SOL     OW30166   0.403   0.951   6.829 -0.6118  0.0047  0.0397
 6236SOL    HW130167   0.369   1.035   6.859  1.1444  0.2406  1.4139
 6236SOL    HW230168   0.323   0.901   6.813 -1.3857  0.8554  1.2208
 6237SOL     OW30169   1.029   1.202   8.496 -0.1743 -0.6346 -0.3471
 6237SOL    HW130170   1.103   1.253   8.527  0.3686 -1.6668  0.0546
 6237SOL    HW230171   0.980   1.251   8.431  1.6315  0.3413 -0.9637
 6238SOL     OW30172   0.247   1.048  16.262 -0.2402 -0.4715 -0.1614
 6238SOL    HW130173   0.245   0.974  16.201 -0.9596 -0.5932  0.0146
 6238SOL    HW230174   0.325   1.099  16.242 -1.9573  1.8826 -0.8289
 6239SOL     OW30175   2.638   2.457   2.349 -0.5177 -0.0979 -0.2036
 6239SOL    HW130176   2.544   2.478   2.348 -0.7945 -1.2814  1.0868
 6239SOL    HW230177   2.646   2.399   2.425  1.2109  0.8416  0.3173
 6240SOL     OW30178   3.608   3.899   4.052  0.4254  0.0227 -0.0240
 6240SOL    HW130179   3.568   3.867   4.133 -0.2011  0.9219  0.0228
 6240SOL    HW230180   3.698   3.912   4.082  0.6412  0.3711 -0.8233
 6241SOL     OW30181   3.873   2.285   6.546  0.2179  0.2490  0.0323
 6241SOL    HW130182   3.816   2.260   6.473 -1.2152 -1.5372  1.7934
 6241SOL    HW230183   3.957   2.264   6.505  0.2289  2.3454 -1.0645
 6242SOL     OW30184   0.605   2.261   8.064 -0.2684 -0.5982 -0.9506
 6242SOL    HW130185   0.602   2.256   8.159  0.0027 -0.5694 -0.9423
 6242SOL    HW230186   0.574   2.173   8.041  1.1301 -1.1755 -0.5935
 6243SOL     OW30187   3.432   1.014   8.625 -0.2085  0.0972  0.2598
 6243SOL    HW130188   3.353   1.054   8.662 -0.0923  0.0429  0.5664
 6243SOL    HW230189   3.441   0.935   8.677  0.1777  0.3273  0.5447
 6244SOL     OW30190   3.324   2.330   8.775 -0.0985  0.9489  0.1271
 6244SOL    HW130191   3.394   2.265   8.786 -0.5737  0.2847 -0.8183
 6244SOL    HW230192   3.346   2.365   8.689 -1.0164 -1.9862 -1.2673
 6245SOL     OW30193   1.847   4.250   6.412  0.5087  0.2474  0.0437
 6245SOL    HW130194   1.820   4.161   6.387  0.9398  0.1733 -0.1520
 6245SOL    HW230195   1.840   4.289   6.325 -1.0452  0.2455  0.1610
 6246SOL     OW30196   3.117   2.201   7.502  0.0035  0.0259 -0.3852
 6246SOL    HW130197   3.086   2.219   7.413  3.0271 -1.0815 -1.6636
 6246SOL    HW230198   3.148   2.289   7.523 -0.0510  0.2559 -1.2383
 6247SOL     OW30199   3.026   0.420   6.369  0.3903 -0.4267 -0.4444
 6247SOL    HW130200   3.001   0.461   6.452  0.6225 -2.3357  0.5799
 6247SOL    HW230201   3.102   0.473   6.344  1.2836 -2.4518 -2.0909
 6248SOL     OW30202   0.246   1.073   0.658  0.5140 -0.5477 -0.8240
 6248SOL    HW130203   0.261   1.112   0.572  1.7383  0.3414 -0.2213
 6248SOL    HW230204   0.313   1.005   0.657 -0.1058 -1.1996  2.2174
 6249SOL     OW30205   1.197   2.341   5.280 -0.0716  0.5519 -0.0167
 6249SOL    HW130206   1.169   2.284   5.352 -0.9253  0.0504 -0.7468
 6249SOL    HW230207   1.112   2.370   5.249 -0.0499 -1.3625 -1.9355
 6250SOL     OW30208   2.136   2.555   2.366  0.5357  0.4439  0.6332
 6250SOL    HW130209   2.135   2.615   2.291  3.1365  0.1658  0.3830
 6250SOL    HW230210   2.214   2.502   2.351 -1.1203 -1.7389 -0.2801
 6251SOL     OW30211   4.502   4.110   6.163  0.6815  0.5294 -0.3789
 6251SOL    HW130212   4.446   4.180   6.197 -0.0054  0.3034 -1.0290
 6251SOL    HW230213   4.495   4.125   6.068  1.4207  0.9313 -0.3658
 6252SOL     OW30214   1.680   4.246   5.240 -0.0381 -0.0397 -0.1432
 6252SOL    HW130215   1.620   4.203   5.301  0.3164 -1.5383 -0.8431
 6252SOL    HW230216   1.658   4.216   5.152 -2.3228 -1.8003  1.0258
 6253SOL     OW30217   3.715   1.159   4.716 -0.1836 -0.3583 -1.0900
 6253SOL    HW130218   3.703   1.242   4.763  1.4985 -1.2481  0.8644
 6253SOL    HW230219   3.801   1.179   4.679  0.1035  0.8839  0.2455
 6254SOL     OW30220   4.666   0.482   3.643  0.0575  0.3513 -0.8733
 6254SOL    HW130221   4.578   0.475   3.608  0.2050  0.0764 -1.1868
 6254SOL    HW230222   0.004   0.421   3.601  0.3940  0.3893 -0.4499
 6255SOL     OW30223   3.265   0.059  12.501 -0.3798 -0.2446 -0.1268
 6255SOL    HW130224   3.298   0.132  12.448  1.1888 -0.9324 -0.0909
 6255SOL    HW230225   3.303   0.086  12.584 -0.7382 -2.0169  0.6114
 6256SOL     OW30226   3.132   3.900   1.949 -0.0736 -0.0870  0.1745
 6256SOL    HW130227   3.130   3.990   1.916 -1.0370 -1.5110 -3.7170
 6256SOL    HW230228   3.208   3.859   1.907 -0.4418 -1.6321  1.0095
 6257SOL     OW30229   1.207   3.342   5.727  0.9245 -0.3020 -0.0390
 6257SOL    HW130230   1.264   3.266   5.720  0.1098 -0.9797  0.7299
 6257SOL    HW230231   1.152   3.304   5.796  1.5872 -2.5051 -0.7274
 6258SOL     OW30232   3.907   1.175  12.314  0.0050 -0.4680  0.0030
 6258SOL    HW130233   3.916   1.189  12.219 -1.1016 -2.4036 -0.3867
 6258SOL    HW230234   3.844   1.240  12.346  0.4944 -0.1645  0.3633
 6259SOL     OW30235   0.743   1.867   2.763 -0.1246 -0.5701 -0.4341
 6259SOL    HW130236   0.752   1.947   2.711 -2.4815  1.3716  2.1336
 6259SOL    HW230237   0.832   1.832   2.757 -0.0253  0.0574 -2.8318
 6260SOL     OW30238   4.654   0.667  14.128  0.5662 -0.2464  0.2622
 6260SOL    HW130239   4.684   0.756  14.145  0.3524 -0.0815 -0.2349
 6260SOL    HW230240   4.627   0.640  14.215 -0.1372  1.7112  0.6361
 6261SOL     OW30241   1.995   3.244   2.055  0.5158 -0.1634 -0.0648
 6261SOL    HW130242   1.903   3.222   2.069 -0.5194  2.4118 -2.7646
 6261SOL    HW230243   2.021   3.168   2.003 -2.2755 -0.4394 -1.0582
 6262SOL     OW30244   1.186   0.854   3.938 -0.2192 -0.0733 -0.2224
 6262SOL    HW130245   1.167   0.841   4.031  0.5130  3.2846  0.4075
 6262SOL    HW230246   1.280   0.839   3.937 -0.4983 -1.8988  0.2194
 6263SOL     OW30247   3.804   4.407   8.157 -0.1169 -0.1116 -0.1882
 6263SOL    HW130248   3.828   4.466   8.228 -3.5243 -0.3440  1.1896
 6263SOL    HW230249   3.709   4.398   8.162 -0.2885  2.9238  2.2825
 6264SOL     OW30250   1.818   1.766   6.147  0.1548 -0.2371 -0.5762
 6264SOL    HW130251   1.795   1.823   6.221  0.0171 -1.6773  0.4970
 6264SOL    HW230252   1.763   1.695   6.183 -2.2199  1.4093 -0.9559
 6265SOL     OW30253   4.440   0.105  12.030  0.2042  0.5042 -0.0307
 6265SOL    HW130254   4.356   0.058  12.033  0.0576  0.7359 -0.6049
 6265SOL    HW230255   4.409   0.193  12.009  3.1723  2.1505  2.4116
 6266SOL     OW30256   1.077   3.864   4.179 -0.5289  0.5303  0.8251
 6266SOL    HW130257   0.990   3.850   4.140 -0.0968  2.9695 -0.9962
 6266SOL    HW230258   1.132   3.790   4.157 -0.6907  1.2581 -1.9701
 6267SOL     OW30259   2.887   4.280   9.324  0.0043 -0.3162  0.1377
 6267SOL    HW130260   2.973   4.243   9.306  0.4434  1.5896 -1.6938
 6267SOL    HW230261   2.906   4.372   9.307 -0.4926 -0.0838  0.8016
 6268SOL     OW30262   0.653   2.955   1.840 -0.2296  0.0220 -0.4078
 6268SOL    HW130263   0.673   2.869   1.803  2.4119 -0.0392  1.1651
 6268SOL    HW230264   0.696   2.949   1.925  0.6617  0.9936 -0.7859
 6269SOL     OW30265   0.080   1.712  13.948 -0.4134  0.0307  0.1945
 6269SOL    HW130266   0.156   1.675  13.903 -0.5808 -0.6314  0.4538
 6269SOL    HW230267   0.059   1.791  13.898  0.7583  0.9805  1.2170
 6270SOL     OW30268   0.757   2.847   3.170  0.3955 -0.1651  0.3692
 6270SOL    HW130269   0.827   2.904   3.138 -0.1983 -0.6171 -1.7192
 6270SOL    HW230270   0.774   2.845   3.264  2.2675 -2.6406 -0.0145
 6271SOL     OW30271   1.268   4.094   6.590 -0.5707 -0.3118  0.0997
 6271SOL    HW130272   1.259   4.036   6.515  0.1831  0.9020 -0.9131
 6271SOL    HW230273   1.179   4.129   6.601 -0.0590  0.6502  1.1726
 6272SOL     OW30274   0.425   3.993   2.778 -0.6736 -0.3322 -0.4656
 6272SOL    HW130275   0.474   3.919   2.814 -0.8341  0.2854  1.0005
 6272SOL    HW230276   0.473   4.008   2.697  1.1510 -2.6395  0.1806
 6273SOL     OW30277   2.021   4.254  13.778  0.1136  0.6474  0.0421
 6273SOL    HW130278   1.972   4.172  13.771  1.2801 -0.1877  1.7935
 6273SOL    HW230279   2.028   4.278  13.685 -1.8285 -1.3449 -0.5976
 6274SOL     OW30280   3.781   3.735   7.749 -0.1898 -0.4940  0.7387
 6274SOL    HW130281   3.811   3.824   7.732 -0.2157 -0.3886  1.2484
 6274SOL    HW230282   3.832   3.705   7.825  1.3837 -0.0742 -0.1452
 6275SOL     OW30283   0.886   3.393   7.398  0.1297  0.1901  0.2179
 6275SOL    HW130284   0.822   3.368   7.464 -1.2736  1.1179 -0.7901
 6275SOL    HW230285   0.955   3.328   7.409  0.1686  0.1684 -0.1589
 6276SOL     OW30286   2.965   2.933   0.477  0.2540 -0.0065  0.2200
 6276SOL    HW130287   2.976   2.972   0.563  1.6741 -0.8263  0.4113
 6276SOL    HW230288   3.012   2.851   0.492  1.1622  0.5758  0.4980
 6277SOL     OW30289   0.229   0.581   2.343 -0.0768 -0.6040  0.0478
 6277SOL    HW130290   0.227   0.646   2.273  0.1103  0.4288  0.9912
 6277SOL    HW230291   0.192   0.633   2.414  1.2759 -1.1042  1.1107
 6278SOL     OW30292   4.143   4.675   5.957  0.1488 -0.4619  0.0292
 6278SOL    HW130293   4.094   4.612   6.010 -0.3156  0.7566  1.0481
 6278SOL    HW230294   4.083   0.027   5.963  0.5317 -0.1908  0.4355
 6279SOL     OW30295   0.537   4.362  15.846 -0.2775  0.3645 -0.2348
 6279SOL    HW130296   0.618   4.397  15.811 -0.0873 -0.6173 -0.7769
 6279SOL    HW230297   0.473   4.395  15.783 -0.0049 -0.9838 -1.2346
 6280SOL     OW30298   3.382   1.126   5.360  1.0969  0.1570  0.2953
 6280SOL    HW130299   3.330   1.047   5.376  0.0916  0.3476 -1.9647
 6280SOL    HW230300   3.451   1.084   5.308 -0.8076 -1.2063 -1.1475
 6281SOL     OW30301   2.254   1.142  11.765  0.2325  0.2269 -0.1812
 6281SOL    HW130302   2.335   1.183  11.795 -0.4677  2.1181 -0.8735
 6281SOL    HW230303   2.257   1.057  11.808  1.8144 -0.9786 -2.6903
 6282SOL     OW30304   4.243   1.318  11.798  0.8195 -0.4100 -0.0538
 6282SOL    HW130305   4.186   1.349  11.869  0.6514 -0.1875 -0.2865
 6282SOL    HW230306   4.226   1.225  11.784  0.2018 -0.5993  1.9342
 6283SOL     OW30307   1.239   2.514   2.918  0.1593  0.0927  0.1556
 6283SOL    HW130308   1.200   2.507   2.831  1.3461 -0.4039 -0.3371
 6283SOL    HW230309   1.323   2.557   2.906  0.6856 -0.8533  0.4610
 6284SOL     OW30310   1.893   3.080   3.738 -0.1824  0.0137  0.3147
 6284SOL    HW130311   1.917   3.080   3.830  3.1933 -0.0590 -0.5605
 6284SOL    HW230312   1.805   3.117   3.731  0.5384  2.0230  1.8786
 6285SOL     OW30313   3.374   2.972  12.435  0.5928  0.2208  0.1667
 6285SOL    HW130314   3.395   2.960  12.343 -1.8202 -1.5093 -0.1644
 6285SOL    HW230315   3.280   2.954  12.440  1.0502 -1.4266  2.6086
 6286SOL     OW30316   0.655   3.456  17.601  0.3456 -0.0041 -0.3437
 6286SOL    HW130317   0.613   3.398  17.538 -0.5150  2.2345 -1.8675
 6286SOL    HW230318   0.668   3.536  17.549  0.2049 -0.7779 -1.5629
 6287SOL     OW30319   2.044   4.628   5.735  0.0346 -0.9884  0.4138
 6287SOL    HW130320   2.043   4.549   5.680  0.8040 -1.3835  0.9673
 6287SOL    HW230321   2.091   4.600   5.813 -1.8547 -1.0302  1.5382
 6288SOL     OW30322   0.765   2.687  10.496 -1.3909 -0.4750 -0.1563
 6288SOL    HW130323   0.813   2.766  10.472 -1.0886  0.1576  2.5556
 6288SOL    HW230324   0.743   2.697  10.588  0.7921 -1.8008  0.5222
 6289SOL     OW30325   1.661   1.615   9.459  0.3771 -0.1322  0.0887
 6289SOL    HW130326   1.743   1.628   9.507 -0.1794  0.2285  0.9529
 6289SOL    HW230327   1.680   1.540   9.403 -0.2843  0.9981 -1.6524
 6290SOL     OW30328   2.497   1.210   3.622  0.5387 -0.1608  0.1322
 6290SOL    HW130329   2.528   1.119   3.623 -1.1781 -0.7639 -1.2024
 6290SOL    HW230330   2.463   1.213   3.712 -0.9237 -0.4030 -0.4168
 6291SOL     OW30331   1.256   1.945   4.653 -0.2428 -0.1143 -0.1679
 6291SOL    HW130332   1.252   1.867   4.709  0.9002  0.2212  0.3797
 6291SOL    HW230333   1.237   2.006   4.724  1.4678  0.4142 -0.1629
 6292SOL     OW30334   2.762   4.483   3.075  0.2117  0.2908 -0.0962
 6292SOL    HW130335   2.776   4.464   3.168 -1.1868  0.4305  0.1405
 6292SOL    HW230336   2.777   4.394   3.043  1.5050 -0.0209  1.3389
 6293SOL     OW30337   3.456   0.567  13.062  0.2255  0.2132  0.3490
 6293SOL    HW130338   3.464   0.648  13.012 -0.1759 -0.3616 -0.6533
 6293SOL    HW230339   3.364   0.577  13.086  0.2257 -2.9235  1.7700
 6294SOL     OW30340   2.100   3.269   2.914 -0.5804 -0.0348  0.2554
 6294SOL    HW130341   2.096   3.332   2.987 -0.2745  1.6734 -1.1995
 6294SOL    HW230342   2.087   3.329   2.841 -1.8542  0.2327  0.7028
 6295SOL     OW30343   4.095   2.353  17.141 -0.0251  0.6493  0.0731
 6295SOL    HW130344   4.053   2.432  17.175  0.8380  0.9112  0.5318
 6295SOL    HW230345   4.115   2.373  17.050 -0.2017  0.6330  0.0326
 6296SOL     OW30346   0.383   2.295   2.186  0.2971 -0.1299  0.4210
 6296SOL    HW130347   0.378   2.382   2.146 -1.1633 -0.6574 -0.5490
 6296SOL    HW230348   0.330   2.250   2.120  1.2685 -0.6275 -0.0250
 6297SOL     OW30349   0.023   2.545   2.872  0.1522 -0.3711 -0.2636
 6297SOL    HW130350   4.690   2.605   2.822 -0.2715 -1.0131 -0.5528
 6297SOL    HW230351   0.077   2.498   2.809 -1.1479  3.9689 -4.6465
 6298SOL     OW30352   3.672   1.138   1.738  0.5624 -0.0724 -0.5182
 6298SOL    HW130353   3.689   1.211   1.679  1.7062  0.9814  1.1229
 6298SOL    HW230354   3.578   1.147   1.749  0.1589 -1.7205 -2.4903
 6299SOL     OW30355   2.806   0.667   3.040  0.1241 -0.6833 -0.3446
 6299SOL    HW130356   2.899   0.664   3.020  0.0046 -0.9533 -0.8688
 6299SOL    HW230357   2.799   0.726   3.115 -0.1013  0.2607 -1.1013
 6300SOL     OW30358   1.501   2.507  13.274  0.4448  0.0545 -0.3857
 6300SOL    HW130359   1.469   2.432  13.324  0.4755  0.6695  0.5407
 6300SOL    HW230360   1.580   2.531  13.322  0.2620 -1.8432  0.8668
 6301SOL     OW30361   3.042   4.509   5.392 -0.0062  0.0325 -0.4363
 6301SOL    HW130362   2.970   4.502   5.455 -0.7210 -1.3169 -1.3950
 6301SOL    HW230363   3.070   4.595   5.422 -0.4850 -0.1758  0.6122
 6302SOL     OW30364   4.681   1.241   6.282  0.2458 -0.7040  0.0571
 6302SOL    HW130365   4.614   1.241   6.213  0.5479  0.5280 -0.2480
 6302SOL    HW230366   4.679   1.336   6.294  0.0830 -0.4312 -2.0237
 6303SOL     OW30367   0.998   3.814  10.771 -0.2570 -0.0464  0.0704
 6303SOL    HW130368   0.987   3.843  10.680 -1.5275 -1.6529 -0.2799
 6303SOL    HW230369   0.947   3.733  10.767 -0.4982  0.2251 -2.2203
 6304SOL     OW30370   3.978   1.235   4.623  0.0628  0.2156 -0.3843
 6304SOL    HW130371   4.041   1.294   4.583  1.4953 -0.2550  1.1832
 6304SOL    HW230372   3.957   1.175   4.551  2.2336 -0.7274 -0.2188
 6305SOL     OW30373   4.664   1.729   5.396  0.4574 -0.2116  0.0602
 6305SOL    HW130374   4.607   1.806   5.395 -0.8804 -1.2038 -0.4878
 6305SOL    HW230375   4.694   1.714   5.306 -3.4274 -0.7648 -1.1612
 6306SOL     OW30376   2.430   0.979   7.595 -0.1851 -0.0375 -0.1343
 6306SOL    HW130377   2.391   0.914   7.653 -0.8582  1.2979  0.9160
 6306SOL    HW230378   2.442   0.921   7.520 -1.4969 -0.0924 -0.2872
 6307SOL     OW30379   0.332   3.649   9.492  0.3793 -0.1387 -0.9067
 6307SOL    HW130380   0.349   3.618   9.581  0.3593  0.8844 -0.5424
 6307SOL    HW230381   0.370   3.736   9.480  0.2212  0.3965  2.4277
 6308SOL     OW30382   2.733   0.529   6.135 -0.0125 -0.2356  0.2149
 6308SOL    HW130383   2.720   0.501   6.044 -1.4379 -0.4833  0.4872
 6308SOL    HW230384   2.744   0.449   6.186  0.2677 -1.2913 -1.4965
 6309SOL     OW30385   4.573   0.359   0.587 -0.3630  0.1804 -0.0329
 6309SOL    HW130386   4.494   0.365   0.533 -0.0086  0.3697 -0.5281
 6309SOL    HW230387   4.611   0.446   0.593 -2.2759  1.0016  0.0176
 6310SOL     OW30388   4.235   3.746   1.477 -0.3178  0.2272 -0.0433
 6310SOL    HW130389   4.238   3.841   1.484 -2.2335  0.2664  0.1819
 6310SOL    HW230390   4.188   3.743   1.394 -0.2550 -1.8734 -0.0014
 6311SOL     OW30391   1.042   0.634   1.905  0.0655  0.4387  0.4155
 6311SOL    HW130392   1.004   0.697   1.967 -1.7717 -0.7865  0.5420
 6311SOL    HW230393   0.974   0.567   1.914  0.3896  0.3387  2.0317
 6312SOL     OW30394   0.233   4.241   2.589 -0.3396 -0.2381  0.1699
 6312SOL    HW130395   0.316   4.285   2.605  0.4890 -1.2430 -1.3128
 6312SOL    HW230396   0.194   4.312   2.537 -0.9948 -0.6414  0.1066
 6313SOL     OW30397   2.419   1.626   5.541  0.2378 -0.7022 -0.4026
 6313SOL    HW130398   2.413   1.626   5.446 -0.3471 -0.8451 -0.3621
 6313SOL    HW230399   2.510   1.649   5.560  0.7909 -2.7887 -0.5223
 6314SOL     OW30400   4.394   3.639   6.084 -0.8819 -0.0804 -0.2584
 6314SOL    HW130401   4.425   3.656   5.995 -1.1277 -0.1402 -0.3534
 6314SOL    HW230402   4.461   3.690   6.129 -2.6672  1.2769  0.8268
 6315SOL     OW30403   1.472   0.646   3.454  0.0611  0.1490 -0.0991
 6315SOL    HW130404   1.502   0.732   3.425  1.1746 -0.3469 -0.4122
 6315SOL    HW230405   1.389   0.645   3.407  0.0943  0.4682 -0.1666
 6316SOL     OW30406   4.373   2.539   7.785  0.0363  0.0820 -0.4268
 6316SOL    HW130407   4.458   2.581   7.787 -0.3175  0.7616  0.3398
 6316SOL    HW230408   4.372   2.501   7.873 -0.5902 -0.2983 -0.5929
 6317SOL     OW30409   0.219   1.651   8.361 -0.5472  0.2057  0.0338
 6317SOL    HW130410   0.241   1.573   8.412 -2.2166 -1.1009 -1.2983
 6317SOL    HW230411   0.293   1.702   8.394 -0.8604 -0.4584  1.7874
 6318SOL     OW30412   4.672   1.649   0.952  0.0941 -0.4810 -0.4325
 6318SOL    HW130413   4.682   1.644   1.047 -3.7632 -1.7582 -0.1202
 6318SOL    HW230414   4.680   1.555   0.933  1.4541  0.0055 -2.3363
 6319SOL     OW30415   0.787   0.915  12.277 -0.0351 -0.8007  0.6007
 6319SOL    HW130416   0.793   0.831  12.322  0.1680  0.4305  2.8573
 6319SOL    HW230417   0.783   0.977  12.350  2.5659 -0.7999  0.7475
 6320SOL     OW30418   0.653   3.667  13.860  0.1711 -0.2040 -0.4931
 6320SOL    HW130419   0.686   3.579  13.879 -0.4431 -0.1193  1.0220
 6320SOL    HW230420   0.591   3.666  13.934  2.0403  1.4899  1.0895
 6321SOL     OW30421   1.534   1.205   7.255 -0.1764 -0.2547  1.3587
 6321SOL    HW130422   1.531   1.300   7.266 -3.6199 -0.0434 -1.3176
 6321SOL    HW230423   1.499   1.194   7.167  0.4983 -2.7112  1.3834
 6322SOL     OW30424   3.072   2.934   6.056  0.2810 -0.0759 -0.0261
 6322SOL    HW130425   3.080   2.905   6.147 -0.7927 -1.6401 -0.4393
 6322SOL    HW230426   3.154   2.981   6.038  0.4419 -0.3708 -0.0540
 6323SOL     OW30427   4.022   0.072   7.650 -0.2170 -0.0863  0.0161
 6323SOL    HW130428   3.968   0.034   7.719 -0.9139 -1.8413 -1.4801
 6323SOL    HW230429   4.064   0.150   7.685 -1.3741 -0.1977  1.6540
 6324SOL     OW30430   0.068   0.410   7.620 -0.0003 -0.4053  0.3105
 6324SOL    HW130431   0.093   0.320   7.600 -0.6615 -1.0429  2.4281
 6324SOL    HW230432   0.143   0.442   7.670 -0.8663  3.5229 -0.8793
 6325SOL     OW30433   3.274   3.901   8.463  0.1295 -0.3173  0.0972
 6325SOL    HW130434   3.208   3.842   8.499 -0.4655 -0.8267 -1.8333
 6325SOL    HW230435   3.254   3.895   8.369  2.1527  0.8441 -0.4245
 6326SOL     OW30436   4.605   1.250   4.997  0.4676 -0.8224 -0.0072
 6326SOL    HW130437   4.548   1.213   4.929  0.9630  0.3643 -1.0578
 6326SOL    HW230438   4.679   1.275   4.943 -1.8988  0.6631 -2.5598
 6327SOL     OW30439   3.900   0.076   9.926  0.3205 -0.2080  0.2488
 6327SOL    HW130440   3.987   0.112   9.908  0.4348 -0.7365 -0.2933
 6327SOL    HW230441   3.861   0.051   9.841  0.3054 -1.2969  0.5676
 6328SOL     OW30442   1.253   2.779   8.476 -0.4781  0.1185  0.1971
 6328SOL    HW130443   1.343   2.745   8.477 -0.9582 -1.1420  0.1143
 6328SOL    HW230444   1.266   2.866   8.438 -0.0272  0.2815  0.7218
 6329SOL     OW30445   2.158   3.728   6.175 -0.2082  0.5764  0.0285
 6329SOL    HW130446   2.093   3.708   6.242 -0.2807  0.4769 -0.0721
 6329SOL    HW230447   2.114   3.690   6.099 -0.0365 -0.5861  0.5183
 6330SOL     OW30448   3.430   0.973   4.945  0.0726  0.0083 -0.3069
 6330SOL    HW130449   3.413   1.064   4.918  0.3248  0.4320  0.9290
 6330SOL    HW230450   3.362   0.937   4.888 -0.2386  0.0263  0.0458
 6331SOL     OW30451   1.469   0.789   2.913 -0.0077  0.7677  0.5487
 6331SOL    HW130452   1.480   0.836   2.830  0.0324 -0.4867 -0.1524
 6331SOL    HW230453   1.393   0.832   2.953 -0.9110  1.0648 -1.4788
 6332SOL     OW30454   1.693   4.286   4.314  0.2457  0.0060 -0.0356
 6332SOL    HW130455   1.723   4.366   4.357 -0.1821 -0.0397  0.3441
 6332SOL    HW230456   1.607   4.307   4.279 -0.1582 -1.0690  0.3045
 6333SOL     OW30457   2.318   0.013   6.225 -0.2312  0.3807  0.0208
 6333SOL    HW130458   2.373   4.670   6.181 -1.7357 -0.2145 -0.9728
 6333SOL    HW230459   2.276   4.696   6.301 -1.5153  0.2114 -0.7762
 6334SOL     OW30460   4.106   3.234   7.262 -0.1612  0.3888  0.3929
 6334SOL    HW130461   4.168   3.162   7.258  2.8023  2.9568  0.6076
 6334SOL    HW230462   4.055   3.197   7.190 -1.4279 -0.5637  1.7869
 6335SOL     OW30463   3.997   2.536   3.662 -0.1886 -0.0916  0.1802
 6335SOL    HW130464   4.058   2.485   3.715 -3.1858 -0.3546  3.3630
 6335SOL    HW230465   3.923   2.563   3.717 -1.1916 -1.3957 -0.5322
 6336SOL     OW30466   0.214   0.344   8.606  0.4706  0.0576 -0.0696
 6336SOL    HW130467   0.221   0.266   8.551 -0.6653  0.4583 -0.7730
 6336SOL    HW230468   0.137   0.319   8.656  2.3127  0.0547  2.7876
 6337SOL     OW30469   3.616   4.513  16.725  0.2952  0.4853 -0.0230
 6337SOL    HW130470   3.687   4.538  16.666 -1.7245  0.5561 -2.4330
 6337SOL    HW230471   3.553   4.475  16.664  1.7390  0.1761 -1.3135
 6338SOL     OW30472   3.048   2.536   5.569  0.3231 -0.0784  0.3086
 6338SOL    HW130473   3.054   2.579   5.483 -1.0016  0.0290  0.2705
 6338SOL    HW230474   2.973   2.577   5.610 -0.0373  1.3957 -1.7876
 6339SOL     OW30475   4.638   1.529   6.119  0.0081 -0.4464 -0.4478
 6339SOL    HW130476   4.565   1.468   6.106  1.2551 -1.8131 -0.9761
 6339SOL    HW230477   4.625   1.589   6.045  0.6494 -0.6740 -0.7458
 6340SOL     OW30478   0.366   1.624   2.608  0.2860 -0.3925  0.0187
 6340SOL    HW130479   0.443   1.592   2.657  0.8256  0.8077 -0.0517
 6340SOL    HW230480   0.355   1.562   2.536  2.0338  0.1868 -0.7633
 6341SOL     OW30481   3.514   0.187   4.804 -0.4329 -0.4805  0.4558
 6341SOL    HW130482   3.547   0.120   4.744  2.8464  0.1047  1.5871
 6341SOL    HW230483   3.451   0.137   4.856  2.7597 -4.3686  0.5907
 6342SOL     OW30484   3.587   0.759   4.254  0.1463 -0.0724  0.2576
 6342SOL    HW130485   3.502   0.721   4.277  0.6247 -2.1301 -1.3822
 6342SOL    HW230486   3.553   0.827   4.195  0.7413  0.0295  0.0363
 6343SOL     OW30487   1.570   1.000   4.244 -0.3988  0.0500  0.3967
 6343SOL    HW130488   1.496   1.034   4.194 -1.3596 -2.3109  0.2183
 6343SOL    HW230489   1.536   1.028   4.328  0.0496  0.1445  0.5433
 6344SOL     OW30490   3.521   4.084   8.014  0.0827 -0.2212  0.3244
 6344SOL    HW130491   3.557   4.171   7.998  2.0219 -0.5868  2.7182
 6344SOL    HW230492   3.451   4.076   7.949 -1.7752 -1.4327  2.4912
 6345SOL     OW30493   2.097   4.240  15.268 -0.1834 -0.0481 -0.3405
 6345SOL    HW130494   2.026   4.282  15.218 -1.5118 -0.7284  0.9644
 6345SOL    HW230495   2.169   4.255  15.207  0.0240 -0.9136 -0.3015
 6346SOL     OW30496   3.849   4.451   7.358 -0.4813 -0.3507  0.0319
 6346SOL    HW130497   3.889   4.378   7.407 -1.2611 -1.2885 -0.7408
 6346SOL    HW230498   3.923   4.511   7.371  0.6153 -1.5120 -0.8167
 6347SOL     OW30499   3.258   2.381  17.473 -0.7354 -0.0248  0.2627
 6347SOL    HW130500   3.173   2.345  17.447 -1.2724  1.6311 -0.2368
 6347SOL    HW230501   3.245   2.378  17.568 -1.6061  3.1812  0.2287
 6348SOL     OW30502   0.933   3.643   9.616 -0.0841 -0.3875 -0.0954
 6348SOL    HW130503   0.849   3.671   9.651 -0.0908 -0.3854 -0.1129
 6348SOL    HW230504   0.902   3.628   9.526  0.4608 -1.6876 -0.0584
 6349SOL     OW30505   3.760   1.718   0.026 -0.1164 -0.4940 -0.1046
 6349SOL    HW130506   3.702   1.642   0.035 -2.2027  1.1193  0.1920
 6349SOL    HW230507   3.799   1.699   0.111  0.3027  0.5180 -0.0815
 6350SOL     OW30508   3.007   0.697   4.291 -0.5980  0.4935  0.1717
 6350SOL    HW130509   3.100   0.716   4.305  0.1574 -3.3577  0.2299
 6350SOL    HW230510   3.028   0.627   4.229 -0.2374 -1.3245  2.3494
 6351SOL     OW30511   4.122   4.117   0.094  0.2246 -0.2211 -0.3229
 6351SOL    HW130512   4.136   4.022   0.093 -0.5686 -0.3515  0.4103
 6351SOL    HW230513   4.204   4.144   0.134  0.5575  2.9487 -3.1280
 6352SOL     OW30514   2.188   2.485   6.539  0.2391  0.4394  0.5225
 6352SOL    HW130515   2.207   2.553   6.604  0.2169  1.7684 -0.8639
 6352SOL    HW230516   2.180   2.408   6.595 -0.1758  0.4566  0.4933
 6353SOL     OW30517   1.187   1.848   5.455 -0.3141 -0.1681  0.4775
 6353SOL    HW130518   1.257   1.821   5.514  1.1993 -0.7929 -1.5920
 6353SOL    HW230519   1.201   1.942   5.449 -0.2826 -0.1144  1.3332
 6354SOL     OW30520   4.548   3.463   1.416 -0.1388 -0.5889 -0.7646
 6354SOL    HW130521   4.458   3.484   1.443  0.2556  1.3570 -0.9318
 6354SOL    HW230522   4.531   3.423   1.331  1.8565 -1.7716 -0.5977
 6355SOL     OW30523   1.422   4.135   3.556 -0.3449  0.0459 -0.0646
 6355SOL    HW130524   1.495   4.164   3.610 -0.0838  1.8588 -1.4233
 6355SOL    HW230525   1.401   4.211   3.503 -0.4919 -1.0533 -1.6024
 6356SOL     OW30526   3.773   0.286  16.211  0.1994 -0.1420 -0.2837
 6356SOL    HW130527   3.826   0.257  16.285 -0.9115 -0.9166  0.2175
 6356SOL    HW230528   3.837   0.350  16.179 -1.0393  1.0054 -0.4658
 6357SOL     OW30529   2.372   2.154   4.393 -0.3057  0.1189 -0.5682
 6357SOL    HW130530   2.425   2.074   4.394 -0.4505  0.0149 -1.4495
 6357SOL    HW230531   2.421   2.224   4.350  3.8551 -2.6581 -0.3016
 6358SOL     OW30532   0.713   3.629   5.079 -0.2054 -0.3961  0.3101
 6358SOL    HW130533   0.773   3.609   5.150  2.1374  2.3018 -0.9054
 6358SOL    HW230534   0.745   3.582   5.002 -0.1635 -1.4937  0.9923
 6359SOL     OW30535   2.186   3.083  15.422  0.6073  0.1151 -0.0857
 6359SOL    HW130536   2.102   3.070  15.378 -0.1318  1.7804  0.8430
 6359SOL    HW230537   2.203   3.001  15.468  0.2653  0.4009  0.5519
 6360SOL     OW30538   2.042   0.169   3.194  0.1090 -0.0622  0.0048
 6360SOL    HW130539   2.065   0.111   3.122 -1.5185 -0.2324 -0.3711
 6360SOL    HW230540   2.066   0.256   3.161 -1.5046  0.6091  0.5832
 6361SOL     OW30541   1.132   1.261   6.816 -0.1091 -0.0134  0.0793
 6361SOL    HW130542   1.118   1.347   6.857  1.7685 -0.6905  2.1192
 6361SOL    HW230543   1.224   1.274   6.796 -0.1667  0.2048 -0.0436
 6362SOL     OW30544   0.477   3.432   8.946  0.2062 -0.0831  0.2317
 6362SOL    HW130545   0.455   3.345   8.977 -1.5957 -0.0909 -1.0281
 6362SOL    HW230546   0.405   3.493   8.967  0.9169  0.6004  0.6961
 6363SOL     OW30547   2.821   1.398  17.462 -0.6505 -0.6676 -0.1847
 6363SOL    HW130548   2.844   1.357  17.378  1.1462  1.5763 -0.7888
 6363SOL    HW230549   2.906   1.427  17.494 -0.5699  0.1663 -1.1688
 6364SOL     OW30550   2.797   2.524  16.527  0.2994  0.1811  0.2662
 6364SOL    HW130551   2.885   2.558  16.544  1.1656 -0.2850 -3.3025
 6364SOL    HW230552   2.796   2.438  16.568  0.8863 -0.1567 -0.4407
 6365SOL     OW30553   3.788   4.083  16.799  0.0381 -0.2239  0.0911
 6365SOL    HW130554   3.734   4.007  16.822 -1.9692  0.8166 -1.1973
 6365SOL    HW230555   3.754   4.154  16.853  1.0754  0.4236 -0.1073
 6366SOL     OW30556   0.048   1.502   1.172  0.0565  0.1718 -0.4214
 6366SOL    HW130557   0.006   1.416   1.182 -0.2658  0.3539 -0.2083
 6366SOL    HW230558   0.006   1.552   1.242  1.8803  1.1312 -0.0098
 6367SOL     OW30559   4.656   1.434   1.507 -0.8627  0.1464  0.7457
 6367SOL    HW130560   4.627   1.466   1.593  1.3725 -0.1067  1.5869
 6367SOL    HW230561   4.665   1.514   1.454  0.3319 -1.2827 -1.1904
 6368SOL     OW30562   3.577   3.643   2.617 -0.0059  0.3550  0.1404
 6368SOL    HW130563   3.549   3.612   2.703 -0.2853  0.1112 -0.0389
 6368SOL    HW230564   3.623   3.724   2.639  0.7861  1.0278 -3.9801
 6369SOL     OW30565   4.310   0.942   0.767 -0.0278 -0.1247  0.0524
 6369SOL    HW130566   4.369   1.005   0.808 -2.7554  1.7820  1.0418
 6369SOL    HW230567   4.323   0.964   0.675  0.9396  2.5558  0.8183
 6370SOL     OW30568   2.936   0.835  14.174 -0.0485 -0.4404  0.3665
 6370SOL    HW130569   2.981   0.762  14.131 -1.4995  0.4966 -2.7397
 6370SOL    HW230570   3.009   0.894  14.193 -1.6400  0.6651  3.0562
 6371SOL     OW30571   3.216   4.635   5.143  0.1145  0.2719 -0.1108
 6371SOL    HW130572   3.178   4.547   5.144  1.4139 -0.2904 -0.4967
 6371SOL    HW230573   3.243   4.633   5.235  0.4437  0.5753 -0.2018
 6372SOL     OW30574   3.882   2.443   2.040 -0.2096 -0.1330 -0.0036
 6372SOL    HW130575   3.868   2.449   2.134 -1.8067 -2.4222 -0.0802
 6372SOL    HW230576   3.975   2.421   2.030  0.3268  1.3766  1.6791
 6373SOL     OW30577   0.783   4.695   3.726 -0.5000 -0.1468  0.0296
 6373SOL    HW130578   0.779   4.706   3.631  3.3250 -0.2581 -0.1227
 6373SOL    HW230579   0.707   0.019   3.760  1.0251  1.0092  1.8347
 6374SOL     OW30580   0.276   1.192   6.905  0.7225  0.1656  0.1022
 6374SOL    HW130581   0.206   1.174   6.842  0.2768 -0.6672  0.8279
 6374SOL    HW230582   0.333   1.254   6.861  2.4248 -2.2627 -1.0394
 6375SOL     OW30583   2.944   3.659   7.231 -1.0073  0.1285  0.0845
 6375SOL    HW130584   2.994   3.634   7.309 -0.2362 -1.4403 -0.9108
 6375SOL    HW230585   2.957   3.754   7.233 -2.7420  0.3425  0.5913
 6376SOL     OW30586   2.627   2.199  13.850 -0.3496 -0.1815  0.4460
 6376SOL    HW130587   2.536   2.176  13.831 -0.1128  0.6261 -1.7457
 6376SOL    HW230588   2.650   2.216  13.759 -0.7750 -1.1763  0.1521
 6377SOL     OW30589   2.561   0.278   4.894 -0.2153 -0.4717 -0.1285
 6377SOL    HW130590   2.467   0.274   4.913 -0.4906 -0.1169 -1.4492
 6377SOL    HW230591   2.587   0.187   4.908  0.2714  0.0942  2.8017
 6378SOL     OW30592   0.233   4.244   3.596 -0.2568  0.2656 -0.1814
 6378SOL    HW130593   0.301   4.193   3.553 -2.2936 -1.2102 -1.6774
 6378SOL    HW230594   0.176   4.177   3.635  1.0169 -1.6079 -1.5292
 6379SOL     OW30595   2.658   3.755   8.257 -0.4820 -0.2660 -0.5170
 6379SOL    HW130596   2.722   3.699   8.213 -3.0744 -1.3515 -2.8667
 6379SOL    HW230597   2.684   3.746   8.348 -1.7622  1.8074  0.0498
 6380SOL     OW30598   1.408   2.071   0.182  0.0980 -0.4947  0.0920
 6380SOL    HW130599   1.363   2.018   0.248 -1.5678 -2.0676 -2.3209
 6380SOL    HW230600   1.494   2.061   0.223 -0.6260 -0.0568  1.7319
 6381SOL     OW30601   4.173   1.739   5.911  0.4674  0.1493 -0.1232
 6381SOL    HW130602   4.169   1.828   5.877 -2.3748  0.6869  1.6637
 6381SOL    HW230603   4.083   1.707   5.910  0.8883 -1.0516 -0.2370
 6382SOL     OW30604   3.968   2.497  13.856 -0.3902 -0.1850  0.0712
 6382SOL    HW130605   4.018   2.489  13.938  0.0971  3.7017  0.1373
 6382SOL    HW230606   3.934   2.585  13.866  2.3630  0.9395 -0.4539
 6383SOL     OW30607   2.107   1.682   0.843  0.8232 -0.6372  0.1877
 6383SOL    HW130608   2.088   1.651   0.754  1.8676 -1.7434  0.3314
 6383SOL    HW230609   2.067   1.613   0.896 -0.2351  1.6751  2.3970
 6384SOL     OW30610   2.906   1.657   8.604  0.2274 -0.1026 -0.6511
 6384SOL    HW130611   2.996   1.645   8.576  1.3533  2.4056  1.8649
 6384SOL    HW230612   2.888   1.748   8.581 -1.6608 -0.8373 -2.0935
 6385SOL     OW30613   0.129   2.463   4.960  0.1286  0.0599  0.0160
 6385SOL    HW130614   0.058   2.504   5.009  0.3075  0.2787  0.0944
 6385SOL    HW230615   0.182   2.541   4.944 -0.4615  0.4723  0.0532
 6386SOL     OW30616   0.068   4.700   3.842 -0.3952  0.4806 -0.0004
 6386SOL    HW130617   0.014   4.634   3.884  0.7683  0.4876  1.4984
 6386SOL    HW230618   0.075   0.060   3.890 -1.2698  0.1780  0.6342
 6387SOL     OW30619   4.334   2.221   2.481 -0.1266 -0.7467  0.0785
 6387SOL    HW130620   4.360   2.311   2.501 -2.6318 -0.8251  3.7882
 6387SOL    HW230621   4.301   2.227   2.392 -1.1414  0.4544  0.5359
 6388SOL     OW30622   2.271   1.878   7.767 -0.2023  0.6408 -1.1923
 6388SOL    HW130623   2.282   1.964   7.807 -1.9647  0.2260  0.1445
 6388SOL    HW230624   2.223   1.895   7.686 -0.1542 -1.6376 -1.6908
 6389SOL     OW30625   4.380   0.092   0.534  0.0309 -0.9737 -0.2134
 6389SOL    HW130626   4.367   0.146   0.455 -3.3876 -1.3934  0.0527
 6389SOL    HW230627   4.468   0.111   0.566 -0.1803 -0.2919 -0.0361
 6390SOL     OW30628   4.483   1.587   1.688 -0.9149  0.1232  0.2926
 6390SOL    HW130629   4.453   1.662   1.636  1.5876  0.0992 -1.1898
 6390SOL    HW230630   4.399   1.554   1.718 -0.8237 -0.4730 -0.1208
 6391SOL     OW30631   1.782   1.523   4.469 -0.3670 -0.1269  0.0701
 6391SOL    HW130632   1.863   1.518   4.520  1.5308  2.5461 -2.6772
 6391SOL    HW230633   1.825   1.523   4.383  3.2473  1.3681  1.8898
 6392SOL     OW30634   1.997   1.197   7.669  0.4745 -0.1053 -0.1116
 6392SOL    HW130635   2.033   1.249   7.597  0.0853  1.2199  0.6479
 6392SOL    HW230636   2.038   1.112   7.657 -0.5147 -1.0947  3.4408
 6393SOL     OW30637   1.747   3.123  17.533  0.2042 -0.1406  0.1977
 6393SOL    HW130638   1.669   3.163  17.494  0.2874  0.0461  0.2236
 6393SOL    HW230639   1.812   3.193  17.527  0.0332  0.0748  0.8322
 6394SOL     OW30640   3.268   1.746   3.284 -0.4049  0.8029 -0.4118
 6394SOL    HW130641   3.271   1.771   3.192  0.6228 -1.0939 -0.8980
 6394SOL    HW230642   3.275   1.650   3.280 -0.9621  0.8305 -2.1255
 6395SOL     OW30643   2.454   3.693  14.885 -0.1825  0.3804 -0.1338
 6395SOL    HW130644   2.496   3.761  14.937  0.9755 -0.6030  0.2439
 6395SOL    HW230645   2.372   3.733  14.856 -1.6530 -1.4872  1.4677
 6396SOL     OW30646   1.322   1.516   4.591  0.2341 -0.2302  0.0850
 6396SOL    HW130647   1.323   1.526   4.495 -1.9823 -2.4939 -0.1961
 6396SOL    HW230648   1.315   1.422   4.612 -3.7078 -0.1095 -0.6232
 6397SOL     OW30649   3.270   1.591   8.848 -0.2598 -0.1394  0.5172
 6397SOL    HW130650   3.307   1.657   8.906  2.2138 -0.2198 -0.9702
 6397SOL    HW230651   3.184   1.580   8.889 -1.3170  1.1129 -1.3340
 6398SOL     OW30652   0.107   0.744   2.523  0.1899  0.7999  0.4363
 6398SOL    HW130653   0.072   0.718   2.608  1.2260  0.7657  0.8490
 6398SOL    HW230654   0.161   0.818   2.550  0.6590  0.7492 -0.3623
 6399SOL     OW30655   1.315   1.354   3.929 -0.2091  0.0974  0.5369
 6399SOL    HW130656   1.249   1.423   3.936 -0.3909  0.0092 -0.3365
 6399SOL    HW230657   1.267   1.283   3.885  0.3616  1.9220 -3.0384
 6400SOL     OW30658   2.906   2.744   2.274  0.2267 -0.5623  0.1620
 6400SOL    HW130659   2.904   2.711   2.184  0.6402 -0.1268 -0.0111
 6400SOL    HW230660   2.847   2.692   2.328  0.0223 -0.4089  0.0868
 6401SOL     OW30661   2.971   1.546   2.435 -0.0936 -0.1971 -0.5391
 6401SOL    HW130662   2.956   1.632   2.395  0.5050 -0.8375 -2.1491
 6401SOL    HW230663   2.885   1.526   2.471  0.2344 -0.1904  0.2420
 6402SOL     OW30664   1.818   0.784   3.784 -0.4249  0.4101  0.3178
 6402SOL    HW130665   1.831   0.856   3.723 -0.9735  1.3137  1.2594
 6402SOL    HW230666   1.893   0.732   3.757  0.0922 -0.8013  3.9853
 6403SOL     OW30667   3.963   1.347   0.078  0.7082 -0.6533 -0.9318
 6403SOL    HW130668   3.888   1.303   0.038  0.6219  0.5952 -2.1506
 6403SOL    HW230669   4.003   1.389   0.002  1.9108 -0.8550 -0.4192
 6404SOL     OW30670   1.619   4.041   2.320 -0.3532  0.0654 -0.2437
 6404SOL    HW130671   1.651   4.007   2.236  2.4173  2.6521 -0.2659
 6404SOL    HW230672   1.540   3.989   2.327 -0.5289  0.5751  1.5016
 6405SOL     OW30673   4.244   3.271   8.209  0.2556  0.6864  0.0796
 6405SOL    HW130674   4.253   3.321   8.128  0.4575  2.2964  1.0971
 6405SOL    HW230675   4.154   3.289   8.235  1.3712  2.9553  2.3364
 6406SOL     OW30676   3.246   2.323   4.072 -0.1517 -0.3432  0.1347
 6406SOL    HW130677   3.210   2.411   4.078  0.2551 -0.0878 -1.3686
 6406SOL    HW230678   3.246   2.295   3.981  1.5119 -0.4865  0.1853
 6407SOL     OW30679   0.207   3.960  12.910 -0.0063  0.1630  0.3851
 6407SOL    HW130680   0.165   3.988  12.829  2.9307 -2.0407 -1.8754
 6407SOL    HW230681   0.129   3.951  12.964 -0.2384 -0.7308 -0.1078
 6408SOL     OW30682   3.656   3.524   1.194  0.0341 -0.0499  0.2882
 6408SOL    HW130683   3.671   3.459   1.126  0.5617  0.8802 -0.4789
 6408SOL    HW230684   3.622   3.601   1.148 -0.9395  2.0139  4.3506
 6409SOL     OW30685   0.150   0.622   8.025 -0.1278 -0.0371  0.4493
 6409SOL    HW130686   0.223   0.563   8.008  0.1530  0.0155  1.4738
 6409SOL    HW230687   0.100   0.571   8.089  0.2433  1.1002  1.6369
 6410SOL     OW30688   1.285   0.032   3.381  0.4237  0.5597  0.1453
 6410SOL    HW130689   1.202   0.078   3.395  0.6709  0.9057  0.4644
 6410SOL    HW230690   1.256   4.678   3.430  2.8018  2.1329  4.0197
 6411SOL     OW30691   4.417   2.779   6.805 -0.7398 -0.2269  0.2095
 6411SOL    HW130692   4.410   2.854   6.863 -0.0905  0.4964 -0.6402
 6411SOL    HW230693   4.327   2.762   6.778 -0.8791  0.6002  0.1755
 6412SOL     OW30694   2.525   2.590   3.612 -0.4629 -0.5352 -0.5241
 6412SOL    HW130695   2.543   2.580   3.518  1.6980  1.4165 -0.3383
 6412SOL    HW230696   2.588   2.530   3.652  0.8284  1.9381  1.1639
 6413SOL     OW30697   4.580   0.522   2.838 -0.2466  0.3810  0.2737
 6413SOL    HW130698   4.523   0.545   2.764  1.4937 -1.7162 -1.7233
 6413SOL    HW230699   4.520   0.489   2.904  0.9296  0.3567  1.3272
 6414SOL     OW30700   0.836   0.342  15.384 -0.0869 -0.0705 -0.2092
 6414SOL    HW130701   0.753   0.373  15.348 -0.4357 -1.1847 -0.3808
 6414SOL    HW230702   0.860   0.424  15.427 -0.9518  0.2870 -0.4193
 6415SOL     OW30703   3.662   0.109   7.146 -0.5368  0.6943  0.1185
 6415SOL    HW130704   3.747   0.127   7.107 -0.2341 -2.2813 -0.5836
 6415SOL    HW230705   3.663   0.179   7.211 -3.0171 -0.1899  1.1233
 6416SOL     OW30706   3.893   0.796  10.144 -0.6062  0.5167  0.5929
 6416SOL    HW130707   3.932   0.710  10.129 -3.2843 -1.0373  2.5971
 6416SOL    HW230708   3.813   0.772  10.190 -0.4178  2.5708  2.0029
 6417SOL     OW30709   2.365   1.540  14.717  0.0347  0.1330  0.4293
 6417SOL    HW130710   2.269   1.536  14.722  0.0775 -0.0856  1.1183
 6417SOL    HW230711   2.375   1.609  14.652  3.1701  0.1849  0.9823
 6418SOL     OW30712   0.521   3.539   3.412 -0.0903 -0.2768 -0.0214
 6418SOL    HW130713   0.601   3.592   3.415  0.2036 -0.7242  0.2273
 6418SOL    HW230714   0.543   3.478   3.342 -1.9323 -1.9166  0.8259
 6419SOL     OW30715   1.376   4.427   7.111  0.7069  0.2060 -0.0493
 6419SOL    HW130716   1.313   4.407   7.042 -1.0245 -1.0678  1.9275
 6419SOL    HW230717   1.332   4.497   7.158  1.9278  0.3019  0.9555
 6420SOL     OW30718   1.962   2.926  15.345  0.1252  0.3852 -0.1154
 6420SOL    HW130719   1.918   2.891  15.268 -0.3161  1.1663 -0.2168
 6420SOL    HW230720   2.042   2.881  15.318  0.4101  1.2716 -0.7594
 6421SOL     OW30721   4.696   3.094   5.500 -0.1679 -0.0614 -0.0211
 6421SOL    HW130722   4.671   3.038   5.427 -0.8868 -2.2952  1.9296
 6421SOL    HW230723   0.026   3.159   5.454 -1.7686  1.5448  0.3691
 6422SOL     OW30724   3.749   0.462  15.087 -0.1809  0.0837 -0.6045
 6422SOL    HW130725   3.656   0.440  15.093  0.2262 -0.9499  2.0316
 6422SOL    HW230726   3.748   0.539  15.030 -0.8485  0.2146 -0.4120
 6423SOL     OW30727   2.012   3.528   7.249 -0.0273  0.3275  0.7070
 6423SOL    HW130728   1.929   3.575   7.243 -1.4438 -2.4482 -1.5984
 6423SOL    HW230729   1.994   3.468   7.322  0.6840  1.1821  1.5786
 6424SOL     OW30730   3.205   4.138  11.328 -0.5121  0.1627  1.0884
 6424SOL    HW130731   3.125   4.143  11.276  0.0128 -0.4553  0.2214
 6424SOL    HW230732   3.244   4.051  11.315  0.4623  0.5000  1.7431
 6425SOL     OW30733   0.624   2.721  11.473  0.1789 -0.4324 -0.2493
 6425SOL    HW130734   0.666   2.640  11.502  0.1096 -0.7037 -0.9137
 6425SOL    HW230735   0.563   2.739  11.545 -0.5421  1.4485 -1.3146
 6426SOL     OW30736   2.571   2.014   1.400 -0.1202  0.5388 -0.1113
 6426SOL    HW130737   2.524   1.936   1.370 -1.1297  1.6412 -1.3863
 6426SOL    HW230738   2.639   2.021   1.333  0.3579 -1.0493  0.2078
 6427SOL     OW30739   1.565   4.188   7.642  0.6578 -0.3174  0.0996
 6427SOL    HW130740   1.487   4.209   7.693 -0.8293 -1.2285 -1.7659
 6427SOL    HW230741   1.589   4.278   7.622 -0.1772  0.5507  3.0796
 6428SOL     OW30742   1.376   4.492   7.629  0.5592 -0.1342  0.1936
 6428SOL    HW130743   1.425   4.533   7.558 -2.2646 -1.0270 -2.3043
 6428SOL    HW230744   1.304   4.448   7.583 -2.2796  3.8048  0.8415
 6429SOL     OW30745   1.630   0.789   5.770 -0.1372  0.1532  0.3809
 6429SOL    HW130746   1.707   0.806   5.715  0.3008 -1.1189  0.6089
 6429SOL    HW230747   1.680   0.771   5.850  0.3431  0.5392  0.1709
 6430SOL     OW30748   4.065   3.066   5.243  0.6817  0.2368 -0.0090
 6430SOL    HW130749   4.026   3.045   5.328 -2.0789 -0.7919 -1.5409
 6430SOL    HW230750   4.126   3.135   5.269  0.1410  0.5051  0.5429
 6431SOL     OW30751   0.013   2.894  10.990  0.0739  0.1936  0.1726
 6431SOL    HW130752   0.053   2.946  11.059  2.0242 -0.0560 -0.7579
 6431SOL    HW230753   4.644   2.892  11.017 -0.1392  0.1372 -0.5450
 6432SOL     OW30754   4.444   2.501  13.657 -0.0992 -0.5093 -0.3576
 6432SOL    HW130755   4.444   2.575  13.718  1.1192  0.0450 -1.0295
 6432SOL    HW230756   4.509   2.441  13.694 -0.3933 -1.1731 -0.9063
 6433SOL     OW30757   0.356   1.076   7.395  0.2127  0.0872  0.3593
 6433SOL    HW130758   0.387   1.078   7.305  0.0104 -0.3490  0.2817
 6433SOL    HW230759   0.287   1.011   7.403  1.0599 -0.8065  0.3654
 6434SOL     OW30760   0.358   3.269  13.646 -0.1783 -0.7100 -0.8164
 6434SOL    HW130761   0.316   3.344  13.604 -1.1535 -0.0093  1.3494
 6434SOL    HW230762   0.446   3.304  13.655 -0.6169  0.5263 -1.3599
 6435SOL     OW30763   3.010   2.465  10.477 -0.0701 -0.3285  0.5825
 6435SOL    HW130764   2.917   2.461  10.496 -0.5414 -1.9628 -2.0813
 6435SOL    HW230765   3.033   2.554  10.504  1.1210 -0.6865  0.7760
 6436SOL     OW30766   0.590   2.103  15.817  0.2670 -0.2988 -0.4333
 6436SOL    HW130767   0.516   2.072  15.766  0.5002 -1.3678 -0.1254
 6436SOL    HW230768   0.570   2.071  15.905  0.2036  0.3696 -0.2061
 6437SOL     OW30769   2.756   1.995   1.226  0.0660 -0.2720  0.4514
 6437SOL    HW130770   2.709   1.928   1.176 -1.1946  1.5487 -0.7671
 6437SOL    HW230771   2.832   1.953   1.267  2.5462  2.5152 -1.3151
 6438SOL     OW30772   3.845   1.705   7.645 -0.0250  0.0514 -0.0249
 6438SOL    HW130773   3.846   1.620   7.689 -1.0648 -0.2580 -0.5971
 6438SOL    HW230774   3.840   1.760   7.723 -0.0419  1.7436 -1.2163
 6439SOL     OW30775   2.064   0.913   1.609  0.2878 -0.2327  0.3009
 6439SOL    HW130776   1.979   0.956   1.600  1.3722  2.2218  1.8932
 6439SOL    HW230777   2.112   0.983   1.653  1.5462 -0.3122 -0.9820
 6440SOL     OW30778   3.668   0.626  12.780  0.1730 -0.6324  0.6324
 6440SOL    HW130779   3.575   0.642  12.764  0.5234  1.7017  0.9693
 6440SOL    HW230780   3.699   0.602  12.693 -1.2959  1.6855 -0.5042
 6441SOL     OW30781   2.738   3.141   4.315  0.3591  0.6064  0.3461
 6441SOL    HW130782   2.741   3.120   4.221 -1.9728  0.6414  0.2561
 6441SOL    HW230783   2.674   3.212   4.319  0.6479  0.8825  0.0456
 6442SOL     OW30784   4.197   1.945  11.537  0.5047  0.5169  0.2086
 6442SOL    HW130785   4.193   1.850  11.545  1.8432  0.5864  1.5630
 6442SOL    HW230786   4.279   1.946  11.486  0.9051  1.3333  0.8710
 6443SOL     OW30787   3.398   1.022   2.620 -0.1021  0.1384  0.0626
 6443SOL    HW130788   3.351   0.980   2.548  1.4290 -0.2562 -0.6959
 6443SOL    HW230789   3.446   1.096   2.583 -0.0357 -0.3430 -0.7941
 6444SOL     OW30790   1.135   4.379   9.743  0.3433 -0.3718  0.2757
 6444SOL    HW130791   1.064   4.410   9.799 -2.2091  0.2051 -3.3086
 6444SOL    HW230792   1.078   4.369   9.666  1.8014  2.3270 -1.1318
 6445SOL     OW30793   1.261   3.277   8.086  0.0474  0.1750  0.2859
 6445SOL    HW130794   1.240   3.226   8.008  0.2252  1.1893 -0.4278
 6445SOL    HW230795   1.309   3.207   8.131 -0.0124 -0.7656 -1.1299
 6446SOL     OW30796   0.939   3.129   9.754 -0.7171  0.2418 -0.0645
 6446SOL    HW130797   0.850   3.143   9.723 -0.4362  0.8152 -0.6114
 6446SOL    HW230798   1.001   3.199   9.733  2.2083 -2.0650  0.9250
 6447SOL     OW30799   0.982   1.634   4.903 -0.1427 -0.1345 -0.5066
 6447SOL    HW130800   0.912   1.671   4.849 -0.4412  1.4184  0.9519
 6447SOL    HW230801   1.057   1.640   4.843 -0.8851  0.6371 -1.3600
 6448SOL     OW30802   0.431   0.648   2.504 -0.0697 -1.0902 -0.0752
 6448SOL    HW130803   0.499   0.640   2.438 -1.0772 -3.2244 -0.8472
 6448SOL    HW230804   0.352   0.628   2.454 -0.8985  0.1245  0.7460
 6449SOL     OW30805   1.725   2.610   8.141 -0.4953 -0.4442 -0.1367
 6449SOL    HW130806   1.782   2.624   8.065 -0.5002 -0.9286 -0.2272
 6449SOL    HW230807   1.782   2.650   8.207 -1.2747  0.3899  0.0394
 6450SOL     OW30808   2.037   3.702   2.945 -0.1790 -0.1542  0.1157
 6450SOL    HW130809   1.986   3.782   2.931 -0.7200 -0.3184  1.1402
 6450SOL    HW230810   1.964   3.640   2.950  0.1011 -0.6179 -1.4714
 6451SOL     OW30811   3.951   3.939   2.495 -0.4354  0.3565 -0.3850
 6451SOL    HW130812   4.036   3.983   2.501 -0.6062  0.5069  0.9728
 6451SOL    HW230813   3.979   3.865   2.442 -0.0552 -0.9515  1.6415
 6452SOL     OW30814   2.113   3.626  12.186  0.3033  0.0630  0.4747
 6452SOL    HW130815   2.086   3.718  12.176 -1.0430 -0.2521  1.3307
 6452SOL    HW230816   2.205   3.626  12.157 -0.6333  0.8191 -2.5124
 6453SOL     OW30817   4.391   3.093   1.179  0.3937 -0.4045  0.0299
 6453SOL    HW130818   4.440   3.173   1.158 -3.4067  1.3274 -2.1247
 6453SOL    HW230819   4.416   3.036   1.106 -0.8360 -2.4757  1.2247
 6454SOL     OW30820   4.020   3.040   3.796  0.4939  0.3096 -0.4223
 6454SOL    HW130821   4.090   3.008   3.852 -0.2483  0.1208  0.3823
 6454SOL    HW230822   3.953   2.973   3.806  0.7644  0.0705 -0.2278
 6455SOL     OW30823   4.195   1.554   7.166  0.1462  0.1605 -0.4451
 6455SOL    HW130824   4.256   1.606   7.219 -2.3593  0.9200  1.7302
 6455SOL    HW230825   4.121   1.615   7.169  0.5707  0.5977  1.3278
 6456SOL     OW30826   0.767   1.175   7.278  0.0693 -0.2986 -0.2711
 6456SOL    HW130827   0.833   1.192   7.210 -1.5266  1.7341 -1.3313
 6456SOL    HW230828   0.743   1.084   7.259  0.0358 -0.6616  1.5494
 6457SOL     OW30829   4.249   0.786   1.571 -0.2790  0.2422  0.1829
 6457SOL    HW130830   4.274   0.829   1.653  2.2926 -0.8361 -0.0219
 6457SOL    HW230831   4.335   0.770   1.533 -1.0549  1.7413 -2.1683
 6458SOL     OW30832   2.550   3.457   8.660  0.4470 -0.5628  0.5950
 6458SOL    HW130833   2.597   3.451   8.577 -0.6657 -0.6701 -0.0334
 6458SOL    HW230834   2.613   3.485   8.726  0.9683  1.9106 -0.9972
 6459SOL     OW30835   2.251   1.379   8.145 -0.0070 -0.8608  0.8147
 6459SOL    HW130836   2.261   1.469   8.175 -0.2764 -0.6984  0.4273
 6459SOL    HW230837   2.339   1.342   8.149  0.1986 -0.4979 -0.3682
 6460SOL     OW30838   4.647   2.861   7.550 -0.4541 -0.1716  0.0573
 6460SOL    HW130839   4.717   2.924   7.534 -2.5093  2.3088  0.9168
 6460SOL    HW230840   4.624   2.816   7.468 -1.8666 -1.5064  1.1753
 6461SOL     OW30841   2.673   0.786   6.295  0.3177  0.1591 -0.4972
 6461SOL    HW130842   2.628   0.705   6.272  1.9844 -0.9805  0.2669
 6461SOL    HW230843   2.711   0.813   6.211  0.6295  0.6195 -0.2095
 6462SOL     OW30844   2.187   1.862   8.098  0.1379 -1.1892 -0.2817
 6462SOL    HW130845   2.099   1.898   8.108  1.5309  1.4282  2.4832
 6462SOL    HW230846   2.182   1.799   8.026 -0.0642 -1.2493 -0.2149
 6463SOL     OW30847   4.001   4.496   6.174  0.4502 -0.0558  0.4363
 6463SOL    HW130848   4.090   4.461   6.165  0.8743  1.7535 -2.3582
 6463SOL    HW230849   3.999   4.531   6.263  0.7848  2.3433 -0.5227
 6464SOL     OW30850   2.335   1.007   4.011 -0.2299 -0.2294 -0.1038
 6464SOL    HW130851   2.318   0.951   4.086 -1.4727  0.0726 -0.1658
 6464SOL    HW230852   2.332   0.945   3.938  3.5785  0.4576 -0.8641
 6465SOL     OW30853   3.937   2.685   5.195 -0.1544  0.4710 -0.8959
 6465SOL    HW130854   3.939   2.701   5.289  1.7638  0.0200 -0.8688
 6465SOL    HW230855   4.031   2.678   5.179 -0.1535 -2.3836  0.2571
 6466SOL     OW30856   4.565   3.039   4.143  0.0973  0.2638 -0.6788
 6466SOL    HW130857   4.640   2.991   4.109 -0.3010 -0.6133 -0.3370
 6466SOL    HW230858   4.571   3.122   4.096 -1.7811 -0.2953 -1.8894
 6467SOL     OW30859   2.507   0.308  10.228  0.4263  0.0792 -0.4828
 6467SOL    HW130860   2.537   0.352  10.307 -0.0576  0.7631 -0.6811
 6467SOL    HW230861   2.466   0.231  10.269  1.8754  0.4725  1.7367
 6468SOL     OW30862   2.728   0.701  11.545  0.0895  0.3663 -0.1817
 6468SOL    HW130863   2.644   0.720  11.503  0.1816  0.8024 -0.1681
 6468SOL    HW230864   2.699   0.645  11.617  2.4221 -0.2302  0.2979
 6469SOL     OW30865   0.882   1.915   0.806  0.4630 -0.1702  0.2894
 6469SOL    HW130866   0.819   1.887   0.740  0.1797  0.7625  0.1626
 6469SOL    HW230867   0.928   1.834   0.826  2.2524  0.7975  0.0770
 6470SOL     OW30868   2.379   4.100  10.555 -0.1328 -0.3674 -0.3758
 6470SOL    HW130869   2.405   4.120  10.465 -0.7430 -2.2926 -0.9823
 6470SOL    HW230870   2.346   4.010  10.551  1.8548 -1.1255  0.6377
 6471SOL     OW30871   0.075   4.719   5.732 -0.8175 -0.2245 -0.0278
 6471SOL    HW130872   0.023   0.061   5.684 -2.7177 -1.7299  0.0037
 6471SOL    HW230873   0.038   0.005   5.820 -0.9814 -4.4680  0.2995
 6472SOL     OW30874   2.382   2.391   7.886 -0.2497  0.4471  0.1084
 6472SOL    HW130875   2.417   2.401   7.975  0.1975 -0.9446  0.0995
 6472SOL    HW230876   2.310   2.453   7.891  0.2826  1.2718 -2.8123
 6473SOL     OW30877   0.930   2.896  13.788  0.5730 -0.6238 -0.1355
 6473SOL    HW130878   0.854   2.840  13.774  1.5612 -1.6604 -1.3258
 6473SOL    HW230879   0.996   2.852  13.735 -0.5397  1.0566 -2.9146
 6474SOL     OW30880   2.266   4.705   7.886  0.0158 -0.2861 -0.3552
 6474SOL    HW130881   2.231   4.722   7.798  0.7875  2.0616 -0.2070
 6474SOL    HW230882   2.264   4.609   7.879  2.5675 -0.2375 -1.8161
 6475SOL     OW30883   2.534   3.848   6.367 -0.2968  0.3355  0.1616
 6475SOL    HW130884   2.549   3.913   6.298  1.8517  0.6562  0.9462
 6475SOL    HW230885   2.549   3.768   6.318 -1.5105 -1.0976  2.1165
 6476SOL     OW30886   4.584   4.383  10.316 -0.3330 -0.5087 -0.3930
 6476SOL    HW130887   4.673   4.358  10.339 -0.7162 -0.7596  0.8238
 6476SOL    HW230888   4.562   4.451  10.379 -1.4527  0.4819 -1.8581
 6477SOL     OW30889   2.636   3.490   5.070 -0.4551  0.6822  0.1172
 6477SOL    HW130890   2.728   3.481   5.098 -0.2213  0.9938 -0.5491
 6477SOL    HW230891   2.611   3.534   5.151  1.1292  1.1149  0.3818
 6478SOL     OW30892   0.998   3.481   6.690 -0.1238  0.2267 -0.1838
 6478SOL    HW130893   1.019   3.536   6.765 -1.8180  1.1093 -0.3762
 6478SOL    HW230894   1.081   3.476   6.641  0.2185  1.7054  0.2651
 6479SOL     OW30895   0.930   0.370   2.644 -0.0942 -0.2085 -0.0488
 6479SOL    HW130896   0.884   0.358   2.727  0.3981 -0.2695  0.2162
 6479SOL    HW230897   0.952   0.278   2.628  0.2813  0.2107 -1.9667
 6480SOL     OW30898   1.259   3.967  13.084  0.0377  0.2756  0.8173
 6480SOL    HW130899   1.171   3.939  13.057 -0.6336  1.5799  1.6630
 6480SOL    HW230900   1.288   3.883  13.120  0.9175 -1.1183 -3.1119
 6481SOL     OW30901   2.245   1.448   6.134 -0.3715 -0.0575 -0.6488
 6481SOL    HW130902   2.172   1.503   6.106  0.0599 -0.7933 -3.2240
 6481SOL    HW230903   2.189   1.375   6.159 -0.1841 -0.4597 -1.3824
 6482SOL     OW30904   0.638   4.060   6.544  0.2394  0.1426 -0.1371
 6482SOL    HW130905   0.632   4.027   6.455 -1.1748  0.9282 -0.3366
 6482SOL    HW230906   0.545   4.047   6.566  0.7967 -2.0910  0.9429
 6483SOL     OW30907   4.066   2.272   5.402  0.7731  0.4325  0.0123
 6483SOL    HW130908   4.129   2.200   5.404 -0.8249 -0.9217  4.1664
 6483SOL    HW230909   4.071   2.296   5.310 -0.7404  1.6153  0.2390
 6484SOL     OW30910   3.619   1.245   3.615  0.0222  0.4112 -0.6758
 6484SOL    HW130911   3.593   1.160   3.580  2.4441  0.1134 -1.7485
 6484SOL    HW230912   3.591   1.309   3.550  1.2152 -0.2797 -1.8673
 6485SOL     OW30913   1.990   3.269   8.621 -0.1353  0.2212 -0.7672
 6485SOL    HW130914   2.039   3.202   8.668 -0.0582  1.4507  0.9031
 6485SOL    HW230915   2.054   3.335   8.595  1.3738 -0.9646 -0.0667
 6486SOL     OW30916   0.755   2.236   7.649  0.0552  0.1244  0.6408
 6486SOL    HW130917   0.826   2.198   7.701 -0.5273  1.0672  2.1297
 6486SOL    HW230918   0.754   2.332   7.655  2.7207  0.1604  0.3231
 6487SOL     OW30919   2.171   0.854   7.057  0.0043 -0.3132 -0.0173
 6487SOL    HW130920   2.204   0.836   6.969  2.1712  0.3684  0.6332
 6487SOL    HW230921   2.110   0.925   7.039  1.1002  0.4433 -0.8363
 6488SOL     OW30922   1.695   3.140   3.988 -0.0585 -0.1380  0.7401
 6488SOL    HW130923   1.699   3.044   3.979 -0.5784 -0.3082  2.3522
 6488SOL    HW230924   1.782   3.177   4.002  1.5879 -4.1324  1.1995
 6489SOL     OW30925   2.980   4.698   8.278 -0.2482 -1.0634  0.5103
 6489SOL    HW130926   2.978   4.633   8.347  1.2327 -0.9637  0.6431
 6489SOL    HW230927   2.916   4.657   8.220 -0.8686  1.3468 -0.5480
 6490SOL     OW30928   4.004   0.630   7.837 -0.0531  0.3320  0.0342
 6490SOL    HW130929   3.935   0.632   7.771 -1.9394 -1.7476  1.9411
 6490SOL    HW230930   4.023   0.722   7.856 -0.5642  0.6926 -1.2068
 6491SOL     OW30931   3.724   4.537   4.393 -0.0384 -0.5707 -0.0692
 6491SOL    HW130932   3.694   4.461   4.344  0.3598 -0.3487 -0.6556
 6491SOL    HW230933   3.778   4.490   4.457 -2.0959 -1.0643  1.3121
 6492SOL     OW30934   1.574   0.625   9.536  0.2736 -0.1843 -0.0136
 6492SOL    HW130935   1.621   0.543   9.552  1.1672  0.4246  0.5268
 6492SOL    HW230936   1.623   0.663   9.462 -1.5140  0.5233 -0.8269
 6493SOL     OW30937   0.074   3.071   3.297 -0.2172 -0.0828  0.2125
 6493SOL    HW130938   0.163   3.107   3.294  0.1492 -0.9498  0.7631
 6493SOL    HW230939   0.095   2.994   3.350 -1.8733 -1.0376 -0.5415
 6494SOL     OW30940   0.551   1.413   7.811  0.1424  0.0783 -0.2816
 6494SOL    HW130941   0.623   1.475   7.798 -1.3149  2.5759  3.3192
 6494SOL    HW230942   0.547   1.411   7.907  0.5727 -1.2747 -0.2884
 6495SOL     OW30943   3.924   0.707  12.636  0.2512  0.4461  0.3004
 6495SOL    HW130944   3.861   0.654  12.587 -1.3100  1.9269  0.6938
 6495SOL    HW230945   3.933   0.658  12.717 -0.6389  0.6767  0.5423
 6496SOL     OW30946   3.502   0.971   8.009 -0.0573 -0.3744 -0.0491
 6496SOL    HW130947   3.477   0.911   7.939  0.9531  0.6276 -1.2773
 6496SOL    HW230948   3.446   0.941   8.080 -1.2474  0.4020 -0.6559
 6497SOL     OW30949   3.101   3.887   7.388  0.6113 -0.4504  0.6940
 6497SOL    HW130950   3.170   3.837   7.432  1.3474  0.9757  1.1710
 6497SOL    HW230951   3.084   3.964   7.442  1.1239  1.5194 -1.9315
 6498SOL     OW30952   2.546   4.576  16.681  0.1017  0.0545 -0.1377
 6498SOL    HW130953   2.450   4.578  16.684  0.1181  1.1281 -0.2068
 6498SOL    HW230954   2.559   4.647  16.618 -1.3314  0.2253 -0.2366
 6499SOL     OW30955   3.728   2.495   5.163 -0.1356 -0.0488  0.6792
 6499SOL    HW130956   3.789   2.569   5.170 -1.1968  0.7174  1.9704
 6499SOL    HW230957   3.657   2.537   5.115 -0.1645  1.1490  1.7273
 6500SOL     OW30958   2.613   3.025   5.076  0.3988 -0.4007 -0.1136
 6500SOL    HW130959   2.577   2.972   5.004  0.2414 -0.9449  0.3679
 6500SOL    HW230960   2.555   2.993   5.145 -0.8916 -1.5598 -1.7309
 6501SOL     OW30961   4.056   3.808  11.352 -0.4024  0.7118 -0.1850
 6501SOL    HW130962   4.089   3.892  11.383 -0.2141  0.8098 -0.6425
 6501SOL    HW230963   3.982   3.795  11.411 -0.6410 -1.5164 -0.9818
 6502SOL     OW30964   1.724   0.996   7.249  0.4253  0.1239 -0.3866
 6502SOL    HW130965   1.673   1.078   7.248 -1.3911 -1.0309 -1.8481
 6502SOL    HW230966   1.789   1.010   7.319  0.4193  0.7741 -0.5058
 6503SOL     OW30967   1.331   2.630   6.218 -0.3789  0.1782 -0.0139
 6503SOL    HW130968   1.414   2.624   6.172  0.2154 -1.8974  1.3060
 6503SOL    HW230969   1.267   2.602   6.153  1.3977 -2.5324 -0.5796
 6504SOL     OW30970   1.959   4.078  11.056 -0.0743  0.1825 -0.4501
 6504SOL    HW130971   1.988   3.991  11.082  1.0292  1.4353  2.6055
 6504SOL    HW230972   1.888   4.097  11.117  0.4769  0.0369  0.2340
 6505SOL     OW30973   1.452   0.914   4.590 -0.7390  0.5150 -0.2421
 6505SOL    HW130974   1.415   0.985   4.537  3.6782  3.4091  0.4583
 6505SOL    HW230975   1.545   0.908   4.566 -0.9556 -0.1006 -0.9338
 6506SOL     OW30976   3.643   4.131  10.992  0.3957 -0.4912 -0.2755
 6506SOL    HW130977   3.589   4.130  11.071 -0.5267  2.1234 -0.8760
 6506SOL    HW230978   3.605   4.202  10.941  0.4235  0.2747  0.7631
 6507SOL     OW30979   2.165   2.078   2.509  0.6278 -0.0311  0.4215
 6507SOL    HW130980   2.178   2.172   2.503 -0.7988  0.0732 -0.7755
 6507SOL    HW230981   2.197   2.061   2.421  0.1346 -0.4958  0.3347
 6508SOL     OW30982   1.975   2.280   3.132 -0.3246  0.0356 -0.7088
 6508SOL    HW130983   1.918   2.217   3.088 -0.4065  0.5193 -1.2981
 6508SOL    HW230984   1.921   2.358   3.119  1.4468  1.2016 -1.0499
 6509SOL     OW30985   1.474   1.536   5.841  0.0394  0.1699  0.1973
 6509SOL    HW130986   1.469   1.481   5.763  2.0695  0.7642 -0.3488
 6509SOL    HW230987   1.516   1.468   5.893 -1.3668 -1.9214 -1.3876
 6510SOL     OW30988   4.376   2.942   5.133  1.0524  0.0597  0.1399
 6510SOL    HW130989   4.370   2.928   5.039 -1.2938  0.5351  0.2217
 6510SOL    HW230990   4.369   3.038   5.139 -2.4925 -0.1990  0.4351
 6511SOL     OW30991   3.741   1.576   7.201  0.1775  0.1705  0.3051
 6511SOL    HW130992   3.698   1.660   7.186  1.8861  0.9512 -0.2538
 6511SOL    HW230993   3.693   1.553   7.280 -0.4270  2.0586  0.4727
 6512SOL     OW30994   2.169   0.576   8.856  0.3175  0.1177 -0.0997
 6512SOL    HW130995   2.163   0.670   8.869  0.8287  0.3630 -1.6325
 6512SOL    HW230996   2.197   0.570   8.764 -1.1035 -0.4913 -0.4897
 6513SOL     OW30997   1.653   0.850  14.545  0.2598  0.1977 -0.5296
 6513SOL    HW130998   1.633   0.863  14.638 -1.6675  0.4378 -0.9971
 6513SOL    HW230999   1.569   0.842  14.501  0.9564  1.1711 -2.0270
 6514SOL     OW31000   3.665   1.486   6.730  0.2701 -0.2969  1.0294
 6514SOL    HW131001   3.712   1.450   6.806  1.3761  0.7437  0.8343
 6514SOL    HW231002   3.573   1.468   6.750 -0.9572  2.4039 -2.1462
 6515SOL     OW31003   2.153   0.298  16.321  0.6618 -0.4847  0.5597
 6515SOL    HW131004   2.131   0.266  16.408 -1.9467  1.3530  0.5815
 6515SOL    HW231005   2.067   0.331  16.294  1.9594  1.3677 -1.2766
 6516SOL     OW31006   0.796   1.298   5.266 -0.1586  0.4064 -0.4469
 6516SOL    HW131007   0.783   1.296   5.361  0.0863  0.2856 -0.4156
 6516SOL    HW231008   0.704   1.296   5.241 -0.7964 -0.6156  1.9979
 6517SOL     OW31009   1.119   0.520   6.608 -0.5065 -0.3698  0.8613
 6517SOL    HW131010   1.036   0.475   6.593 -0.6325  0.0857  0.2120
 6517SOL    HW231011   1.151   0.539   6.519 -0.5799  2.6739  1.4957
 6518SOL     OW31012   2.550   2.501   2.834  0.2804 -0.1928  0.4483
 6518SOL    HW131013   2.532   2.468   2.922 -1.4750  0.7864  0.4486
 6518SOL    HW231014   2.585   2.587   2.857  5.5099 -2.7319  2.0198
 6519SOL     OW31015   3.804   1.318  11.081  0.4370 -0.3320 -0.1441
 6519SOL    HW131016   3.780   1.230  11.110 -0.1839  0.2172  1.0357
 6519SOL    HW231017   3.897   1.306  11.098  0.2436 -2.5529 -0.6979
 6520SOL     OW31018   0.326   3.955  10.618  0.5230 -0.0683 -0.2072
 6520SOL    HW131019   0.231   3.951  10.622  0.4510  0.5363 -1.0820
 6520SOL    HW231020   0.356   3.864  10.615 -0.3629 -0.3280 -1.3254
 6521SOL     OW31021   1.601   2.882   6.334  0.2273 -0.7024 -0.1766
 6521SOL    HW131022   1.611   2.790   6.361  0.6976 -1.1228 -1.7980
 6521SOL    HW231023   1.578   2.931   6.413 -0.1232  0.1051 -0.7911
 6522SOL     OW31024   0.291   2.370   6.291 -0.0455  0.3526  0.1495
 6522SOL    HW131025   0.371   2.317   6.294 -0.1629  0.3179  2.7137
 6522SOL    HW231026   0.246   2.334   6.367 -1.3770  0.8682 -0.3936
 6523SOL     OW31027   1.233   2.968   2.814  0.3316  0.3837 -0.1049
 6523SOL    HW131028   1.266   2.902   2.754 -1.2205 -1.4014  0.9861
 6523SOL    HW231029   1.309   2.973   2.872 -0.3930 -0.6082  0.9254
 6524SOL     OW31030   1.136   2.391   0.714 -0.4219  0.6081  0.2287
 6524SOL    HW131031   1.173   2.371   0.799 -1.2271  2.4215  0.9984
 6524SOL    HW231032   1.092   2.307   0.702  1.2032 -0.7905  4.1786
 6525SOL     OW31033   1.966   4.663  16.605 -0.0322 -0.2450 -0.5808
 6525SOL    HW131034   1.950   4.622  16.520  1.8034  0.1794 -1.1458
 6525SOL    HW231035   1.939   4.593  16.664  2.8243 -0.6254  0.3035
 6526SOL     OW31036   3.097   0.176  10.589 -0.2397 -0.0417  0.1455
 6526SOL    HW131037   3.113   0.181  10.683  1.3612  1.7389 -0.2029
 6526SOL    HW231038   3.002   0.168  10.591 -0.1269 -1.7957 -1.3001
 6527SOL     OW31039   3.095   4.618  16.588  0.5399  0.0401 -0.7203
 6527SOL    HW131040   3.032   4.679  16.550  1.6837  2.6516  1.5733
 6527SOL    HW231041   3.068   4.616  16.680 -1.2589  0.7719 -1.2283
 6528SOL     OW31042   0.543   0.482   2.058 -0.7101  0.5002 -0.2662
 6528SOL    HW131043   0.583   0.397   2.080  1.5826  1.3754 -1.0423
 6528SOL    HW231044   0.458   0.449   2.029 -0.7603  0.8439 -0.5070
 6529SOL     OW31045   3.431   3.301  10.815  0.4490 -0.3008 -0.5496
 6529SOL    HW131046   3.345   3.285  10.776  0.7452  0.7912 -1.6629
 6529SOL    HW231047   3.436   3.396  10.808  0.0094 -0.1721  0.9098
 6530SOL     OW31048   3.019   2.891   2.688 -0.1468  0.4310  0.3764
 6530SOL    HW131049   2.982   2.894   2.600  0.6983 -1.2134 -0.0307
 6530SOL    HW231050   3.072   2.812   2.673  0.3714  0.6412  1.1018
 6531SOL     OW31051   1.733   2.648   9.623 -0.2127  0.5668  0.5491
 6531SOL    HW131052   1.653   2.694   9.600 -0.9846 -1.5551 -1.0296
 6531SOL    HW231053   1.787   2.723   9.649  0.4267  0.1969  0.2908
 6532SOL     OW31054   1.572   3.447  14.325 -0.1116  0.3953  0.1348
 6532SOL    HW131055   1.482   3.449  14.357 -0.2263 -2.6617 -0.0625
 6532SOL    HW231056   1.627   3.397  14.385  2.5183  2.9867 -0.1243
 6533SOL     OW31057   4.476   4.581   2.857 -0.2062  0.1763  0.1336
 6533SOL    HW131058   4.441   4.499   2.823  1.0439 -0.3745  0.1520
 6533SOL    HW231059   4.462   4.566   2.950 -1.3380  0.7844  0.0598
 6534SOL     OW31060   1.251   2.743   9.444  0.4779  0.4186 -0.2705
 6534SOL    HW131061   1.251   2.796   9.364  0.3883  0.0524 -0.5151
 6534SOL    HW231062   1.345   2.742   9.462  0.8494  0.1743 -2.2572
 6535SOL     OW31063   3.173   1.976   1.224 -0.0836  0.0729  0.0196
 6535SOL    HW131064   3.234   1.947   1.155 -0.3177  0.6886 -0.4498
 6535SOL    HW231065   3.231   2.041   1.265  1.0421  0.1315 -1.6499
 6536SOL     OW31066   0.165   4.078   2.803  0.5086 -0.0012  0.0250
 6536SOL    HW131067   0.175   4.139   2.731 -2.5870  0.2870 -0.1359
 6536SOL    HW231068   0.256   4.049   2.806  0.6585  0.4679  0.0331
 6537SOL     OW31069   4.196   0.889   6.297  0.1763 -0.4574  0.6767
 6537SOL    HW131070   4.232   0.831   6.365  0.7949 -0.0774  0.6802
 6537SOL    HW231071   4.249   0.969   6.302 -1.0917  0.5059 -1.2890
 6538SOL     OW31072   3.658   2.471  10.755 -0.3412 -0.0300 -0.2764
 6538SOL    HW131073   3.611   2.425  10.825  2.0482 -2.4386 -0.2316
 6538SOL    HW231074   3.618   2.451  10.670  0.2040 -1.9127 -0.0990
 6539SOL     OW31075   3.616   2.704   8.629  0.0274 -0.3386 -0.0509
 6539SOL    HW131076   3.541   2.762   8.617  0.9107  0.7218 -0.5405
 6539SOL    HW231077   3.617   2.673   8.719 -1.8732  1.4950  0.5899
 6540SOL     OW31078   4.542   0.855   1.358 -0.3106  0.0350  0.0396
 6540SOL    HW131079   4.473   0.920   1.344 -0.2798 -0.0659 -0.6089
 6540SOL    HW231080   4.603   0.904   1.413 -1.7681  1.6270  0.2373
 6541SOL     OW31081   0.923   2.235   5.462  0.5193 -0.2394 -0.0203
 6541SOL    HW131082   0.930   2.143   5.487  0.1780 -0.3093 -0.1897
 6541SOL    HW231083   0.935   2.279   5.546  0.8743  4.8713 -2.7570
 6542SOL     OW31084   4.414   0.663  11.311  0.0980  0.7900 -0.2525
 6542SOL    HW131085   4.489   0.724  11.314 -0.1048  1.0103  0.2827
 6542SOL    HW231086   4.423   0.617  11.228  2.9993  1.7100 -0.4682
 6543SOL     OW31087   3.001   2.858  14.096 -0.2219  0.1457  0.4079
 6543SOL    HW131088   3.055   2.824  14.167  0.5591 -0.8694 -0.6940
 6543SOL    HW231089   2.913   2.865  14.134 -1.3424 -1.5755 -1.8869
 6544SOL     OW31090   1.430   3.737   4.277 -0.0065  0.0790 -0.7160
 6544SOL    HW131091   1.488   3.673   4.321 -1.6364 -0.4810  0.6099
 6544SOL    HW231092   1.448   3.820   4.320  1.7177 -1.1369  0.9248
 6545SOL     OW31093   3.156   3.317   6.801 -0.0298  0.0010  0.0802
 6545SOL    HW131094   3.244   3.347   6.824 -0.4681  1.4511 -0.1813
 6545SOL    HW231095   3.134   3.311   6.894  0.9248 -0.8934  0.2595
 6546SOL     OW31096   0.908   2.625   5.726 -0.0709 -0.2934  0.0581
 6546SOL    HW131097   0.983   2.630   5.667 -0.8940 -0.9312 -1.0485
 6546SOL    HW231098   0.907   2.703   5.781  2.1185  0.6278 -1.2232
 6547SOL     OW31099   2.988   1.984   6.995  0.1054 -0.0948 -0.1633
 6547SOL    HW131100   2.973   1.889   6.986  0.9173 -0.3789  1.5932
 6547SOL    HW231101   3.083   1.980   6.989  0.0726  0.8833 -1.3115
 6548SOL     OW31102   0.991   4.151  11.958  0.1996 -0.5882  0.0134
 6548SOL    HW131103   1.078   4.153  11.999  1.0713  1.2394 -1.9087
 6548SOL    HW231104   0.961   4.242  11.948  0.9204 -0.2742  0.6791
 6549SOL     OW31105   4.544   0.836   5.118  0.3247  0.0017 -0.4154
 6549SOL    HW131106   4.503   0.917   5.147  0.6031 -0.3402  0.9408
 6549SOL    HW231107   4.632   0.845   5.156  0.3744 -0.4491 -0.4333
 6550SOL     OW31108   1.481   3.966  10.119  0.0121 -0.5119  0.0373
 6550SOL    HW131109   1.525   3.941  10.201 -1.0843  0.3768  0.8913
 6550SOL    HW231110   1.552   3.969  10.055 -0.2752 -0.1746 -0.2637
 6551SOL     OW31111   0.733   0.705   0.054  0.2114 -0.0442  0.2593
 6551SOL    HW131112   0.640   0.726   0.053 -0.3625 -2.3601  3.5331
 6551SOL    HW231113   0.758   0.749  17.666  0.9141  1.2402  1.1661
 6552SOL     OW31114   0.378   3.198   5.562  0.1955  0.3255 -0.2625
 6552SOL    HW131115   0.467   3.214   5.594  0.4792  1.0638 -1.4144
 6552SOL    HW231116   0.370   3.262   5.492  0.9303  1.2795  0.5405
 6553SOL     OW31117   0.494   0.912   1.712 -0.2523 -0.0943  0.4472
 6553SOL    HW131118   0.575   0.962   1.706 -0.1405 -0.1724  1.3970
 6553SOL    HW231119   0.509   0.846   1.644  0.5505  0.9732 -0.4238
 6554SOL     OW31120   2.031   3.336  16.340  0.5852 -0.1792 -0.0876
 6554SOL    HW131121   1.987   3.374  16.265  0.0557  1.6932  1.1745
 6554SOL    HW231122   1.958   3.342  16.402  1.3955 -0.4538  0.9032
 6555SOL     OW31123   3.868   3.047   7.806  0.1344 -0.5704 -0.3708
 6555SOL    HW131124   3.810   3.109   7.851  2.3350  0.9376  0.4253
 6555SOL    HW231125   3.952   3.061   7.850 -0.1110  1.4660 -0.5291
 6556SOL     OW31126   1.131   2.103   8.231  0.0249  0.3266 -0.4363
 6556SOL    HW131127   1.062   2.125   8.168 -0.2125  0.0544 -0.2713
 6556SOL    HW231128   1.132   2.187   8.276 -1.0596 -1.4152  2.8325
 6557SOL     OW31129   4.345   3.254   3.841 -0.1245  0.5719 -0.5370
 6557SOL    HW131130   4.303   3.198   3.776  0.3101  0.1867 -0.4821
 6557SOL    HW231131   4.306   3.341   3.836 -2.1383 -0.1847  2.4444
 6558SOL     OW31132   1.008   4.580  13.444  0.2982 -0.2567 -0.5994
 6558SOL    HW131133   1.067   4.511  13.414 -1.7525 -1.0669 -2.8006
 6558SOL    HW231134   1.001   4.558  13.536  0.3549  0.6461 -0.3792
 6559SOL     OW31135   4.145   0.687   0.261  0.6326  0.6779  0.2366
 6559SOL    HW131136   4.061   0.730   0.277 -0.7415 -1.1043 -2.1189
 6559SOL    HW231137   4.117   0.641   0.182 -2.2034  2.9341 -0.0531
 6560SOL     OW31138   3.455   1.429   6.145 -0.4961 -0.7898 -0.3975
 6560SOL    HW131139   3.402   1.507   6.126  0.8204 -0.0041 -0.8140
 6560SOL    HW231140   3.416   1.367   6.083  0.0751  1.0214 -2.5332
 6561SOL     OW31141   0.830   0.775  17.096 -0.5365  0.5955  0.0325
 6561SOL    HW131142   0.800   0.863  17.119  1.4255  1.6762 -1.5469
 6561SOL    HW231143   0.748   0.741  17.060 -0.6203  0.2642  0.5332
 6562SOL     OW31144   2.248   1.609   7.177  0.5091 -0.2474  0.3379
 6562SOL    HW131145   2.245   1.670   7.103 -1.6427 -1.0403 -0.2330
 6562SOL    HW231146   2.281   1.659   7.252  2.7902  1.6284 -1.8856
 6563SOL     OW31147   0.875   0.351  17.502  0.2044  0.6254 -0.0978
 6563SOL    HW131148   0.831   0.399  17.432 -1.4838 -1.0871 -0.2226
 6563SOL    HW231149   0.817   0.274  17.506  2.6305 -1.2149 -0.1420
 6564SOL     OW31150   3.888   3.815  16.130 -0.5550 -0.0512  0.0147
 6564SOL    HW131151   3.877   3.905  16.163  1.7266  0.1669  0.1339
 6564SOL    HW231152   3.837   3.825  16.049 -2.8136  0.8860  1.5328
 6565SOL     OW31153   1.130   4.469   3.309 -0.0707  0.1202  0.2011
 6565SOL    HW131154   1.170   4.498   3.390 -0.1879 -1.6117  0.8690
 6565SOL    HW231155   1.209   4.463   3.255 -1.2893  1.0610 -1.6980
 6566SOL     OW31156   2.242   4.684   5.038 -0.6872 -0.3743  1.1168
 6566SOL    HW131157   2.194   4.674   4.955  0.3683  0.0272  0.4579
 6566SOL    HW231158   2.163   4.722   5.077 -1.3506 -0.2450 -0.3415
 6567SOL     OW31159   2.480   1.197   9.121 -0.3437 -0.2379 -0.1317
 6567SOL    HW131160   2.435   1.235   9.196 -1.3409 -0.1708 -0.7564
 6567SOL    HW231161   2.559   1.163   9.162  0.2778  1.1086 -0.2248
 6568SOL     OW31162   1.537   3.599  11.052 -0.5707  0.2396  0.3897
 6568SOL    HW131163   1.477   3.535  11.014  0.8199 -1.5393  1.1534
 6568SOL    HW231164   1.475   3.668  11.076 -1.4028  0.6319 -2.9662
 6569SOL     OW31165   4.067   1.366  17.356  0.5243  0.2898  0.0221
 6569SOL    HW131166   4.152   1.402  17.332  0.8080 -1.0660 -1.0227
 6569SOL    HW231167   4.031   1.425  17.422  1.3292 -0.0705  0.7719
 6570SOL     OW31168   0.874   3.822  14.512 -0.0264 -0.4514 -0.5781
 6570SOL    HW131169   0.915   3.815  14.425  0.8631  0.4296 -0.2332
 6570SOL    HW231170   0.817   3.745  14.520 -1.4536  0.5973 -0.6945
 6571SOL     OW31171   2.313   3.694   7.811 -0.0452 -0.0969  0.0578
 6571SOL    HW131172   2.267   3.734   7.885  1.5406  0.4135  0.7598
 6571SOL    HW231173   2.392   3.664   7.855 -0.6496 -0.6826  0.7466
 6572SOL     OW31174   1.408   0.922   7.358 -0.2972  0.3165  0.4367
 6572SOL    HW131175   1.448   0.920   7.270 -1.8259 -0.3118 -0.2389
 6572SOL    HW231176   1.474   0.869   7.403  0.6481  1.7367  0.7017
 6573SOL     OW31177   1.720   3.672   1.071 -0.5240 -0.1907  0.4801
 6573SOL    HW131178   1.670   3.711   0.999  0.4519 -1.2746 -0.7947
 6573SOL    HW231179   1.651   3.623   1.115  0.4462 -0.6764  1.4641
 6574SOL     OW31180   4.033   2.426  15.409 -0.3414  0.5721 -0.1475
 6574SOL    HW131181   3.975   2.382  15.347  1.4527 -2.3866  0.2595
 6574SOL    HW231182   4.113   2.373  15.410 -0.0226  1.0718  1.1572
 6575SOL     OW31183   1.464   2.473   8.423  0.0241  0.0479 -0.4252
 6575SOL    HW131184   1.477   2.564   8.399 -1.3517  0.5151  0.6002
 6575SOL    HW231185   1.471   2.482   8.518 -1.1716 -1.4268 -0.1997
 6576SOL     OW31186   3.411   1.911   3.809  0.7361 -0.3470  0.8210
 6576SOL    HW131187   3.454   1.826   3.814 -1.3753 -1.3970  1.1780
 6576SOL    HW231188   3.479   1.978   3.800  0.6847 -0.4045  0.0387
 6577SOL     OW31189   0.010   0.586   2.109  0.0093  0.0869 -0.0517
 6577SOL    HW131190   4.672   0.653   2.077 -0.9427 -1.2099 -0.9198
 6577SOL    HW231191   0.085   0.645   2.115  0.6284 -0.7171  0.0384
 6578SOL     OW31192   4.278   1.877  12.637 -0.3973 -0.1066 -0.5960
 6578SOL    HW131193   4.205   1.914  12.688 -0.2530  2.4946 -2.2689
 6578SOL    HW231194   4.249   1.885  12.547  0.9307 -1.5501 -1.1414
 6579SOL     OW31195   2.285   0.633   2.478  0.0535 -0.0561 -0.3115
 6579SOL    HW131196   2.293   0.568   2.548  0.6805 -0.5470 -0.8431
 6579SOL    HW231197   2.370   0.631   2.433 -0.3518 -0.6562 -1.0341
 6580SOL     OW31198   0.382   2.615  10.455  0.3095 -0.0065  0.5039
 6580SOL    HW131199   0.458   2.601  10.399 -0.0631  0.9619 -0.2387
 6580SOL    HW231200   0.426   2.620  10.540  0.8656 -1.3482  0.2974
 6581SOL     OW31201   4.580   2.102   2.498 -0.4629  0.4223  0.2140
 6581SOL    HW131202   4.604   2.172   2.437  0.9186 -0.6953 -0.5357
 6581SOL    HW231203   4.487   2.125   2.493 -0.5385 -0.4288 -2.2158
 6582SOL     OW31204   1.707   2.404  15.114  0.6440  0.4875  0.3610
 6582SOL    HW131205   1.775   2.347  15.149  0.1039 -0.7106 -0.5397
 6582SOL    HW231206   1.642   2.389  15.183  1.1985 -0.6918  0.6221
 6583SOL     OW31207   1.760   0.905   6.638  0.4998 -0.6318 -0.0560
 6583SOL    HW131208   1.772   0.815   6.670  0.2275 -0.3064  0.9770
 6583SOL    HW231209   1.718   0.885   6.554  3.6383 -0.4955 -1.6253
 6584SOL     OW31210   3.965   4.052  12.436  0.4637  0.2828  0.4675
 6584SOL    HW131211   3.870   4.062  12.435  0.3527 -0.7277  2.0725
 6584SOL    HW231212   3.981   3.998  12.358  4.6121  1.6758  0.3199
 6585SOL     OW31213   2.716   4.474   7.133 -0.0311 -0.0872 -0.3864
 6585SOL    HW131214   2.641   4.497   7.187 -0.0083 -1.6561  0.2957
 6585SOL    HW231215   2.699   4.530   7.057  1.5274 -0.0248 -0.6911
 6586SOL     OW31216   3.624   0.436  16.958  0.0612 -0.3551  0.3980
 6586SOL    HW131217   3.697   0.377  16.974  0.4318 -0.1991 -0.7252
 6586SOL    HW231218   3.553   0.392  17.005  0.9534 -1.1592  0.9719
 6587SOL     OW31219   2.879   1.573   1.905 -0.6166  0.6947 -0.1238
 6587SOL    HW131220   2.876   1.590   1.811 -1.2408  1.0302 -0.0394
 6587SOL    HW231221   2.925   1.489   1.908 -0.2820  0.8338 -1.4507
 6588SOL     OW31222   1.909   4.453  12.750 -0.2974  0.1314 -0.1380
 6588SOL    HW131223   1.967   4.518  12.788 -1.5096  0.8296  0.5316
 6588SOL    HW231224   1.960   4.441  12.670  0.0283  1.6903 -0.1610
 6589SOL     OW31225   2.236   0.226   7.284  0.4525 -0.1529 -0.2794
 6589SOL    HW131226   2.202   0.146   7.325 -1.4633 -0.0950 -1.7884
 6589SOL    HW231227   2.293   0.193   7.215  0.1551  0.0755 -0.6320
 6590SOL     OW31228   2.439   0.762   4.258  0.6943 -0.0217 -0.6080
 6590SOL    HW131229   2.392   0.809   4.327  1.3136 -1.5660  0.8619
 6590SOL    HW231230   2.532   0.779   4.273  0.4165 -0.3157  1.4493
 6591SOL     OW31231   1.220   3.033   5.276 -0.0429 -0.0924  0.2185
 6591SOL    HW131232   1.198   3.048   5.184 -1.4893 -1.1527  0.3937
 6591SOL    HW231233   1.286   2.963   5.279  1.5290  1.4846  2.6121
 6592SOL     OW31234   2.275   3.091   0.815 -0.6776  0.4734  0.0779
 6592SOL    HW131235   2.252   3.019   0.874  1.5773  1.3745  2.0321
 6592SOL    HW231236   2.240   3.160   0.872  2.9867  1.7465  0.7510
 6593SOL     OW31237   2.028   1.205  17.323  0.9388  0.1945 -0.4273
 6593SOL    HW131238   2.075   1.189  17.405 -0.5354  0.3359  0.4396
 6593SOL    HW231239   1.998   1.296  17.328 -1.8654 -0.6608 -1.8951
 6594SOL     OW31240   2.480   1.324   3.364 -0.3338 -0.1822  0.3199
 6594SOL    HW131241   2.498   1.257   3.430 -1.0607 -1.2431 -0.5519
 6594SOL    HW231242   2.413   1.371   3.413 -0.6791  1.8103 -2.0797
 6595SOL     OW31243   1.827   2.578  12.576  0.3334  0.0438 -0.0101
 6595SOL    HW131244   1.869   2.653  12.618 -0.2390 -0.8639  2.1745
 6595SOL    HW231245   1.906   2.528  12.553 -0.0564 -0.1172 -1.0052
 6596SOL     OW31246   1.867   0.587   7.427  0.3493 -0.2798 -0.6489
 6596SOL    HW131247   1.815   0.602   7.348  2.9879  2.1020 -1.9641
 6596SOL    HW231248   1.886   0.672   7.467 -1.4089  0.6230 -1.7290
 6597SOL     OW31249   2.363   0.098  12.401 -0.3573  0.1265 -0.0983
 6597SOL    HW131250   2.357   0.112  12.495 -1.2043  1.9469 -0.4303
 6597SOL    HW231251   2.457   0.079  12.401 -0.4908 -0.5662 -3.5799
 6598SOL     OW31252   3.687   1.782   2.864 -0.0860  0.1309  0.4912
 6598SOL    HW131253   3.622   1.830   2.813  1.8302  0.8771 -1.2578
 6598SOL    HW231254   3.734   1.857   2.901  0.6234  0.4179 -0.9963
 6599SOL     OW31255   1.070   3.426   6.151  0.3811  0.4831 -0.3172
 6599SOL    HW131256   1.074   3.332   6.138 -0.0010  0.5993 -1.3322
 6599SOL    HW231257   1.161   3.452   6.138 -0.1723  2.5001 -0.1748
 6600SOL     OW31258   0.599   1.220   6.371 -0.2547  0.3497 -0.2178
 6600SOL    HW131259   0.575   1.308   6.401 -2.5847 -0.2810 -0.3057
 6600SOL    HW231260   0.513   1.192   6.340  1.4288 -1.5576 -3.1595
 6601SOL     OW31261   4.375   1.875   2.548  0.6610 -0.0781 -0.1443
 6601SOL    HW131262   4.425   1.888   2.629 -1.2518  0.2663  0.9751
 6601SOL    HW231263   4.426   1.927   2.486  1.9536  2.2294  2.8199
 6602SOL     OW31264   2.972   4.126  15.180 -0.0522  0.3646  0.3658
 6602SOL    HW131265   3.008   4.063  15.243 -2.1350 -0.7487  0.4602
 6602SOL    HW231266   3.014   4.106  15.097  1.9952  1.3945  1.1648
 6603SOL     OW31267   4.428   3.016   2.560  0.6061  0.1463 -0.2939
 6603SOL    HW131268   4.336   2.991   2.547  0.9537  0.1210 -2.6624
 6603SOL    HW231269   4.467   2.983   2.480 -0.1450 -1.2067 -0.1015
 6604SOL     OW31270   4.704   1.548  15.726  0.3464  0.0693  0.0622
 6604SOL    HW131271   0.055   1.510  15.678 -0.3395  0.1670 -1.0688
 6604SOL    HW231272   4.637   1.481  15.711 -0.0405  0.2803  0.8237
 6605SOL     OW31273   1.053   3.411   9.719  0.3699 -0.1221 -0.0203
 6605SOL    HW131274   1.004   3.485   9.682 -0.5368 -1.3351 -1.2745
 6605SOL    HW231275   1.113   3.454   9.779 -0.2482  0.2652  0.3217
 6606SOL     OW31276   1.578   4.718  12.841 -0.6795  0.1513  0.3488
 6606SOL    HW131277   1.650   0.054  12.818 -1.6636  2.8379  4.1629
 6606SOL    HW231278   1.624   4.644  12.880  0.7040 -0.3957 -2.3036
 6607SOL     OW31279   0.941   3.613  12.354  0.2214  0.3301 -0.7361
 6607SOL    HW131280   0.864   3.571  12.317 -0.6515  0.2645  1.2085
 6607SOL    HW231281   1.008   3.592  12.288 -0.1472  0.8454 -1.2834
 6608SOL     OW31282   3.968   0.093   2.279  0.0380 -0.0155  0.1635
 6608SOL    HW131283   3.887   0.128   2.314 -0.2543  0.5449 -1.0708
 6608SOL    HW231284   4.008   0.162   2.225  0.2511  1.4791  2.2385
 6609SOL     OW31285   0.495   0.347   9.094 -0.4188 -0.0233 -0.4317
 6609SOL    HW131286   0.550   0.336   9.017 -1.2373  1.4019 -1.2327
 6609SOL    HW231287   0.558   0.322   9.161 -1.1457 -0.7550 -0.0207
 6610SOL     OW31288   0.445   3.883   7.141  0.0210 -0.0506  0.4740
 6610SOL    HW131289   0.419   3.823   7.211 -0.8864 -1.3482 -0.9720
 6610SOL    HW231290   0.510   3.938   7.184  1.6924 -0.7632 -1.1435
 6611SOL     OW31291   2.514   2.073  12.543  0.2199 -0.1502  0.1544
 6611SOL    HW131292   2.596   2.118  12.557 -0.7966  0.7893  2.9999
 6611SOL    HW231293   2.480   2.066  12.632 -1.3881  0.7523 -0.3813
 6612SOL     OW31294   3.658   1.676   2.425  0.0385  0.5791 -0.0795
 6612SOL    HW131295   3.675   1.741   2.357 -0.6397 -0.6183 -1.3828
 6612SOL    HW231296   3.572   1.648   2.394  0.2443 -0.3227  0.1847
 6613SOL     OW31297   2.567   0.353   7.256  0.2209 -0.1081  0.1348
 6613SOL    HW131298   2.613   0.327   7.336  2.1236  1.1333 -0.5458
 6613SOL    HW231299   2.529   0.436   7.284  2.2848  1.2088 -0.9590
 6614SOL     OW31300   3.917   4.605   9.231  0.0030 -0.2819 -0.1802
 6614SOL    HW131301   3.995   4.612   9.175  1.0052 -2.9533  0.8422
 6614SOL    HW231302   3.879   4.517   9.223  0.4883 -0.5702  0.6040
 6615SOL     OW31303   0.346   1.001  10.666  0.5415  0.1498 -0.6612
 6615SOL    HW131304   0.315   0.927  10.720  0.3158  0.1513 -0.7883
 6615SOL    HW231305   0.262   1.035  10.636  0.4792 -0.4452 -1.1564
 6616SOL     OW31306   3.030   0.346  17.159 -0.3985 -0.1138  0.4634
 6616SOL    HW131307   3.037   0.415  17.094  0.2777  0.7581  1.4653
 6616SOL    HW231308   3.104   0.358  17.219  0.3853 -2.5874 -0.0052
 6617SOL     OW31309   0.029   1.999   2.688  0.1471 -0.2673  0.1074
 6617SOL    HW131310   0.119   2.028   2.674  0.3199 -1.4047 -1.1346
 6617SOL    HW231311   4.707   2.041   2.614 -1.4457 -1.5549  0.3325
 6618SOL     OW31312   4.575   2.898  14.321  0.2327 -0.0715 -0.2200
 6618SOL    HW131313   4.544   2.951  14.395 -0.2688  1.9102 -1.8751
 6618SOL    HW231314   4.495   2.868  14.279 -0.1984  1.0966 -0.2062
 6619SOL     OW31315   1.987   3.785   9.131 -0.3577  0.8466  0.1106
 6619SOL    HW131316   2.059   3.846   9.142 -1.0161  1.7590 -0.6725
 6619SOL    HW231317   1.912   3.840   9.156 -0.2271 -0.0351  2.4334
 6620SOL     OW31318   0.995   1.436   7.249 -0.2250 -0.0342  0.2287
 6620SOL    HW131319   0.969   1.432   7.157 -0.3628  0.2558  0.2564
 6620SOL    HW231320   1.042   1.353   7.258 -0.0319 -0.1178 -1.4313
 6621SOL     OW31321   4.573   0.792   3.916 -0.0323 -0.4432  0.0611
 6621SOL    HW131322   4.612   0.867   3.962 -2.3716  0.5310  0.4713
 6621SOL    HW231323   4.613   0.811   3.831 -2.3266  0.3468 -0.8338
 6622SOL     OW31324   4.523   0.651   1.178 -0.2617 -0.7179 -0.2429
 6622SOL    HW131325   4.527   0.691   1.091  1.5610 -0.2435  0.0450
 6622SOL    HW231326   4.484   0.712   1.240  1.8017  1.2711 -0.9071
 6623SOL     OW31327   4.157   4.054  13.027 -0.4480  0.2218  0.2965
 6623SOL    HW131328   4.090   4.081  12.965 -1.3350 -1.1583  0.6417
 6623SOL    HW231329   4.233   4.105  12.997 -0.7829  1.3712  1.4064
 6624SOL     OW31330   3.505   3.809  15.990  1.2049 -0.1840  0.4942
 6624SOL    HW131331   3.528   3.756  16.066 -0.6238  2.5353  2.9527
 6624SOL    HW231332   3.414   3.785  15.973  0.9474 -1.0805  3.1985
 6625SOL     OW31333   4.294   0.865   7.811  0.3628 -0.4563  0.7718
 6625SOL    HW131334   4.226   0.875   7.744  0.1022 -0.0747  1.0969
 6625SOL    HW231335   4.233   0.847   7.883 -1.0726 -1.3258 -0.6683
 6626SOL     OW31336   4.332   0.364   0.147 -0.2117 -0.2136  0.3495
 6626SOL    HW131337   4.342   0.284   0.198 -1.9893 -0.5569  0.1579
 6626SOL    HW231338   4.356   0.327   0.062  0.8169  1.2949 -0.0270
 6627SOL     OW31339   2.449   0.070   2.590  0.1332 -0.0479 -0.1370
 6627SOL    HW131340   2.452   0.029   2.503 -1.6168 -0.9334  0.2078
 6627SOL    HW231341   2.487   0.157   2.574  0.8395 -0.3585 -0.1439
 6628SOL     OW31342   1.634   0.195   5.185  0.0670 -0.6320 -0.2590
 6628SOL    HW131343   1.673   0.126   5.130  2.7293 -0.4867  1.4223
 6628SOL    HW231344   1.674   0.167   5.267 -0.4042 -1.6276 -0.3639
 6629SOL     OW31345   2.136   3.480  17.486 -0.4035  0.0560 -0.0580
 6629SOL    HW131346   2.169   3.570  17.492  1.7516 -0.6429 -1.5364
 6629SOL    HW231347   2.205   3.431  17.442  0.1781  0.8025  0.0208
 6630SOL     OW31348   0.469   4.129   9.320 -0.1758 -0.0978 -0.2671
 6630SOL    HW131349   0.556   4.158   9.292  0.5702 -1.9398  0.1138
 6630SOL    HW231350   0.423   4.181   9.254 -1.8082 -1.2604 -0.0442
 6631SOL     OW31351   4.140   2.791  11.975  0.0327 -0.2972  0.3409
 6631SOL    HW131352   4.126   2.818  12.065 -0.7490  1.0104 -0.1814
 6631SOL    HW231353   4.093   2.707  11.978  1.5161 -1.0153  3.2479
 6632SOL     OW31354   2.890   3.364  17.471 -0.0224 -0.0213 -0.0344
 6632SOL    HW131355   2.923   3.366  17.561  2.2633  0.7269 -0.8805
 6632SOL    HW231356   2.935   3.289  17.434  0.8328 -0.7373  2.4476
 6633SOL     OW31357   3.538   1.804  14.296  0.6545  0.8202 -0.4087
 6633SOL    HW131358   3.496   1.751  14.363  3.1393 -0.7062 -0.0440
 6633SOL    HW231359   3.618   1.752  14.285 -0.6046 -1.0604 -0.7378
 6634SOL     OW31360   1.590   4.411  11.468 -0.8479 -0.8924  0.1991
 6634SOL    HW131361   1.615   4.499  11.439  1.7126 -1.5953  0.3271
 6634SOL    HW231362   1.573   4.370  11.383 -0.5961  2.5697 -1.5071
 6635SOL     OW31363   3.665   1.701   4.002 -0.5477  0.5453 -0.3361
 6635SOL    HW131364   3.711   1.617   4.007  0.3852  1.1832  1.8077
 6635SOL    HW231365   3.583   1.689   3.954 -1.4254  0.5264  1.1389
 6636SOL     OW31366   3.328   4.354   4.365  0.4552  0.1145  0.5626
 6636SOL    HW131367   3.242   4.313   4.375 -0.2880  1.4144 -0.5817
 6636SOL    HW231368   3.390   4.285   4.341 -0.3637 -0.4307  0.0016
 6637SOL     OW31369   1.995   4.638   4.401 -0.0556  0.3979 -0.0509
 6637SOL    HW131370   2.067   4.697   4.421 -1.0351  1.2315  1.0119
 6637SOL    HW231371   1.925   4.674   4.455  0.4584  1.3431 -0.0260
 6638SOL     OW31372   0.366   2.039  15.696 -0.0070  0.0133  0.2408
 6638SOL    HW131373   0.389   2.082  15.614 -0.9698  1.1012  0.5568
 6638SOL    HW231374   0.291   1.987  15.668 -0.3399  1.0733 -0.8104
 6639SOL     OW31375   3.178   1.971   9.822 -0.2102 -0.2788 -0.1632
 6639SOL    HW131376   3.251   1.913   9.799 -0.5252 -0.4362 -0.7804
 6639SOL    HW231377   3.230   2.032   9.874  1.1936 -0.6717 -1.0951
 6640SOL     OW31378   2.903   0.786   7.989 -0.5926 -0.9010  0.3587
 6640SOL    HW131379   2.913   0.844   8.064 -0.7773  0.3015 -0.5369
 6640SOL    HW231380   2.872   0.849   7.923 -1.1825  0.9646  2.4267
 6641SOL     OW31381   1.373   1.832  12.899 -0.7025  0.2770  0.4673
 6641SOL    HW131382   1.300   1.772  12.915 -1.7755  1.2759 -0.7561
 6641SOL    HW231383   1.436   1.807  12.967  0.2575 -0.4265 -0.6831
 6642SOL     OW31384   1.645   1.520   0.957 -0.3971  0.0610  0.0187
 6642SOL    HW131385   1.580   1.559   1.015 -1.0614 -1.0593  0.0349
 6642SOL    HW231386   1.604   1.436   0.934  1.0880 -1.4560  2.8794
 6643SOL     OW31387   4.537   0.751   3.150 -0.2922  0.8532 -0.0813
 6643SOL    HW131388   4.589   0.823   3.116 -0.1773  0.4386 -0.7786
 6643SOL    HW231389   4.451   0.793   3.155 -1.8933 -2.2210 -1.7046
 6644SOL     OW31390   2.734   3.893   7.714  0.8620  0.1077  0.0858
 6644SOL    HW131391   2.646   3.903   7.752  0.8416 -0.6240  0.2341
 6644SOL    HW231392   2.718   3.957   7.645 -1.0083 -1.6406 -1.1106
 6645SOL     OW31393   3.133   4.014   4.604  0.0232 -0.3246 -0.2992
 6645SOL    HW131394   3.045   4.039   4.576  0.2670  2.2695  1.3204
 6645SOL    HW231395   3.172   4.100   4.615 -2.3891  0.5382  1.4890
 6646SOL     OW31396   1.532   4.119   6.478 -0.1288 -0.0347  0.6211
 6646SOL    HW131397   1.437   4.111   6.487 -0.0956  1.0658  1.9595
 6646SOL    HW231398   1.544   4.140   6.385 -0.2692  0.2377  0.6665
 6647SOL     OW31399   3.718   0.170   2.359 -0.8590  0.1628 -0.1356
 6647SOL    HW131400   3.643   0.229   2.346 -2.1178 -1.5466 -0.6849
 6647SOL    HW231401   3.691   0.099   2.301 -0.0112 -0.3340  0.0747
 6648SOL     OW31402   3.834   0.614  13.010 -0.2932  0.3969  0.1187
 6648SOL    HW131403   3.911   0.601  12.955  1.3285 -1.7550  2.8707
 6648SOL    HW231404   3.775   0.640  12.940 -2.8703  1.7759  2.7648
 6649SOL     OW31405   4.384   0.142   6.831 -0.1309 -0.4907  0.2127
 6649SOL    HW131406   4.362   0.055   6.865 -1.9107 -0.1281 -0.0358
 6649SOL    HW231407   4.359   0.192   6.909  0.0987  0.7624 -0.5148
 6650SOL     OW31408   4.167   0.706   3.814 -0.6089  0.2855  0.4210
 6650SOL    HW131409   4.077   0.728   3.792  1.1282  3.2998 -3.7089
 6650SOL    HW231410   4.210   0.788   3.791  0.1504  0.6982  3.2673
 6651SOL     OW31411   1.464   0.505  10.415  1.2224 -0.6770 -0.6186
 6651SOL    HW131412   1.515   0.586  10.425 -1.3823  0.5745  2.5234
 6651SOL    HW231413   1.528   0.444  10.451  0.7046 -1.2305 -0.6448
 6652SOL     OW31414   3.217   0.179   8.565 -0.4353 -0.0388  0.0013
 6652SOL    HW131415   3.261   0.224   8.637  1.4599 -0.0725 -1.1557
 6652SOL    HW231416   3.199   0.094   8.608 -2.0877 -0.1538 -0.9069
 6653SOL     OW31417   1.621   2.934   7.270 -0.4590 -0.1602 -0.4020
 6653SOL    HW131418   1.625   2.883   7.189  0.7299  1.1160 -1.1431
 6653SOL    HW231419   1.596   2.864   7.331 -3.5077  2.8265  1.8206
 6654SOL     OW31420   1.664   4.608   8.531  0.2169  0.1296 -0.0809
 6654SOL    HW131421   1.577   4.575   8.555  0.6636  0.5367  2.0849
 6654SOL    HW231422   1.652   4.652   8.447  0.0474 -1.0627 -0.6849
 6655SOL     OW31423   4.399   1.744   8.347  0.0703  0.0759 -0.0756
 6655SOL    HW131424   4.353   1.669   8.308  0.8410 -1.0726  1.2295
 6655SOL    HW231425   4.492   1.720   8.342 -0.3589 -2.0865  2.0600
 6656SOL     OW31426   2.321   2.703  10.394 -0.3386  0.1049  0.1656
 6656SOL    HW131427   2.306   2.763  10.467  1.1689  0.7369 -0.0514
 6656SOL    HW231428   2.367   2.756  10.329  3.7498 -1.6260  1.6434
 6657SOL     OW31429   4.485   1.407  15.681  0.0204  0.0364 -0.0083
 6657SOL    HW131430   4.485   1.318  15.716  1.8158  0.7190  1.7005
 6657SOL    HW231431   4.463   1.391  15.589 -1.9616 -0.3741  0.5189
 6658SOL     OW31432   2.987   1.177   0.948 -0.0495 -0.2228 -0.2304
 6658SOL    HW131433   2.892   1.191   0.944 -0.5075 -3.2863  0.2365
 6658SOL    HW231434   3.018   1.203   0.861  1.7310 -2.1089 -0.1567
 6659SOL     OW31435   0.602   1.197   3.028  0.7884 -0.5111 -0.0818
 6659SOL    HW131436   0.672   1.212   2.964  0.4200 -0.0448 -0.3729
 6659SOL    HW231437   0.545   1.271   3.007  0.3197 -1.0363 -0.6722
 6660SOL     OW31438   4.478   1.135  16.450  0.5628  0.6176  0.0652
 6660SOL    HW131439   4.386   1.140  16.475  0.5421  1.0051 -0.0862
 6660SOL    HW231440   4.484   1.211  16.392  0.9544  1.4020  1.1232
 6661SOL     OW31441   2.263   1.425  10.696  0.0512 -0.2650  0.6264
 6661SOL    HW131442   2.239   1.398  10.784 -3.2699 -1.2152 -0.5843
 6661SOL    HW231443   2.342   1.371  10.690  2.0029  2.5942  0.6159
 6662SOL     OW31444   2.603   3.898   3.441  0.1636 -0.3132 -0.1519
 6662SOL    HW131445   2.653   3.845   3.504 -1.2838 -0.7383  0.6549
 6662SOL    HW231446   2.519   3.889   3.486  0.5294  1.0396  0.8037
 6663SOL     OW31447   3.532   1.668   7.875  0.1194 -0.0120  0.4571
 6663SOL    HW131448   3.518   1.608   7.801 -0.3793  0.5890  0.0596
 6663SOL    HW231449   3.504   1.747   7.828  0.0329  0.0051  0.5372
 6664SOL     OW31450   2.811   0.454   7.425  0.2648 -0.4682  0.0491
 6664SOL    HW131451   2.809   0.549   7.409  0.2019 -1.1079 -3.6958
 6664SOL    HW231452   2.808   0.454   7.520 -1.1072  0.7697  0.0116
 6665SOL     OW31453   4.676   1.173   3.207 -0.6686  0.0773 -0.1647
 6665SOL    HW131454   0.030   1.220   3.175 -1.6818  1.5866 -0.3698
 6665SOL    HW231455   4.617   1.248   3.209 -0.0088  0.5262  3.0562
 6666SOL     OW31456   0.869   3.503   3.753 -0.0811  0.2676  0.0312
 6666SOL    HW131457   0.807   3.430   3.752  0.2544 -0.0321  1.2936
 6666SOL    HW231458   0.850   3.545   3.669 -2.9663 -1.4562 -0.2019
 6667SOL     OW31459   4.620   2.806  10.711 -0.0312  0.3173  0.4525
 6667SOL    HW131460   4.616   2.710  10.721  2.6761 -0.0566 -1.9745
 6667SOL    HW231461   4.671   2.833  10.787 -2.6057  0.5141  2.1143
 6668SOL     OW31462   3.467   4.659   9.554  0.3024 -0.3566 -0.0431
 6668SOL    HW131463   3.502   4.635   9.639 -0.4782  1.8422  0.8884
 6668SOL    HW231464   3.544   4.628   9.507  1.2008  0.8931  0.6417
 6669SOL     OW31465   0.974   3.230   9.296 -0.9593 -0.6147  0.2035
 6669SOL    HW131466   1.001   3.140   9.280 -1.9460 -0.1058 -4.3742
 6669SOL    HW231467   0.897   3.244   9.241  0.2562  1.3887 -1.0029
 6670SOL     OW31468   4.138   2.504   9.369  0.7142 -0.0263 -0.2697
 6670SOL    HW131469   4.098   2.500   9.456  1.0072  1.4590 -0.0792
 6670SOL    HW231470   4.164   2.412   9.357  0.3596  0.1197 -2.1493
 6671SOL     OW31471   1.959   1.931  13.521  0.4983  0.1627  0.6325
 6671SOL    HW131472   1.877   1.974  13.542  1.3600  2.5801 -0.8947
 6671SOL    HW231473   1.967   1.948  13.427  0.1742 -1.0110  0.3952
 6672SOL     OW31474   0.940   0.334   0.368 -0.1538 -0.0465  0.3547
 6672SOL    HW131475   0.898   0.249   0.354 -0.1984 -0.0176  0.3098
 6672SOL    HW231476   0.961   0.356   0.277 -2.2488 -1.2960 -0.4439
 6673SOL     OW31477   4.229   2.693  14.996 -0.4975 -0.1458 -0.8366
 6673SOL    HW131478   4.186   2.759  14.941  0.5502 -0.0197 -1.4972
 6673SOL    HW231479   4.301   2.656  14.945 -0.8306 -0.9470 -0.7247
 6674SOL     OW31480   2.157   0.560  10.144 -0.1749 -0.1221 -0.1284
 6674SOL    HW131481   2.124   0.548  10.233  0.8838  1.4942  0.4858
 6674SOL    HW231482   2.086   0.611  10.105  0.1109  0.9371  0.7272
 6675SOL     OW31483   3.331   4.227   6.272 -0.0968 -0.0672  0.4169
 6675SOL    HW131484   3.306   4.137   6.252 -1.7615  0.0626  1.9997
 6675SOL    HW231485   3.425   4.228   6.252 -0.2129  1.7778 -0.0383
 6676SOL     OW31486   1.357   1.869   2.841  0.1985 -0.1502  0.5453
 6676SOL    HW131487   1.415   1.826   2.778  0.4675  1.6192 -0.4164
 6676SOL    HW231488   1.397   1.845   2.924  1.4325 -1.7073 -0.4934
 6677SOL     OW31489   0.034   1.818  13.468  0.3404 -0.6163 -0.1014
 6677SOL    HW131490   0.110   1.872  13.491 -0.2264  0.0246  0.2513
 6677SOL    HW231491   0.075   1.767  13.398  2.4118  0.2125  0.5045
 6678SOL     OW31492   3.205   4.535   7.283  0.5189 -0.3558  0.1110
 6678SOL    HW131493   3.134   4.471   7.274  0.8481 -0.7776  0.5358
 6678SOL    HW231494   3.216   4.561   7.191 -0.4406  0.6141  0.2783
 6679SOL     OW31495   3.254   3.835   9.361  0.2824 -0.0487  0.3600
 6679SOL    HW131496   3.162   3.834   9.334  0.6058  1.8558 -0.7957
 6679SOL    HW231497   3.245   3.905   9.426  1.1169 -1.0385  1.5280
 6680SOL     OW31498   2.548   2.785   3.931 -0.1069 -0.2163  0.0096
 6680SOL    HW131499   2.486   2.714   3.916  1.5510 -1.2305 -2.1278
 6680SOL    HW231500   2.496   2.859   3.963  0.7127  0.3085  0.1332
 6681SOL     OW31501   3.507   2.271   5.460  0.4050  0.1337 -0.4968
 6681SOL    HW131502   3.548   2.358   5.454 -1.5209  1.0175 -0.6900
 6681SOL    HW231503   3.414   2.286   5.446 -0.0882 -1.8720  0.7151
 6682SOL     OW31504   4.341   4.721   4.555  0.1637  0.1150 -0.4728
 6682SOL    HW131505   4.408   0.058   4.521 -0.1315  0.2480 -0.8240
 6682SOL    HW231506   4.389   4.638   4.559  0.7222  0.4744  0.2315
 6683SOL     OW31507   0.139   3.557   4.512  0.1425  0.9068  0.0590
 6683SOL    HW131508   0.068   3.616   4.488  0.7699  1.0884 -1.3600
 6683SOL    HW231509   0.195   3.567   4.435 -0.2269  0.5332 -0.2574
 6684SOL     OW31510   1.661   0.263   6.620 -0.4940  0.2231 -0.3254
 6684SOL    HW131511   1.623   0.191   6.670 -1.5984  1.0315 -0.0030
 6684SOL    HW231512   1.580   0.306   6.593 -1.1108 -0.7962 -0.1120
 6685SOL     OW31513   0.325   4.030   2.454 -0.0574  0.0832 -0.0346
 6685SOL    HW131514   0.282   4.096   2.508  1.7863  1.8072 -0.6766
 6685SOL    HW231515   0.246   3.991   2.417 -0.8703  3.0628 -1.4265
 6686SOL     OW31516   2.992   1.194   5.292  0.2399  0.5940 -0.2115
 6686SOL    HW131517   3.040   1.159   5.217 -1.1185 -2.9814  0.5871
 6686SOL    HW231518   2.909   1.207   5.247  0.5190  0.4978 -0.7638
 6687SOL     OW31519   3.403   4.606   5.369 -0.2712 -0.1839  0.0965
 6687SOL    HW131520   3.462   4.679   5.347  0.9452 -0.9694  0.7162
 6687SOL    HW231521   3.402   4.609   5.465 -0.9197 -0.3211  0.0890
 6688SOL     OW31522   3.475   1.360   5.169 -0.2940  0.1397 -0.5147
 6688SOL    HW131523   3.503   1.271   5.149  0.6876  0.2859  0.1907
 6688SOL    HW231524   3.414   1.352   5.242  0.6980  0.9910  0.4221
 6689SOL     OW31525   2.572   0.915  12.107  0.3420 -0.3517  0.5423
 6689SOL    HW131526   2.528   0.853  12.165 -0.9105 -0.4546 -0.5079
 6689SOL    HW231527   2.601   0.863  12.032  0.8081  1.9247 -0.8519
 6690SOL     OW31528   1.379   1.916   1.879 -0.7523 -0.3118 -0.1161
 6690SOL    HW131529   1.439   1.847   1.906 -0.3775  0.5346  1.1973
 6690SOL    HW231530   1.296   1.871   1.862 -0.7089 -1.0515  1.6554
 6691SOL     OW31531   3.075   3.970   5.861 -0.2563  0.2622 -0.1024
 6691SOL    HW131532   3.091   3.890   5.911 -0.2453  0.8030  0.7588
 6691SOL    HW231533   3.149   4.028   5.880 -0.3867  0.1140  0.8802
 6692SOL     OW31534   4.027   0.315   1.131 -0.3451  0.1612  0.2417
 6692SOL    HW131535   4.102   0.371   1.115 -0.8447  0.1766 -2.1435
 6692SOL    HW231536   4.039   0.237   1.076  1.9591  0.7404 -0.0709
 6693SOL     OW31537   0.029   0.645  15.245  0.6567 -0.6312 -0.3317
 6693SOL    HW131538   0.072   0.623  15.163 -1.9376 -1.3777 -1.4828
 6693SOL    HW231539   0.047   0.739  15.240  1.3209 -0.6160  2.2891
 6694SOL     OW31540   3.856   1.401   4.407 -0.4634 -0.2406 -0.1514
 6694SOL    HW131541   3.882   1.428   4.495  1.6858  2.6027 -1.6527
 6694SOL    HW231542   3.942   1.379   4.372 -0.3743 -0.1347  0.0014
 6695SOL     OW31543   0.880   2.467  16.035 -0.3726 -0.2592 -0.1571
 6695SOL    HW131544   0.950   2.413  16.071 -2.2434 -0.6778  2.8754
 6695SOL    HW231545   0.801   2.418  16.059  0.1966 -1.2374 -0.2705
 6696SOL     OW31546   0.795   2.779   8.721 -0.2949 -0.9021 -0.0082
 6696SOL    HW131547   0.789   2.707   8.783  1.7467  0.1421  1.3841
 6696SOL    HW231548   0.872   2.741   8.678 -0.8760 -2.0361 -0.0518
 6697SOL     OW31549   1.826   0.379   6.841 -0.1356  0.9970 -0.1621
 6697SOL    HW131550   1.755   0.358   6.781  0.3223  3.6494 -1.6172
 6697SOL    HW231551   1.899   0.365   6.781  0.0810 -0.3492  0.4196
 6698SOL     OW31552   1.516   4.011   5.695  0.1778  0.0807  0.2728
 6698SOL    HW131553   1.540   4.089   5.744  0.3872  0.4145 -0.3580
 6698SOL    HW231554   1.427   4.006   5.729  0.0720  2.6371  0.3656
 6699SOL     OW31555   2.021   3.052  12.577  0.5017 -0.6682 -0.0192
 6699SOL    HW131556   2.116   3.050  12.567  0.4706 -1.3210 -0.1657
 6699SOL    HW231557   1.996   3.106  12.502  0.0918  1.7083  1.8000
 6700SOL     OW31558   3.552   1.582  15.775  0.1715 -0.3235 -0.1921
 6700SOL    HW131559   3.471   1.585  15.724  0.4395  0.2399 -0.5911
 6700SOL    HW231560   3.598   1.501  15.756 -2.9975 -2.7222  2.4027
 6701SOL     OW31561   3.764   4.343   0.678  0.2853 -0.0458 -0.5800
 6701SOL    HW131562   3.780   4.346   0.772  1.4176 -2.7239 -0.6752
 6701SOL    HW231563   3.847   4.374   0.641 -0.7660  1.2197 -1.8692
 6702SOL     OW31564   4.103   4.668   4.047  0.2004 -0.2371 -0.2926
 6702SOL    HW131565   4.024   4.721   4.038  0.0715 -0.2291  0.9689
 6702SOL    HW231566   4.142   4.698   4.129  0.1842 -1.7900  0.2743
 6703SOL     OW31567   1.393   1.838   8.401  0.5052 -0.1008  0.6077
 6703SOL    HW131568   1.382   1.769   8.466  2.4453 -0.0426  1.0032
 6703SOL    HW231569   1.304   1.842   8.366  1.4148 -0.7096 -1.8259
 6704SOL     OW31570   1.102   4.190   3.615 -0.0530 -0.5306 -0.0843
 6704SOL    HW131571   1.123   4.097   3.624 -4.1485 -1.3898  0.8142
 6704SOL    HW231572   1.121   4.205   3.522 -3.7763  0.7198 -0.6503
 6705SOL     OW31573   0.216   0.953   4.464  0.0984  0.2259  0.2462
 6705SOL    HW131574   0.253   1.005   4.392 -1.7618  2.1130  0.6346
 6705SOL    HW231575   0.123   0.960   4.443  0.4957  1.9447 -0.9907
 6706SOL     OW31576   2.052   1.438   7.059 -0.1325 -0.4916 -0.1432
 6706SOL    HW131577   2.117   1.499   7.092 -0.9646  0.6764 -0.6811
 6706SOL    HW231578   2.022   1.395   7.139 -1.5662  1.6980  0.4796
 6707SOL     OW31579   2.333   0.976  11.986 -0.6562  0.4745 -0.4418
 6707SOL    HW131580   2.424   1.000  11.999 -0.6737  0.5590 -0.4710
 6707SOL    HW231581   2.334   0.884  12.012 -0.4228  0.0831 -1.8503
 6708SOL     OW31582   0.802   4.586  15.256  0.1241 -0.1821 -0.2931
 6708SOL    HW131583   0.784   4.672  15.219  2.5335  0.1373 -0.7104
 6708SOL    HW231584   0.850   4.550  15.181 -0.3535 -1.2178 -0.1120
 6709SOL     OW31585   3.899   0.598  16.227  0.1766 -0.0404  0.3309
 6709SOL    HW131586   3.969   0.645  16.183 -1.2444  0.6548 -1.2300
 6709SOL    HW231587   3.819   0.625  16.182  1.5086  0.1998 -1.8803
 6710SOL     OW31588   4.058   1.491   4.031 -0.1196 -0.2560  0.0758
 6710SOL    HW131589   4.001   1.414   4.033 -0.5766 -0.0125 -3.1959
 6710SOL    HW231590   4.132   1.453   3.985  0.3499 -0.4498  0.9889
 6711SOL     OW31591   0.682   3.344  16.861 -0.1623  0.1484 -0.0429
 6711SOL    HW131592   0.747   3.282  16.894  1.2698  0.6545 -1.9255
 6711SOL    HW231593   0.734   3.411  16.815  0.3650  0.6729  1.2991
 6712SOL     OW31594   3.307   4.025  17.138 -0.1732  0.0750  0.1151
 6712SOL    HW131595   3.213   4.033  17.119 -0.2606  1.0013  0.9668
 6712SOL    HW231596   3.337   4.107  17.099 -2.9512  1.5411  0.9842
 6713SOL     OW31597   0.573   3.375   4.848 -0.1852 -0.7924 -0.2786
 6713SOL    HW131598   0.644   3.356   4.786  0.6439 -0.3559  0.5341
 6713SOL    HW231599   0.501   3.318   4.820 -0.9679  1.3059 -2.4609
 6714SOL     OW31600   2.252   3.690   4.872  0.1001  0.3292  0.0866
 6714SOL    HW131601   2.284   3.779   4.854 -2.3522  1.5103  1.5487
 6714SOL    HW231602   2.222   3.665   4.785 -0.5538  1.4503 -0.0152
 6715SOL     OW31603   3.990   4.707   6.354 -0.6647  0.1971  0.4599
 6715SOL    HW131604   3.917   4.722   6.414 -0.7461 -0.5035  0.5292
 6715SOL    HW231605   3.955   0.026   6.275  0.1516 -0.9352 -0.4984
 6716SOL     OW31606   2.582   0.300   9.584  0.0336  0.3294 -0.4180
 6716SOL    HW131607   2.564   0.371   9.645  2.0998  1.1805 -0.8195
 6716SOL    HW231608   2.667   0.325   9.548 -0.0886 -0.0626 -0.9848
 6717SOL     OW31609   4.617   2.744  14.637  0.2971 -0.6982 -0.3294
 6717SOL    HW131610   4.686   2.754  14.572 -0.5288  1.5494 -0.8345
 6717SOL    HW231611   4.647   2.665  14.683  1.1941 -0.5442 -0.6734
 6718SOL     OW31612   1.873   4.583   6.042  0.5148  0.2091 -0.5990
 6718SOL    HW131613   1.792   4.635   6.044  0.6218  0.3947 -1.1290
 6718SOL    HW231614   1.913   4.611   6.124 -2.9929  0.5004  1.0240
 6719SOL     OW31615   3.460   3.236   9.075  0.3794  0.3872 -0.0418
 6719SOL    HW131616   3.489   3.154   9.034  1.1693  1.4010 -1.5450
 6719SOL    HW231617   3.371   3.213   9.101 -0.0679 -1.3421 -3.0505
 6720SOL     OW31618   3.140   1.473   4.533  0.4137 -0.2467  0.4150
 6720SOL    HW131619   3.165   1.420   4.609 -2.0681 -0.1834  1.2807
 6720SOL    HW231620   3.174   1.420   4.461  0.5400 -1.7842  1.5927
 6721SOL     OW31621   2.544   0.487  13.093  0.1433  0.2272  0.0414
 6721SOL    HW131622   2.604   0.452  13.027 -0.5408  0.2759 -0.6035
 6721SOL    HW231623   2.600   0.483  13.171  1.3810 -1.6891 -0.9553
 6722SOL     OW31624   3.056   1.332   2.246  0.1925 -0.1265 -0.1965
 6722SOL    HW131625   3.116   1.282   2.301 -0.2513 -0.7533 -0.2934
 6722SOL    HW231626   3.023   1.405   2.300  1.1739  1.4966 -1.7776
 6723SOL     OW31627   3.788   1.003   5.587  0.3826 -0.0135  0.1765
 6723SOL    HW131628   3.787   0.942   5.661 -0.0628 -0.1725  0.0379
 6723SOL    HW231629   3.879   1.034   5.583  0.5934 -0.1428  3.5060
 6724SOL     OW31630   1.614   4.604   6.393 -0.3007 -0.6196  0.4454
 6724SOL    HW131631   1.612   4.524   6.446  0.2739 -1.7175 -1.1691
 6724SOL    HW231632   1.604   4.566   6.306 -0.7543 -1.1236  0.7215
 6725SOL     OW31633   2.078   2.378   0.344  0.6772  0.1030 -0.7847
 6725SOL    HW131634   2.145   2.421   0.292  0.5817 -0.0988 -1.0756
 6725SOL    HW231635   2.013   2.447   0.329  1.1963  0.5684 -0.8782
 6726SOL     OW31636   0.104   1.152   1.563 -0.2181  0.5336  0.2303
 6726SOL    HW131637   0.145   1.087   1.505 -0.2520 -0.1868  1.0112
 6726SOL    HW231638   0.181   1.197   1.598 -1.0241  1.0873  1.2791
 6727SOL     OW31639   3.980   0.862   6.648  0.4291  0.5515  0.6055
 6727SOL    HW131640   4.033   0.792   6.688 -2.2083 -2.3032 -0.9043
 6727SOL    HW231641   3.898   0.813   6.649  0.6064  0.2611  0.7779
 6728SOL     OW31642   1.513   2.493   2.234 -0.6129 -1.0886 -0.2785
 6728SOL    HW131643   1.418   2.499   2.248 -0.2354 -0.8274  2.1594
 6728SOL    HW231644   1.509   2.529   2.146 -0.0072 -0.8866 -0.2232
 6729SOL     OW31645   0.131   4.651   6.454  0.2226 -0.0444 -0.0617
 6729SOL    HW131646   0.041   4.661   6.425 -0.4941 -3.2363  1.0525
 6729SOL    HW231647   0.123   4.607   6.538  0.0866  0.6632  0.2981
 6730SOL     OW31648   3.708   1.786   1.426  0.3635 -0.1578 -0.3669
 6730SOL    HW131649   3.737   1.814   1.512 -2.4658  0.4179  0.3876
 6730SOL    HW231650   3.774   1.719   1.406  1.2389  0.7630 -0.5367
 6731SOL     OW31651   0.630   0.394   5.434 -0.0391  0.0320  0.2681
 6731SOL    HW131652   0.608   0.376   5.342 -0.2594  1.8340 -0.0171
 6731SOL    HW231653   0.677   0.477   5.428  0.3954  0.0416  3.7943
 6732SOL     OW31654   2.044   2.385  12.572  0.7684 -0.2909 -0.4314
 6732SOL    HW131655   2.067   2.307  12.623  1.3783 -0.7042 -1.3311
 6732SOL    HW231656   2.130   2.426  12.561  0.9664 -0.5834  0.0532
 6733SOL     OW31657   1.445   0.859   3.844 -0.1457  0.0428  0.3410
 6733SOL    HW131658   1.432   0.919   3.770 -1.2052  2.0465  2.1439
 6733SOL    HW231659   1.511   0.916   3.884  2.6723 -3.0833  0.1426
 6734SOL     OW31660   1.502   3.302   4.508  0.3881 -0.4481  0.0024
 6734SOL    HW131661   1.492   3.301   4.412 -1.1801  0.0548  0.1479
 6734SOL    HW231662   1.466   3.387   4.534  0.4495 -0.9583  1.7418
 6735SOL     OW31663   2.209   3.403   9.137  0.1163  0.9205  0.4413
 6735SOL    HW131664   2.197   3.311   9.161  1.4781  1.4934  3.2940
 6735SOL    HW231665   2.271   3.434   9.202  1.7637  0.1311 -0.7358
 6736SOL     OW31666   2.730   4.093  16.153  0.6575  0.1077 -0.4235
 6736SOL    HW131667   2.688   4.011  16.176  0.8092  0.2038  0.2127
 6736SOL    HW231668   2.665   4.162  16.170  0.7509  0.1993 -0.4349
 6737SOL     OW31669   0.002   1.579   1.849  0.2648 -0.5072  0.1037
 6737SOL    HW131670   0.024   1.504   1.905  1.2382 -0.3822 -0.1031
 6737SOL    HW231671   4.650   1.549   1.796 -0.5974  1.5282  0.1705
 6738SOL     OW31672   4.121   3.011  14.066  0.3204 -0.0164  0.0064
 6738SOL    HW131673   4.088   2.934  14.113  3.5259 -0.4531  1.5421
 6738SOL    HW231674   4.215   3.014  14.085 -0.2108 -0.2857  2.6864
 6739SOL     OW31675   2.560   1.902   4.108  0.2219  0.1861  0.5790
 6739SOL    HW131676   2.501   1.828   4.123  0.4076 -0.2820 -1.0447
 6739SOL    HW231677   2.630   1.870   4.165 -0.4118 -0.0245  1.2325
 6740SOL     OW31678   3.942   2.964   9.349 -0.1832 -0.0476  0.3173
 6740SOL    HW131679   4.014   2.903   9.364 -0.4015  0.0046  1.5453
 6740SOL    HW231680   3.942   3.013   9.431  0.9891 -1.7055  1.3008
 6741SOL     OW31681   0.756   1.050   8.040 -0.4966 -0.0840  0.0240
 6741SOL    HW131682   0.665   1.029   8.018 -0.3715  1.0331 -1.5813
 6741SOL    HW231683   0.783   1.091   7.957  0.4188 -1.9207 -0.5710
 6742SOL     OW31684   1.545   0.307   0.685  0.0574 -0.0713  0.7703
 6742SOL    HW131685   1.545   0.220   0.726 -4.1660 -0.5103 -0.1558
 6742SOL    HW231686   1.587   0.362   0.752  1.4438  0.9968 -0.9732
 6743SOL     OW31687   3.877   0.396   2.116  0.4310 -0.4935 -0.0207
 6743SOL    HW131688   3.867   0.490   2.131  0.8311 -0.4475 -0.0483
 6743SOL    HW231689   3.787   0.366   2.126 -0.3212  0.7494 -2.9677
 6744SOL     OW31690   0.698   4.249  11.876  0.1607 -0.3447 -0.1907
 6744SOL    HW131691   0.769   4.240  11.940  2.3013  1.5360 -2.2938
 6744SOL    HW231692   0.742   4.253  11.791 -0.2078 -3.7706 -0.5542
 6745SOL     OW31693   2.084   1.020  13.502  0.7887 -0.1090 -0.6248
 6745SOL    HW131694   2.171   1.048  13.476  0.8265 -1.7055 -2.2313
 6745SOL    HW231695   2.072   0.930  13.471 -0.0319 -0.1935 -0.0745
 6746SOL     OW31696   3.161   2.308   9.037  0.1350 -0.0703  0.2302
 6746SOL    HW131697   3.134   2.251   8.965 -1.8751  0.6869  0.3663
 6746SOL    HW231698   3.201   2.381   8.989 -1.2007  1.2834  1.1505
 6747SOL     OW31699   2.268   2.174   9.576  0.3170 -0.3618 -0.1642
 6747SOL    HW131700   2.246   2.249   9.631  1.8532  0.0549 -0.1212
 6747SOL    HW231701   2.362   2.189   9.566  0.3968  0.0729  1.2876
 6748SOL     OW31702   1.305   1.552   0.016 -0.3973 -0.0205 -0.0166
 6748SOL    HW131703   1.315   1.602  17.628 -1.3563 -0.4233 -0.3840
 6748SOL    HW231704   1.216   1.519   0.007 -0.4558  0.0437  0.2970
 6749SOL     OW31705   3.635   1.517   2.894  0.8601 -0.5338 -0.0274
 6749SOL    HW131706   3.659   1.609   2.907  0.1868 -0.2939 -0.4763
 6749SOL    HW231707   3.612   1.527   2.801 -0.2591 -2.6381  0.0274
 6750SOL     OW31708   1.292   3.358   8.636 -0.4183  0.2414 -0.2374
 6750SOL    HW131709   1.231   3.317   8.697 -0.3744  1.8280  0.8667
 6750SOL    HW231710   1.236   3.426   8.596 -1.9239 -1.5468 -1.1709
 6751SOL     OW31711   1.994   3.623   3.563  0.1283 -0.3716  0.9141
 6751SOL    HW131712   2.065   3.604   3.624  1.2658  3.2283  0.7272
 6751SOL    HW231713   1.993   3.719   3.563 -1.8993 -0.3751 -3.3388
 6752SOL     OW31714   1.640   3.488   4.107 -0.1043  0.1445 -0.1568
 6752SOL    HW131715   1.587   3.523   4.035  1.0036 -1.8528 -1.9087
 6752SOL    HW231716   1.730   3.482   4.076 -0.7003  1.1965 -2.0725
 6753SOL     OW31717   1.526   2.790  13.498 -1.0118 -0.3414 -0.3505
 6753SOL    HW131718   1.621   2.798  13.485 -0.6139  2.0866  3.9203
 6753SOL    HW231719   1.506   2.777  13.405 -0.0274 -1.1279 -0.4504
 6754SOL     OW31720   0.992   2.246   3.448 -0.3376  0.6104 -0.7001
 6754SOL    HW131721   0.916   2.251   3.391 -0.5948  0.3559 -0.3781
 6754SOL    HW231722   0.980   2.168   3.503 -0.3380  0.7880 -0.4466
 6755SOL     OW31723   2.915   1.430   8.203  0.3399  0.3609  0.1125
 6755SOL    HW131724   2.955   1.389   8.279  1.7378 -0.2579 -0.9691
 6755SOL    HW231725   2.832   1.460   8.241  0.2033 -0.9882  0.8802
 6756SOL     OW31726   1.854   0.553   3.245  0.2324  0.0239  0.0259
 6756SOL    HW131727   1.898   0.632   3.214  1.4013 -0.4622  0.4874
 6756SOL    HW231728   1.778   0.559   3.187  0.6839 -0.9025 -0.6635
 6757SOL     OW31729   2.420   3.816   8.785 -0.4455 -0.6807 -0.9803
 6757SOL    HW131730   2.490   3.793   8.847  0.1326  0.3593 -1.2474
 6757SOL    HW231731   2.365   3.738   8.784 -2.0866  0.4960 -2.1704
 6758SOL     OW31732   1.806   1.126  14.436  0.4846  0.6154  0.0643
 6758SOL    HW131733   1.729   1.112  14.382  1.7747  0.9261 -1.8440
 6758SOL    HW231734   1.820   1.039  14.475 -2.4416  1.1439  2.2698
 6759SOL     OW31735   2.158   3.370   5.062 -0.5279  0.0693 -0.4835
 6759SOL    HW131736   2.131   3.451   5.018  0.0262 -1.1072 -3.0464
 6759SOL    HW231737   2.253   3.387   5.058 -0.0026 -2.4857  1.7086
 6760SOL     OW31738   4.606   3.962   8.639  0.1321 -0.1676 -0.1827
 6760SOL    HW131739   4.646   3.893   8.586  0.4103  0.2047 -0.4532
 6760SOL    HW231740   4.585   3.912   8.718 -0.5013 -0.0695 -0.2841
 6761SOL     OW31741   2.019   0.715   2.299  0.0404 -0.3419  0.0257
 6761SOL    HW131742   2.107   0.751   2.306 -0.6266  1.1343  1.1242
 6761SOL    HW231743   2.047   0.626   2.282 -0.0890 -0.8327  2.3469
 6762SOL     OW31744   4.658   3.041   3.620 -0.2224  0.1136 -0.0600
 6762SOL    HW131745   4.697   2.966   3.664 -0.2785  0.4517  0.5590
 6762SOL    HW231746   4.571   3.008   3.599  0.4995 -1.3366 -0.8128
 6763SOL     OW31747   1.626   2.086   4.397 -0.2906  0.3549  0.4620
 6763SOL    HW131748   1.593   2.055   4.481  1.1027 -3.8705 -0.5644
 6763SOL    HW231749   1.719   2.094   4.419 -0.5329  1.2017  1.1548
 6764SOL     OW31750   0.836   0.092   0.213 -0.0569  0.6296  0.4737
 6764SOL    HW131751   0.892   0.035   0.265 -0.9227 -1.1698 -0.5317
 6764SOL    HW231752   0.815   0.036   0.138  1.9025  0.5641 -0.0255
 6765SOL     OW31753   4.411   4.104   2.276  0.3508  0.1938  0.8663
 6765SOL    HW131754   4.502   4.131   2.263  0.6423 -1.2966 -0.2155
 6765SOL    HW231755   4.418   4.054   2.357  0.6645 -1.1203  0.0314
 6766SOL     OW31756   1.289   2.699   4.702 -0.4029 -0.0939  0.1438
 6766SOL    HW131757   1.248   2.629   4.651  2.2793 -0.8106 -1.0720
 6766SOL    HW231758   1.313   2.652   4.782 -0.3230  0.0587  0.2106
 6767SOL     OW31759   2.537   2.801   7.014  0.1611  0.4541  0.3587
 6767SOL    HW131760   2.520   2.848   7.095  1.2367  0.6679  0.4559
 6767SOL    HW231761   2.614   2.850   6.984  1.7468 -2.1581  0.2338
 6768SOL     OW31762   0.401   2.446  11.668  0.1140 -0.2264  0.4221
 6768SOL    HW131763   0.402   2.397  11.750 -0.0966  0.0155  0.5659
 6768SOL    HW231764   0.311   2.431  11.638  0.5765 -0.2723 -0.9497
 6769SOL     OW31765   3.455   1.445   0.308  0.7525 -0.2824 -0.3944
 6769SOL    HW131766   3.541   1.403   0.299  0.4195 -1.1176  0.3659
 6769SOL    HW231767   3.457   1.482   0.396 -0.0520  0.2732 -0.6069
 6770SOL     OW31768   0.010   0.315   8.990 -0.4611  0.2587 -0.1933
 6770SOL    HW131769   4.694   0.367   9.060 -1.1763 -0.5888  0.0534
 6770SOL    HW231770   0.101   0.344   8.994  0.1472 -1.8124  1.3864
 6771SOL     OW31771   2.004   4.706   6.260  0.1762  0.1079 -0.3239
 6771SOL    HW131772   1.948   0.026   6.325 -0.2978  0.6772 -1.1048
 6771SOL    HW231773   2.090   0.025   6.265  0.5963 -0.8391  0.5660
 6772SOL     OW31774   4.598   4.408   7.255  0.4356 -0.1330 -0.5103
 6772SOL    HW131775   4.586   4.313   7.259  2.0513 -0.2999  0.4965
 6772SOL    HW231776   4.532   4.446   7.312  0.3211  0.1454 -0.8238
 6773SOL     OW31777   1.639   2.333   2.478 -0.9881 -0.3759 -0.1365
 6773SOL    HW131778   1.590   2.366   2.403 -1.1214 -1.6479 -0.6084
 6773SOL    HW231779   1.602   2.373   2.557 -0.3691  0.8042 -0.4353
 6774SOL     OW31780   2.829   3.122  11.860  0.2435  0.8454 -0.4767
 6774SOL    HW131781   2.924   3.113  11.867  0.2042  0.2825 -0.7297
 6774SOL    HW231782   2.812   3.082  11.945  2.8325 -0.0449 -0.3751
 6775SOL     OW31783   0.359   0.351   2.343  0.2186  0.3039 -0.1614
 6775SOL    HW131784   0.328   0.431   2.386 -0.9381 -1.1098  1.5854
 6775SOL    HW231785   0.275   0.328   2.303  1.4710 -3.4101 -0.6616
 6776SOL     OW31786   3.585   0.918   7.514 -0.5696  0.6878  0.6313
 6776SOL    HW131787   3.622   0.968   7.441 -0.2432 -1.2747 -0.5642
 6776SOL    HW231788   3.493   0.913   7.488  0.0614  0.7035 -1.6349
 6777SOL     OW31789   1.732   4.672   7.358  0.0742 -0.2404 -0.5956
 6777SOL    HW131790   1.650   4.663   7.310 -0.0829 -3.0119  0.1902
 6777SOL    HW231791   1.707   0.036   7.390  0.4247  0.1249 -1.3188
 6778SOL     OW31792   4.637   2.531  10.713 -0.2943  0.2754  0.0389
 6778SOL    HW131793   0.002   2.538  10.677 -1.0368 -1.7100 -2.1224
 6778SOL    HW231794   4.655   2.494  10.800 -1.6485  0.6583  0.4766
 6779SOL     OW31795   2.617   4.039   0.733  0.4858 -0.9800  0.0151
 6779SOL    HW131796   2.686   4.057   0.797  1.3732 -1.3912 -0.8236
 6779SOL    HW231797   2.668   3.999   0.662  0.9418 -1.1753  0.4466
 6780SOL     OW31798   4.503   0.210   9.654 -0.5142 -0.3504 -0.3207
 6780SOL    HW131799   4.448   0.164   9.719  1.8317 -2.4098  0.1921
 6780SOL    HW231800   4.504   0.157   9.574 -1.0302  3.4958 -2.8902
 6781SOL     OW31801   0.269   2.197   2.656  0.0290  0.1445 -0.3171
 6781SOL    HW131802   0.304   2.156   2.576  1.4812  1.6764 -0.4535
 6781SOL    HW231803   0.328   2.271   2.667  2.0306 -1.2477 -1.5564
 6782SOL     OW31804   4.481   1.633   7.205  0.0169 -0.2410  0.4854
 6782SOL    HW131805   4.478   1.550   7.156 -2.1472  0.5507 -0.7256
 6782SOL    HW231806   4.572   1.646   7.232  0.5797 -1.0463 -1.0023
 6783SOL     OW31807   1.771   4.141  11.227  0.0234  0.3158 -0.0657
 6783SOL    HW131808   1.681   4.174  11.221  0.3717  1.2999 -0.0099
 6783SOL    HW231809   1.794   4.186  11.308 -0.0597 -0.4580  0.3874
 6784SOL     OW31810   2.171   1.122  15.473  0.3508 -0.2775  0.6683
 6784SOL    HW131811   2.103   1.075  15.425  1.6891  0.6772 -2.1199
 6784SOL    HW231812   2.150   1.213  15.454  1.2679 -0.0263  0.8728
 6785SOL     OW31813   0.238   4.018   0.588  0.1565 -0.1275  0.5226
 6785SOL    HW131814   0.308   4.053   0.643  0.0595 -0.3037  0.7557
 6785SOL    HW231815   0.160   4.061   0.624 -0.8122 -0.9364 -0.5808
 6786SOL     OW31816   0.620   4.611   9.843  0.2746  0.5693 -0.4385
 6786SOL    HW131817   0.577   4.628   9.927  4.0233 -1.2836  1.8633
 6786SOL    HW231818   0.549   4.621   9.780  1.4040 -1.7551 -2.0810
 6787SOL     OW31819   3.629   4.269  16.912 -0.1540 -0.0457 -0.0060
 6787SOL    HW131820   3.597   4.334  16.848  1.0536  0.1272 -0.4340
 6787SOL    HW231821   3.547   4.235  16.948 -0.6464 -0.4687 -1.5404
 6788SOL     OW31822   4.547   2.342   4.670  0.0078  0.6523  0.2495
 6788SOL    HW131823   4.513   2.293   4.745 -1.1774  0.8641 -0.1428
 6788SOL    HW231824   4.502   2.299   4.598  0.4590  1.9950 -0.8425
 6789SOL     OW31825   2.374   4.553   4.564 -0.6952 -0.1716 -0.2745
 6789SOL    HW131826   2.393   4.619   4.631  0.6367 -1.8715  1.0093
 6789SOL    HW231827   2.292   4.523   4.603  0.6520 -0.7634  2.1666
 6790SOL     OW31828   2.647   0.760   0.040  0.2634 -0.3644 -0.2296
 6790SOL    HW131829   2.647   0.665   0.033 -2.1389 -0.5061  1.5972
 6790SOL    HW231830   2.725   0.772   0.094  1.1083 -1.4559 -1.2120
 6791SOL     OW31831   1.879   1.251   5.408 -0.2715  0.2923 -0.0890
 6791SOL    HW131832   1.935   1.278   5.336  1.6841  0.0439  1.3208
 6791SOL    HW231833   1.825   1.328   5.425 -0.7487  0.3848 -2.0061
 6792SOL     OW31834   3.842   2.908   0.235  0.1960  0.0854 -0.2620
 6792SOL    HW131835   3.829   2.996   0.198  2.1941  0.4636 -0.0437
 6792SOL    HW231836   3.937   2.902   0.228  0.1531 -0.6119 -0.1825
 6793SOL     OW31837   2.685   2.694  11.954  0.7863  0.0973 -0.0582
 6793SOL    HW131838   2.723   2.779  11.974  3.5569 -1.1776  0.1231
 6793SOL    HW231839   2.661   2.660  12.040 -1.6898  0.9986 -0.4016
 6794SOL     OW31840   4.077   3.345   1.998  0.4166 -0.4148  0.2038
 6794SOL    HW131841   3.985   3.331   2.018  0.6154 -0.1628  1.2916
 6794SOL    HW231842   4.106   3.338   2.089  1.9450 -1.9985 -0.3987
 6795SOL     OW31843   4.652   0.756   5.882  0.0076  0.9141  0.0261
 6795SOL    HW131844   4.610   0.748   5.968  3.0839  0.2569  1.4734
 6795SOL    HW231845   4.577   0.734   5.828  1.7105 -2.0105 -1.1404
 6796SOL     OW31846   2.704   2.258   1.262  0.4353  0.4725  0.6777
 6796SOL    HW131847   2.744   2.178   1.228  0.2820  0.1762  1.1935
 6796SOL    HW231848   2.782   2.304   1.292  1.7825 -2.3579  1.5223
 6797SOL     OW31849   3.761   3.499   6.813 -0.4584  0.1968  0.1907
 6797SOL    HW131850   3.740   3.411   6.781 -1.7087  0.6125 -0.1466
 6797SOL    HW231851   3.691   3.517   6.876 -0.5884  0.5753 -0.0563
 6798SOL     OW31852   0.858   1.146   4.974 -0.3615  0.6788  0.4138
 6798SOL    HW131853   0.896   1.227   5.008  0.9127  0.1520  0.2704
 6798SOL    HW231854   0.831   1.177   4.888  1.0431  0.9323  0.0553
 6799SOL     OW31855   3.198   1.497  12.104  0.3812  0.3842 -0.2849
 6799SOL    HW131856   3.282   1.502  12.058  1.2493  0.8214  1.3246
 6799SOL    HW231857   3.139   1.466  12.036  1.1186 -0.0908 -0.7096
 6800SOL     OW31858   2.933   0.033   8.713  0.3195  0.2357 -0.1430
 6800SOL    HW131859   2.882   4.676   8.702 -1.2867  1.3997 -1.1992
 6800SOL    HW231860   3.023   0.012   8.688 -0.0335  0.0822 -1.2720
 6801SOL     OW31861   1.301   0.697  13.121  0.1647 -0.7289 -0.0887
 6801SOL    HW131862   1.256   0.629  13.172  2.7539 -0.7900  2.0656
 6801SOL    HW231863   1.276   0.652  13.040  1.2459  0.6493 -1.1898
 6802SOL     OW31864   3.088   1.813   2.824  0.6385  0.4015 -0.6767
 6802SOL    HW131865   3.068   1.856   2.741  0.9667  2.0060  0.0735
 6802SOL    HW231866   3.071   1.721   2.801  1.8881 -0.5499  2.2301
 6803SOL     OW31867   2.509   3.926  16.531 -0.4339 -0.1281 -0.0140
 6803SOL    HW131868   2.564   3.934  16.609  0.1814 -0.9368 -0.3677
 6803SOL    HW231869   2.425   3.936  16.577  0.2093 -0.5240  1.2306
 6804SOL     OW31870   2.243   3.092   6.119 -0.4772 -0.4438  0.2406
 6804SOL    HW131871   2.194   3.086   6.201 -1.5864  1.3720 -0.2754
 6804SOL    HW231872   2.168   3.084   6.060  0.0435  0.8859 -0.6092
 6805SOL     OW31873   4.588   2.710   2.690 -0.2795 -0.1862  0.7028
 6805SOL    HW131874   4.504   2.756   2.694 -1.6573 -2.8816  2.6124
 6805SOL    HW231875   4.646   2.779   2.658  0.4361 -1.2085 -0.2008
 6806SOL     OW31876   2.284   4.550   6.462  0.1670 -0.1672  0.4661
 6806SOL    HW131877   2.372   4.513   6.460 -0.9953 -2.8415 -0.9418
 6806SOL    HW231878   2.230   4.477   6.430  2.1659 -1.6034  0.4212
 6807SOL     OW31879   2.829   2.937   3.554 -0.0209 -0.1824  0.0105
 6807SOL    HW131880   2.834   2.887   3.472 -2.4071  0.4823 -0.5413
 6807SOL    HW231881   2.740   2.925   3.588 -0.2346  1.2486 -0.0716
 6808SOL     OW31882   0.038   0.144   2.362  0.0145 -0.0306  0.3053
 6808SOL    HW131883   4.675   0.132   2.402  0.9205 -0.6942  2.0752
 6808SOL    HW231884   0.092   0.148   2.442  0.1136 -0.3374  0.2550
 6809SOL     OW31885   4.398   0.594   3.991  0.1654 -0.0552 -0.0126
 6809SOL    HW131886   4.320   0.625   3.945 -0.9697 -0.9995  1.2756
 6809SOL    HW231887   4.458   0.662   3.962 -1.9625  1.7772 -0.1565
 6810SOL     OW31888   3.070   4.520   9.307 -0.3184  0.0488  1.2950
 6810SOL    HW131889   3.065   4.613   9.286 -2.1467 -0.5355 -0.7578
 6810SOL    HW231890   3.120   4.520   9.389  1.6996 -0.4464  0.0733
 6811SOL     OW31891   0.742   2.236  10.862  0.3680  0.1235 -0.5918
 6811SOL    HW131892   0.781   2.210  10.946 -1.0925 -1.2038 -0.3405
 6811SOL    HW231893   0.745   2.157  10.809 -0.5229  0.7251 -1.5313
 6812SOL     OW31894   1.117   3.401   5.156  0.2865  0.6266  0.0698
 6812SOL    HW131895   1.115   3.387   5.061  2.5291 -0.5406  0.1910
 6812SOL    HW231896   1.154   3.488   5.163 -0.9583  1.2159 -0.7325
 6813SOL     OW31897   0.088   4.439   2.494 -0.4928 -0.1107 -0.5963
 6813SOL    HW131898   0.028   4.454   2.421 -0.8775  0.5688 -0.1451
 6813SOL    HW231899   0.043   4.484   2.566 -2.0201  1.2139 -2.3815
 6814SOL     OW31900   0.123   4.241  12.912 -0.5225  0.1092  0.0420
 6814SOL    HW131901   0.201   4.244  12.857 -1.9428  1.4621 -1.8545
 6814SOL    HW231902   0.091   4.152  12.899  0.4940  0.1774 -2.8288
 6815SOL     OW31903   4.233   2.263   9.216  0.1846  0.1409  0.5855
 6815SOL    HW131904   4.212   2.213   9.137 -1.2608  0.8670  0.5248
 6815SOL    HW231905   4.271   2.339   9.173  2.6043 -1.2922  0.1773
 6816SOL     OW31906   3.453   2.323   3.577 -0.4937 -0.2433  0.4005
 6816SOL    HW131907   3.437   2.415   3.554  1.3640  0.5713  2.3695
 6816SOL    HW231908   3.525   2.341   3.637 -1.7650 -1.3172  2.2657
 6817SOL     OW31909   3.423   0.372   3.921 -0.2675  0.0903 -0.7659
 6817SOL    HW131910   3.403   0.345   3.832  3.0907  1.9934 -2.0873
 6817SOL    HW231911   3.475   0.297   3.948  0.4382  0.5788 -0.7636
 6818SOL     OW31912   0.736   1.288   9.040 -0.0142  0.2450 -0.4122
 6818SOL    HW131913   0.795   1.248   8.976  1.3556 -2.2689  2.4524
 6818SOL    HW231914   0.658   1.238   9.015 -1.4247  1.1987  2.1196
 6819SOL     OW31915   1.470   0.713   2.476  0.5511  0.3691  0.0574
 6819SOL    HW131916   1.450   0.620   2.481 -1.4027  0.9482  3.1629
 6819SOL    HW231917   1.467   0.733   2.382 -0.3676 -2.1273 -0.4319
 6820SOL     OW31918   2.472   3.629   8.045 -0.2182  0.5236 -0.2626
 6820SOL    HW131919   2.562   3.651   8.071 -0.2934  2.1151 -1.3314
 6820SOL    HW231920   2.425   3.673   8.116 -1.6471 -1.5893  0.0882
 6821SOL     OW31921   3.953   1.826   0.853  0.4529 -0.5135  0.2399
 6821SOL    HW131922   3.931   1.919   0.852  0.2764 -0.5732 -1.6330
 6821SOL    HW231923   4.045   1.844   0.837  0.4119 -1.0874 -0.6373
 6822SOL     OW31924   1.534   1.566   9.712  0.1955  1.1129 -0.3034
 6822SOL    HW131925   1.557   1.612   9.632  1.2924 -2.0213 -1.7925
 6822SOL    HW231926   1.458   1.620   9.731  0.7122  2.1820 -1.2866
 6823SOL     OW31927   1.174   2.147   7.824  0.0851  0.0146  0.0406
 6823SOL    HW131928   1.165   2.063   7.869  0.5887  0.4865  1.0339
 6823SOL    HW231929   1.262   2.165   7.858 -0.8742  2.6183  1.1135
 6824SOL     OW31930   3.560   0.133   6.814 -0.2472 -0.1680  0.4256
 6824SOL    HW131931   3.572   0.038   6.811 -0.3999 -0.0750 -3.6876
 6824SOL    HW231932   3.465   0.141   6.811 -0.3025 -1.3506 -0.9482
 6825SOL     OW31933   3.716   1.659   8.065  0.1144 -0.2109  0.5865
 6825SOL    HW131934   3.782   1.595   8.037  0.0118 -0.2325  0.3909
 6825SOL    HW231935   3.669   1.672   7.983 -0.5542 -0.1710  0.9811
 6826SOL     OW31936   2.291   0.634   5.155  0.8396  0.3081  0.0950
 6826SOL    HW131937   2.198   0.623   5.176  0.0894  0.8810 -2.9307
 6826SOL    HW231938   2.291   0.675   5.068  0.3661  0.0957 -0.0040
 6827SOL     OW31939   1.668   0.466   2.701  0.2840 -0.5062 -0.6862
 6827SOL    HW131940   1.744   0.520   2.677 -0.5984  1.2665  0.4749
 6827SOL    HW231941   1.619   0.471   2.619 -1.7680 -0.7779  0.5377
 6828SOL     OW31942   4.390   3.961   7.270  0.0822 -0.1699 -0.3952
 6828SOL    HW131943   4.363   4.012   7.194 -1.7843 -1.6204 -0.7133
 6828SOL    HW231944   4.471   3.924   7.234  0.0172  0.1411 -0.8613
 6829SOL     OW31945   0.969   3.302   7.956  0.3878 -0.1902 -0.1546
 6829SOL    HW131946   0.976   3.345   8.042 -3.2076  0.2711 -0.1209
 6829SOL    HW231947   1.058   3.306   7.921 -0.3723  0.6455 -1.9924
 6830SOL     OW31948   3.000   3.495   5.405  0.4097  0.2524 -0.3181
 6830SOL    HW131949   3.071   3.453   5.453  0.7077  0.3898 -0.6338
 6830SOL    HW231950   3.044   3.580   5.396 -1.5962  1.0915 -1.9615
 6831SOL     OW31951   2.671   0.715   9.936 -0.0818  0.3268 -0.4951
 6831SOL    HW131952   2.647   0.622   9.928 -0.7020  0.4802 -0.3977
 6831SOL    HW231953   2.644   0.729  10.026  2.0190 -4.0907  0.8452
 6832SOL     OW31954   0.993   1.990   6.274 -0.3534  0.0174  0.3169
 6832SOL    HW131955   1.049   1.958   6.345 -0.5164  0.0197  0.4485
 6832SOL    HW231956   1.012   2.082   6.259  1.6930 -0.3356  0.7326
 6833SOL     OW31957   4.679   2.207   4.295  0.3783  0.1541  0.1057
 6833SOL    HW131958   0.052   2.214   4.293  0.2706  2.0874  3.1974
 6833SOL    HW231959   4.660   2.272   4.228  1.3461  1.6303  1.2607
 6834SOL     OW31960   3.066   0.597   0.872  0.0250 -0.5536 -0.3625
 6834SOL    HW131961   3.008   0.631   0.804  0.6649  0.2673 -0.4874
 6834SOL    HW231962   3.036   0.507   0.889  1.1314 -0.8197  0.1769
 6835SOL     OW31963   2.279   0.833   6.807  0.0935 -0.8596  0.3118
 6835SOL    HW131964   2.343   0.902   6.787 -0.8869 -0.6710 -2.1772
 6835SOL    HW231965   2.275   0.789   6.722  2.3271  0.0673 -0.2686
 6836SOL     OW31966   1.839   1.792   9.827  0.7469 -0.0165 -0.1456
 6836SOL    HW131967   1.891   1.713   9.843 -0.7001 -1.0837 -0.7760
 6836SOL    HW231968   1.895   1.855   9.873  0.6120 -1.6607  2.3111
 6837SOL     OW31969   2.023   1.606   9.831  0.4386  0.7814 -0.1592
 6837SOL    HW131970   2.059   1.518   9.839  1.4022  1.2577  0.6623
 6837SOL    HW231971   2.050   1.627   9.920 -0.5025 -2.0708  0.8063
 6838SOL     OW31972   2.613   4.632   1.851  0.2174  0.7770  0.3906
 6838SOL    HW131973   2.654   4.684   1.921 -0.6928  1.0857  0.7021
 6838SOL    HW231974   2.545   4.589   1.904  0.5673 -0.0248  0.1860
 6839SOL     OW31975   4.698   1.193   8.640 -0.2586  0.0491  0.1888
 6839SOL    HW131976   0.057   1.151   8.669  0.6241  0.9046 -1.0270
 6839SOL    HW231977   4.635   1.155   8.701 -0.4188 -1.1470 -0.7252
 6840SOL     OW31978   3.404   0.302  12.979  0.1463  0.0835  0.0414
 6840SOL    HW131979   3.435   0.383  13.020 -4.3225  1.1096  1.3270
 6840SOL    HW231980   3.311   0.316  12.994  0.6511  1.5726  1.8406
 6841SOL     OW31981   2.793   4.011   9.041 -0.0788  0.3462 -1.1689
 6841SOL    HW131982   2.709   4.016   9.086  2.2844  1.0779  3.1411
 6841SOL    HW231983   2.848   3.994   9.117 -2.3633  0.3620  0.4889
 6842SOL     OW31984   3.943   2.932   5.030  0.6288 -0.3170  0.3652
 6842SOL    HW131985   3.983   2.980   5.103  1.4212  0.2803 -0.4530
 6842SOL    HW231986   3.942   2.845   5.071  0.6124 -0.1927  0.6321
 6843SOL     OW31987   0.379   1.766  12.041  0.1823  0.3129 -0.1278
 6843SOL    HW131988   0.462   1.813  12.033 -0.1712  1.0822  0.7573
 6843SOL    HW231989   0.388   1.722  12.125 -1.7451 -0.7844 -0.5001
 6844SOL     OW31990   3.392   2.496   5.781 -0.3589  0.5696  0.3142
 6844SOL    HW131991   3.351   2.508   5.695 -0.9741  0.5266  0.6014
 6844SOL    HW231992   3.484   2.492   5.758 -0.7699  3.6853 -1.9315
 6845SOL     OW31993   0.292   2.296   8.745 -0.9822  0.0546  0.0520
 6845SOL    HW131994   0.203   2.305   8.710  0.1936  1.9983 -2.4280
 6845SOL    HW231995   0.337   2.294   8.661  1.8073  0.4056  1.5340
 6846SOL     OW31996   3.836   4.073   3.234 -0.7637  0.2960 -0.0348
 6846SOL    HW131997   3.780   4.137   3.277 -0.9630 -2.1360  3.2823
 6846SOL    HW231998   3.889   4.135   3.183  0.4368 -0.6758  0.0248
 6847SOL     OW31999   1.211   1.932   4.103 -0.5009  0.6867 -0.3416
 6847SOL    HW132000   1.266   1.942   4.180 -1.6928  3.1069  0.1973
 6847SOL    HW232001   1.226   2.006   4.043 -2.1471  0.6825 -0.7448
 6848SOL     OW32002   0.865   3.038   3.964 -0.2403  0.5264 -0.2575
 6848SOL    HW132003   0.879   2.952   4.005  0.6198  0.9184  0.2536
 6848SOL    HW232004   0.791   3.078   4.009 -1.5743 -2.4484  0.2535
 6849SOL     OW32005   3.905   1.828   2.011 -0.2871  0.4292  0.3979
 6849SOL    HW132006   3.945   1.913   2.032 -1.8658  1.6651 -1.5643
 6849SOL    HW232007   3.907   1.830   1.915 -0.5412  0.2339  0.3884
 6850SOL     OW32008   0.064   3.270   5.319 -0.4178 -0.5576 -0.1336
 6850SOL    HW132009   0.004   3.341   5.295 -0.3158 -0.8458 -1.2399
 6850SOL    HW232010   0.118   3.264   5.240 -0.6011 -0.7512 -0.2412
 6851SOL     OW32011   2.316   1.803   2.339  1.2754  0.2629 -0.0589
 6851SOL    HW132012   2.382   1.799   2.269 -0.3266 -1.5955 -1.4384
 6851SOL    HW232013   2.267   1.879   2.308 -3.1699 -1.8502  1.8638
 6852SOL     OW32014   0.377   1.292  13.999 -0.7349  0.4179 -0.3336
 6852SOL    HW132015   0.354   1.381  14.023 -4.4323 -0.7784  0.5872
 6852SOL    HW232016   0.349   1.288  13.907  1.1606 -1.1220 -0.8437
 6853SOL     OW32017   0.768   2.966   2.086 -0.1862  0.0597 -0.1543
 6853SOL    HW132018   0.719   3.005   2.158  0.4395  0.3241  0.1288
 6853SOL    HW232019   0.833   3.034   2.070  0.8608 -1.0129 -0.4998
 6854SOL     OW32020   0.054   1.034  15.975  0.5418  0.0018 -0.1155
 6854SOL    HW132021   0.125   0.971  15.978  0.3293 -0.1312  2.2063
 6854SOL    HW232022   4.710   0.981  15.932 -1.2491  2.2168 -0.1002
 6855SOL     OW32023   2.501   4.494  16.239 -0.1734  0.4930 -0.0576
 6855SOL    HW132024   2.540   4.566  16.189  0.3633 -0.7461 -1.4105
 6855SOL    HW232025   2.470   4.542  16.316  1.1933 -0.6420  1.1854
 6856SOL     OW32026   3.154   1.593   6.638 -0.0767  0.1801 -0.2375
 6856SOL    HW132027   3.145   1.511   6.589  0.4690 -0.0070 -0.0160
 6856SOL    HW232028   3.218   1.635   6.581 -0.0781 -0.7537 -0.9292
 6857SOL     OW32029   0.703   1.966   8.298  0.3762 -0.7427  0.2205
 6857SOL    HW132030   0.641   1.908   8.341  0.8422 -0.7373  0.8948
 6857SOL    HW232031   0.752   2.002   8.372  1.3659 -0.6881 -0.4568
 6858SOL     OW32032   2.360   1.976  16.565  0.4262  0.6101  0.4039
 6858SOL    HW132033   2.456   1.973  16.565  0.4491  1.5070  0.0159
 6858SOL    HW232034   2.335   1.984  16.473  1.1967 -2.6151 -0.0840
 6859SOL     OW32035   0.970   1.418   3.577  0.5294  0.4466 -0.2314
 6859SOL    HW132036   0.904   1.392   3.640  1.1557 -2.6516 -0.8302
 6859SOL    HW232037   0.954   1.512   3.578 -0.6594  0.2513 -0.9655
 6860SOL     OW32038   2.256   0.817  10.396  0.1766  0.0232  0.0485
 6860SOL    HW132039   2.189   0.814  10.328  0.7314  0.5057 -0.5165
 6860SOL    HW232040   2.293   0.905  10.384  0.1720 -0.0449 -0.4455
 6861SOL     OW32041   3.445   1.665  10.773 -0.4260  0.3351  0.2287
 6861SOL    HW132042   3.370   1.635  10.824 -0.4072 -0.5280 -0.2552
 6861SOL    HW232043   3.393   1.702  10.701 -2.7194  1.2499  2.3637
 6862SOL     OW32044   0.267   1.366  10.398  0.7837 -0.4436 -0.1366
 6862SOL    HW132045   0.200   1.414  10.350  2.3826 -1.3035 -3.2370
 6862SOL    HW232046   0.297   1.433  10.459  1.0686 -1.4942  0.8765
 6863SOL     OW32047   1.481   0.204   3.374  0.8793  0.3635 -0.4645
 6863SOL    HW132048   1.515   0.171   3.291  1.4432 -0.1534 -0.0273
 6863SOL    HW232049   1.407   0.146   3.389  0.6000  0.6748 -0.6253
 6864SOL     OW32050   1.502   2.421   4.626 -0.0978 -0.0098  0.2274
 6864SOL    HW132051   1.554   2.352   4.667 -0.4312  0.0820  0.8028
 6864SOL    HW232052   1.422   2.375   4.602 -0.1222  0.5962 -0.8351
 6865SOL     OW32053   1.177   2.732   5.529 -0.4314  0.3192 -0.1288
 6865SOL    HW132054   1.205   2.750   5.440 -1.5148  0.6676 -0.3955
 6865SOL    HW232055   1.082   2.718   5.523 -0.6095  1.5672 -0.2595
 6866SOL     OW32056   2.606   3.083   8.164  0.4930  0.3379 -0.0115
 6866SOL    HW132057   2.602   3.028   8.242  0.1020  0.8515  0.3242
 6866SOL    HW232058   2.599   3.020   8.091  0.4180 -0.2690  0.5177
 6867SOL     OW32059   4.047   4.278   4.377  0.4811 -0.2577  0.0366
 6867SOL    HW132060   4.089   4.363   4.385 -1.9439  0.9830 -0.6228
 6867SOL    HW232061   4.041   4.267   4.283 -0.5436 -0.1363  0.0919
 6868SOL     OW32062   1.446   4.321   4.097  0.5290  0.2096 -0.4240
 6868SOL    HW132063   1.506   4.383   4.055  1.1863  0.2778  0.6151
 6868SOL    HW232064   1.437   4.254   4.029  1.0679 -2.1114  1.8036
 6869SOL     OW32065   0.068   3.295   1.102  0.0452  0.4036  0.0621
 6869SOL    HW132066   0.141   3.255   1.150 -1.4533 -1.6991  0.5669
 6869SOL    HW232067   0.125   3.306   1.026  1.4055  2.9674  1.4464
 6870SOL     OW32068   0.927   1.355  12.220  0.4709 -0.0931 -0.9420
 6870SOL    HW132069   0.839   1.337  12.254  1.0878 -0.0757  0.6988
 6870SOL    HW232070   0.983   1.391  12.289 -0.5992 -2.2977  1.0625
 6871SOL     OW32071   0.339   0.532   3.848  0.7862 -0.4618 -0.0857
 6871SOL    HW132072   0.311   0.599   3.785  1.4480 -0.5766 -0.5049
 6871SOL    HW232073   0.300   0.570   3.927  1.4906 -2.2974  1.1409
 6872SOL     OW32074   0.262   0.276   3.254  0.2957  0.1819  0.6209
 6872SOL    HW132075   0.304   0.361   3.251 -0.7695  0.7610  2.0037
 6872SOL    HW232076   0.333   0.224   3.217 -1.1970 -1.3983 -0.0272
 6873SOL     OW32077   3.733   3.487   6.418  0.0613  0.2464  0.0443
 6873SOL    HW132078   3.639   3.479   6.430  0.0518 -0.3415 -0.4453
 6873SOL    HW232079   3.739   3.567   6.470 -1.0645 -0.1072  0.7128
 6874SOL     OW32080   3.258   4.698  16.409  0.0278  0.2297 -0.2967
 6874SOL    HW132081   3.231   4.651  16.330 -1.1604  0.0640  0.2124
 6874SOL    HW232082   3.207   4.663  16.482  0.4226  0.0741 -0.0996
 6875SOL     OW32083   3.154   4.300  11.022  0.3215 -0.1982  0.4028
 6875SOL    HW132084   3.096   4.359  11.070 -1.4941 -1.8094  0.1933
 6875SOL    HW232085   3.236   4.342  11.047  1.7253 -2.8095  0.2268
 6876SOL     OW32086   3.776   2.577  15.935  0.2406  0.5477 -0.0960
 6876SOL    HW132087   3.697   2.629  15.922  0.9063  2.1112  2.1098
 6876SOL    HW232088   3.840   2.647  15.944  1.4639 -0.7698  1.5837
 6877SOL     OW32089   1.287   0.562   2.001  0.5067 -0.2335 -0.4747
 6877SOL    HW132090   1.344   0.542   1.926  0.6891  1.9228 -0.9097
 6877SOL    HW232091   1.214   0.583   1.943  1.0359  2.0933 -0.2732
 6878SOL     OW32092   4.641   3.870   0.564 -0.0038  0.4000  0.0203
 6878SOL    HW132093   4.684   3.953   0.544  1.3822 -0.2905  0.1528
 6878SOL    HW232094   4.690   3.830   0.636  2.3769  0.6047 -1.4947
 6879SOL     OW32095   2.447   1.263  10.061  0.7732 -0.1223  0.6443
 6879SOL    HW132096   2.477   1.244   9.973  2.3118 -0.6266  1.2811
 6879SOL    HW232097   2.409   1.349  10.040  1.3291 -0.1575 -0.4830
 6880SOL     OW32098   2.426   0.121   5.929  0.8416 -1.0584 -0.0199
 6880SOL    HW132099   2.467   0.050   5.977  1.4909 -0.6659  0.0111
 6880SOL    HW232100   2.371   0.076   5.866 -0.8934  0.7760  0.1807
 6881SOL     OW32101   2.759   1.498   2.634  0.2812 -0.0637 -0.0527
 6881SOL    HW132102   2.671   1.535   2.628  0.4407  0.4710  0.8357
 6881SOL    HW232103   2.781   1.534   2.720 -1.2544  0.7526 -0.0182
 6882SOL     OW32104   1.001   0.418   0.072 -0.2955  0.5085  0.4087
 6882SOL    HW132105   0.962   0.415  17.677  0.3669 -0.7889  0.1710
 6882SOL    HW232106   1.089   0.402   0.040 -0.4549 -0.2056  0.3378
 6883SOL     OW32107   1.456   3.566   4.635  0.2773 -0.0982  0.1658
 6883SOL    HW132108   1.381   3.622   4.655  0.8634  0.4561  0.8219
 6883SOL    HW232109   1.511   3.627   4.586  0.9381 -0.3054  0.6416
 6884SOL     OW32110   3.838   1.055   2.731 -0.0047 -0.3453 -0.3750
 6884SOL    HW132111   3.856   1.084   2.820 -0.0774 -0.9522 -0.1626
 6884SOL    HW232112   3.812   1.141   2.699  3.7535  0.7038 -0.6304
 6885SOL     OW32113   1.394   0.332   6.670 -0.2729 -0.1287 -0.0041
 6885SOL    HW132114   1.322   0.337   6.608  0.8085  1.1411 -1.1527
 6885SOL    HW232115   1.344   0.305   6.747  0.4735 -1.8612 -0.1114
 6886SOL     OW32116   4.419   3.021   8.023 -0.7334 -1.0394 -0.0582
 6886SOL    HW132117   4.375   2.959   7.965 -1.4516  2.7531 -3.5693
 6886SOL    HW232118   4.373   3.098   7.989  0.0008 -1.0031 -0.9783
 6887SOL     OW32119   4.309   4.599   5.499  0.1087  0.4903 -0.1981
 6887SOL    HW132120   4.353   4.640   5.573  2.2618  0.9536 -1.7280
 6887SOL    HW232121   4.225   4.643   5.512 -0.3103 -0.6470  0.9447
 6888SOL     OW32122   3.060   0.956   9.594 -0.0048  0.3221 -0.6637
 6888SOL    HW132123   3.065   0.982   9.686  0.7135  0.3613 -0.7140
 6888SOL    HW232124   3.151   0.949   9.566 -0.4306 -4.4005 -0.8015
 6889SOL     OW32125   0.605   2.489  17.579 -0.4135  0.0625  0.4978
 6889SOL    HW132126   0.654   2.491  17.662 -1.1078 -1.2651  0.9422
 6889SOL    HW232127   0.624   2.576  17.544 -1.1300  0.0899  0.1790
 6890SOL     OW32128   1.704   3.960   0.686 -0.5170  0.3120 -0.2527
 6890SOL    HW132129   1.695   4.035   0.745  1.3149  1.0008 -0.8524
 6890SOL    HW232130   1.790   3.966   0.644 -0.2756  0.5205  0.2695
 6891SOL     OW32131   3.498   2.836   3.791 -0.0560 -0.1368  0.4520
 6891SOL    HW132132   3.496   2.775   3.864  0.2063 -0.1172  0.4787
 6891SOL    HW232133   3.540   2.777   3.727 -0.0539 -1.9493  2.1400
 6892SOL     OW32134   4.323   2.390   6.363  0.6539  0.4176  0.4480
 6892SOL    HW132135   4.417   2.373   6.352  0.3504  0.1640 -1.6629
 6892SOL    HW232136   4.320   2.385   6.459  0.6418  1.4328  0.5041
 6893SOL     OW32137   0.317   2.701   5.084 -0.0229  0.4247  0.0004
 6893SOL    HW132138   0.372   2.754   5.142 -0.8350  1.4770 -0.1804
 6893SOL    HW232139   0.280   2.634   5.142 -0.2040 -0.2247 -0.8803
 6894SOL     OW32140   2.557   1.775   3.821  0.4540  0.4812 -0.0863
 6894SOL    HW132141   2.606   1.819   3.891  0.6875  0.4078 -0.2038
 6894SOL    HW232142   2.531   1.690   3.857 -0.0454  0.8971  0.5327
 6895SOL     OW32143   4.563   3.054   6.263 -0.3213 -0.3705 -0.5349
 6895SOL    HW132144   4.602   3.135   6.295  0.0180 -0.8775  0.3479
 6895SOL    HW232145   4.514   3.074   6.183  1.5377  1.6196 -1.1600
 6896SOL     OW32146   3.558   4.394   9.893 -0.2940  0.3811 -0.5361
 6896SOL    HW132147   3.483   4.454   9.887 -2.3930 -2.1450  0.5672
 6896SOL    HW232148   3.621   4.436   9.835 -0.0588  0.2189 -0.3937
 6897SOL     OW32149   0.008   2.858  10.473 -0.6853 -0.4554  0.4654
 6897SOL    HW132150   4.676   2.829  10.546 -0.4929 -1.1404  0.3367
 6897SOL    HW232151   0.049   2.935  10.512  0.0824 -0.2386 -0.7654
 6898SOL     OW32152   0.866   2.390   9.004  0.1107  0.1424 -0.2716
 6898SOL    HW132153   0.859   2.297   9.024  0.3491 -0.6674 -3.9724
 6898SOL    HW232154   0.952   2.413   9.037 -0.1170  1.7090 -0.7494
 6899SOL     OW32155   0.087   1.240   3.640 -0.1448  0.6848  0.0223
 6899SOL    HW132156   0.003   1.284   3.632 -0.2696  1.2227  4.3878
 6899SOL    HW232157   0.077   1.169   3.577 -1.5144  0.9864 -0.1068
 6900SOL     OW32158   3.724   2.836   6.676  0.0817 -0.0333  0.1645
 6900SOL    HW132159   3.659   2.782   6.632 -0.6951  1.7823 -0.9063
 6900SOL    HW232160   3.760   2.871   6.595 -0.1786 -0.4455 -0.1298
 6901SOL     OW32161   0.909   2.722  16.123  0.2627  0.2266  0.0682
 6901SOL    HW132162   0.909   2.642  16.070  3.2827 -1.7072  2.9660
 6901SOL    HW232163   0.887   2.789  16.058  2.9256  1.0229 -0.0235
 6902SOL     OW32164   2.273   2.610   5.081 -0.1980  0.5937  0.5950
 6902SOL    HW132165   2.226   2.553   5.020  2.1228 -1.7427  0.9691
 6902SOL    HW232166   2.295   2.547   5.150  1.8842  0.3130 -0.3422
 6903SOL     OW32167   4.069   1.662   9.194  0.1606  0.2909 -0.1467
 6903SOL    HW132168   3.984   1.679   9.234 -0.2034 -0.7296 -0.4837
 6903SOL    HW232169   4.097   1.753   9.198 -1.2964  0.7037  0.3425
 6904SOL     OW32170   4.267   3.121  17.120 -0.0854  0.2177  0.3240
 6904SOL    HW132171   4.255   3.161  17.206  2.9835 -0.5545  1.1252
 6904SOL    HW232172   4.177   3.128  17.088  1.5301  0.8806 -4.0933
 6905SOL     OW32173   4.450   1.942  13.794 -0.1171  0.0849 -0.3105
 6905SOL    HW132174   4.463   1.858  13.750 -0.2415  1.2376 -2.5914
 6905SOL    HW232175   4.372   1.980  13.753 -0.2242 -0.4474 -0.5985
 6906SOL     OW32176   2.826   4.591  10.023 -0.1905  0.0021  0.0353
 6906SOL    HW132177   2.763   4.661  10.009 -0.8659 -0.4614  0.7300
 6906SOL    HW232178   2.905   4.644  10.037  0.3740 -1.4357  2.2956
 6907SOL     OW32179   4.003   1.439  12.662 -0.0244 -0.4416  0.4414
 6907SOL    HW132180   4.028   1.494  12.736 -0.1061  0.9419 -0.5489
 6907SOL    HW232181   3.921   1.481  12.635 -0.9980 -2.5028  0.2196
 6908SOL     OW32182   0.510   1.743   3.897  0.1579  0.4282  0.5793
 6908SOL    HW132183   0.486   1.712   3.809  2.5897  2.3861 -0.7689
 6908SOL    HW232184   0.581   1.680   3.911  1.0725  1.4330  0.3901
 6909SOL     OW32185   1.205   1.646  13.011 -0.0540 -0.4778  0.1265
 6909SOL    HW132186   1.254   1.566  12.996  1.5013  0.0419  2.3964
 6909SOL    HW232187   1.196   1.655  13.106 -0.2365  0.3056  0.0347
 6910SOL     OW32188   2.804   4.554   3.578 -0.7560 -0.1830 -0.2908
 6910SOL    HW132189   2.874   4.511   3.627 -0.9670  0.9517  1.0133
 6910SOL    HW232190   2.783   4.625   3.638  1.1828  0.6426 -0.5749
 6911SOL     OW32191   4.341   3.330   7.951 -0.0870  0.7647  0.1161
 6911SOL    HW132192   4.344   3.380   7.870 -1.2509  0.3630 -0.1771
 6911SOL    HW232193   4.433   3.304   7.957 -0.6093 -0.9893  0.4186
 6912SOL     OW32194   2.807   1.291  16.983  0.3340 -0.2676  0.3302
 6912SOL    HW132195   2.774   1.380  16.995  1.1010 -0.0752  1.0144
 6912SOL    HW232196   2.881   1.311  16.926 -0.2599  0.4225 -0.2016
 6913SOL     OW32197   2.946   1.313   1.982  0.4591 -0.1275  0.0245
 6913SOL    HW132198   3.028   1.320   1.934  1.4837 -1.5875  1.5769
 6913SOL    HW232199   2.973   1.321   2.073  2.4348 -2.5343 -0.3475
 6914SOL     OW32200   0.818   4.080  12.747  0.3121  0.4387  0.7613
 6914SOL    HW132201   0.865   4.080  12.664 -1.4951 -1.3833 -0.2742
 6914SOL    HW232202   0.751   4.016  12.722 -0.1609  0.4191  2.0646
 6915SOL     OW32203   4.139   4.265   0.955 -0.1498  0.0136  0.1486
 6915SOL    HW132204   4.091   4.186   0.929 -0.5384  0.5140 -0.6584
 6915SOL    HW232205   4.083   4.297   1.026 -1.1450 -1.8636  0.2165
 6916SOL     OW32206   2.807   3.744   1.639  0.0163  0.0792  0.0531
 6916SOL    HW132207   2.832   3.670   1.695  0.1067  1.1420  1.4173
 6916SOL    HW232208   2.784   3.814   1.700  2.1798  1.6690 -0.9604
 6917SOL     OW32209   2.040   1.169   4.168  0.2214 -0.2004 -0.1741
 6917SOL    HW132210   1.993   1.177   4.251  0.7137 -1.1659  0.2027
 6917SOL    HW232211   2.125   1.136   4.198  0.9544 -0.6934 -2.7800
 6918SOL     OW32212   3.963   1.047  12.541 -0.6904  0.9363  0.0619
 6918SOL    HW132213   4.023   1.118  12.566  0.4334 -0.3095  0.9272
 6918SOL    HW232214   3.923   1.088  12.465 -0.7115 -0.3102 -0.6055
 6919SOL     OW32215   2.315   1.414  17.621  0.4085 -0.2541  0.2134
 6919SOL    HW132216   2.409   1.398  17.619  0.5250  0.4061  0.3146
 6919SOL    HW232217   2.284   1.329  17.590 -2.1691  0.8491 -0.2780
 6920SOL     OW32218   0.157   0.565   3.040  0.0421  0.1324  0.6312
 6920SOL    HW132219   0.136   0.488   2.988 -0.9667 -0.2723  1.6356
 6920SOL    HW232220   0.077   0.581   3.090 -0.1965 -2.2308  0.9928
 6921SOL     OW32221   2.530   1.990  14.028  0.4025 -0.1038 -0.5982
 6921SOL    HW132222   2.449   2.039  14.017 -0.8982 -1.8964  1.0499
 6921SOL    HW232223   2.522   1.928  13.956  1.6096 -1.1899  0.1881
 6922SOL     OW32224   3.193   0.868  12.918 -0.1286 -0.2854 -0.0411
 6922SOL    HW132225   3.169   0.781  12.948  2.2835 -1.0392 -0.2637
 6922SOL    HW232226   3.288   0.859  12.926 -0.0459 -0.3375 -1.0210
 6923SOL     OW32227   4.400   0.505   3.102  0.2824  0.0479 -0.5451
 6923SOL    HW132228   4.420   0.598   3.097 -1.7382  0.5290  0.3296
 6923SOL    HW232229   4.305   0.504   3.092  0.0879  2.9649  1.1876
 6924SOL     OW32230   3.199   3.814   8.230 -0.3472  0.4737  0.0907
 6924SOL    HW132231   3.164   3.725   8.225  0.4745  0.1409  0.2864
 6924SOL    HW232232   3.247   3.819   8.147  0.1134  0.5321  0.3604
 6925SOL     OW32233   3.218   0.557  13.160 -0.1118  0.0977  0.4157
 6925SOL    HW132234   3.131   0.586  13.190 -0.5342  0.1451 -0.8655
 6925SOL    HW232235   3.195   0.488  13.098 -0.9612 -0.6795  1.5864
 6926SOL     OW32236   2.829   0.052   5.204  0.6315 -0.3721 -0.4318
 6926SOL    HW132237   2.796   0.133   5.242 -0.4966 -0.9956 -0.0808
 6926SOL    HW232238   2.924   0.065   5.200  0.6412 -0.6483 -1.1667
 6927SOL     OW32239   0.109   0.957   8.429  0.2387 -0.2519 -0.6763
 6927SOL    HW132240   0.015   0.947   8.415  0.1284 -0.2146  0.0405
 6927SOL    HW232241   0.110   0.928   8.520 -2.0209 -3.1043 -1.5595
 6928SOL     OW32242   2.356   3.628  11.839  0.1122  0.4195  0.3877
 6928SOL    HW132243   2.404   3.545  11.829 -1.6002 -0.3942 -1.1474
 6928SOL    HW232244   2.386   3.668  11.757 -0.0635 -1.7873 -0.7723
 6929SOL     OW32245   2.107   1.747   2.837  0.1316 -0.2853  0.1526
 6929SOL    HW132246   2.186   1.750   2.783  0.6409  0.3643  0.9201
 6929SOL    HW232247   2.143   1.706   2.916 -2.3721 -0.4585  1.1900
 6930SOL     OW32248   4.294   2.343   8.667  0.2112  0.2573 -0.0780
 6930SOL    HW132249   4.369   2.391   8.702  0.6841  0.6692 -1.6209
 6930SOL    HW232250   4.329   2.309   8.585  1.2045 -0.4963  0.6672
 6931SOL     OW32251   0.930   4.085   6.428 -0.4253 -0.8052  0.4315
 6931SOL    HW132252   0.863   4.058   6.490  0.2552  0.5720  1.7681
 6931SOL    HW232253   0.982   4.144   6.483 -0.0105 -1.3301  0.5982
 6932SOL     OW32254   4.024   4.013   0.926  0.0437 -0.4009 -0.1520
 6932SOL    HW132255   3.972   3.973   0.995  2.1281 -0.8000  1.1973
 6932SOL    HW232256   3.990   3.958   0.855 -0.1754 -1.8220  1.0667
 6933SOL     OW32257   4.448   1.794   9.634 -0.0037  0.5303 -0.2171
 6933SOL    HW132258   4.496   1.784   9.552 -1.5131  0.2864 -1.0706
 6933SOL    HW232259   4.354   1.805   9.617 -0.6313 -1.8227  1.7367
 6934SOL     OW32260   2.728   3.364   5.510 -0.3852  0.0445  0.0964
 6934SOL    HW132261   2.754   3.333   5.597 -1.0112 -1.0668 -0.1036
 6934SOL    HW232262   2.810   3.359   5.461 -0.9461 -1.8531 -0.6654
 6935SOL     OW32263   2.275   2.895   4.188 -0.5243  0.0142  0.5151
 6935SOL    HW132264   2.306   2.977   4.150  0.4551 -0.7385 -0.3314
 6935SOL    HW232265   2.250   2.925   4.275 -0.5678 -1.6480  1.0727
 6936SOL     OW32266   1.069   1.739   4.516 -0.0468  0.4495  0.2219
 6936SOL    HW132267   1.120   1.765   4.593 -0.2369 -3.4590  1.6228
 6936SOL    HW232268   1.022   1.821   4.501  0.4117  0.5704 -0.5687
 6937SOL     OW32269   0.366   0.357  13.144 -0.4397  0.2016  0.6272
 6937SOL    HW132270   0.359   0.273  13.098 -1.1043  0.2264  0.6811
 6937SOL    HW232271   0.280   0.353  13.186 -0.3199 -1.7887  0.7161
 6938SOL     OW32272   1.182   0.585   8.531  0.5050  0.7163 -0.1396
 6938SOL    HW132273   1.236   0.573   8.609  1.2248  0.9611 -0.6027
 6938SOL    HW232274   1.103   0.628   8.564  0.8353  2.0448 -1.0808
 6939SOL     OW32275   0.027   0.068  14.527  0.2169 -0.4421  0.2362
 6939SOL    HW132276   4.716   0.035  14.610  0.8789  1.0468  1.1082
 6939SOL    HW232277   4.721   0.159  14.530 -0.1806 -0.5191 -1.2565
 6940SOL     OW32278   4.589   2.390  15.142  0.6290 -0.2875 -0.4534
 6940SOL    HW132279   4.587   2.377  15.047 -1.0291  1.7595 -0.7144
 6940SOL    HW232280   4.652   2.461  15.157  1.2973 -0.6758 -1.4331
 6941SOL     OW32281   2.088   1.958  11.015  0.5618  0.1300  0.6144
 6941SOL    HW132282   2.124   1.879  11.055  1.4694 -0.1238 -0.7139
 6941SOL    HW232283   2.135   1.966  10.932  0.6451 -0.8056  0.5723
 6942SOL     OW32284   2.142   0.382   5.327  0.3243 -0.0660  0.2227
 6942SOL    HW132285   2.230   0.418   5.318  0.9493 -1.8341 -0.7270
 6942SOL    HW232286   2.121   0.422   5.412  1.6373 -4.3979  2.5732
 6943SOL     OW32287   3.902   3.188   3.130  0.0008  0.3350 -0.5396
 6943SOL    HW132288   3.818   3.201   3.084 -0.8761  1.7558  1.4821
 6943SOL    HW232289   3.898   3.093   3.144  1.3163  0.3927  0.1956
 6944SOL     OW32290   1.878   0.439   3.492 -0.0889  0.1752  0.1709
 6944SOL    HW132291   1.833   0.361   3.461 -0.7062  0.7967 -0.5270
 6944SOL    HW232292   1.876   0.487   3.409 -2.3754  0.4530  0.4008
 6945SOL     OW32293   2.832   3.304   3.947 -0.3590  0.1173  0.0776
 6945SOL    HW132294   2.740   3.329   3.961 -0.8004 -1.4674  0.0540
 6945SOL    HW232295   2.843   3.298   3.852  1.7530 -2.5932  0.4799
 6946SOL     OW32296   2.462   3.180   4.382 -0.4048 -0.8311 -0.3015
 6946SOL    HW132297   2.375   3.198   4.347 -0.8317  0.5203  1.4417
 6946SOL    HW232298   2.453   3.203   4.475 -1.7578  2.9566 -1.3728
 6947SOL     OW32299   2.127   0.855  13.131 -0.1654  0.0112  0.3199
 6947SOL    HW132300   2.180   0.832  13.055 -0.0733  0.6667  0.1891
 6947SOL    HW232301   2.051   0.898  13.091  2.1309  2.6337 -1.2058
 6948SOL     OW32302   2.188   2.628  13.413  0.4187 -0.2319  0.4820
 6948SOL    HW132303   2.276   2.639  13.378  0.8066 -0.6273  1.3189
 6948SOL    HW232304   2.188   2.701  13.476 -1.5264  0.1175  0.0847
 6949SOL     OW32305   1.454   1.819   5.840 -0.2177 -0.1033  0.1378
 6949SOL    HW132306   1.404   1.742   5.867  1.0763 -1.3246 -0.9895
 6949SOL    HW232307   1.545   1.790   5.844  0.0588  0.9794  2.0182
 6950SOL     OW32308   2.301   0.987   2.845 -0.3369  0.3804  0.1068
 6950SOL    HW132309   2.238   1.001   2.916  1.5374  1.0480  1.6682
 6950SOL    HW232310   2.258   0.912   2.804 -0.2176  1.2848 -1.6870
 6951SOL     OW32311   3.269   0.541   3.542  0.1567  1.1029 -0.0375
 6951SOL    HW132312   3.206   0.498   3.485 -0.3995  1.2483  0.4735
 6951SOL    HW232313   3.216   0.585   3.608 -1.4886 -1.7975  0.5905
 6952SOL     OW32314   4.643   2.932   5.241  0.5720  0.0059 -0.0841
 6952SOL    HW132315   4.694   2.969   5.169 -0.0765  1.7377  0.3339
 6952SOL    HW232316   4.557   2.930   5.199  0.7893  1.2434 -0.6104
 6953SOL     OW32317   4.643   0.046   5.999 -0.3374 -0.2978 -0.5283
 6953SOL    HW132318   4.700   0.060   6.074 -1.2835  2.8160 -0.3742
 6953SOL    HW232319   4.557   0.021   6.033 -0.0616  0.4937  0.7432
 6954SOL     OW32320   0.752   1.846   7.710 -0.4286 -0.1861 -0.2780
 6954SOL    HW132321   0.798   1.898   7.777 -0.7173 -0.9575  0.5276
 6954SOL    HW232322   0.732   1.768   7.763 -0.5861 -0.6590 -1.0443
 6955SOL     OW32323   1.142   4.659   7.714  0.3852 -0.3571  0.6651
 6955SOL    HW132324   1.085   4.715   7.660  2.7063 -0.1776 -1.5922
 6955SOL    HW232325   1.221   4.712   7.705 -0.7274  0.9937 -1.1839
 6956SOL     OW32326   1.348   1.853   6.878 -0.1270  0.3575 -0.4387
 6956SOL    HW132327   1.414   1.810   6.932  1.1638 -0.7905 -2.9103
 6956SOL    HW232328   1.352   1.943   6.909  1.8136  0.8127 -1.9969
 6957SOL     OW32329   2.736   1.465   7.157 -0.2728 -0.5147 -0.2117
 6957SOL    HW132330   2.730   1.427   7.244  1.6259 -0.4379 -0.0479
 6957SOL    HW232331   2.826   1.495   7.148  0.2266 -0.5344  4.7933
 6958SOL     OW32332   0.874   2.579   4.879 -0.6809 -0.7606 -0.3960
 6958SOL    HW132333   0.926   2.501   4.859  1.1359  0.1367  0.7970
 6958SOL    HW232334   0.930   2.620   4.945 -1.9918 -0.0179  0.2486
 6959SOL     OW32335   3.089   1.689  12.429  0.2654  0.4150 -0.1708
 6959SOL    HW132336   3.133   1.719  12.350 -0.5823  1.2804 -0.3093
 6959SOL    HW232337   3.034   1.619  12.393 -1.5917  1.5327  0.5165
 6960SOL     OW32338   3.752   3.060   2.451  0.1839 -0.3029 -0.4979
 6960SOL    HW132339   3.789   3.145   2.428 -0.0525 -0.8871 -2.9701
 6960SOL    HW232340   3.775   3.054   2.544 -3.4111  0.1097  0.4111
 6961SOL     OW32341   3.978   1.253   2.410 -0.1790 -0.1268  0.8176
 6961SOL    HW132342   3.939   1.339   2.399 -0.8006 -0.6759 -1.3023
 6961SOL    HW232343   4.071   1.278   2.412  0.0987 -0.9211 -1.5703
 6962SOL     OW32344   3.599   1.587   3.329 -0.4194  0.8943  0.0184
 6962SOL    HW132345   3.615   1.588   3.234 -1.4979  0.0210 -0.1656
 6962SOL    HW232346   3.609   1.680   3.350  0.5948  1.3320 -2.3228
 6963SOL     OW32347   0.734   3.034   8.841 -0.2830  0.4478  0.0098
 6963SOL    HW132348   0.781   2.957   8.808 -1.4316 -0.7849  1.2185
 6963SOL    HW232349   0.756   3.109   8.786  1.7050 -0.9167 -1.0406
 6964SOL     OW32350   2.022   4.349   5.641 -0.0006 -0.3040  0.4798
 6964SOL    HW132351   2.085   4.279   5.629  1.5187  1.0831  0.3654
 6964SOL    HW232352   1.970   4.320   5.566  1.5408  1.4731 -1.2710
 6965SOL     OW32353   4.288   2.767   2.756  0.1876 -0.1212  0.2334
 6965SOL    HW132354   4.276   2.860   2.735 -1.1938  0.1088  1.9937
 6965SOL    HW232355   4.213   2.731   2.708 -1.0392  1.1954  1.1625
 6966SOL     OW32356   3.920   3.771  14.862 -0.0522 -0.4944  0.0634
 6966SOL    HW132357   3.988   3.704  14.863  0.0995 -0.3556 -1.1178
 6966SOL    HW232358   3.906   3.775  14.768 -2.2254 -2.3427  0.3174
 6967SOL     OW32359   4.442   0.136   7.807  0.3758  0.4465  0.0900
 6967SOL    HW132360   4.479   0.056   7.843 -0.4743  0.7501  1.6434
 6967SOL    HW232361   4.520   0.192   7.800 -0.0295  0.9494 -0.4213
 6968SOL     OW32362   3.858   4.223   2.181  0.0913  0.7170 -0.0222
 6968SOL    HW132363   3.890   4.305   2.144 -2.3940  1.9012  0.4686
 6968SOL    HW232364   3.936   4.194   2.229  0.1116  0.2611 -0.3277
 6969SOL     OW32365   0.297   2.129  11.947  0.1440  0.4452 -0.2428
 6969SOL    HW132366   0.365   2.196  11.953  0.7925 -0.2478  0.0450
 6969SOL    HW232367   0.225   2.170  11.994  1.8179  1.0677  1.7257
 6970SOL     OW32368   1.012   4.098  10.256  0.2833  0.0027 -0.1399
 6970SOL    HW132369   1.016   4.097  10.352 -2.5920 -1.6609 -0.0562
 6970SOL    HW232370   1.066   4.025  10.227 -3.2824 -2.2265 -1.1627
 6971SOL     OW32371   4.703   3.969  15.063  0.5415 -0.0046  0.0973
 6971SOL    HW132372   4.618   3.985  15.022 -1.1799 -1.0464  3.2290
 6971SOL    HW232373   0.015   3.891  15.018 -4.3400 -1.9748 -0.2394
 6972SOL     OW32374   0.684   0.821  12.964  0.1929  0.1388 -0.4240
 6972SOL    HW132375   0.669   0.726  12.970  4.4902 -0.5531 -0.6724
 6972SOL    HW232376   0.623   0.848  12.895  1.1819  1.2661 -0.8533
 6973SOL     OW32377   1.655   3.059  11.419  0.4439 -0.1080  0.6048
 6973SOL    HW132378   1.674   2.968  11.395 -2.4318 -0.8758  1.2733
 6973SOL    HW232379   1.571   3.058  11.373  1.3004  1.9151 -0.9887
 6974SOL     OW32380   3.505   0.260   9.110 -0.0701 -0.1163  0.2081
 6974SOL    HW132381   3.586   0.215   9.134 -0.6619 -0.7768  0.9821
 6974SOL    HW232382   3.490   0.229   9.021 -0.2360 -0.4237  0.3411
 6975SOL     OW32383   4.660   0.102   6.809 -0.1016 -0.1757 -0.3667
 6975SOL    HW132384   4.687   0.094   6.900  1.4810  2.4534 -0.6381
 6975SOL    HW232385   4.572   0.137   6.827  0.3630  0.5099  0.5462
 6976SOL     OW32386   2.213   4.208  11.179  0.8849  0.3268  0.2280
 6976SOL    HW132387   2.250   4.121  11.191  1.3965  0.9035  2.7208
 6976SOL    HW232388   2.127   4.173  11.154 -0.3636  2.0865  2.0234
 6977SOL     OW32389   1.033   2.991   1.938  0.5501 -0.2023 -0.0501
 6977SOL    HW132390   0.984   2.984   1.856  1.4563  2.6877 -0.8438
 6977SOL    HW232391   1.103   3.053   1.918  0.3180 -0.6010 -2.1533
 6978SOL     OW32392   1.050   2.719   8.640 -0.3291 -0.2549  0.3710
 6978SOL    HW132393   1.113   2.724   8.567 -0.5920  1.4564  0.2590
 6978SOL    HW232394   1.091   2.766   8.713 -1.4416 -0.5393  1.1744
 6979SOL     OW32395   3.215   1.042   2.328 -0.1839  0.7170 -0.1660
 6979SOL    HW132396   3.236   0.952   2.303 -2.5661 -0.2449  1.3030
 6979SOL    HW232397   3.231   1.083   2.243 -1.2179  1.8621  0.1884
 6980SOL     OW32398   1.667   1.839   8.577  0.5711  0.2029  0.2757
 6980SOL    HW132399   1.614   1.781   8.632 -1.4388  2.2614  0.5202
 6980SOL    HW232400   1.605   1.848   8.505 -0.9655 -3.1548  1.1896
 6981SOL     OW32401   1.684   2.112   8.621 -0.0850 -0.4227  0.4582
 6981SOL    HW132402   1.725   2.030   8.594 -1.6802 -1.4384  1.0867
 6981SOL    HW232403   1.591   2.108   8.599 -0.1166  2.5010  0.0441
 6982SOL     OW32404   4.422   1.282  15.414  0.7336 -0.1024 -0.0930
 6982SOL    HW132405   4.349   1.286  15.352  1.8824  1.4302 -1.3440
 6982SOL    HW232406   4.496   1.257  15.360  0.5440  0.3931 -0.5895
 6983SOL     OW32407   4.059   2.335   6.847 -0.1613  0.1676 -0.2105
 6983SOL    HW132408   4.038   2.306   6.936  1.2950 -1.2636 -0.3117
 6983SOL    HW232409   4.066   2.254   6.796  1.9228  0.4498 -0.3814
 6984SOL     OW32410   2.478   0.985   0.851  0.3624 -0.1184 -0.5759
 6984SOL    HW132411   2.536   0.967   0.777 -0.6431 -1.3309 -1.0770
 6984SOL    HW232412   2.504   1.074   0.874  1.0223 -0.1509 -1.1818
 6985SOL     OW32413   3.537   4.353   8.167 -0.3721  0.5126  0.3281
 6985SOL    HW132414   3.447   4.379   8.183 -0.5184  1.2589 -1.7706
 6985SOL    HW232415   3.538   4.276   8.224  1.0499 -1.0424 -1.8349
 6986SOL     OW32416   0.689   3.621  15.910 -0.4132  0.3688 -0.3214
 6986SOL    HW132417   0.680   3.638  15.816 -0.2151  0.8752 -0.2526
 6986SOL    HW232418   0.620   3.683  15.937  0.0632 -0.8687  3.6857
 6987SOL     OW32419   3.522   1.758   4.934 -0.7092 -0.0909 -0.1621
 6987SOL    HW132420   3.468   1.714   4.869 -0.5016  1.2169 -1.2100
 6987SOL    HW232421   3.465   1.759   5.011 -0.0082  0.8148  0.3506
 6988SOL     OW32422   1.841   2.680   5.015  0.6156 -0.4224 -0.1550
 6988SOL    HW132423   1.916   2.739   5.010  1.6254 -1.7548 -0.7381
 6988SOL    HW232424   1.865   2.609   4.955  1.8152  0.9325 -1.2595
 6989SOL     OW32425   0.088   1.348  11.556 -0.4997 -0.1871 -0.6192
 6989SOL    HW132426   0.115   1.397  11.634 -0.5647 -1.0889 -0.0331
 6989SOL    HW232427   0.177   1.331  11.525  0.6786  2.9356  0.9551
 6990SOL     OW32428   3.644   4.088   2.073  0.0760 -0.2004 -0.4584
 6990SOL    HW132429   3.713   4.150   2.097 -0.4393  0.2561 -0.1605
 6990SOL    HW232430   3.569   4.126   2.118  0.0974  0.8464 -1.3071
 6991SOL     OW32431   3.747   0.496   3.732 -0.1736 -0.3189  0.0820
 6991SOL    HW132432   3.655   0.501   3.757 -0.8514  0.6493 -2.6088
 6991SOL    HW232433   3.778   0.411   3.763 -1.2784 -1.7373 -2.7408
 6992SOL     OW32434   1.453   1.371   5.599 -0.4668 -0.0343  0.4590
 6992SOL    HW132435   1.470   1.291   5.649 -0.4506  0.8366  1.8585
 6992SOL    HW232436   1.402   1.336   5.526  2.3761 -1.1987 -0.9682
 6993SOL     OW32437   1.009   0.536   8.246  0.4092  0.8013 -1.2014
 6993SOL    HW132438   0.984   0.537   8.338  0.6025  1.1579 -1.1534
 6993SOL    HW232439   1.099   0.569   8.249  0.5202  0.4334 -0.6389
 6994SOL     OW32440   0.304   1.188  11.478  0.3045  0.5228  0.1947
 6994SOL    HW132441   0.397   1.199  11.460  0.3456  1.4924  1.0190
 6994SOL    HW232442   0.307   1.168  11.571 -2.5829 -3.2360 -0.5169
 6995SOL     OW32443   2.969   0.659  13.213 -0.4784  0.1936 -0.6047
 6995SOL    HW132444   2.885   0.616  13.230  0.3224 -0.5249  1.5326
 6995SOL    HW232445   2.973   0.734  13.272  0.6990 -1.5922  1.5793
 6996SOL     OW32446   4.325   4.350   4.650 -0.2964 -0.0288  0.3427
 6996SOL    HW132447   4.405   4.299   4.641 -0.0664  0.1642  1.3390
 6996SOL    HW232448   4.323   4.387   4.561  0.5384 -0.7709  0.0132
 6997SOL     OW32449   0.928   3.844   7.202  0.1361  0.2637 -0.5936
 6997SOL    HW132450   0.891   3.772   7.253 -0.9793  1.7086  0.6373
 6997SOL    HW232451   0.874   3.845   7.122  0.4765  1.7778 -0.8086
 6998SOL     OW32452   2.390   0.751   7.178  0.8659 -0.0182  0.7820
 6998SOL    HW132453   2.320   0.789   7.125  2.0299 -0.4422 -1.0794
 6998SOL    HW232454   2.343   0.752   7.262  1.4927  2.5752  1.1000
 6999SOL     OW32455   0.850   1.593   2.570  0.0194  0.1116 -0.1014
 6999SOL    HW132456   0.916   1.639   2.623 -0.1726 -0.3640  0.5587
 6999SOL    HW232457   0.882   1.503   2.581  0.1374  0.3630  1.6175
 7000SOL     OW32458   2.798   3.463   7.701 -0.3998 -0.2270 -0.8470
 7000SOL    HW132459   2.724   3.436   7.646  0.1314  1.6891 -2.4920
 7000SOL    HW232460   2.851   3.387   7.724 -0.3167  0.0601 -0.0987
 7001SOL     OW32461   0.491   4.267   2.691 -0.4285  0.2968 -0.0605
 7001SOL    HW132462   0.569   4.266   2.637 -0.7062  0.3403 -0.4636
 7001SOL    HW232463   0.490   4.184   2.738 -0.1771  0.8676  0.9538
 7002SOL     OW32464   3.206   4.677   7.032  0.1735  0.6504 -0.1036
 7002SOL    HW132465   3.175   4.654   6.944 -0.3977 -1.9260  0.7597
 7002SOL    HW232466   3.301   4.667   7.027  0.2153  1.9436 -1.7539
 7003SOL     OW32467   3.600   2.682   7.595 -0.0742 -0.2829  0.3368
 7003SOL    HW132468   3.621   2.728   7.513 -0.7749 -0.1660  0.2216
 7003SOL    HW232469   3.535   2.744   7.630  0.9070  0.6219  0.5617
 7004SOL     OW32470   0.343   1.917   8.470 -0.2307  0.3921 -0.0697
 7004SOL    HW132471   0.437   1.897   8.477 -0.0268  1.2222 -0.3355
 7004SOL    HW232472   0.347   2.007   8.503 -1.9273  1.2958 -2.3467
 7005SOL     OW32473   4.058   2.794  11.293  0.0417 -0.0654  1.1990
 7005SOL    HW132474   4.033   2.702  11.308  1.3644 -0.3789  1.4637
 7005SOL    HW232475   4.082   2.819  11.382  0.4215 -0.0194  1.0834
 7006SOL     OW32476   3.934   0.380   2.552 -0.0016  0.4890 -0.4637
 7006SOL    HW132477   3.942   0.470   2.519  0.4839  0.7684  0.4112
 7006SOL    HW232478   3.839   0.374   2.563 -0.2811  2.5365 -1.6669
 7007SOL     OW32479   3.011   0.310   3.138  0.4663 -0.0070 -0.3589
 7007SOL    HW132480   3.079   0.250   3.107  0.9433 -0.4707  1.6216
 7007SOL    HW232481   2.936   0.295   3.080  0.6970  0.1862 -0.7111
 7008SOL     OW32482   3.671   2.713   6.923 -0.3315  0.5733 -0.1848
 7008SOL    HW132483   3.688   2.766   6.844  0.0298  3.0147  1.5375
 7008SOL    HW232484   3.743   2.652   6.937 -0.2691  0.4026 -1.2227
 7009SOL     OW32485   4.554   0.280  14.394  0.1620 -0.0576  0.7180
 7009SOL    HW132486   4.629   0.294  14.451  0.6956 -1.4747  0.3593
 7009SOL    HW232487   4.505   0.363  14.397 -0.8692 -0.6999  1.5933
 7010SOL     OW32488   3.608   1.102   5.214  0.4648 -0.0232 -0.6290
 7010SOL    HW132489   3.622   1.016   5.173 -1.1000 -1.0121  0.9318
 7010SOL    HW232490   3.693   1.118   5.255  0.0401  4.0976 -1.3786
 7011SOL     OW32491   0.408   0.048   8.923  0.1004  0.2893 -0.2449
 7011SOL    HW132492   0.430   0.103   8.847 -0.3283  0.5914 -0.1534
 7011SOL    HW232493   0.487   4.717   8.922  2.2250  3.3819  0.9683
 7012SOL     OW32494   3.299   0.329   8.792  0.2628  0.4761 -0.0258
 7012SOL    HW132495   3.217   0.375   8.774 -1.0267 -0.8198  2.5181
 7012SOL    HW232496   3.358   0.387   8.743  1.5146 -1.1473 -0.4465
 7013SOL     OW32497   4.672   4.326  17.137  0.0874 -0.2113  0.3616
 7013SOL    HW132498   4.633   4.246  17.101 -0.8630 -1.2536  3.6928
 7013SOL    HW232499   4.697   4.295  17.224  0.5343  0.3518  0.4272
 7014SOL     OW32500   1.719   0.761   9.334 -0.1173  0.8777  0.0542
 7014SOL    HW132501   1.740   0.716   9.253  0.6800  3.0546 -0.9608
 7014SOL    HW232502   1.643   0.818   9.322 -0.3888 -0.0705 -2.5643
 7015SOL     OW32503   1.883   1.665   8.444  0.6034  0.5487  0.0831
 7015SOL    HW132504   1.821   1.731   8.477  0.2697 -0.6307  1.8336
 7015SOL    HW232505   1.962   1.688   8.493 -0.5219  0.9753  1.7030
 7016SOL     OW32506   3.701   2.882   9.601 -0.3100 -0.1449 -0.5878
 7016SOL    HW132507   3.669   2.812   9.543 -1.2401 -0.9024  0.8294
 7016SOL    HW232508   3.790   2.857   9.624 -0.3688  0.3790  0.2206
 7017SOL     OW32509   4.227   1.948  10.388 -0.2363  0.6959  0.0505
 7017SOL    HW132510   4.313   1.910  10.374  0.4970  1.9894  1.1088
 7017SOL    HW232511   4.256   2.022  10.440 -0.1267 -1.4161  2.9668
 7018SOL     OW32512   1.712   2.990   8.012  0.2157 -0.2796  0.0862
 7018SOL    HW132513   1.756   3.075   8.007  2.6883 -1.5175  0.6907
 7018SOL    HW232514   1.777   2.932   7.971  0.0106 -0.2961 -0.2164
 7019SOL     OW32515   3.458   0.135  10.220  0.4664 -0.1168  0.9335
 7019SOL    HW132516   3.431   0.049  10.190  1.6932  0.2330 -1.1574
 7019SOL    HW232517   3.537   0.137  10.166 -1.0886  2.0879 -1.2867
 7020SOL     OW32518   2.177   3.742   8.043  0.3736 -0.2149  0.2672
 7020SOL    HW132519   2.253   3.738   8.101  1.1190  0.3793 -0.6864
 7020SOL    HW232520   2.133   3.812   8.091  2.9373  2.0035 -0.6564
 7021SOL     OW32521   0.029   0.791   8.663  0.7530  0.0526  0.1073
 7021SOL    HW132522   0.077   0.730   8.718 -0.9119  1.6209  3.3035
 7021SOL    HW232523   0.005   0.858   8.728  1.7354  1.7811 -1.3304
 7022SOL     OW32524   2.275   1.384   1.678 -0.4286 -0.1021  0.5436
 7022SOL    HW132525   2.248   1.454   1.619 -1.0911 -0.1569  0.7843
 7022SOL    HW232526   2.300   1.322   1.610  1.3131 -1.9827  2.8680
 7023SOL     OW32527   0.658   0.817   3.208 -0.9572  0.3466 -0.0203
 7023SOL    HW132528   0.685   0.895   3.257  1.8233  0.0827 -1.1838
 7023SOL    HW232529   0.730   0.812   3.146 -1.1940  1.1360 -0.3547
 7024SOL     OW32530   1.830   4.557   8.967  0.2635 -0.4557  0.1875
 7024SOL    HW132531   1.876   4.622   9.020  0.2151  0.7118 -1.2183
 7024SOL    HW232532   1.808   4.600   8.885  1.8514  1.2815  0.6545
 7025SOL     OW32533   1.711   2.888   4.663  0.1983 -0.1435 -0.4666
 7025SOL    HW132534   1.798   2.880   4.701 -0.7265 -2.5140  1.2046
 7025SOL    HW232535   1.671   2.812   4.706  0.9178  0.8322  1.9120
 7026SOL     OW32536   2.411   3.448   9.323  0.0237  0.6900  0.2038
 7026SOL    HW132537   2.381   3.464   9.412 -0.3249 -1.4702  0.4892
 7026SOL    HW232538   2.411   3.533   9.279 -1.9078  1.3651  1.5404
 7027SOL     OW32539   0.250   2.737   8.285  0.0371  0.1382 -0.4120
 7027SOL    HW132540   0.159   2.740   8.257 -0.6734  1.6804  2.0542
 7027SOL    HW232541   0.297   2.682   8.222 -2.2699  0.4967 -2.4351
 7028SOL     OW32542   1.585   4.146   9.153  0.1428  0.0083 -0.1160
 7028SOL    HW132543   1.513   4.209   9.153 -1.5759 -1.9716  0.7953
 7028SOL    HW232544   1.647   4.212   9.120  1.9711 -1.9217 -0.5446
 7029SOL     OW32545   1.256   0.700   7.742 -0.1986  0.2942 -0.0288
 7029SOL    HW132546   1.311   0.692   7.664 -0.1995  0.1679 -0.0166
 7029SOL    HW232547   1.281   0.785   7.777  0.5604 -0.1249  0.4386
 7030SOL     OW32548   1.836   3.183   5.499 -0.2488 -0.3600  0.1319
 7030SOL    HW132549   1.808   3.203   5.409  0.3711 -0.6349 -0.1236
 7030SOL    HW232550   1.891   3.258   5.519 -0.4394 -0.0326 -0.5582
 7031SOL     OW32551   1.737   1.477   2.906 -1.3445 -0.1764 -0.5131
 7031SOL    HW132552   1.755   1.385   2.887  1.2369 -0.0692  1.4333
 7031SOL    HW232553   1.786   1.517   2.833 -0.3667 -2.4788 -1.1178
 7032SOL     OW32554   4.187   0.304  17.046 -0.5827 -0.1664 -0.2373
 7032SOL    HW132555   4.104   0.342  17.017  0.6649  1.2346 -2.0365
 7032SOL    HW232556   4.170   0.213  17.024 -0.3051 -0.5525  1.1639
 7033SOL     OW32557   1.073   0.734   2.683 -0.7217 -0.5169  0.6113
 7033SOL    HW132558   1.085   0.654   2.633 -0.6342 -0.1908  0.1160
 7033SOL    HW232559   1.167   0.752   2.693 -0.5980 -0.8771  0.1148
 7034SOL     OW32560   2.042   3.517   6.969  0.1497  0.7018 -0.3248
 7034SOL    HW132561   2.017   3.473   7.050 -1.7860  1.5591 -0.4537
 7034SOL    HW232562   1.979   3.484   6.905 -0.4327 -1.0044  1.1592
 7035SOL     OW32563   3.492   3.886   2.443 -0.8793  0.2145 -0.1366
 7035SOL    HW132564   3.518   3.804   2.484 -1.2038  0.1790 -0.0040
 7035SOL    HW232565   3.447   3.937   2.511 -0.1762 -0.8824  1.1510
 7036SOL     OW32566   3.973   1.704   1.389 -0.7734  0.3104  0.4550
 7036SOL    HW132567   4.035   1.771   1.361 -0.6557 -0.3443 -0.8701
 7036SOL    HW232568   3.970   1.652   1.308 -1.2471 -0.6559  1.0829
 7037SOL     OW32569   0.229   2.099   4.672 -0.3421  0.4053 -0.4908
 7037SOL    HW132570   0.176   2.093   4.752 -1.0513  0.6123 -0.9427
 7037SOL    HW232571   0.316   2.098   4.713 -1.0796  1.1435  1.0923
 7038SOL     OW32572   0.746   1.574   3.412  0.2810  0.0677 -1.0796
 7038SOL    HW132573   0.680   1.643   3.406  0.1313  0.2030  2.6145
 7038SOL    HW232574   0.800   1.594   3.488  3.2454 -2.7343 -2.4091
 7039SOL     OW32575   2.670   3.842   5.679  0.0016  0.2486 -0.0735
 7039SOL    HW132576   2.628   3.810   5.599  0.8077 -0.8321 -0.0678
 7039SOL    HW232577   2.592   3.870   5.728 -0.7914  0.5095 -1.4813
 7040SOL     OW32578   3.608   3.703   8.931 -0.2336  0.3687 -0.1960
 7040SOL    HW132579   3.677   3.767   8.910  1.4213 -0.8814  1.4127
 7040SOL    HW232580   3.650   3.628   8.889  1.3560  0.4615  1.2125
 7041SOL     OW32581   1.224   0.858   5.086  0.7075 -0.1116  0.1357
 7041SOL    HW132582   1.298   0.818   5.040 -1.0684 -1.6268 -1.4051
 7041SOL    HW232583   1.180   0.776   5.106  0.1148  0.0068 -0.6787
 7042SOL     OW32584   1.886   1.078  16.395  0.6780  0.5904  0.0186
 7042SOL    HW132585   1.801   1.034  16.406  0.9729  0.3744  1.4959
 7042SOL    HW232586   1.939   0.999  16.402 -0.4779 -0.2436 -0.7019
 7043SOL     OW32587   3.939   1.035   3.006  0.2567  0.2402 -0.8587
 7043SOL    HW132588   4.010   0.970   3.005  1.1671  1.2414 -1.4936
 7043SOL    HW232589   3.864   0.982   3.034 -0.0438 -0.8337 -3.6531
 7044SOL     OW32590   2.756   4.126   5.412 -0.3849  0.2282 -0.3536
 7044SOL    HW132591   2.806   4.144   5.491 -2.4905  1.2071  0.7619
 7044SOL    HW232592   2.717   4.040   5.429  0.4109  0.1463  1.0101
 7045SOL     OW32593   0.228   0.285   4.356  0.2908 -0.2799 -0.3090
 7045SOL    HW132594   0.201   0.249   4.440  1.6300  1.0984  0.7079
 7045SOL    HW232595   0.254   0.201   4.317 -2.6966 -1.6115  0.5623
 7046SOL     OW32596   2.664   0.246  13.674 -0.2579  0.1612 -0.3781
 7046SOL    HW132597   2.727   0.289  13.616  1.8078  2.9133  3.9126
 7046SOL    HW232598   2.720   0.211  13.743  2.0492 -1.7694 -3.2324
 7047SOL     OW32599   4.052   0.140   0.931  0.0078  0.3737  0.4606
 7047SOL    HW132600   4.059   0.170   0.840 -0.1916  1.2916  0.7531
 7047SOL    HW232601   4.094   0.055   0.923  1.4454  0.8618  3.0364
 7048SOL     OW32602   4.144   1.111   3.461 -0.1656  0.3847 -0.1008
 7048SOL    HW132603   4.057   1.135   3.431 -0.3646  1.3491  1.2444
 7048SOL    HW232604   4.165   1.046   3.394  1.4055 -0.3159  1.0695
 7049SOL     OW32605   3.697   2.315   3.746  0.8900  0.1328  0.4002
 7049SOL    HW132606   3.788   2.293   3.728  1.0317  0.6690  0.4523
 7049SOL    HW232607   3.663   2.229   3.769  0.7110  0.2360  0.5256
 7050SOL     OW32608   3.169   4.249   5.438 -0.3336 -0.4632 -0.2393
 7050SOL    HW132609   3.114   4.314   5.395  2.1370  1.9111  0.1530
 7050SOL    HW232610   3.246   4.260   5.382 -0.2889  0.7444  0.0645
 7051SOL     OW32611   4.661   4.562   8.737  0.0177 -0.2752 -0.4679
 7051SOL    HW132612   0.022   4.588   8.776  0.4860 -0.5685 -1.2803
 7051SOL    HW232613   4.684   4.575   8.645 -0.5577 -0.8319 -0.6870
 7052SOL     OW32614   0.536   2.974  10.922  0.4528 -0.1648  0.2751
 7052SOL    HW132615   0.457   3.022  10.949  0.6186 -0.2212  0.8751
 7052SOL    HW232616   0.594   3.030  10.973  2.6875 -0.2915 -2.1576
 7053SOL     OW32617   4.155   0.853   9.389 -0.5404  0.5183  0.3318
 7053SOL    HW132618   4.144   0.775   9.443  0.5052  0.3030  0.2397
 7053SOL    HW232619   4.168   0.804   9.308  0.6588  0.6921  0.4159
 7054SOL     OW32620   0.055   2.476  16.818 -0.7646 -0.0565 -0.1321
 7054SOL    HW132621   0.093   2.400  16.862 -0.2517  0.1805 -0.1616
 7054SOL    HW232622   4.698   2.428  16.797 -1.6360  1.1544  0.4023
 7055SOL     OW32623   2.614   2.015   6.967  0.5280 -0.4772  0.5688
 7055SOL    HW132624   2.703   2.049   6.962  1.0479 -1.7523  1.1560
 7055SOL    HW232625   2.602   2.000   7.061  3.4025  0.7917  1.1223
 7056SOL     OW32626   4.371   0.273  13.314  0.3311  0.6903  0.3956
 7056SOL    HW132627   4.387   0.187  13.351  0.2815  0.2404 -0.6291
 7056SOL    HW232628   4.386   0.269  13.220 -0.1393 -1.5467  0.4215
 7057SOL     OW32629   3.235   3.251  16.111 -0.1903 -0.5389  0.3729
 7057SOL    HW132630   3.330   3.245  16.101  0.0792 -0.5390  2.9133
 7057SOL    HW232631   3.226   3.251  16.206 -1.9029 -0.2179  0.2163
 7058SOL     OW32632   3.644   2.224   3.145  0.2110 -0.1729 -0.4385
 7058SOL    HW132633   3.588   2.147   3.150 -0.2515  0.1603 -0.5167
 7058SOL    HW232634   3.661   2.218   3.051 -0.3115  0.8984 -0.5965
 7059SOL     OW32635   1.182   1.985   5.751 -0.3008  0.5642  0.3016
 7059SOL    HW132636   1.246   2.003   5.681 -0.7261  0.4973 -0.1056
 7059SOL    HW232637   1.236   1.927   5.804  3.1759  1.4976 -2.1685
 7060SOL     OW32638   2.148   1.815  13.088  0.2518  0.0253 -0.0217
 7060SOL    HW132639   2.177   1.765  13.164 -0.7424  0.3021  0.5418
 7060SOL    HW232640   2.126   1.897  13.133 -1.5782  0.0713 -1.0212
 7061SOL     OW32641   2.223   1.648   8.246 -0.3214  0.9130 -0.1205
 7061SOL    HW132642   2.225   1.730   8.197  1.8511  1.0776  0.2174
 7061SOL    HW232643   2.137   1.617   8.217 -0.6031  0.7797  0.8683
 7062SOL     OW32644   4.617   0.736   6.777  0.0659  0.3039  0.6052
 7062SOL    HW132645   4.556   0.684   6.829  0.0490 -0.9534 -0.6753
 7062SOL    HW232646   4.549   0.791   6.738  0.4629  0.0304 -0.4768
 7063SOL     OW32647   4.654   2.099   5.345 -0.3404 -0.1476  0.1982
 7063SOL    HW132648   4.628   2.098   5.253 -0.2363 -2.9589  0.2130
 7063SOL    HW232649   0.025   2.110   5.329 -0.4095  2.0105  1.1164
 7064SOL     OW32650   2.827   0.077   6.095  0.1583  0.3639  0.5193
 7064SOL    HW132651   2.851   0.039   6.179  0.6205 -2.0831 -0.7251
 7064SOL    HW232652   2.836   0.007   6.031 -1.4175 -0.0927  0.7827
 7065SOL     OW32653   2.004   2.711  17.293 -0.0657  0.3743  0.1021
 7065SOL    HW132654   1.942   2.783  17.302 -1.4959 -0.6145 -1.8869
 7065SOL    HW232655   2.041   2.692  17.379 -0.0402 -1.9825 -0.4426
 7066SOL     OW32656   3.308   0.832  10.892 -0.2688  0.2337  0.3036
 7066SOL    HW132657   3.403   0.822  10.889 -0.2123  0.4363  1.3008
 7066SOL    HW232658   3.287   0.836  10.985 -1.7108 -2.7321  0.0838
 7067SOL     OW32659   2.465   3.579   3.432 -0.4208 -0.0067 -0.6174
 7067SOL    HW132660   2.416   3.660   3.418 -0.6427 -0.3560 -1.8302
 7067SOL    HW232661   2.537   3.585   3.370  1.0616  0.2999  1.1331
 7068SOL     OW32662   2.901   0.207   3.392 -0.6170  0.0247 -0.4715
 7068SOL    HW132663   2.818   0.164   3.411 -0.6508  0.1244 -0.3949
 7068SOL    HW232664   2.881   0.229   3.301  1.9796  0.9469 -0.8292
 7069SOL     OW32665   4.341   1.713   3.920  0.0404 -0.4101 -0.2625
 7069SOL    HW132666   4.404   1.641   3.931  1.8320  1.5035  2.0561
 7069SOL    HW232667   4.387   1.790   3.953  0.3287  0.6673 -3.1808
 7070SOL     OW32668   3.108   0.771   8.592  0.1431 -0.7013  0.2145
 7070SOL    HW132669   3.176   0.740   8.652  0.9193  0.1555 -0.2327
 7070SOL    HW232670   3.150   0.769   8.506 -1.0834  0.0060 -0.3938
 7071SOL     OW32671   2.486   0.711   8.864  0.3823  0.2697  0.1537
 7071SOL    HW132672   2.445   0.627   8.846  1.7022 -0.3036 -0.1486
 7071SOL    HW232673   2.498   0.713   8.959  0.4546  0.8880  0.1313
 7072SOL     OW32674   4.706   1.741   2.318 -0.3099 -0.1071 -0.6274
 7072SOL    HW132675   4.662   1.666   2.360  1.8142 -0.6070  0.7035
 7072SOL    HW232676   4.714   1.794   2.397  0.4909 -3.3021  1.4616
 7073SOL     OW32677   0.905   0.715  15.719 -0.5734  0.1291 -0.1457
 7073SOL    HW132678   0.899   0.715  15.815 -0.2287 -0.2373 -0.1266
 7073SOL    HW232679   0.837   0.778  15.696  1.3059  3.2145  2.7692
 7074SOL     OW32680   2.402   3.350   2.713  0.0595 -0.6294  0.0089
 7074SOL    HW132681   2.434   3.261   2.698  3.6962  0.7085 -0.0910
 7074SOL    HW232682   2.324   3.349   2.656 -1.3675 -1.7662  1.9852
 7075SOL     OW32683   2.023   2.874   4.758  0.1450  0.0246  0.1321
 7075SOL    HW132684   2.056   2.863   4.847 -2.6429 -0.2034  1.1539
 7075SOL    HW232685   2.068   2.808   4.706  3.2031  2.5744 -0.4069
 7076SOL     OW32686   1.497   3.122   6.862  0.1924  0.1020  0.1187
 7076SOL    HW132687   1.418   3.113   6.810  1.3692 -0.2709 -1.6268
 7076SOL    HW232688   1.477   3.075   6.942  0.7102  2.2169  1.5071
 7077SOL     OW32689   1.128   3.447   9.375 -0.8559  0.4159  0.1189
 7077SOL    HW132690   1.169   3.396   9.445 -1.4775  0.6195  0.6243
 7077SOL    HW232691   1.060   3.385   9.349 -1.5826  1.3140 -0.1138
 7078SOL     OW32692   0.999   0.748  15.330  0.0357 -0.2989  0.1201
 7078SOL    HW132693   1.020   0.839  15.351  0.0426 -0.2010 -0.3162
 7078SOL    HW232694   1.020   0.739  15.237  3.6097  4.0365  0.5133
 7079SOL     OW32695   1.366   1.913  11.405  0.1159 -0.0209  0.2679
 7079SOL    HW132696   1.288   1.913  11.348  0.4879  1.6697 -0.2232
 7079SOL    HW232697   1.412   1.835  11.373 -0.7067 -1.9760  3.8458
 7080SOL     OW32698   0.672   0.161   9.826  0.6273  0.3991 -0.2156
 7080SOL    HW132699   0.682   0.066   9.829 -0.3265  0.3129  0.6385
 7080SOL    HW232700   0.704   0.191   9.911 -1.2563  1.0728  0.2568
 7081SOL     OW32701   2.148   2.959  11.970  0.2161 -0.2191  0.3651
 7081SOL    HW132702   2.219   2.903  11.941 -0.4661 -1.5834  1.3522
 7081SOL    HW232703   2.094   2.981  11.894 -1.4535  0.6536  1.8036
 7082SOL     OW32704   3.285   2.205   5.825 -0.6300 -0.6482 -0.0375
 7082SOL    HW132705   3.274   2.297   5.800  2.0638  0.0308  1.2335
 7082SOL    HW232706   3.211   2.153   5.796 -1.3017  0.3928 -0.1713
 7083SOL     OW32707   0.751   1.210   6.641 -0.3606  0.6082 -0.4447
 7083SOL    HW132708   0.840   1.188   6.667 -0.6082  1.9062  1.4975
 7083SOL    HW232709   0.774   1.250   6.558 -2.6968 -0.7215 -1.7359
 7084SOL     OW32710   0.020   0.491   5.823 -0.0642  0.0212 -0.0367
 7084SOL    HW132711   4.707   0.574   5.853 -0.6301  0.0107 -0.6779
 7084SOL    HW232712   4.690   0.431   5.876 -1.1213 -0.2150 -1.3290
 7085SOL     OW32713   2.637   1.286   7.362  0.0748  0.3831  0.2737
 7085SOL    HW132714   2.687   1.297   7.443  1.2824  0.0191 -0.4207
 7085SOL    HW232715   2.557   1.252   7.402 -0.7328  2.8230  0.7537
 7086SOL     OW32716   2.670   4.552   8.928 -0.4152 -0.3622  0.0458
 7086SOL    HW132717   2.739   4.526   8.989 -0.1659 -0.7049 -0.3869
 7086SOL    HW232718   2.583   4.532   8.961 -0.0174 -0.4838  1.0203
 7087SOL     OW32719   1.921   0.221   0.130  0.4573 -0.3323 -0.1828
 7087SOL    HW132720   1.974   0.180   0.198 -0.0684  1.7247  1.4777
 7087SOL    HW232721   1.834   0.184   0.145  0.1433 -0.4892 -2.3658
 7088SOL     OW32722   1.964   2.217  16.590  0.3433 -0.1362  0.0671
 7088SOL    HW132723   2.021   2.286  16.559  0.0819  0.6998  1.4537
 7088SOL    HW232724   2.031   2.167  16.636  0.9462 -0.2754 -0.9813
 7089SOL     OW32725   0.948   3.604  13.615  0.3959  0.7671 -0.7992
 7089SOL    HW132726   0.884   3.665  13.651 -0.1649  1.1592 -2.4734
 7089SOL    HW232727   1.030   3.653  13.609  2.2350 -2.3642 -1.7613
 7090SOL     OW32728   0.745   3.563   1.491 -0.0546 -0.1900  0.2863
 7090SOL    HW132729   0.680   3.634   1.483 -0.9013 -1.1719 -1.6562
 7090SOL    HW232730   0.824   3.613   1.512 -0.3249  0.1707  0.4475
 7091SOL     OW32731   3.996   3.145  13.110  0.4227 -1.0555 -0.2013
 7091SOL    HW132732   4.016   3.123  13.201  1.0181 -1.3044 -0.3938
 7091SOL    HW232733   3.953   3.068  13.074  2.0129 -1.4047 -1.3813
 7092SOL     OW32734   1.184   2.790  13.323  0.4449 -0.3645 -0.3135
 7092SOL    HW132735   1.124   2.810  13.252 -0.7311 -0.1022  0.7612
 7092SOL    HW232736   1.263   2.797  13.270  0.9003 -2.9121 -0.0119
 7093SOL     OW32737   2.588   3.289  11.280  0.1151 -0.2126 -0.0940
 7093SOL    HW132738   2.647   3.328  11.215  1.3637 -1.2515  0.4119
 7093SOL    HW232739   2.561   3.213  11.228  0.0691  1.4416 -2.5132
 7094SOL     OW32740   2.938   4.297   8.650 -0.6937 -0.7019 -0.7138
 7094SOL    HW132741   2.859   4.324   8.603 -2.2770 -0.5942  1.9395
 7094SOL    HW232742   2.941   4.336   8.738  1.3708  1.7649 -1.9212
 7095SOL     OW32743   4.461   0.481   4.416 -0.6251 -0.5267 -0.0349
 7095SOL    HW132744   4.553   0.474   4.441 -1.0433 -0.5654  1.4478
 7095SOL    HW232745   4.453   0.414   4.348 -2.0404  0.4027 -0.7889
 7096SOL     OW32746   3.737   3.341   8.349  0.0896 -0.1941  0.4039
 7096SOL    HW132747   3.720   3.294   8.431 -1.6128 -1.4497 -0.6667
 7096SOL    HW232748   3.657   3.324   8.298 -0.9993  0.1297  1.9827
 7097SOL     OW32749   2.373   4.670   6.955 -0.2941  0.6341  0.1362
 7097SOL    HW132750   2.357   4.705   7.043  0.3496  0.0885  0.4734
 7097SOL    HW232751   2.395   0.033   6.919  2.1877 -0.1246 -0.1851
 7098SOL     OW32752   1.125   1.770   7.048 -0.1902 -0.1126  0.5038
 7098SOL    HW132753   1.214   1.789   7.018 -0.8283 -0.2271 -1.4128
 7098SOL    HW232754   1.107   1.823   7.126  0.3303 -3.7187  3.0819
 7099SOL     OW32755   3.990   2.915   3.283  0.1448 -0.3901 -0.0978
 7099SOL    HW132756   3.939   2.991   3.311 -0.1300 -1.1681  1.5116
 7099SOL    HW232757   3.985   2.855   3.357 -0.0237 -0.1594  0.0762
 7100SOL     OW32758   3.434   0.787   7.181  1.1456 -0.3053 -0.0785
 7100SOL    HW132759   3.452   0.870   7.138 -1.7945 -0.9208 -2.5048
 7100SOL    HW232760   3.404   0.811   7.269  1.2210 -0.0576 -0.1199
 7101SOL     OW32761   2.815   2.940  11.341 -0.3161 -0.1203  0.6092
 7101SOL    HW132762   2.902   2.944  11.379 -0.4311 -2.1661  1.1095
 7101SOL    HW232763   2.792   3.022  11.384  0.4075  0.6159 -0.3914
 7102SOL     OW32764   1.454   4.131   7.265 -0.2177  0.0807  0.1546
 7102SOL    HW132765   1.533   4.185   7.268  0.7522 -1.5196  2.6316
 7102SOL    HW232766   1.390   4.194   7.231 -0.1486  0.9321  1.6051
 7103SOL     OW32767   1.493   2.800   0.729  0.2220  0.0886  0.1934
 7103SOL    HW132768   1.445   2.879   0.755  0.0534  0.2678 -0.6469
 7103SOL    HW232769   1.421   2.738   0.730 -0.4217  0.8069 -1.4975
 7104SOL     OW32770   3.853   1.889   3.976  0.4062  0.7267  0.0383
 7104SOL    HW132771   3.917   1.846   3.919 -0.2616 -1.6404  1.1130
 7104SOL    HW232772   3.774   1.838   3.959  1.1452 -0.2198 -0.5701
 7105SOL     OW32773   3.216   1.972  13.598  0.4331  0.6701 -0.0790
 7105SOL    HW132774   3.176   1.980  13.512 -0.3926 -2.4032  0.0271
 7105SOL    HW232775   3.301   2.014  13.582  0.3071  0.5551 -1.0398
 7106SOL     OW32776   4.187   2.756   9.021 -0.5988 -0.2571  0.2228
 7106SOL    HW132777   4.200   2.740   8.927 -1.0257  0.4780  0.0357
 7106SOL    HW232778   4.248   2.827   9.039 -1.0342 -0.3856  2.1856
 7107SOL     OW32779   3.081   3.929   7.761  0.0490  0.9102 -0.1723
 7107SOL    HW132780   3.084   3.960   7.671 -1.0227  0.1073 -0.4734
 7107SOL    HW232781   3.032   3.847   7.759  0.2933  0.7334  1.0177
 7108SOL     OW32782   0.653   1.737  15.897  0.4140  0.1779  0.1046
 7108SOL    HW132783   0.696   1.790  15.830  1.7500 -0.0336  0.7921
 7108SOL    HW232784   0.597   1.799  15.944 -0.9677 -1.0617  0.0699
 7109SOL     OW32785   1.070   4.235   4.407  0.1798  0.6181 -0.6899
 7109SOL    HW132786   0.986   4.225   4.362 -0.3600 -0.7766  0.6615
 7109SOL    HW232787   1.047   4.298   4.475 -0.2613  0.7359 -0.9490
 7110SOL     OW32788   3.490   0.862   6.429 -0.3465  0.5259 -0.0189
 7110SOL    HW132789   3.559   0.928   6.436  0.3143 -0.2140  0.6010
 7110SOL    HW232790   3.549   0.786   6.437 -1.9484 -0.6189  1.0401
 7111SOL     OW32791   1.447   0.270   1.124 -0.7508  0.1166  0.4197
 7111SOL    HW132792   1.538   0.278   1.152 -1.2039 -1.7454  2.3856
 7111SOL    HW232793   1.445   0.264   1.028  0.5373  0.9002  0.3451
 7112SOL     OW32794   2.110   2.659   4.594 -0.0339 -0.1613 -0.4049
 7112SOL    HW132795   2.053   2.628   4.523  0.1876 -2.0727  0.2507
 7112SOL    HW232796   2.183   2.704   4.551 -0.3445 -0.6123 -1.3939
 7113SOL     OW32797   1.707   3.784   9.423 -0.3794  0.1807  0.7638
 7113SOL    HW132798   1.782   3.824   9.380 -1.0730  0.0748 -0.5287
 7113SOL    HW232799   1.630   3.829   9.389  0.4721 -1.2055 -2.9381
 7114SOL     OW32800   0.695   2.842   2.648 -0.4910  0.1582  0.3987
 7114SOL    HW132801   0.630   2.852   2.579  1.7880  0.0321 -1.7494
 7114SOL    HW232802   0.767   2.883   2.601 -0.1911  0.2978  0.9697
 7115SOL     OW32803   1.896   4.145   3.305 -0.1682 -0.7881 -0.2875
 7115SOL    HW132804   1.836   4.187   3.366 -0.1247 -2.1341  0.6751
 7115SOL    HW232805   1.831   4.111   3.243  0.7886  0.2046 -1.8220
 7116SOL     OW32806   0.813   4.660   2.592 -0.1275  0.1051  0.4104
 7116SOL    HW132807   0.735   4.612   2.617  1.2964 -1.8281  1.2050
 7116SOL    HW232808   0.777   4.698   2.512 -3.0253  1.5071  2.3856
 7117SOL     OW32809   3.225   1.334   5.354 -0.0011  0.2560 -0.2542
 7117SOL    HW132810   3.136   1.314   5.326  0.9357 -3.5065 -0.5484
 7117SOL    HW232811   3.272   1.255   5.382 -0.2671  0.0384 -0.4269
 7118SOL     OW32812   2.911   4.428   5.142  0.0298  0.7572  0.4101
 7118SOL    HW132813   2.944   4.448   5.229  0.5318  1.6813  0.0069
 7118SOL    HW232814   2.916   4.333   5.145 -3.3673  0.5935  0.9963
 7119SOL     OW32815   0.034   0.993   9.060  0.3421  0.9411 -0.7676
 7119SOL    HW132816   0.013   1.017   9.150  0.5364  1.4735 -0.8622
 7119SOL    HW232817   0.015   0.900   9.065  1.8027  0.7807  2.1053
 7120SOL     OW32818   4.558   1.156   5.868  0.2958  0.8213  0.0679
 7120SOL    HW132819   4.544   1.070   5.907 -0.0858  1.0100  0.3530
 7120SOL    HW232820   4.651   1.163   5.886  0.7976 -0.8536 -1.8472
 7121SOL     OW32821   1.108   0.337   3.772  0.0728 -0.0541 -0.2223
 7121SOL    HW132822   1.103   0.349   3.867  2.1273  0.3791 -0.1792
 7121SOL    HW232823   1.203   0.342   3.768  0.0093  1.5424  0.2473
 7122SOL     OW32824   3.921   3.699   0.232 -0.2462 -0.5198 -0.0789
 7122SOL    HW132825   3.847   3.743   0.189 -1.2987 -1.0808  1.1934
 7122SOL    HW232826   3.958   3.643   0.164 -2.4968  0.0395 -1.7791
 7123SOL     OW32827   2.455   3.571  10.777 -0.8745 -0.2644  0.4334
 7123SOL    HW132828   2.542   3.579  10.737 -1.8405  0.6017 -1.4817
 7123SOL    HW232829   2.456   3.476  10.789  0.7788 -0.1340  1.3828
 7124SOL     OW32830   1.927   4.240   2.550 -0.2955 -0.2032  0.8145
 7124SOL    HW132831   1.861   4.309   2.550  0.1992  0.2812 -0.2530
 7124SOL    HW232832   1.868   4.165   2.556 -0.7263  0.0484 -0.1440
 7125SOL     OW32833   0.190   4.706   9.352  0.2057 -0.5713 -0.4615
 7125SOL    HW132834   0.178   4.624   9.400 -0.0861  0.9451  2.0379
 7125SOL    HW232835   0.112   4.709   9.297  0.1383  0.4760 -0.3015
 7126SOL     OW32836   1.790   2.130  16.786 -0.0767 -0.3176 -0.5710
 7126SOL    HW132837   1.795   2.182  16.866  0.0383 -0.7517 -0.2970
 7126SOL    HW232838   1.851   2.173  16.725 -0.1556  0.7916  0.1226
 7127SOL     OW32839   4.190   3.555   6.259  0.3610  0.7386  0.3063
 7127SOL    HW132840   4.266   3.581   6.207  0.7651 -0.4152  0.3223
 7127SOL    HW232841   4.219   3.555   6.350  1.4536 -0.0249 -0.0410
 7128SOL     OW32842   0.381   0.344   7.589 -0.8687 -0.2761  0.4341
 7128SOL    HW132843   0.328   0.415   7.554  0.7605 -0.1492 -1.7727
 7128SOL    HW232844   0.430   0.384   7.661  2.1671 -1.0012 -1.2118
 7129SOL     OW32845   3.876   2.785  17.058 -0.6790  0.4709  0.4860
 7129SOL    HW132846   3.820   2.723  17.011 -3.0406  1.8104  1.5628
 7129SOL    HW232847   3.882   2.843  16.981  1.6761 -0.2428  0.1350
 7130SOL     OW32848   4.554   3.532   6.973 -0.4632  0.2649 -1.1079
 7130SOL    HW132849   4.508   3.462   7.020 -0.4596  2.0231  1.4911
 7130SOL    HW232850   4.479   3.579   6.935  0.7050  2.3574 -0.7955
 7131SOL     OW32851   0.720   4.528   6.564  0.1368  0.0881  0.3477
 7131SOL    HW132852   0.672   4.597   6.610 -2.1180 -0.1827 -1.6427
 7131SOL    HW232853   0.655   4.457   6.566  1.2798 -0.9427  1.1266
 7132SOL     OW32854   3.640   3.108  17.045  0.5418 -0.1142  0.5136
 7132SOL    HW132855   3.653   3.188  17.097  2.1007  0.7556 -1.1972
 7132SOL    HW232856   3.643   3.034  17.105 -1.7704 -1.0852 -0.5628
 7133SOL     OW32857   4.631   4.354  14.976  0.5566 -0.6559  0.1941
 7133SOL    HW132858   4.656   4.338  14.885  1.6763  0.8534  0.2246
 7133SOL    HW232859   4.719   4.362  15.011  0.3646  0.7376  0.3719
 7134SOL     OW32860   2.668   2.785   2.781  0.2989  0.3935 -0.2865
 7134SOL    HW132861   2.753   2.789   2.825 -0.2458  0.2965  0.7817
 7134SOL    HW232862   2.617   2.847   2.834  1.1066 -0.9389  2.0533
 7135SOL     OW32863   2.674   1.022   6.414 -0.0435  0.1342 -0.5419
 7135SOL    HW132864   2.676   1.093   6.349  2.2031  1.3612  0.8653
 7135SOL    HW232865   2.661   0.943   6.362  0.6426 -1.6294  1.9535
 7136SOL     OW32866   1.082   1.670  16.666 -0.3655 -0.0209  0.1254
 7136SOL    HW132867   0.991   1.638  16.660 -0.4294 -0.0971  1.5303
 7136SOL    HW232868   1.118   1.620  16.592  0.9940 -0.3498  1.0073
 7137SOL     OW32869   0.893   4.062  13.013  0.1588  0.6234  0.1975
 7137SOL    HW132870   0.962   3.996  13.000  0.2864  0.8365 -0.1960
 7137SOL    HW232871   0.858   4.074  12.925 -2.3785 -0.0217  1.1331
 7138SOL     OW32872   0.683   3.501   1.806 -0.1191  0.0173  0.0580
 7138SOL    HW132873   0.712   3.410   1.797 -0.9829 -0.4323  1.9239
 7138SOL    HW232874   0.683   3.529   1.714 -0.8256  1.4960  0.5137
 7139SOL     OW32875   4.440   0.660   2.636  0.3542  0.4642  0.0263
 7139SOL    HW132876   4.359   0.702   2.607 -1.4453 -2.9392  0.1725
 7139SOL    HW232877   4.472   0.634   2.550  0.7092 -1.2592  0.6731
 7140SOL     OW32878   1.630   2.866   8.921  0.2571 -1.0453  0.2643
 7140SOL    HW132879   1.715   2.881   8.879  0.1624 -2.1709 -0.3467
 7140SOL    HW232880   1.635   2.939   8.982 -0.3910 -0.5644 -0.2550
 7141SOL     OW32881   2.708   3.794  12.787  0.2409 -0.3333  0.2444
 7141SOL    HW132882   2.759   3.853  12.732  0.3073  0.4025  1.0974
 7141SOL    HW232883   2.640   3.755  12.731 -0.3202 -0.2832  0.8888
 7142SOL     OW32884   3.479   1.172   4.183  0.4409 -0.5251 -0.2282
 7142SOL    HW132885   3.500   1.162   4.090  1.5307  1.9549 -0.2420
 7142SOL    HW232886   3.559   1.132   4.218 -0.1941  1.1990  3.1161
 7143SOL     OW32887   2.560   1.807   5.346  0.0447  0.3279  0.1986
 7143SOL    HW132888   2.646   1.847   5.333  1.9790 -3.9154 -0.0948
 7143SOL    HW232889   2.593   1.724   5.381 -1.1333 -0.2591 -0.1135
 7144SOL     OW32890   4.672   1.635   8.360 -0.6428 -0.1294  0.3382
 7144SOL    HW132891   0.045   1.638   8.351 -0.5080 -2.5647  0.9110
 7144SOL    HW232892   4.675   1.602   8.449  1.4744  0.9102  0.6512
 7145SOL     OW32893   4.386   3.355   5.919 -0.3895  0.2637 -1.0382
 7145SOL    HW132894   4.412   3.343   5.827 -0.4948  0.4300 -1.0887
 7145SOL    HW232895   4.409   3.444   5.945  0.7501  0.0336 -1.2394
 7146SOL     OW32896   4.136   0.653   2.234 -0.6544  0.0729  0.3907
 7146SOL    HW132897   4.157   0.746   2.242  0.6800 -0.0858 -1.1257
 7146SOL    HW232898   4.068   0.663   2.167  1.3982  2.5859 -1.3419
 7147SOL     OW32899   0.327   1.060   5.763  0.2144  0.1015  1.1116
 7147SOL    HW132900   0.404   1.015   5.727 -0.4575  0.4019 -0.6807
 7147SOL    HW232901   0.264   1.013   5.708 -0.5023  0.4219  1.6657
 7148SOL     OW32902   4.195   2.178  12.455  0.8187 -0.0546  0.0859
 7148SOL    HW132903   4.109   2.184  12.416  0.5535  1.2326  0.8767
 7148SOL    HW232904   4.191   2.235  12.532 -0.5045  0.2671 -0.2289
 7149SOL     OW32905   1.785   0.432   5.137  0.2678 -0.3436  0.2977
 7149SOL    HW132906   1.734   0.351   5.140 -0.4230  0.1174  0.9229
 7149SOL    HW232907   1.729   0.486   5.082  0.3828 -0.6244 -0.0998
 7150SOL     OW32908   1.991   4.720   7.001  0.6857 -0.1335  0.4511
 7150SOL    HW132909   2.016   0.011   6.910 -1.2970  1.5190  0.1495
 7150SOL    HW232910   1.965   0.086   7.024 -0.4063 -0.0264 -1.1232
 7151SOL     OW32911   2.543   2.293  12.804  0.0423  0.0077 -0.0200
 7151SOL    HW132912   2.576   2.204  12.788  1.2843  0.2621  1.0444
 7151SOL    HW232913   2.570   2.336  12.723 -0.6591  0.4368 -0.0260
 7152SOL     OW32914   2.089   0.871  16.391 -0.2906 -0.1958 -0.2637
 7152SOL    HW132915   2.095   0.843  16.482 -1.6673 -0.0853 -0.1402
 7152SOL    HW232916   2.165   0.927  16.373  0.3304 -0.7202  0.7244
 7153SOL     OW32917   3.523   1.502  11.065 -0.7440  0.2337  0.0955
 7153SOL    HW132918   3.465   1.578  11.069  0.5413  1.2557 -0.8381
 7153SOL    HW232919   3.499   1.457  10.984 -2.0687  1.6158 -0.2866
 7154SOL     OW32920   0.559   1.390   2.717 -0.4143 -0.0976 -0.9126
 7154SOL    HW132921   0.624   1.396   2.647 -2.1561  1.0131 -2.4153
 7154SOL    HW232922   0.598   1.452   2.779 -1.1872 -0.8648  0.3277
 7155SOL     OW32923   4.026   2.690   5.823 -0.1261 -0.3476 -0.1371
 7155SOL    HW132924   4.004   2.702   5.916 -1.9348  1.1821 -0.7739
 7155SOL    HW232925   4.121   2.686   5.838 -0.0031  3.5446  0.1522
 7156SOL     OW32926   2.151   4.420   2.137  0.2263  0.3443  0.2635
 7156SOL    HW132927   2.213   4.386   2.072  0.2140  1.9492 -0.6113
 7156SOL    HW232928   2.062   4.401   2.107 -0.2862  2.0151  0.6978
 7157SOL     OW32929   1.656   2.049   3.443 -0.2273  0.9330 -0.6298
 7157SOL    HW132930   1.653   1.972   3.386  0.3060  1.0744 -0.8512
 7157SOL    HW232931   1.688   2.008   3.523 -0.1666  1.4107 -0.4119
 7158SOL     OW32932   4.417   0.886   6.642 -0.1539  0.0857  0.1997
 7158SOL    HW132933   4.475   0.925   6.577  0.7640  0.2738  1.1245
 7158SOL    HW232934   4.376   0.818   6.590 -0.0354 -0.5746  0.9660
 7159SOL     OW32935   0.456   0.195   6.881  0.2959  0.1833 -0.0695
 7159SOL    HW132936   0.423   0.277   6.844 -0.0169  0.7891  1.5153
 7159SOL    HW232937   0.389   0.188   6.950  0.0812  2.0640 -0.0624
 7160SOL     OW32938   3.825   4.655   7.774  0.1074 -0.4416  0.1972
 7160SOL    HW132939   3.814   4.593   7.702 -2.3205 -0.1951  0.3799
 7160SOL    HW232940   3.740   4.699   7.775 -0.5864 -1.7978  0.4297
 7161SOL     OW32941   0.581   4.653   2.003 -0.3639  0.1597 -0.5449
 7161SOL    HW132942   0.607   4.570   1.961 -0.4763  0.0057 -0.3112
 7161SOL    HW232943   0.488   4.636   2.017 -0.0636 -2.1658 -1.3742
 7162SOL     OW32944   4.390   0.131  14.244 -0.3540 -0.5918 -0.2744
 7162SOL    HW132945   4.354   0.208  14.201 -1.4396 -1.0750 -0.2392
 7162SOL    HW232946   4.442   0.171  14.314 -2.4775 -0.6837  1.3465
 7163SOL     OW32947   3.969   4.657   4.751 -0.3812  0.2891  0.0957
 7163SOL    HW132948   3.893   4.662   4.809  0.6981  3.2324  1.2393
 7163SOL    HW232949   4.038   4.700   4.801 -0.2399 -0.0964  0.2351
 7164SOL     OW32950   3.762   0.836   3.976  0.1621  0.1700  0.1689
 7164SOL    HW132951   3.830   0.805   3.917 -1.4481 -2.5961 -0.1879
 7164SOL    HW232952   3.732   0.747   3.991  0.4291  0.1796  0.7586
 7165SOL     OW32953   2.292   2.053  16.322  0.3119  0.1546 -0.2827
 7165SOL    HW132954   2.213   2.062  16.269 -0.2588 -1.5793  0.2898
 7165SOL    HW232955   2.359   2.105  16.277  0.9895 -0.3861  0.0996
 7166SOL     OW32956   4.284   0.753  15.854 -0.6164 -0.0158  0.0647
 7166SOL    HW132957   4.324   0.768  15.769 -1.6889 -1.8304 -0.7579
 7166SOL    HW232958   4.346   0.688  15.888 -1.4901 -0.4058  0.9454
 7167SOL     OW32959   0.739   3.485   8.886 -0.1912 -0.0965  0.0972
 7167SOL    HW132960   0.649   3.467   8.914 -0.2354 -1.1582 -0.7346
 7167SOL    HW232961   0.785   3.508   8.967 -0.0139 -2.0861  0.5598
 7168SOL     OW32962   2.681   1.924   0.607 -0.0611  0.1719 -0.3104
 7168SOL    HW132963   2.669   2.009   0.651 -3.0275  0.7543 -2.2417
 7168SOL    HW232964   2.634   1.875   0.675  0.3037  0.2561  0.0078
 7169SOL     OW32965   0.194   2.780   4.395  0.2497 -0.1979 -0.0427
 7169SOL    HW132966   0.245   2.712   4.438  1.7530 -0.7346 -2.6722
 7169SOL    HW232967   0.144   2.822   4.465  0.9599  0.6986 -0.0757
 7170SOL     OW32968   3.072   3.370   4.063 -0.0859  0.2185  0.1433
 7170SOL    HW132969   2.992   3.334   4.023  0.6390 -0.2694 -0.8834
 7170SOL    HW232970   3.051   3.356   4.155 -2.0251 -0.6276 -0.4270
 7171SOL     OW32971   0.304   0.239   3.821 -0.1498 -0.0231 -0.3683
 7171SOL    HW132972   0.249   0.215   3.896 -0.0431  3.0316  0.6657
 7171SOL    HW232973   0.315   0.333   3.829  1.7880 -0.3587  0.9457
 7172SOL     OW32974   1.950   0.778   5.697  0.1755  0.2875 -0.5005
 7172SOL    HW132975   1.961   0.853   5.638 -1.1582  2.6650  2.2747
 7172SOL    HW232976   1.970   0.817   5.782  1.5992  1.4293 -1.3643
 7173SOL     OW32977   3.228   4.388   6.066 -0.1468 -0.6127 -0.2320
 7173SOL    HW132978   3.261   4.346   6.145  1.6981  0.8673 -0.2328
 7173SOL    HW232979   3.272   4.334   6.001  3.0829 -1.4968  2.7275
 7174SOL     OW32980   1.755   4.261   4.710 -0.8829 -0.0084  0.0043
 7174SOL    HW132981   1.662   4.240   4.721 -0.6039 -1.2055  0.1221
 7174SOL    HW232982   1.754   4.332   4.646 -0.9159 -2.0860 -2.3262
 7175SOL     OW32983   1.090   3.853   4.478 -0.2442  0.6892 -0.3773
 7175SOL    HW132984   1.068   3.869   4.386 -1.0758 -2.2055 -0.6691
 7175SOL    HW232985   1.030   3.779   4.486 -0.2540  0.7819  0.4884
 7176SOL     OW32986   0.223   1.604   8.049 -0.0462  0.4074 -0.0663
 7176SOL    HW132987   0.130   1.584   8.058  0.7872 -3.2558  0.2917
 7176SOL    HW232988   0.258   1.524   8.087 -1.1436  0.0496  0.1988
 7177SOL     OW32989   0.825   4.065   4.661  0.7940  0.0128 -0.7093
 7177SOL    HW132990   0.901   4.121   4.674  0.5977  0.1491 -0.1239
 7177SOL    HW232991   0.826   4.017   4.744 -0.2701  1.7200  0.2861
 7178SOL     OW32992   3.036   4.052   8.007  0.1951  0.3896 -0.1690
 7178SOL    HW132993   3.053   4.021   7.917 -0.8439 -0.3997 -0.0961
 7178SOL    HW232994   3.053   3.969   8.052 -1.3139 -0.2756 -0.7981
 7179SOL     OW32995   1.833   4.288   6.697  0.6042 -0.3869  0.5621
 7179SOL    HW132996   1.771   4.239   6.751  0.7364 -2.0699 -0.7947
 7179SOL    HW232997   1.845   4.230   6.621  1.6646  2.1209 -1.1860
 7180SOL     OW32998   2.860   1.052   3.115  0.3206  0.1877  0.6137
 7180SOL    HW132999   2.837   1.089   3.200 -3.2278  2.5903 -1.4043
 7180SOL    HW233000   2.772   1.029   3.086  0.5310 -0.0520  0.1672
 7181SOL     OW33001   3.317   0.364   8.336  0.0783 -0.0678 -0.0259
 7181SOL    HW133002   3.411   0.376   8.324  0.3488 -1.6802  0.4564
 7181SOL    HW233003   3.302   0.317   8.418 -0.7687 -0.2862 -0.3005
 7182SOL     OW33004   4.606   2.295   6.395 -0.1423 -0.5218  0.6383
 7182SOL    HW133005   4.694   2.334   6.393 -1.5322  2.5264 -1.5002
 7182SOL    HW233006   4.589   2.340   6.478 -3.3853 -0.3517 -0.0963
 7183SOL     OW33007   0.613   2.043   2.925 -0.4918 -0.2896  0.0977
 7183SOL    HW133008   0.529   2.058   2.967  0.4013  0.4905  1.6155
 7183SOL    HW233009   0.601   1.954   2.893 -0.3261  0.7318 -2.8821
 7184SOL     OW33010   0.202   1.770  17.433  0.2457 -0.3757  0.3023
 7184SOL    HW133011   0.206   1.828  17.508  1.4824  1.7569 -1.4066
 7184SOL    HW233012   0.236   1.688  17.469  2.3854  0.1069 -0.6051
 7185SOL     OW33013   3.935   4.009   5.633 -0.5156  0.0681 -0.1238
 7185SOL    HW133014   3.910   3.920   5.658 -1.3096  0.2640 -0.2271
 7185SOL    HW233015   3.853   4.041   5.595 -0.3496  0.7781  0.1089
 7186SOL     OW33016   3.736   0.068  13.464 -0.2218  0.3137 -0.3334
 7186SOL    HW133017   3.798   0.102  13.400 -0.3950 -0.6927 -1.0412
 7186SOL    HW233018   3.692   0.153  13.472  2.0909  1.4955 -0.3890
 7187SOL     OW33019   0.318   1.651   0.202 -0.4310  0.2013 -0.3619
 7187SOL    HW133020   0.279   1.564   0.214  1.8705 -0.9147 -0.8082
 7187SOL    HW233021   0.302   1.689   0.288 -1.1858 -1.1617  0.0986
 7188SOL     OW33022   0.953   2.643   1.844 -0.2962 -0.1406  0.6857
 7188SOL    HW133023   0.899   2.683   1.776  0.2795  1.0430  0.9284
 7188SOL    HW233024   0.880   2.635   1.907  1.3214 -2.3351  2.3003
 7189SOL     OW33025   0.605   1.602   4.987 -0.5730 -0.3458 -0.0339
 7189SOL    HW133026   0.666   1.646   5.046  0.1913 -2.4483  0.7090
 7189SOL    HW233027   0.580   1.676   4.930 -0.2181  0.7927  1.2879
 7190SOL     OW33028   2.156   4.171   3.204  0.1202 -0.3454 -0.5084
 7190SOL    HW133029   2.161   4.077   3.185 -1.6808 -0.3718 -0.8986
 7190SOL    HW233030   2.071   4.182   3.246  0.9282 -0.8572  1.2365
 7191SOL     OW33031   2.435   4.381   3.171 -0.2176  0.3152  0.4253
 7191SOL    HW133032   2.343   4.397   3.193 -0.2567  0.4990  0.1253
 7191SOL    HW233033   2.485   4.423   3.241  1.1250  1.0341 -0.9710
 7192SOL     OW33034   0.453   4.269   7.589 -0.4364  0.5308  0.7325
 7192SOL    HW133035   0.383   4.244   7.649 -0.3590  0.4856  0.8045
 7192SOL    HW233036   0.527   4.212   7.609 -0.8252 -0.7639 -1.5071
 7193SOL     OW33037   3.203   0.138   3.053 -0.0517  0.2708  0.6894
 7193SOL    HW133038   3.139   0.073   3.084  0.8721 -1.5027 -1.1611
 7193SOL    HW233039   3.274   0.091   3.011 -1.3740 -0.2679 -0.9321
 7194SOL     OW33040   3.178   1.842   3.923 -0.1634  0.3830 -0.7611
 7194SOL    HW133041   3.238   1.879   3.858  1.3675 -0.6055  0.1045
 7194SOL    HW233042   3.168   1.921   3.976  5.4975  1.4871 -1.3011
 7195SOL     OW33043   3.693   1.692   4.618 -0.0757  0.2141 -0.3325
 7195SOL    HW133044   3.701   1.684   4.523  0.9310 -0.3991 -0.2024
 7195SOL    HW233045   3.696   1.787   4.621  0.1266  0.1728  0.8214
 7196SOL     OW33046   1.529   1.059  13.652 -0.5619  0.6918 -0.3373
 7196SOL    HW133047   1.496   1.072  13.563  1.8840 -0.5164 -1.4177
 7196SOL    HW233048   1.523   0.964  13.662 -2.3168  1.0630  2.2473
 7197SOL     OW33049   3.496   1.530   4.317 -0.0162  0.0270  0.2523
 7197SOL    HW133050   3.526   1.621   4.313 -1.4710  0.4230 -1.6398
 7197SOL    HW233051   3.579   1.486   4.335 -0.4030 -0.6328  0.4198
 7198SOL     OW33052   1.788   0.188  16.449  0.2868 -0.2822  0.1021
 7198SOL    HW133053   1.752   0.109  16.408  0.2434 -0.3445  0.2588
 7198SOL    HW233054   1.828   0.228  16.372  2.0773  1.3459  1.8799
 7199SOL     OW33055   2.868   2.796  12.401  0.1717  0.1650  0.2290
 7199SOL    HW133056   2.888   2.744  12.478 -2.8622 -2.3685 -0.6998
 7199SOL    HW233057   2.867   2.725  12.337  0.4917  0.2309  0.1499
 7200SOL     OW33058   3.180   3.551  11.008 -0.1340 -0.6180  0.2090
 7200SOL    HW133059   3.255   3.556  10.948 -0.1027  0.4443  0.3487
 7200SOL    HW233060   3.112   3.608  10.972  0.1509 -0.4251 -0.0269
 7201SOL     OW33061   4.587   3.704   8.515  0.6643  0.5774 -0.4986
 7201SOL    HW133062   4.541   3.726   8.434  0.1315  0.4077 -0.2402
 7201SOL    HW233063   4.571   3.610   8.514 -1.0425  0.8718 -0.1352
 7202SOL     OW33064   3.539   0.996   3.908 -0.1520  0.3038  0.1787
 7202SOL    HW133065   3.480   0.960   3.975 -2.0529  0.3868 -1.4498
 7202SOL    HW233066   3.617   0.955   3.945  0.2902  2.0518  1.1913
 7203SOL     OW33067   1.768   2.661   7.448  0.2646  0.3791  0.4761
 7203SOL    HW133068   1.675   2.677   7.431  0.7467  0.3913 -2.1254
 7203SOL    HW233069   1.802   2.738   7.493  2.6375 -1.1503  1.3178
 7204SOL     OW33070   0.924   0.700   0.610  0.3661 -0.0397 -0.1789
 7204SOL    HW133071   0.975   0.660   0.539  0.1791  0.4299 -0.5758
 7204SOL    HW233072   0.993   0.743   0.661  1.2633  0.3891 -1.7539
 7205SOL     OW33073   1.423   2.166   7.246  0.1222 -0.5972  0.2434
 7205SOL    HW133074   1.439   2.120   7.328 -1.7438  0.6312  1.2716
 7205SOL    HW233075   1.334   2.193   7.265  0.6825  0.5705  1.2387
 7206SOL     OW33076   3.046   1.336   8.410 -0.6028  0.5309 -0.2332
 7206SOL    HW133077   3.040   1.243   8.435 -1.0538  0.7933  0.6208
 7206SOL    HW233078   3.111   1.377   8.467  0.6371  1.1638 -2.1130
 7207SOL     OW33079   4.437   1.619   5.935  0.1234 -0.4320 -0.2730
 7207SOL    HW133080   4.416   1.531   5.906 -0.4219 -0.1230 -0.8342
 7207SOL    HW233081   4.356   1.669   5.921 -0.3612 -0.2536  3.1150
 7208SOL     OW33082   2.642   3.336   1.561  0.0493 -0.0482 -0.1120
 7208SOL    HW133083   2.702   3.402   1.529 -0.0164  0.2330  0.3423
 7208SOL    HW233084   2.612   3.388   1.635  1.4454  0.5590  0.0106
 7209SOL     OW33085   3.538   1.949  13.003 -0.2784  0.0707  0.1110
 7209SOL    HW133086   3.609   1.885  13.001 -0.1699  0.1821  0.3038
 7209SOL    HW233087   3.457   1.900  12.993 -0.5835  0.9588 -1.7747
 7210SOL     OW33088   3.864   4.011  15.006  0.6142  0.7828 -0.6747
 7210SOL    HW133089   3.932   4.042  14.947  0.1261  0.3361 -1.4742
 7210SOL    HW233090   3.875   3.919  14.980 -1.8124  0.9851 -2.4380
 7211SOL     OW33091   3.732   0.703   6.031 -0.1428  0.3153  0.1517
 7211SOL    HW133092   3.657   0.759   6.054 -1.3084 -1.1427 -0.0671
 7211SOL    HW233093   3.786   0.716   6.109 -0.7597 -1.9309  0.9620
 7212SOL     OW33094   1.671   1.016   8.150  0.3358  0.1075  0.1178
 7212SOL    HW133095   1.584   0.988   8.121  0.6904 -1.1481  0.2691
 7212SOL    HW233096   1.652   1.091   8.206 -2.4256 -0.4519 -0.0896
 7213SOL     OW33097   4.016   2.613   1.512  0.4280 -0.3682  0.5684
 7213SOL    HW133098   3.949   2.590   1.447 -0.4707 -0.7589  1.6440
 7213SOL    HW233099   4.065   2.680   1.464 -1.1662 -0.0790 -0.6888
 7214SOL     OW33100   1.785   0.855   4.047 -0.0421 -0.2574 -0.2812
 7214SOL    HW133101   1.720   0.924   4.038  1.7804  1.8040  2.5523
 7214SOL    HW233102   1.796   0.818   3.959  3.0826  1.6873 -0.6989
 7215SOL     OW33103   0.130   1.900  13.199 -0.0931 -0.0375  0.3391
 7215SOL    HW133104   0.220   1.934  13.203 -0.1585  0.2151 -0.4684
 7215SOL    HW233105   0.080   1.981  13.188  0.0194 -0.2353 -1.5774
 7216SOL     OW33106   1.803   4.441   7.059  0.4237  0.1027 -0.0031
 7216SOL    HW133107   1.825   4.523   7.014 -1.6647  0.3323 -0.5740
 7216SOL    HW233108   1.717   4.436   7.017 -0.6416  2.5940  1.8969
 7217SOL     OW33109   4.197   4.487   9.355  0.2297  0.9269  0.0300
 7217SOL    HW133110   4.116   4.446   9.326 -0.8894  0.5958  3.6328
 7217SOL    HW233111   4.158   4.546   9.419  0.9822  2.2375 -0.7301
 7218SOL     OW33112   3.985   0.549  15.236 -0.7688 -0.7836  0.3431
 7218SOL    HW133113   4.036   0.474  15.270 -1.9892 -2.0735 -0.6969
 7218SOL    HW233114   3.943   0.507  15.161  0.1812 -2.1565  0.5599
 7219SOL     OW33115   3.954   3.336   0.328  0.8162  0.4961 -0.0733
 7219SOL    HW133116   3.937   3.257   0.276 -0.2159  1.8095 -1.7517
 7219SOL    HW233117   3.874   3.338   0.381  0.8091  0.2522 -0.0752
 7220SOL     OW33118   2.461   4.007   9.192  0.4591 -0.0175  0.3196
 7220SOL    HW133119   2.408   4.050   9.125  1.1023  1.4809  0.7659
 7220SOL    HW233120   2.473   4.078   9.254  0.6247  1.5514 -1.5094
 7221SOL     OW33121   3.141   0.116   6.186 -0.4888  0.3850  0.5648
 7221SOL    HW133122   3.115   0.146   6.099  1.2024 -1.0711 -0.4578
 7221SOL    HW233123   3.068   0.053   6.191  1.3253 -1.7736  0.0940
 7222SOL     OW33124   3.939   0.030   8.578  0.4914 -0.5332 -0.0049
 7222SOL    HW133125   3.967   4.675   8.627  2.0284  0.8725  1.3238
 7222SOL    HW233126   3.845   0.017   8.587  0.8041 -2.5315  0.4368
 7223SOL     OW33127   0.423   0.510   8.588  0.7005  0.0122  0.2232
 7223SOL    HW133128   0.361   0.439   8.604  1.5889 -1.4780 -3.0143
 7223SOL    HW233129   0.443   0.536   8.679  1.3224  0.2016  0.0369
 7224SOL     OW33130   1.767   0.784  16.112  0.0655 -0.3206 -0.0078
 7224SOL    HW133131   1.702   0.849  16.138 -0.0502 -0.3003 -0.3529
 7224SOL    HW233132   1.804   0.828  16.036 -2.7335  0.0599 -1.1426
 7225SOL     OW33133   2.656   2.698   3.347  0.5254 -0.3374  0.2914
 7225SOL    HW133134   2.746   2.730   3.340  0.9090 -1.1337  1.6927
 7225SOL    HW233135   2.619   2.786   3.346  0.0185 -0.5752 -1.6845
 7226SOL     OW33136   2.769   0.079   9.408 -0.0793 -0.0022 -0.5738
 7226SOL    HW133137   2.768   0.147   9.475  1.6903  2.5089 -3.0851
 7226SOL    HW233138   2.731   0.008   9.460 -1.3341  0.9483 -0.1839
 7227SOL     OW33139   3.431   0.883   0.741 -0.4640  0.1060  0.1944
 7227SOL    HW133140   3.435   0.893   0.646 -1.9391 -1.4863 -0.0329
 7227SOL    HW233141   3.520   0.856   0.764  0.4693  5.2351  2.6783
 7228SOL     OW33142   3.403   3.782   2.088  0.2847 -0.3533  0.4560
 7228SOL    HW133143   3.415   3.687   2.090  0.3186 -0.3519  0.3386
 7228SOL    HW233144   3.352   3.794   2.168 -0.8540  0.7293 -0.4372
 7229SOL     OW33145   2.016   0.325   8.129  0.1654  0.6187  0.0678
 7229SOL    HW133146   1.984   0.331   8.039  0.0561  0.7210  0.1136
 7229SOL    HW233147   2.074   0.249   8.127 -1.9045 -0.9227 -2.0892
 7230SOL     OW33148   3.225   0.920   1.842  0.0805  0.1720  0.7254
 7230SOL    HW133149   3.234   0.930   1.748  0.1549  2.3431  0.9614
 7230SOL    HW233150   3.152   0.980   1.857 -0.8838 -1.1860  1.4248
 7231SOL     OW33151   2.621   1.693   8.520 -0.2507  0.1200  0.1184
 7231SOL    HW133152   2.699   1.687   8.575  0.1973  0.2920 -0.5007
 7231SOL    HW233153   2.573   1.773   8.543 -0.5482 -0.1779  0.5415
 7232SOL     OW33154   3.639   2.084   0.192 -0.8677 -0.3735  0.4636
 7232SOL    HW133155   3.591   2.044   0.119  1.5102  0.3577 -1.5024
 7232SOL    HW233156   3.697   2.146   0.149  2.3093 -3.1591  0.7566
 7233SOL     OW33157   1.821   3.951   7.429  0.1276 -0.1806 -0.6228
 7233SOL    HW133158   1.738   3.925   7.389 -0.2734 -0.5369  0.4579
 7233SOL    HW233159   1.851   3.982   7.343 -1.4093  0.4425 -0.9390
 7234SOL     OW33160   1.689   3.261   5.272  1.0028  0.3968 -0.1173
 7234SOL    HW133161   1.644   3.308   5.342  1.9964 -1.0345  1.4919
 7234SOL    HW233162   1.729   3.330   5.219  0.2843 -0.4716 -1.8188
 7235SOL     OW33163   4.651   3.777   7.938  0.0902 -0.1157 -0.1671
 7235SOL    HW133164   4.561   3.796   7.964 -0.1680  0.4917 -1.4955
 7235SOL    HW233165   4.635   3.733   7.854  0.2343 -1.8744  0.7402
 7236SOL     OW33166   2.611   1.819  13.838 -0.1856  0.0169 -0.0501
 7236SOL    HW133167   2.689   1.861  13.875 -1.3519 -0.2258  2.7053
 7236SOL    HW233168   2.650   1.733  13.827 -2.9162 -1.2534  0.2297
 7237SOL     OW33169   3.368   3.882  11.014  0.1791  0.1378  0.1763
 7237SOL    HW133170   3.344   3.856  11.103  1.3524 -1.0332  0.1557
 7237SOL    HW233171   3.446   3.827  11.007 -0.3310 -0.2581 -2.7121
 7238SOL     OW33172   4.380   2.524   0.004  0.2502  0.0135  0.1691
 7238SOL    HW133173   4.352   2.496   0.091 -0.1499 -0.4542 -0.1102
 7238SOL    HW233174   4.303   2.566  17.659 -1.3168 -2.8095  0.2493
 7239SOL     OW33175   2.554   1.752   6.502 -0.8561 -0.4088 -0.1311
 7239SOL    HW133176   2.557   1.829   6.559  1.9223 -0.3602 -0.3380
 7239SOL    HW233177   2.479   1.772   6.445  0.6654 -1.2986 -2.4627
 7240SOL     OW33178   0.608   1.974   6.655  0.9093  0.2162 -0.4089
 7240SOL    HW133179   0.568   1.974   6.742 -0.5575  0.2405 -1.0903
 7240SOL    HW233180   0.683   2.032   6.667  1.4127 -0.6016  0.3744
 7241SOL     OW33181   3.716   4.171   4.667  0.3078  0.4809  0.3242
 7241SOL    HW133182   3.778   4.241   4.647 -1.4942  1.5242 -1.5378
 7241SOL    HW233183   3.637   4.215   4.636  1.9701  1.3456 -2.6649
 7242SOL     OW33184   1.162   3.699   6.312  0.1376 -0.0810 -0.1188
 7242SOL    HW133185   1.183   3.618   6.265 -1.0554 -0.5197  0.1010
 7242SOL    HW233186   1.232   3.712   6.376  1.8802 -1.1364 -1.7976
 7243SOL     OW33187   3.953   3.294   3.845  0.5402  0.0197 -0.2619
 7243SOL    HW133188   3.861   3.273   3.832  0.3481 -0.0134  1.2475
 7243SOL    HW233189   3.992   3.208   3.829 -1.7395 -1.0533 -0.0869
 7244SOL     OW33190   3.858   4.050  11.271 -0.1186  0.3200 -0.3468
 7244SOL    HW133191   3.918   4.047  11.346 -0.3884  0.4913 -0.1268
 7244SOL    HW233192   3.803   4.125  11.293 -0.2542 -0.0376  0.5482
 7245SOL     OW33193   1.454   0.614   9.165  0.1627 -0.1681  0.2441
 7245SOL    HW133194   1.500   0.642   9.086  0.7956 -0.7520  0.4096
 7245SOL    HW233195   1.510   0.546   9.202 -0.8005 -2.0016 -1.6538
 7246SOL     OW33196   2.806   2.414   6.222 -0.3354  0.0160 -0.3870
 7246SOL    HW133197   2.856   2.488   6.190  0.7185 -0.6890 -0.3782
 7246SOL    HW233198   2.803   2.426   6.317  1.6083  1.1494 -0.4724
 7247SOL     OW33199   2.117   3.770   8.606 -0.1240 -0.5015 -0.4031
 7247SOL    HW133200   2.057   3.741   8.537 -1.0191  0.4775 -0.0178
 7247SOL    HW233201   2.173   3.832   8.559 -0.6777  0.0771 -0.2859
 7248SOL     OW33202   2.312   3.139   2.033  0.0322 -0.3140  0.2876
 7248SOL    HW133203   2.236   3.088   2.002 -0.7897 -0.0104  1.7829
 7248SOL    HW233204   2.309   3.212   1.971 -1.5941 -0.6939 -0.0824
 7249SOL     OW33205   3.460   0.794  12.942 -0.3322 -0.2491  0.2739
 7249SOL    HW133206   3.518   0.848  12.996 -1.2155  0.4992  0.4773
 7249SOL    HW233207   3.488   0.828  12.856 -1.1422 -0.3482 -0.0321
 7250SOL     OW33208   0.097   0.643   7.052 -0.2736 -0.4523 -0.2258
 7250SOL    HW133209   0.089   0.570   7.114  0.2240  1.1120  1.7041
 7250SOL    HW233210   0.012   0.684   7.067  0.2147 -0.1868  1.9181
 7251SOL     OW33211   2.303   2.666   5.865 -0.5187 -0.6600 -0.1401
 7251SOL    HW133212   2.219   2.697   5.900 -1.0089 -0.5077 -1.4332
 7251SOL    HW233213   2.283   2.573   5.851 -2.3488 -0.4052  0.8122
 7252SOL     OW33214   3.823   0.118   5.621 -0.1618 -0.5132 -0.5420
 7252SOL    HW133215   3.750   0.164   5.661  0.1467 -0.8991  0.4698
 7252SOL    HW233216   3.840   0.066   5.700 -1.7329 -0.9498 -0.4869
 7253SOL     OW33217   3.890   1.153  10.403  0.1463  0.2395 -0.0010
 7253SOL    HW133218   3.830   1.080  10.392  1.6579 -1.2928  1.9042
 7253SOL    HW233219   3.897   1.189  10.315 -0.5415  1.7240  0.5340
 7254SOL     OW33220   4.462   3.869   4.595 -0.4148  0.1612 -0.1545
 7254SOL    HW133221   4.397   3.910   4.538 -0.9416 -0.0175  0.3212
 7254SOL    HW233222   4.437   3.914   4.676 -1.2658 -3.7507  1.7108
 7255SOL     OW33223   2.844   1.918   6.669  0.3245  0.4080  0.2030
 7255SOL    HW133224   2.883   1.980   6.731  0.1604 -0.2858  0.9980
 7255SOL    HW233225   2.763   1.965   6.649  0.0583  0.7724  2.0700
 7256SOL     OW33226   0.598   3.291  11.263 -0.8614  0.3737  0.6470
 7256SOL    HW133227   0.544   3.343  11.203 -2.6731 -0.3724  1.6290
 7256SOL    HW233228   0.656   3.356  11.302  0.4447  0.4069 -1.3619
 7257SOL     OW33229   0.096   3.831   4.911 -0.1263 -0.3019 -0.4606
 7257SOL    HW133230   0.005   3.810   4.931 -0.1967 -0.3099 -0.7889
 7257SOL    HW233231   0.136   3.755   4.870  0.2513 -1.9440  2.9686
 7258SOL     OW33232   0.517   1.863   6.934  0.5781 -0.5650 -0.0971
 7258SOL    HW133233   0.446   1.863   6.999 -0.4597  0.0035 -1.2241
 7258SOL    HW233234   0.593   1.897   6.982  2.0809 -1.8474 -1.5839
 7259SOL     OW33235   2.926   0.492   7.974 -0.5586 -0.4458 -0.1848
 7259SOL    HW133236   2.892   0.578   7.997 -0.2151 -0.2934 -0.2490
 7259SOL    HW233237   2.846   0.441   7.981  0.4412 -2.0777 -0.6909
 7260SOL     OW33238   0.893   3.185   3.476  0.0426  0.1267  0.2418
 7260SOL    HW133239   0.940   3.215   3.553 -1.1672  0.1439  0.9602
 7260SOL    HW233240   0.955   3.209   3.407  0.1958  0.2054  0.4083
 7261SOL     OW33241   1.174   1.451  16.504 -0.7291  0.1317 -0.3938
 7261SOL    HW133242   1.245   1.468  16.566 -1.8315 -1.4434  1.3108
 7261SOL    HW233243   1.213   1.483  16.423  0.3225 -0.0089  0.0555
 7262SOL     OW33244   1.957   4.565   7.279  0.9295  0.3415 -0.3846
 7262SOL    HW133245   1.949   4.583   7.185 -4.6278  1.5259  0.3412
 7262SOL    HW233246   1.872   4.591   7.314  1.1245  1.3252 -0.6404
 7263SOL     OW33247   2.295   2.310  12.938  0.2405  1.0987 -0.5437
 7263SOL    HW133248   2.320   2.400  12.953 -0.7889  0.6512  3.6519
 7263SOL    HW233249   2.378   2.287  12.896  0.2990 -4.7728  2.7240
 7264SOL     OW33250   0.359   4.711   3.755  0.3479  0.3054 -0.1669
 7264SOL    HW133251   0.394   0.070   3.789  0.5800  0.4073 -0.6481
 7264SOL    HW233252   0.264   4.718   3.767 -0.0156 -0.6712 -2.3389
 7265SOL     OW33253   3.783   3.850   5.323  0.6941 -0.2811  0.0962
 7265SOL    HW133254   3.865   3.838   5.371  0.2364 -1.4280  0.5929
 7265SOL    HW233255   3.801   3.930   5.275 -1.1019  0.3915  0.5542
 7266SOL     OW33256   2.629   4.306   4.563 -0.4570  0.0244 -0.3265
 7266SOL    HW133257   2.599   4.228   4.610 -0.8470 -0.0031 -0.6296
 7266SOL    HW233258   2.680   4.354   4.629  0.6681  0.0715 -1.2275
 7267SOL     OW33259   2.172   0.036  12.118 -0.4805 -0.0836 -0.1094
 7267SOL    HW133260   2.139   0.015  12.030  0.2324 -1.9350  0.0683
 7267SOL    HW233261   2.124   0.115  12.144 -0.8776 -0.0077 -1.0808
 7268SOL     OW33262   0.630   3.459   2.898 -0.0543  0.0170  0.2319
 7268SOL    HW133263   0.668   3.466   2.810 -0.7992  0.9194 -0.0206
 7268SOL    HW233264   0.582   3.377   2.891 -1.8396  1.1438 -0.7902
 7269SOL     OW33265   2.886   4.581   5.970 -0.0045  0.1226 -0.0900
 7269SOL    HW133266   2.874   4.520   5.898  1.6661  0.5242 -0.7117
 7269SOL    HW233267   2.860   4.512   6.031 -1.8427  0.8408 -0.0671
 7270SOL     OW33268   2.910   2.649   7.778 -0.7189 -0.2224 -0.2235
 7270SOL    HW133269   2.998   2.687   7.782 -0.1783 -1.5310  0.3136
 7270SOL    HW233270   2.905   2.606   7.693  1.1171 -2.0240  0.5646
 7271SOL     OW33271   0.563   0.401  17.579 -0.2841 -0.5707 -0.1452
 7271SOL    HW133272   0.513   0.468  17.625 -1.2374 -1.2516 -0.1779
 7271SOL    HW233273   0.616   0.373  17.653 -0.4069  1.0246  0.5332
 7272SOL     OW33274   4.707   1.589   6.372 -0.3911 -0.4791  0.2710
 7272SOL    HW133275   4.699   1.559   6.282 -2.4716  0.2340  0.2217
 7272SOL    HW233276   4.624   1.635   6.385  0.2439  0.5188  0.8125
 7273SOL     OW33277   4.482   4.101   4.339 -0.3589 -0.0204  0.8543
 7273SOL    HW133278   4.449   4.167   4.278 -0.3576  0.6599  1.6018
 7273SOL    HW233279   4.573   4.093   4.311 -0.7127  1.8382 -0.8076
 7274SOL     OW33280   2.172   1.929  12.848  0.0036  0.2081  0.0488
 7274SOL    HW133281   2.168   1.908  12.941 -0.5635  1.8930  0.3993
 7274SOL    HW233282   2.113   1.861  12.816  1.4578 -2.2013  2.4928
 7275SOL     OW33283   0.181   1.031   6.082  0.3111  0.4532 -0.2328
 7275SOL    HW133284   0.175   1.091   6.007 -0.6759  0.3964 -0.2023
 7275SOL    HW233285   0.205   0.951   6.036 -0.7081  1.5637 -2.6943
 7276SOL     OW33286   3.310   1.803   4.519  0.7120  0.0008  0.2222
 7276SOL    HW133287   3.221   1.777   4.497  1.1311 -0.0036 -1.4432
 7276SOL    HW233288   3.329   1.854   4.440 -1.3731  0.5122  0.0375
 7277SOL     OW33289   4.585   4.478   2.332  0.3217  0.2423 -0.0902
 7277SOL    HW133290   4.504   4.454   2.287 -0.8455 -0.0624  2.1655
 7277SOL    HW233291   4.599   4.559   2.281  0.4999  0.4835  0.3438
 7278SOL     OW33292   0.301   3.074   3.032 -0.3733 -0.0398  0.1212
 7278SOL    HW133293   0.325   3.074   3.124  0.0535 -0.0891  0.0105
 7278SOL    HW233294   0.306   2.981   3.009 -0.9251 -0.3191  1.1440
 7279SOL     OW33295   1.935   2.945  16.113  0.1409 -0.0719 -0.0426
 7279SOL    HW133296   1.942   2.850  16.104  1.9136 -0.0426  0.9128
 7279SOL    HW233297   2.029   2.964  16.110  0.5086 -2.1531 -1.7004
 7280SOL     OW33298   4.100   3.550  17.011  0.1393  0.3188 -0.4392
 7280SOL    HW133299   4.009   3.548  16.981 -1.2009 -0.8843  3.6382
 7280SOL    HW233300   4.092   3.589  17.098  0.3337 -2.3221  0.7649
 7281SOL     OW33301   4.097   2.095   6.722 -0.6117  0.2738  0.1125
 7281SOL    HW133302   4.023   2.071   6.667  0.4111 -2.0662 -0.2164
 7281SOL    HW233303   4.131   2.014   6.758  0.4958  0.2029 -1.0815
 7282SOL     OW33304   0.714   3.416   7.912  0.6075 -0.3605 -0.2494
 7282SOL    HW133305   0.800   3.378   7.893  0.9273  0.0159  0.4162
 7282SOL    HW233306   0.749   3.501   7.940 -1.7528  1.0033 -1.4413
 7283SOL     OW33307   2.297   1.715   8.841  0.0313  0.4341 -0.4944
 7283SOL    HW133308   2.294   1.668   8.924 -1.9611 -0.4112 -1.0418
 7283SOL    HW233309   2.270   1.803   8.868  0.3480 -0.3921  2.4075
 7284SOL     OW33310   4.148   3.444   1.753  0.3557 -0.9600  0.5156
 7284SOL    HW133311   4.113   3.424   1.839 -0.7270  1.5130  0.6552
 7284SOL    HW233312   4.070   3.439   1.698  0.0283  0.9199  0.8152
 7285SOL     OW33313   4.269   4.194   8.302  0.2326  0.1916  0.2229
 7285SOL    HW133314   4.204   4.232   8.361 -1.4168 -0.9022 -0.8743
 7285SOL    HW233315   4.273   4.262   8.235 -0.9154 -0.8473 -0.9070
 7286SOL     OW33316   0.416   2.133   3.509 -0.1286 -0.3402 -0.1442
 7286SOL    HW133317   0.503   2.109   3.476  0.1276  1.0450 -0.4649
 7286SOL    HW233318   0.426   2.227   3.518  2.5875 -0.5348 -0.9465
 7287SOL     OW33319   3.932   4.624   8.810  0.4460  0.0685  0.0828
 7287SOL    HW133320   3.982   4.612   8.890  2.3656 -0.8232 -1.2415
 7287SOL    HW233321   3.882   4.703   8.829 -0.8671 -1.0872  1.4049
 7288SOL     OW33322   0.794   1.430   2.079 -0.4101  0.0021 -0.4788
 7288SOL    HW133323   0.716   1.484   2.095 -0.2597  0.0157  0.1989
 7288SOL    HW233324   0.759   1.343   2.098  2.1502 -0.6305  1.3488
 7289SOL     OW33325   3.985   2.535   4.959 -0.5664  0.5085  0.0270
 7289SOL    HW133326   3.907   2.481   4.951 -0.7634  1.0999 -2.2139
 7289SOL    HW233327   3.966   2.619   5.000  0.0719  0.9548 -0.5843
 7290SOL     OW33328   1.709   2.787  11.491  0.1167 -1.0846 -0.2013
 7290SOL    HW133329   1.641   2.720  11.479 -1.8476  1.1371 -1.5083
 7290SOL    HW233330   1.781   2.728  11.514  0.0765 -1.3628 -0.7855
 7291SOL     OW33331   2.948   0.105   6.856 -0.1196 -0.1234  0.5392
 7291SOL    HW133332   3.000   0.182   6.833 -0.0422 -0.5220 -0.6175
 7291SOL    HW233333   2.994   0.033   6.813 -0.3678  0.4903 -0.7552
 7292SOL     OW33334   1.438   4.167   3.115 -0.2645 -0.1012 -0.4016
 7292SOL    HW133335   1.445   4.089   3.171 -0.9797 -1.7174 -2.5711
 7292SOL    HW233336   1.527   4.163   3.080 -0.4338 -0.7505 -0.7557
 7293SOL     OW33337   0.578   1.566  15.143 -0.2938 -0.5330 -0.3987
 7293SOL    HW133338   0.595   1.481  15.184  1.1704  0.7281  1.5641
 7293SOL    HW233339   0.492   1.544  15.105  1.1275 -1.5115 -3.0639
 7294SOL     OW33340   4.388   2.851   4.101  0.1680  0.1995  0.2102
 7294SOL    HW133341   4.429   2.789   4.161 -0.0503 -1.0379 -0.9402
 7294SOL    HW233342   4.448   2.926   4.104 -1.1725  1.2694  0.6223
 7295SOL     OW33343   2.847   0.766   9.087  0.4706 -0.7100 -0.1451
 7295SOL    HW133344   2.811   0.691   9.134  0.1508  0.3998  1.3593
 7295SOL    HW233345   2.782   0.835   9.092 -1.5191 -2.6437  0.7197
 7296SOL     OW33346   0.601   1.054   5.110 -0.4943 -0.0656 -0.0052
 7296SOL    HW133347   0.659   1.066   5.035  1.2054 -0.5333  1.2249
 7296SOL    HW233348   0.518   1.069   5.064  0.8102  1.6967 -1.8042
 7297SOL     OW33349   2.954   2.259  12.389 -0.1005  0.6318 -0.0638
 7297SOL    HW133350   2.983   2.168  12.393  1.0667  1.0535  1.0678
 7297SOL    HW233351   3.018   2.298  12.329  1.8175  0.1483  1.6982
 7298SOL     OW33352   3.108   0.396   2.869  0.6613  0.1822  0.0446
 7298SOL    HW133353   3.082   0.310   2.834  1.0314 -0.2009  0.7179
 7298SOL    HW233354   3.071   0.400   2.957  3.2601  1.3821  1.0773
 7299SOL     OW33355   3.995   1.921   5.182 -0.1365 -0.7037 -0.5077
 7299SOL    HW133356   4.062   1.956   5.123 -1.7851  1.3123 -1.2011
 7299SOL    HW233357   3.937   1.995   5.202 -0.6671 -1.1334 -0.4438
 7300SOL     OW33358   3.983   1.646   5.170 -0.1550 -0.5111 -0.4241
 7300SOL    HW133359   3.999   1.639   5.264 -0.2707 -2.9240 -0.5824
 7300SOL    HW233360   3.990   1.739   5.152 -0.2104 -0.9945 -2.8847
 7301SOL     OW33361   0.294   4.129   5.914 -0.2397  0.1774 -0.6542
 7301SOL    HW133362   0.337   4.203   5.957 -1.4507 -0.1597  1.1312
 7301SOL    HW233363   0.358   4.060   5.934  2.1352  2.6732  0.2590
 7302SOL     OW33364   2.438   3.160   8.695 -0.6053 -0.2952 -0.0218
 7302SOL    HW133365   2.470   3.080   8.737 -1.7010 -1.2333 -0.9620
 7302SOL    HW233366   2.450   3.224   8.765  2.9907  0.2785 -1.2065
 7303SOL     OW33367   3.856   3.022   5.702  0.1794 -0.6161  0.2162
 7303SOL    HW133368   3.889   3.088   5.763 -1.3952 -2.2744  2.8680
 7303SOL    HW233369   3.813   2.957   5.758  1.1181 -0.2712  1.3355
 7304SOL     OW33370   4.328   1.017   1.289  0.5864 -0.4160 -0.6740
 7304SOL    HW133371   4.308   1.085   1.353  0.5336 -1.5207  0.4979
 7304SOL    HW233372   4.339   1.068   1.209 -1.6529  0.5077 -0.3843
 7305SOL     OW33373   4.708   1.656   4.026 -0.3692  0.1854  0.0380
 7305SOL    HW133374   0.012   1.656   4.118 -2.7030  0.2402  0.7314
 7305SOL    HW233375   0.068   1.689   3.992 -0.8649  1.6196  0.1984
 7306SOL     OW33376   2.393   3.096   9.759 -0.1472 -0.3575  0.0860
 7306SOL    HW133377   2.435   3.112   9.843  0.6003 -0.8815 -0.1911
 7306SOL    HW233378   2.461   3.043   9.718  0.3316 -0.5902  1.1865
 7307SOL     OW33379   4.157   4.647   7.162  0.3308 -0.1633  0.3279
 7307SOL    HW133380   4.169   4.704   7.238  2.5159  1.6384 -1.3692
 7307SOL    HW233381   4.179   4.565   7.206  1.5467  0.1151  0.2417
 7308SOL     OW33382   1.885   3.533   2.193  0.0144  0.2445 -0.6362
 7308SOL    HW133383   1.978   3.525   2.175 -0.0885 -2.4291  0.0121
 7308SOL    HW233384   1.862   3.586   2.116  0.1707  2.7860  1.0834
 7309SOL     OW33385   0.824   2.660  16.380 -0.4115 -0.5936 -0.0740
 7309SOL    HW133386   0.846   2.655  16.286 -0.1982  1.2078 -0.1222
 7309SOL    HW233387   0.737   2.700  16.375 -0.4787 -0.7138  0.1707
 7310SOL     OW33388   1.755   2.130  11.040 -0.0427 -0.3550 -0.0136
 7310SOL    HW133389   1.738   2.050  10.990  0.2052  0.0981 -0.8292
 7310SOL    HW233390   1.701   2.190  10.987  0.6038 -0.5289 -0.8760
 7311SOL     OW33391   1.671   3.934   9.653  0.5088  0.0299  0.0598
 7311SOL    HW133392   1.576   3.947   9.662  0.3297 -0.6595 -0.8329
 7311SOL    HW233393   1.681   3.858   9.596 -2.1884 -0.5879  0.4184
 7312SOL     OW33394   2.156   2.372   3.974 -0.1977 -0.4990  0.2211
 7312SOL    HW133395   2.183   2.280   3.969 -1.1672 -0.7694  0.0208
 7312SOL    HW233396   2.231   2.429   3.963 -0.2059 -0.8147 -1.4703
 7313SOL     OW33397   2.754   3.109  11.588  0.5847 -0.3800  0.4398
 7313SOL    HW133398   2.800   3.120  11.671  2.6760 -0.8220 -0.6598
 7313SOL    HW233399   2.669   3.078  11.619 -0.3562  0.1457 -1.6346
 7314SOL     OW33400   3.260   3.671  13.769 -0.4513 -0.8184 -0.4091
 7314SOL    HW133401   3.268   3.578  13.750 -0.3197 -1.1840  1.4708
 7314SOL    HW233402   3.222   3.705  13.688 -0.7966  1.1858  0.5827
 7315SOL     OW33403   3.903   0.337   5.485 -0.2483 -0.2712 -0.2960
 7315SOL    HW133404   3.854   0.268   5.529  1.3293 -0.8292  0.5895
 7315SOL    HW233405   3.823   0.384   5.462  1.1940  0.4859 -3.7223
 7316SOL     OW33406   4.226   2.996   6.739  0.0941  0.1807 -0.2653
 7316SOL    HW133407   4.223   2.981   6.833 -1.6694 -0.0570 -0.3592
 7316SOL    HW233408   4.209   3.091   6.737  0.8133  0.3183  0.1559
 7317SOL     OW33409   3.912   0.734   3.761  0.8078  0.4946 -0.5057
 7317SOL    HW133410   3.864   0.792   3.703  0.6349  1.9152  1.0527
 7317SOL    HW233411   3.868   0.649   3.754  0.1216  0.5523  3.2036
 7318SOL     OW33412   1.560   4.617   2.855  0.3496 -0.1603  0.0027
 7318SOL    HW133413   1.537   4.577   2.771 -1.4834 -0.2624  0.5617
 7318SOL    HW233414   1.638   4.671   2.840 -0.9681  1.4261 -1.0701
 7319SOL     OW33415   2.546   3.763   9.036  0.5452  0.0804  0.0943
 7319SOL    HW133416   2.636   3.743   9.062  0.6604  1.8512  1.0104
 7319SOL    HW233417   2.520   3.817   9.110  1.0050  1.7705 -0.9767
 7320SOL     OW33418   2.625   1.002  10.373  0.1751 -0.1851  0.3057
 7320SOL    HW133419   2.702   1.045  10.410 -0.6912  0.9535  0.8229
 7320SOL    HW233420   2.629   0.914  10.409  0.9921 -1.2310 -2.3470
 7321SOL     OW33421   0.903   0.569  15.490  0.5326 -0.2618  0.0847
 7321SOL    HW133422   0.857   0.625  15.552 -1.3904 -2.1513  0.3775
 7321SOL    HW233423   0.951   0.631  15.435 -1.3914  1.0774 -0.0894
 7322SOL     OW33424   1.445   0.637   5.253 -0.4294 -0.2112 -0.5815
 7322SOL    HW133425   1.471   0.547   5.235 -0.5575 -0.9124  2.7061
 7322SOL    HW233426   1.382   0.651   5.182  0.7313  0.5116 -1.4566
 7323SOL     OW33427   2.052   2.893   6.562  0.3439  0.0316 -0.4615
 7323SOL    HW133428   2.128   2.943   6.533  1.0530 -0.2693  0.8679
 7323SOL    HW233429   2.021   2.842   6.486 -2.6155  0.3021  0.5881
 7324SOL     OW33430   3.392   3.578   0.071 -0.0471 -0.3444  0.5723
 7324SOL    HW133431   3.397   3.638  17.689 -0.4998  0.5308  1.2369
 7324SOL    HW233432   3.308   3.536   0.051  1.0423 -2.1455 -0.1942
 7325SOL     OW33433   3.466   2.695   1.583  0.6298  0.5191 -0.1401
 7325SOL    HW133434   3.500   2.738   1.662 -1.4124  3.2990 -0.7862
 7325SOL    HW233435   3.520   2.735   1.515 -3.1592  1.2986 -2.6552
 7326SOL     OW33436   1.217   1.700   1.232 -0.7762 -0.8381 -0.1171
 7326SOL    HW133437   1.181   1.783   1.199 -0.2105  0.0307  1.4255
 7326SOL    HW233438   1.150   1.636   1.210 -0.6107 -1.6096  1.6819
 7327SOL     OW33439   3.124   3.917  10.892  0.2655  0.4877  0.1637
 7327SOL    HW133440   3.076   3.839  10.920  0.6688  0.8479  1.8820
 7327SOL    HW233441   3.214   3.891  10.914  0.0961 -1.1295 -1.0164
 7328SOL     OW33442   4.242   2.458   6.678  0.2372 -0.2575  0.5701
 7328SOL    HW133443   4.214   2.546   6.653  1.3378 -0.4778 -1.4512
 7328SOL    HW233444   4.190   2.438   6.756 -0.1021  1.0410  0.6892
 7329SOL     OW33445   0.522   0.745   4.079  0.5579 -0.5926  0.0160
 7329SOL    HW133446   0.428   0.752   4.096  0.4495  1.7675 -1.5460
 7329SOL    HW233447   0.548   0.676   4.140  2.3977  0.0321 -0.0498
 7330SOL     OW33448   4.084   1.007   5.766 -0.2989  0.5100 -0.1727
 7330SOL    HW133449   4.089   0.913   5.745  0.1775  0.3767  0.5356
 7330SOL    HW233450   4.045   1.005   5.854  1.3228  0.5099  0.5454
 7331SOL     OW33451   4.125   1.159   8.034 -0.0191 -0.0490  0.5421
 7331SOL    HW133452   4.109   1.093   7.967 -0.3528  1.0147 -0.4463
 7331SOL    HW233453   4.178   1.217   7.979 -0.2851 -0.1472  0.1757
 7332SOL     OW33454   2.927   1.211   8.020 -0.0593  0.1741  0.0991
 7332SOL    HW133455   2.913   1.296   8.063 -0.9134 -0.1100  0.3853
 7332SOL    HW233456   3.018   1.217   7.990 -0.0734  0.1110  0.0454
 7333SOL     OW33457   2.898   2.780   4.187 -0.5935  0.2540  0.4715
 7333SOL    HW133458   2.858   2.698   4.158 -0.9445  0.2739  0.8958
 7333SOL    HW233459   2.895   2.763   4.281 -0.8701 -2.8256 -0.0919
 7334SOL     OW33460   0.892   2.085   5.724  0.1747 -0.1387 -0.1648
 7334SOL    HW133461   0.935   2.001   5.705 -0.6372 -0.4972 -0.4247
 7334SOL    HW233462   0.963   2.121   5.776 -1.3691  0.4333  1.5671
 7335SOL     OW33463   3.595   1.338  10.812 -0.2027 -0.1471  0.3747
 7335SOL    HW133464   3.597   1.244  10.796  0.1637  0.1857 -1.6608
 7335SOL    HW233465   3.618   1.365  10.722  0.0957  0.4464  0.6275
 7336SOL     OW33466   3.741   2.670   8.393  0.0985 -0.3820  0.3235
 7336SOL    HW133467   3.711   2.666   8.484  1.4579 -1.9437  0.6978
 7336SOL    HW233468   3.735   2.583   8.353 -2.6137 -0.1033  0.1239
 7337SOL     OW33469   0.631   0.193   9.315  0.0109  0.0618  0.4018
 7337SOL    HW133470   0.590   0.108   9.300 -1.8710  1.3085 -1.6151
 7337SOL    HW233471   0.594   0.207   9.402  0.3831 -2.0350  0.8871
 7338SOL     OW33472   3.621   3.797  10.993 -0.0474 -0.0660 -0.4316
 7338SOL    HW133473   3.649   3.712  11.026 -1.1181 -0.4353 -0.4524
 7338SOL    HW233474   3.705   3.839  11.007 -0.1400  0.1038 -0.3922
 7339SOL     OW33475   1.341   4.314  16.129 -0.1184 -0.0861 -0.0889
 7339SOL    HW133476   1.274   4.246  16.121 -0.3012  0.3003 -1.9197
 7339SOL    HW233477   1.295   4.398  16.135 -1.4420 -0.7112 -1.3163
 7340SOL     OW33478   1.225   3.679   5.167 -0.0600 -0.0716 -0.2531
 7340SOL    HW133479   1.140   3.715   5.140 -0.9163 -2.7704 -1.1843
 7340SOL    HW233480   1.281   3.702   5.093 -0.5055 -1.0765 -0.9031
 7341SOL     OW33481   4.016   0.906   7.927  0.1850 -0.0477  0.0918
 7341SOL    HW133482   4.040   0.883   8.017  1.2764  3.1463  0.6231
 7341SOL    HW233483   3.923   0.929   7.932 -0.7766 -4.1454  1.0477
 7342SOL     OW33484   0.831   2.778   7.909  0.5130 -0.5394  0.1200
 7342SOL    HW133485   0.792   2.836   7.974  2.1536 -0.7611  1.2889
 7342SOL    HW233486   0.881   2.715   7.960  0.4822 -0.1410  0.6448
 7343SOL     OW33487   4.619   1.917   7.240 -0.0612 -0.3823  0.0962
 7343SOL    HW133488   4.635   1.881   7.327 -0.8367 -4.0411 -1.2887
 7343SOL    HW233489   4.574   2.000   7.253  1.7902  0.8007 -1.0110
 7344SOL     OW33490   2.137   2.868   3.116 -0.6885  0.2864  0.2033
 7344SOL    HW133491   2.207   2.812   3.151 -0.6672  0.9763  1.2557
 7344SOL    HW233492   2.192   2.929   3.066  1.0003 -2.7103 -1.6520
 7345SOL     OW33493   3.298   2.996  14.729  0.3075  0.3152  0.4627
 7345SOL    HW133494   3.298   2.927  14.795 -0.8976  1.1468  1.3439
 7345SOL    HW233495   3.353   3.063  14.771  0.2632  0.4987  0.2292
 7346SOL     OW33496   2.719   4.304   8.458  0.0963  0.0640 -0.1977
 7346SOL    HW133497   2.678   4.384   8.489 -1.1148 -0.7029  0.1939
 7346SOL    HW233498   2.652   4.272   8.397  0.5406  2.2481 -1.8481
 7347SOL     OW33499   1.744   3.218   6.767 -0.3696 -0.1249  0.0148
 7347SOL    HW133500   1.798   3.146   6.802 -2.4014 -1.9254 -0.5219
 7347SOL    HW233501   1.655   3.201   6.799 -0.4371  2.0187  0.9522
 7348SOL     OW33502   2.496   0.703   9.139  0.3127  0.2456 -0.1003
 7348SOL    HW133503   2.417   0.648   9.139  1.2279 -1.0722  0.3773
 7348SOL    HW233504   2.532   0.668   9.221  2.0842  2.3544  0.0378
 7349SOL     OW33505   2.448   3.223   7.326  0.3645  0.3248  0.5049
 7349SOL    HW133506   2.456   3.298   7.385 -0.5349 -1.2942  2.6482
 7349SOL    HW233507   2.469   3.262   7.240  0.2250 -1.1228 -0.1773
 7350SOL     OW33508   4.027   4.687  12.211 -0.3591 -0.0358 -0.6552
 7350SOL    HW133509   4.025   0.050  12.168 -0.2461  0.1440 -0.3000
 7350SOL    HW233510   3.963   4.643  12.155 -1.0075  1.8933 -1.3974
 7351SOL     OW33511   1.111   1.267   0.766  0.4463  0.2401 -0.1270
 7351SOL    HW133512   1.084   1.194   0.711 -1.9562 -0.7378  2.3502
 7351SOL    HW233513   1.114   1.231   0.855  0.2952 -0.6416 -0.4798
 7352SOL     OW33514   4.393   0.163   6.569 -0.7754 -0.3073 -0.1247
 7352SOL    HW133515   4.393   0.146   6.663  1.2302  0.0901 -0.0569
 7352SOL    HW233516   4.475   0.133   6.530 -0.5050  0.8836 -0.4615
 7353SOL     OW33517   4.103   4.491   8.337  0.1636  0.1456 -0.8070
 7353SOL    HW133518   4.126   4.417   8.393  0.5871 -1.3186 -2.9154
 7353SOL    HW233519   4.179   4.500   8.280  0.9981  1.2010  0.4556
 7354SOL     OW33520   0.819   0.307   1.317  0.3865 -0.3118 -0.1003
 7354SOL    HW133521   0.805   0.214   1.299  0.7450  0.0907 -2.3618
 7354SOL    HW233522   0.823   0.309   1.413  0.6169 -0.3948 -0.1091
 7355SOL     OW33523   4.607   2.395  17.385  0.3134 -1.0039 -0.3161
 7355SOL    HW133524   4.571   2.373  17.471  1.3379  2.3042  0.9645
 7355SOL    HW233525   4.533   2.411  17.327 -1.8513  0.8490  2.9321
 7356SOL     OW33526   1.931   4.569   8.353  0.3196  0.1895 -0.0137
 7356SOL    HW133527   1.905   4.657   8.379  0.5561  0.4763 -0.7528
 7356SOL    HW233528   2.004   4.562   8.414 -0.3845 -0.9103  0.6984
 7357SOL     OW33529   4.041   0.537  12.818  0.1317  0.2077 -0.3707
 7357SOL    HW133530   4.130   0.564  12.793 -0.2012  0.5966 -1.1413
 7357SOL    HW233531   4.045   0.442  12.824 -1.5430  0.1322 -0.5368
 7358SOL     OW33532   0.116   4.599   6.728 -0.2945 -0.4195  0.1750
 7358SOL    HW133533   0.184   4.635   6.786 -2.9520 -1.2670  3.8554
 7358SOL    HW233534   0.037   4.642   6.761  0.7251  2.6599 -1.4071
 7359SOL     OW33535   0.180   0.921   4.865 -0.1762 -0.5083 -0.1718
 7359SOL    HW133536   0.146   0.849   4.812  0.4679 -2.0026  1.4140
 7359SOL    HW233537   0.188   0.997   4.807  0.7348  0.0382  0.6547
 7360SOL     OW33538   3.166   3.258  10.727 -0.1893  0.0468 -0.1466
 7360SOL    HW133539   3.084   3.304  10.710 -0.1735 -0.7469 -2.4116
 7360SOL    HW233540   3.174   3.212  10.643 -3.7256 -1.4048  0.2960
 7361SOL     OW33541   3.922   2.847   8.379  0.5460 -0.0733  0.2132
 7361SOL    HW133542   3.855   2.781   8.366 -0.9964  1.6771 -0.7496
 7361SOL    HW233543   3.898   2.879   8.466  0.2175 -1.9936  0.8210
 7362SOL     OW33544   0.994   3.100   6.744 -0.9740 -0.1207  0.2577
 7362SOL    HW133545   1.084   3.131   6.732 -0.5141 -1.0356  1.3148
 7362SOL    HW233546   1.010   3.020   6.795  0.1840 -0.1232 -0.1171
 7363SOL     OW33547   2.008   4.264   4.531  0.0631  0.3230 -0.2187
 7363SOL    HW133548   1.929   4.235   4.578  0.2507  0.4252  0.1632
 7363SOL    HW233549   2.030   4.347   4.573  1.8599 -0.8196  1.0945
 7364SOL     OW33550   2.830   0.193  10.533  0.2706  0.4804  0.3768
 7364SOL    HW133551   2.798   0.201  10.443 -1.6381 -2.6649  0.7646
 7364SOL    HW233552   2.759   0.229  10.585 -0.1966  0.1306 -0.0119
 7365SOL     OW33553   3.371   3.322   3.656 -0.4909 -0.1257 -0.2509
 7365SOL    HW133554   3.296   3.262   3.653 -0.6844  0.0483  0.9639
 7365SOL    HW233555   3.447   3.265   3.655  0.7373  1.5486 -1.1731
 7366SOL     OW33556   2.507   4.400   5.532 -0.2874  0.5691 -0.5869
 7366SOL    HW133557   2.459   4.383   5.613  0.2494 -0.5684 -0.5131
 7366SOL    HW233558   2.567   4.470   5.559 -0.0367  0.8993 -2.0309
 7367SOL     OW33559   2.339   3.942  14.249 -0.2986 -0.0277 -0.0596
 7367SOL    HW133560   2.275   4.013  14.245 -0.6496 -0.2461  1.6155
 7367SOL    HW233561   2.369   3.935  14.159 -2.2749 -1.0959 -0.6271
 7368SOL     OW33562   1.131   0.863  11.870 -0.7282 -0.7783  0.1744
 7368SOL    HW133563   1.155   0.774  11.893  0.6173 -1.0202 -2.1387
 7368SOL    HW233564   1.111   0.893  11.959 -1.0065  0.2124 -0.2143
 7369SOL     OW33565   0.957   0.315   6.128 -0.0150 -0.9422  0.0716
 7369SOL    HW133566   0.994   0.267   6.203 -0.5692 -1.7803 -0.1979
 7369SOL    HW233567   0.885   0.360   6.173  0.6209  0.6296 -0.4894
 7370SOL     OW33568   3.386   0.572   0.760 -0.5835  0.3280  0.0845
 7370SOL    HW133569   3.469   0.617   0.779 -1.2016  1.0976  1.0002
 7370SOL    HW233570   3.400   0.484   0.796 -1.8034  0.0188 -0.2159
 7371SOL     OW33571   2.144   3.801  13.313 -0.3391  0.1022  0.1282
 7371SOL    HW133572   2.086   3.728  13.334 -0.3513  0.2198  0.4973
 7371SOL    HW233573   2.170   3.834  13.399 -0.1157 -0.7480  0.3760
 7372SOL     OW33574   1.640   1.972   9.747  0.5852  0.1022 -0.0453
 7372SOL    HW133575   1.623   1.944   9.657 -1.7278  3.9328 -0.7998
 7372SOL    HW233576   1.724   1.934   9.773 -0.2209 -1.6917 -0.0236
 7373SOL     OW33577   2.862   0.247   4.472 -0.4063 -0.4608 -0.0664
 7373SOL    HW133578   2.864   0.260   4.567  2.7667 -0.5692 -0.1204
 7373SOL    HW233579   2.787   0.300   4.446  0.7251  0.4604 -1.4698
 7374SOL     OW33580   4.574   3.953   7.036 -0.0510  0.1203  0.2226
 7374SOL    HW133581   4.526   3.919   6.961  1.6997 -0.8499 -0.4594
 7374SOL    HW233582   4.586   4.043   7.007 -2.4068  0.7701  1.3108
 7375SOL     OW33583   2.966   3.373  17.003  0.4873  0.4594  0.3323
 7375SOL    HW133584   3.017   3.323  17.067  1.1577 -0.1156 -0.6534
 7375SOL    HW233585   2.944   3.298  16.949 -1.1370  1.8946 -0.9907
 7376SOL     OW33586   1.566   1.482  17.490  0.0870 -0.2288  0.1902
 7376SOL    HW133587   1.599   1.459  17.404 -0.9100  2.6767 -0.9853
 7376SOL    HW233588   1.480   1.518  17.469  0.9777  1.5468 -0.4060
 7377SOL     OW33589   1.444   0.766   8.630  0.2400 -0.5398  0.1873
 7377SOL    HW133590   1.451   0.687   8.683 -0.4107  0.1141  1.2375
 7377SOL    HW233591   1.430   0.833   8.697  1.7313 -0.7259  0.6843
 7378SOL     OW33592   1.488   0.015   5.499  0.5334  0.3237 -0.1214
 7378SOL    HW133593   1.556   0.082   5.501  1.9173 -1.0698 -0.8529
 7378SOL    HW233594   1.436   0.044   5.574  3.4409  2.1958  1.1500
 7379SOL     OW33595   0.384   0.511  10.881 -0.0530  0.1860  0.5019
 7379SOL    HW133596   0.309   0.512  10.821 -0.2191  1.6600  0.7372
 7379SOL    HW233597   0.411   0.603  10.878 -3.7452  1.1850 -1.2347
 7380SOL     OW33598   3.737   3.269  13.904  0.9483 -0.4638 -0.4630
 7380SOL    HW133599   3.718   3.363  13.905  1.1560 -0.4194 -1.0877
 7380SOL    HW233600   3.832   3.263  13.903  1.0821  2.1658 -1.5263
 7381SOL     OW33601   2.864   4.025   5.686  0.1101  0.1276  0.0379
 7381SOL    HW133602   2.937   4.019   5.748 -0.2065  0.0411  0.4060
 7381SOL    HW233603   2.801   3.955   5.702  2.6473 -1.8363  1.3585
 7382SOL     OW33604   0.525   1.855  11.482 -0.6678  0.3073 -0.3299
 7382SOL    HW133605   0.603   1.908  11.500  0.8365 -1.9810 -0.2178
 7382SOL    HW233606   0.468   1.932  11.487 -0.6225  0.3844 -1.0000
 7383SOL     OW33607   0.530   3.037  16.946 -0.5005 -0.0354 -0.2976
 7383SOL    HW133608   0.577   2.959  16.917 -0.2485 -0.0209  0.0861
 7383SOL    HW233609   0.529   3.077  16.859  0.3106 -0.2663 -0.4078
 7384SOL     OW33610   3.802   1.754   9.006  0.3228 -0.0615  0.1992
 7384SOL    HW133611   3.785   1.754   9.101  1.0147  1.2908  0.3172
 7384SOL    HW233612   3.854   1.676   8.987 -0.3026 -0.9125  1.9190
 7385SOL     OW33613   3.956   3.587   7.387  0.1553 -0.5497 -0.1418
 7385SOL    HW133614   3.917   3.629   7.464 -0.6101 -0.4449 -0.5807
 7385SOL    HW233615   3.899   3.616   7.315  2.2163 -0.3100 -1.6636
 7386SOL     OW33616   4.172   3.121  16.804  0.3843  0.2962 -0.3806
 7386SOL    HW133617   4.188   3.199  16.751 -0.6289  0.5508 -0.3061
 7386SOL    HW233618   4.189   3.163  16.889  1.4154  1.0398 -0.9529
 7387SOL     OW33619   4.637   4.395   8.478  0.1383 -0.2632 -0.5584
 7387SOL    HW133620   4.570   4.328   8.494  1.7167 -1.2483  1.9238
 7387SOL    HW233621   4.676   4.368   8.395 -0.8212  0.7817 -1.3446
 7388SOL     OW33622   3.428   0.218  12.717 -0.5178 -0.1219  0.1149
 7388SOL    HW133623   3.425   0.258  12.804  1.3837 -0.2299  0.2483
 7388SOL    HW233624   3.449   0.130  12.748  0.9758  0.4449  0.7172
 7389SOL     OW33625   3.435   0.487   9.220  0.3453 -0.4287 -0.1399
 7389SOL    HW133626   3.340   0.485   9.208  0.1113  1.2597  1.4612
 7389SOL    HW233627   3.452   0.400   9.186 -2.4762 -1.5527  1.3204
 7390SOL     OW33628   2.265   2.280   8.236  0.2078 -0.5446  0.1187
 7390SOL    HW133629   2.185   2.326   8.211  1.8445  0.7496 -2.6403
 7390SOL    HW233630   2.335   2.336   8.203  1.2246 -1.9821 -0.2050
 7391SOL     OW33631   3.436   4.543   2.634  0.1955 -0.5999  0.4230
 7391SOL    HW133632   3.374   4.510   2.699  0.1536 -0.5878  0.3886
 7391SOL    HW233633   3.430   4.477   2.565  0.0812  0.3652 -0.4995
 7392SOL     OW33634   4.101   1.557   2.775  0.1457 -0.3336 -0.5188
 7392SOL    HW133635   4.076   1.470   2.807  1.8782 -0.2971  0.9262
 7392SOL    HW233636   4.028   1.615   2.799  0.4291 -0.0380 -0.3716
 7393SOL     OW33637   4.340   2.708   8.798 -0.0125  0.2957 -0.0462
 7393SOL    HW133638   4.401   2.781   8.806  0.6263 -0.4435  1.7571
 7393SOL    HW233639   4.293   2.726   8.716 -0.6092  0.5352  0.3482
 7394SOL     OW33640   4.033   0.733  16.981 -0.4085  0.5876  0.1985
 7394SOL    HW133641   3.959   0.678  16.955  0.7163 -0.9036  0.1095
 7394SOL    HW233642   4.036   0.716  17.076 -0.7695 -1.0820 -0.0774
 7395SOL     OW33643   4.272   3.821  14.724  0.1109  0.1127  0.6246
 7395SOL    HW133644   4.350   3.787  14.770  0.2308 -0.7655 -0.2268
 7395SOL    HW233645   4.213   3.826  14.799 -0.2725  1.2165  0.2419
 7396SOL     OW33646   2.123   1.445  13.511 -0.5077 -0.5055  0.0505
 7396SOL    HW133647   2.058   1.379  13.487 -1.8216  1.0831 -0.7691
 7396SOL    HW233648   2.077   1.529  13.511  0.2633 -0.0965 -0.6883
 7397SOL     OW33649   3.364   0.633   4.377  0.0729 -0.0622 -0.1547
 7397SOL    HW133650   3.331   0.611   4.290  1.2478 -2.6410  0.0302
 7397SOL    HW233651   3.357   0.550   4.426  0.4484 -0.1544 -0.2567
 7398SOL     OW33652   1.881   1.655   2.725  0.2228  0.1179 -0.6357
 7398SOL    HW133653   1.960   1.682   2.773 -0.2154  1.3597 -0.6089
 7398SOL    HW233654   1.893   1.706   2.645 -0.2467  1.1717 -0.0328
 7399SOL     OW33655   2.569   3.887   2.872  0.9116 -0.0199 -0.3915
 7399SOL    HW133656   2.526   3.880   2.957  2.5524  0.8509  0.5207
 7399SOL    HW233657   2.644   3.830   2.889  1.9007  1.1761 -0.6715
 7400SOL     OW33658   1.157   3.855   3.715 -0.1349 -0.0287 -0.1489
 7400SOL    HW133659   1.204   3.893   3.789 -1.1973  0.2904  0.3661
 7400SOL    HW233660   1.065   3.874   3.734  0.1397  0.5968  0.5646
 7401SOL     OW33661   3.680   4.304   0.419 -0.3445  0.0769  0.1108
 7401SOL    HW133662   3.614   4.237   0.431  0.1665 -1.1371 -3.9041
 7401SOL    HW233663   3.691   4.329   0.510  2.6967 -0.4325 -0.1086
 7402SOL     OW33664   3.696   2.668   2.708 -0.1875 -0.0885  0.3905
 7402SOL    HW133665   3.772   2.726   2.704  0.3164 -0.8534 -1.6375
 7402SOL    HW233666   3.716   2.621   2.789 -2.6440 -2.2788 -0.2453
 7403SOL     OW33667   4.342   1.397   5.313  0.2778 -0.3638  0.0534
 7403SOL    HW133668   4.366   1.434   5.228  0.9146  0.4508  0.5854
 7403SOL    HW233669   4.405   1.437   5.373 -0.0318 -0.8246  0.6877
 7404SOL     OW33670   3.681   3.984  12.326  0.2180 -0.2107  0.2852
 7404SOL    HW133671   3.620   3.981  12.401  1.0677 -0.1088  0.9781
 7404SOL    HW233672   3.669   3.895  12.294  1.6021  0.0152 -0.8282
 7405SOL     OW33673   4.528   2.425   0.810 -0.2437 -0.1096  0.7922
 7405SOL    HW133674   4.579   2.442   0.890  2.6485  0.3967 -1.1357
 7405SOL    HW233675   4.446   2.397   0.850 -1.1921  0.0212 -1.0786
 7406SOL     OW33676   0.126   1.133  10.420  0.2575 -0.2276 -0.0180
 7406SOL    HW133677   0.162   1.101  10.337  2.2667 -1.9145  1.5111
 7406SOL    HW233678   0.168   1.218  10.429 -1.2834  0.4474  0.7946
 7407SOL     OW33679   0.135   0.487   6.517 -0.0958  0.0457 -0.0547
 7407SOL    HW133680   0.113   0.508   6.608  0.5760 -1.1529  0.3842
 7407SOL    HW233681   0.172   0.572   6.493  0.9511 -0.3002  0.3201
 7408SOL     OW33682   2.549   0.638   6.990  0.2158  0.5455  0.9721
 7408SOL    HW133683   2.506   0.703   7.046 -1.7088 -0.5840  0.8062
 7408SOL    HW233684   2.631   0.687   6.983  1.2649 -0.9760  2.8383
 7409SOL     OW33685   3.653   4.032   6.256 -0.4934 -0.1822  0.3205
 7409SOL    HW133686   3.707   4.111   6.253  1.1794 -1.3555 -0.4347
 7409SOL    HW233687   3.717   3.973   6.218  0.0713 -0.7031  2.0823
 7410SOL     OW33688   2.933   0.731   6.108 -0.0719 -0.4122 -0.0772
 7410SOL    HW133689   2.864   0.794   6.087 -0.9676 -1.2671  0.2623
 7410SOL    HW233690   2.885   0.680   6.174  0.6763  0.4305  1.1198
 7411SOL     OW33691   2.910   1.274  17.251  0.2934  0.1716 -0.0852
 7411SOL    HW133692   2.989   1.249  17.202 -1.0153 -1.3645 -1.4306
 7411SOL    HW233693   2.851   1.285  17.177 -0.8228  1.0601  0.9413
 7412SOL     OW33694   1.578   0.146   4.907  0.1951 -0.1021  0.6281
 7412SOL    HW133695   1.490   0.120   4.931 -0.4139  2.9745  1.6938
 7412SOL    HW233696   1.565   0.137   4.813 -1.0632 -1.5842  0.9383
 7413SOL     OW33697   0.787   0.695   8.113  0.4003  0.4309 -0.1541
 7413SOL    HW133698   0.800   0.653   8.028 -1.6793 -0.8757  0.1791
 7413SOL    HW233699   0.871   0.668   8.150  0.3161 -0.6138 -0.7260
 7414SOL     OW33700   0.139   2.366  13.794  0.3689  0.5223  0.3205
 7414SOL    HW133701   0.108   2.438  13.849  0.0761 -0.2270  1.1403
 7414SOL    HW233702   0.161   2.304  13.863 -1.0108 -1.1505 -0.7534
 7415SOL     OW33703   2.325   0.845   4.501  0.3115  0.0290  0.0845
 7415SOL    HW133704   2.289   0.781   4.562 -0.3336 -0.1044 -0.4336
 7415SOL    HW233705   2.381   0.891   4.564  0.1491 -0.9423  0.9375
 7416SOL     OW33706   1.220   1.397   0.339  0.3026 -0.2983  0.3008
 7416SOL    HW133707   1.138   1.373   0.384  0.5021 -0.2002  0.7133
 7416SOL    HW233708   1.292   1.351   0.382  0.0361  0.1753  1.2606
 7417SOL     OW33709   1.671   4.390   8.246  0.4737  0.4692  0.4571
 7417SOL    HW133710   1.624   4.472   8.232 -0.0013  0.2589  0.8114
 7417SOL    HW233711   1.762   4.413   8.225 -0.1861  0.1745 -2.8429
 7418SOL     OW33712   0.295   0.268   7.119 -0.0910  0.2795 -0.2774
 7418SOL    HW133713   0.331   0.348   7.079 -1.6984  0.3794 -1.5038
 7418SOL    HW233714   0.367   0.261   7.182 -1.4409  0.2336  1.2545
 7419SOL     OW33715   4.354   0.725   8.743  0.4328 -0.0146  0.4823
 7419SOL    HW133716   4.296   0.667   8.695 -0.0671  0.3197  0.6869
 7419SOL    HW233717   4.425   0.729   8.679 -0.5363  2.7429 -0.3916
 7420SOL     OW33718   3.185   0.635   2.035 -0.5302  0.0085  0.2752
 7420SOL    HW133719   3.205   0.541   2.027  0.8046  0.2980  0.2072
 7420SOL    HW233720   3.089   0.637   2.032 -0.4575  0.3928 -1.7547
 7421SOL     OW33721   2.234   3.823  14.837  0.2763 -0.3009 -0.8342
 7421SOL    HW133722   2.147   3.857  14.859 -0.4739 -2.6769 -0.1319
 7421SOL    HW233723   2.240   3.827  14.741  0.9331  2.7903 -0.6746
 7422SOL     OW33724   0.979   0.145  15.242 -0.2958  0.5721 -0.4813
 7422SOL    HW133725   1.058   0.129  15.294  0.0916 -0.3404 -1.3345
 7422SOL    HW233726   0.938   0.219  15.286 -2.0139 -0.8105  0.2548
 7423SOL     OW33727   3.465   3.810   3.315 -0.1153 -0.2950  0.1211
 7423SOL    HW133728   3.528   3.860   3.262  0.3999 -0.3592  0.6776
 7423SOL    HW233729   3.521   3.792   3.390  2.4097  0.1914 -1.6570
 7424SOL     OW33730   4.284   2.066   7.762  0.0458  0.0317 -0.0090
 7424SOL    HW133731   4.327   1.998   7.813 -2.5441  0.5519  2.8601
 7424SOL    HW233732   4.227   2.111   7.824  1.1675  1.7424 -0.2113
 7425SOL     OW33733   2.800   1.367  16.600 -0.0364  0.2550 -0.5082
 7425SOL    HW133734   2.804   1.357  16.505 -1.2210  1.0334 -0.6509
 7425SOL    HW233735   2.840   1.283  16.621 -1.0395  0.2452  1.4275
 7426SOL     OW33736   1.721   3.996   4.377 -0.1372 -0.1836  0.2143
 7426SOL    HW133737   1.628   3.991   4.401 -0.8386 -3.9313 -3.3611
 7426SOL    HW233738   1.727   4.084   4.341 -0.9781  0.2989  1.2384
 7427SOL     OW33739   0.508   2.075   4.760 -0.5190  0.0351 -0.2873
 7427SOL    HW133740   0.567   2.136   4.716 -0.4608  0.4110  0.3046
 7427SOL    HW233741   0.506   2.114   4.848 -0.0860 -2.3930  0.7887
 7428SOL     OW33742   2.914   2.789   3.331 -0.2247  0.0009  0.5211
 7428SOL    HW133743   2.979   2.720   3.320 -0.5596 -0.2637  0.1870
 7428SOL    HW233744   2.927   2.852   3.259  0.9358 -1.1618 -0.2666
 7429SOL     OW33745   1.379   2.840   6.749 -0.0979 -0.1143  0.4871
 7429SOL    HW133746   1.349   2.821   6.838  0.8106 -0.6215  0.6860
 7429SOL    HW233747   1.386   2.754   6.709  2.7465  0.9002 -1.1642
 7430SOL     OW33748   2.626   1.580   0.944 -0.1357 -0.0479 -0.3108
 7430SOL    HW133749   2.588   1.638   0.878  0.0759 -0.2164 -0.5794
 7430SOL    HW233750   2.701   1.550   0.892 -0.8887  0.6365 -1.7692
 7431SOL     OW33751   2.077   4.497  11.729 -0.2797  0.0913 -0.1823
 7431SOL    HW133752   2.004   4.534  11.680 -0.5229  0.7513  0.6671
 7431SOL    HW233753   2.143   4.562  11.709  0.2265 -0.1336  0.7609
 7432SOL     OW33754   0.096   1.071  14.778  0.3169  0.1686 -0.4074
 7432SOL    HW133755   0.170   1.014  14.798 -0.2556 -0.0669  1.0778
 7432SOL    HW233756   0.098   1.144  14.839  0.9511  0.8439 -1.2420
 7433SOL     OW33757   3.431   4.283  13.949  0.5679  0.0764 -0.0033
 7433SOL    HW133758   3.392   4.370  13.941  0.8670  0.2389  0.2976
 7433SOL    HW233759   3.353   4.230  13.936 -1.9066  4.0189 -1.1678
 7434SOL     OW33760   1.592   4.649  13.742 -0.3475 -0.4386  0.5818
 7434SOL    HW133761   1.541   4.708  13.686 -1.4962 -0.8793  1.1811
 7434SOL    HW233762   1.622   4.704  13.815  0.8632 -0.3559  0.0307
 7435SOL     OW33763   2.628   0.796  11.859  0.3784 -0.7205 -0.3508
 7435SOL    HW133764   2.716   0.829  11.840  0.2165 -0.6430 -0.9488
 7435SOL    HW233765   2.641   0.703  11.843 -0.6111 -0.7834 -0.7981
 7436SOL     OW33766   0.261   3.088  11.261 -0.1914 -0.0724  0.5009
 7436SOL    HW133767   0.255   2.997  11.291  0.6550  0.1786  1.4419
 7436SOL    HW233768   0.351   3.110  11.284 -0.7557  1.1030  1.5849
 7437SOL     OW33769   0.084   3.351   7.258  0.2059  0.3697 -0.3110
 7437SOL    HW133770   0.060   3.436   7.221  0.7297  1.3578  1.6352
 7437SOL    HW233771   0.179   3.361   7.258  0.2689 -0.2539  2.0404
 7438SOL     OW33772   3.655   0.908  10.890  0.0626  0.3098  0.6423
 7438SOL    HW133773   3.733   0.852  10.888  1.3016  2.0792 -0.1679
 7438SOL    HW233774   3.660   0.956  10.973  1.8003 -0.9511  1.2604
 7439SOL     OW33775   4.418   4.025   5.600 -0.0214  0.0529  0.1536
 7439SOL    HW133776   4.361   4.102   5.600  1.2337  0.9751 -0.7850
 7439SOL    HW233777   4.503   4.067   5.591 -0.1525  0.1142 -0.7424
 7440SOL     OW33778   3.802   4.423   4.025 -0.3171  0.1244  0.0796
 7440SOL    HW133779   3.777   4.435   3.934 -0.2764  0.1122  0.0668
 7440SOL    HW233780   3.778   4.505   4.070 -1.9052 -1.4017  2.0060
 7441SOL     OW33781   1.460   3.453   5.087 -0.0589  0.1428  0.2182
 7441SOL    HW133782   1.436   3.487   5.173  1.0913  1.3989  0.0473
 7441SOL    HW233783   1.478   3.532   5.035  2.8520 -2.1115 -2.2153
 7442SOL     OW33784   2.346   2.756   1.753  0.4015  0.2810  0.5689
 7442SOL    HW133785   2.318   2.704   1.829  1.2746  0.0978  0.7651
 7442SOL    HW233786   2.287   2.829   1.769 -1.0395 -0.8349  0.3673
 7443SOL     OW33787   3.611   1.199   5.561 -0.2433  0.1610  0.3056
 7443SOL    HW133788   3.666   1.122   5.574 -0.4684 -0.3620 -1.8977
 7443SOL    HW233789   3.555   1.171   5.489 -0.5406 -0.6021  0.8346
 7444SOL     OW33790   1.003   0.163  13.288  0.3725  0.3327  1.0573
 7444SOL    HW133791   0.944   0.163  13.213  0.9328  0.0344  0.6185
 7444SOL    HW233792   1.075   0.214  13.250  0.6206 -0.2250  0.7924
 7445SOL     OW33793   0.548   0.911  16.257 -0.5042 -0.3351  0.6110
 7445SOL    HW133794   0.566   0.907  16.351  0.4492 -1.5651  0.3862
 7445SOL    HW233795   0.532   1.004  16.242 -0.7916 -0.6801 -1.2918
 7446SOL     OW33796   3.717   1.525   3.708  0.1269  0.4006  0.6101
 7446SOL    HW133797   3.801   1.482   3.692  0.5150  0.5559  2.1847
 7446SOL    HW233798   3.705   1.489   3.796 -0.5911 -2.9051 -0.8448
 7447SOL     OW33799   0.277   4.722   4.350  0.2717 -0.0123 -0.0729
 7447SOL    HW133800   0.302   4.682   4.433 -1.4539 -1.9508 -0.4685
 7447SOL    HW233801   0.211   4.659   4.320 -1.6703  2.1882 -0.4594
 7448SOL     OW33802   3.404   0.632  12.353 -0.4625 -0.4617  0.6036
 7448SOL    HW133803   3.411   0.659  12.445 -2.4350  1.4628  0.1911
 7448SOL    HW233804   3.469   0.562  12.353 -1.4773 -1.3952 -1.8493
 7449SOL     OW33805   4.242   3.741   0.602 -0.1916  0.0247  0.1458
 7449SOL    HW133806   4.188   3.685   0.547  2.0820 -3.1306  1.1347
 7449SOL    HW233807   4.309   3.760   0.536 -1.0039 -0.2994 -0.7536
 7450SOL     OW33808   2.432   4.536   4.178 -0.2972 -0.8544 -0.1305
 7450SOL    HW133809   2.413   4.473   4.247 -1.4312  0.7239  0.9684
 7450SOL    HW233810   2.482   4.603   4.224 -0.4970  0.0921 -1.2839
 7451SOL     OW33811   2.199   4.556   3.271  0.8278 -0.5697  0.1285
 7451SOL    HW133812   2.268   4.534   3.334  2.5761 -2.0782 -2.2975
 7451SOL    HW233813   2.224   4.645   3.249 -0.5745  0.0726  1.1357
 7452SOL     OW33814   3.348   1.049  14.355 -0.1561  0.5916  0.4817
 7452SOL    HW133815   3.393   1.021  14.276  1.0776  2.9983  0.3290
 7452SOL    HW233816   3.276   1.084  14.302  0.9980  0.9203 -0.8452
 7453SOL     OW33817   0.854   1.182  10.672  0.3217  0.0346 -0.4823
 7453SOL    HW133818   0.783   1.169  10.609  0.3693  0.5012 -0.6321
 7453SOL    HW233819   0.853   1.094  10.708  0.4411  1.2705  2.5445
 7454SOL     OW33820   0.443   1.576   5.994 -0.4544 -0.2010 -0.9583
 7454SOL    HW133821   0.428   1.627   6.074 -0.6050 -0.7455 -0.6422
 7454SOL    HW233822   0.536   1.592   5.983 -0.3792  0.4290  0.4908
 7455SOL     OW33823   3.943   1.853   4.812 -0.3332  0.5411 -0.7538
 7455SOL    HW133824   3.865   1.840   4.759  0.1796 -0.2645 -1.3206
 7455SOL    HW233825   3.910   1.896   4.891 -1.8680  0.2203 -1.2323
 7456SOL     OW33826   1.792   1.280   5.068  0.2688  0.1001 -0.4008
 7456SOL    HW133827   1.795   1.376   5.074 -1.1009  0.1175  0.0449
 7456SOL    HW233828   1.697   1.270   5.078  0.8469 -2.8454  2.1780
 7457SOL     OW33829   1.694   0.473   5.445  0.6086 -0.3073  0.3980
 7457SOL    HW133830   1.747   0.479   5.365  0.2027 -1.2448  0.0583
 7457SOL    HW233831   1.748   0.508   5.515  1.9534 -1.1108 -0.2279
 7458SOL     OW33832   3.420   4.103   2.293 -0.0389 -0.3990 -0.4607
 7458SOL    HW133833   3.456   4.023   2.332 -0.9955 -0.9165 -0.6135
 7458SOL    HW233834   3.326   4.085   2.285 -0.1098 -0.5665  0.7544
 7459SOL     OW33835   1.039   3.843   3.113  0.4283  0.0462 -0.5589
 7459SOL    HW133836   1.019   3.781   3.042 -0.3609 -0.4296  0.0799
 7459SOL    HW233837   1.071   3.781   3.179 -0.6905  1.1493  1.0089
 7460SOL     OW33838   1.949   2.671  13.238  0.5632 -0.1197 -0.1587
 7460SOL    HW133839   1.970   2.681  13.145  0.5790  1.8614  0.0718
 7460SOL    HW233840   2.032   2.644  13.278  0.4767 -1.0517 -0.6020
 7461SOL     OW33841   0.333   1.050  17.484 -0.1285  0.3723  0.2251
 7461SOL    HW133842   0.420   1.056  17.445 -0.3875  1.3533 -0.1812
 7461SOL    HW233843   0.287   0.998  17.418 -0.2457 -0.3189  0.8451
 7462SOL     OW33844   4.082   2.084   3.197  0.3288 -0.4643  0.0670
 7462SOL    HW133845   4.116   2.165   3.235  0.1987  0.4052 -1.6945
 7462SOL    HW233846   4.135   2.066   3.119 -2.9374 -0.7871 -2.0777
 7463SOL     OW33847   1.997   1.296  11.743  0.2826 -0.7075  0.0327
 7463SOL    HW133848   2.008   1.210  11.702 -0.8900 -0.3665 -1.0025
 7463SOL    HW233849   2.059   1.290  11.815 -0.5548  2.4632  1.0308
 7464SOL     OW33850   1.837   0.502   0.463 -0.2061  0.0844  0.1278
 7464SOL    HW133851   1.894   0.523   0.389 -1.7703  0.5496 -0.9621
 7464SOL    HW233852   1.766   0.565   0.452 -0.5758 -0.2123  0.8559
 7465SOL     OW33853   3.599   3.405   1.683  0.3974  0.4016 -0.3837
 7465SOL    HW133854   3.539   3.337   1.712  1.1367 -0.3178 -0.5466
 7465SOL    HW233855   3.567   3.479   1.735 -1.0066 -0.0156 -0.6369
 7466SOL     OW33856   3.490   3.835   2.878  0.7885 -0.1750  0.3292
 7466SOL    HW133857   3.542   3.757   2.900  1.9602  0.3718 -0.5401
 7466SOL    HW233858   3.507   3.898   2.947  1.4759 -1.1224  1.0284
 7467SOL     OW33859   3.129   3.713  10.272 -0.3328  0.5102 -0.0770
 7467SOL    HW133860   3.049   3.739  10.318 -0.2417  2.5050 -1.0226
 7467SOL    HW233861   3.189   3.779  10.306  0.8203  0.4698 -2.0340
 7468SOL     OW33862   3.597   2.507   5.412 -0.4443 -0.1262  0.0200
 7468SOL    HW133863   3.614   2.584   5.465 -1.1406  0.6773 -0.9274
 7468SOL    HW233864   3.654   2.507   5.335 -1.4512 -1.1425 -0.7396
 7469SOL     OW33865   1.764   1.425   5.602 -0.2926  0.1532 -0.5363
 7469SOL    HW133866   1.698   1.464   5.544 -0.5895 -2.4879 -1.9660
 7469SOL    HW233867   1.827   1.495   5.587  0.7607 -0.5652  0.6087
 7470SOL     OW33868   1.501   2.737   8.352  0.4648 -0.6325 -0.1861
 7470SOL    HW133869   1.541   2.714   8.268  0.0617  0.3191 -0.6415
 7470SOL    HW233870   1.559   2.812   8.367  0.4403 -1.0272  1.8584
 7471SOL     OW33871   4.149   0.427   6.918  0.1543 -0.7280 -0.0414
 7471SOL    HW133872   4.224   0.401   6.971  1.4294  0.0743 -1.4582
 7471SOL    HW233873   4.142   0.358   6.853 -0.9705 -1.0586  0.4282
 7472SOL     OW33874   1.265   4.541  15.811  0.1101  0.0208 -0.0070
 7472SOL    HW133875   1.318   4.616  15.784 -0.4395  0.8400  1.1871
 7472SOL    HW233876   1.332   4.476  15.831  0.1241 -0.8959 -3.0281
 7473SOL     OW33877   0.455   3.212   6.263  0.4651 -0.0859 -0.0346
 7473SOL    HW133878   0.496   3.126   6.266 -0.1788 -0.3500  1.4238
 7473SOL    HW233879   0.533   3.266   6.254  0.3632  0.0612 -0.0359
 7474SOL     OW33880   0.853   3.130  17.388 -0.1078  0.3340 -0.3762
 7474SOL    HW133881   0.822   3.069  17.321  1.6682 -1.3368  0.3435
 7474SOL    HW233882   0.931   3.158  17.341 -0.5712  1.6414 -0.3866
 7475SOL     OW33883   1.863   4.245   5.448  0.0147  0.1907  0.2992
 7475SOL    HW133884   1.925   4.182   5.412  1.5703  0.4495  2.5100
 7475SOL    HW233885   1.784   4.222   5.399 -0.7229 -1.3045  2.2126
 7476SOL     OW33886   0.327   1.861   1.927 -0.1726  0.0714  0.7221
 7476SOL    HW133887   0.275   1.843   2.006 -1.6733 -0.4078 -0.3773
 7476SOL    HW233888   0.295   1.949   1.909  1.6210  0.6127  0.1939
 7477SOL     OW33889   3.656   4.083   1.167  0.0733  0.0150 -0.2374
 7477SOL    HW133890   3.623   3.993   1.161 -0.9841  0.4261 -0.6393
 7477SOL    HW233891   3.658   4.110   1.075  2.6586 -0.5017 -0.3376
 7478SOL     OW33892   2.549   3.685   4.086 -0.3098  0.8120 -0.7547
 7478SOL    HW133893   2.558   3.698   4.181  0.3150  0.7549 -0.8106
 7478SOL    HW233894   2.474   3.626   4.079 -0.2079  0.8249 -1.8873
 7479SOL     OW33895   3.403   3.616  13.297 -0.1362 -0.1417  0.4030
 7479SOL    HW133896   3.452   3.665  13.231  1.0035 -0.6211  0.8846
 7479SOL    HW233897   3.431   3.528  13.269  0.2411 -0.0410  0.4568
 7480SOL     OW33898   2.771   0.423   2.428 -0.1834 -0.2219  0.7411
 7480SOL    HW133899   2.709   0.353   2.407  0.3280 -0.7963  1.1470
 7480SOL    HW233900   2.745   0.487   2.362  1.0140 -1.0070 -0.5028
 7481SOL     OW33901   0.824   3.353   2.352 -0.1167 -0.2059 -0.1344
 7481SOL    HW133902   0.910   3.391   2.373  0.9337 -1.9754 -1.1610
 7481SOL    HW233903   0.789   3.412   2.286  0.4938  0.1213 -0.1746
 7482SOL     OW33904   2.540   2.330   6.389  0.2590  0.1524 -0.9627
 7482SOL    HW133905   2.488   2.337   6.469  0.8806  1.6940 -0.6892
 7482SOL    HW233906   2.624   2.296   6.421 -0.1500 -0.7746 -0.8909
 7483SOL     OW33907   3.158   1.165  17.095 -0.3614 -0.1691 -0.1046
 7483SOL    HW133908   3.238   1.178  17.146  0.3422 -1.9022 -0.7912
 7483SOL    HW233909   3.185   1.105  17.026 -0.9286  0.1556 -0.6128
 7484SOL     OW33910   1.805   1.160   5.689 -0.4320  0.3098 -0.6473
 7484SOL    HW133911   1.789   1.236   5.633 -2.0863  0.7141  0.3361
 7484SOL    HW233912   1.878   1.186   5.746 -0.6019 -1.3757  0.3438
 7485SOL     OW33913   0.786   2.300  11.899 -1.0363 -0.0795  0.3332
 7485SOL    HW133914   0.772   2.394  11.912 -3.0369 -0.5472  1.4289
 7485SOL    HW233915   0.873   2.278  11.933 -0.0422  0.5494 -1.7590
 7486SOL     OW33916   0.481   1.677   7.340  0.1715 -0.2361 -0.1199
 7486SOL    HW133917   0.467   1.623   7.418 -3.9149  0.0822 -0.5986
 7486SOL    HW233918   0.532   1.616   7.287 -0.2016 -1.8627  1.3622
 7487SOL     OW33919   3.264   3.764   4.620  0.3699  0.2301 -0.4398
 7487SOL    HW133920   3.209   3.703   4.571  1.9934 -0.7209 -1.0688
 7487SOL    HW233921   3.231   3.846   4.582 -1.1054 -0.9742 -1.7670
 7488SOL     OW33922   3.196   0.469  14.463  0.5896 -0.3151 -0.0271
 7488SOL    HW133923   3.127   0.411  14.497  0.3321  0.0895  0.1416
 7488SOL    HW233924   3.206   0.529  14.537 -0.6700 -2.1844  1.6760
 7489SOL     OW33925   4.139   2.360   7.267  0.0767 -0.7606  0.2954
 7489SOL    HW133926   4.194   2.392   7.196 -0.4871  0.3401  0.3457
 7489SOL    HW233927   4.148   2.438   7.323 -3.4726 -0.5693  0.5979
 7490SOL     OW33928   1.445   3.018  15.170  0.4035  0.1338  0.0876
 7490SOL    HW133929   1.478   2.945  15.118  2.3559  1.8211 -1.0642
 7490SOL    HW233930   1.412   3.085  15.110  0.1987 -1.5611 -1.6911
 7491SOL     OW33931   0.252   3.767   8.963 -0.2787  0.1363 -0.2783
 7491SOL    HW133932   0.207   3.729   9.038 -0.2009 -2.2733 -1.4674
 7491SOL    HW233933   0.191   3.745   8.893  1.2557 -3.9696 -0.2772
 7492SOL     OW33934   0.508   3.543  12.907  0.5487 -0.3518  0.4132
 7492SOL    HW133935   0.445   3.615  12.912  0.5663 -0.3301  0.3278
 7492SOL    HW233936   0.583   3.598  12.883  1.0047 -1.4928 -0.7544
 7493SOL     OW33937   0.613   4.081   8.414 -0.4701 -0.1013 -0.1897
 7493SOL    HW133938   0.620   4.081   8.509 -1.5437  0.8064 -0.1150
 7493SOL    HW233939   0.578   3.992   8.406  1.7733 -1.0890  0.8731
 7494SOL     OW33940   4.691   3.616  13.908  0.3059  0.0429 -0.4205
 7494SOL    HW133941   4.664   3.636  13.998 -1.9398 -1.1505 -0.8310
 7494SOL    HW233942   4.709   3.703  13.873  0.1962 -0.4674 -1.7563
 7495SOL     OW33943   1.646   4.540   5.294  0.4311 -0.0002 -0.2007
 7495SOL    HW133944   1.663   4.448   5.315  1.4529  0.6111  1.7241
 7495SOL    HW233945   1.621   4.559   5.385 -0.4797 -1.7140 -0.0920
 7496SOL     OW33946   3.140   2.753  13.261  0.4643  0.6214  0.5677
 7496SOL    HW133947   3.233   2.741  13.246  0.1303  1.3761 -2.1120
 7496SOL    HW233948   3.128   2.712  13.347 -3.3998  1.2226  0.3252
 7497SOL     OW33949   2.511   2.151   3.994  0.2947  0.1489 -0.4389
 7497SOL    HW133950   2.542   2.117   3.911  0.7128 -0.8374  0.1226
 7497SOL    HW233951   2.514   2.072   4.048  0.2805  2.0624  2.3631
 7498SOL     OW33952   4.089   2.645  16.188  0.5292  0.0527  0.5013
 7498SOL    HW133953   4.063   2.722  16.137  0.0319 -0.5866 -0.2027
 7498SOL    HW233954   4.011   2.591  16.195  0.1019  0.4023 -1.4054
 7499SOL     OW33955   1.500   0.762   8.347 -0.4260 -0.4071  0.1025
 7499SOL    HW133956   1.573   0.706   8.373  0.4236  0.4463 -0.4637
 7499SOL    HW233957   1.469   0.783   8.435  0.1844  0.0673  0.1975
 7500SOL     OW33958   4.701   1.699  13.123  0.1736  0.3211  0.2770
 7500SOL    HW133959   0.019   1.649  13.052 -0.5743 -0.8419  0.6762
 7500SOL    HW233960   0.041   1.769  13.140  1.1402 -0.7570  1.1418
 7501SOL     OW33961   2.654   4.576   4.426  0.0246 -0.2058  0.3348
 7501SOL    HW133962   2.626   4.643   4.488  0.1654 -0.7163  0.9434
 7501SOL    HW233963   2.619   4.497   4.466  0.4195 -1.0491 -0.9515
 7502SOL     OW33964   1.386   1.165   6.939  0.0099  0.2524  0.1396
 7502SOL    HW133965   1.320   1.097   6.922  0.4654 -0.9826  3.3724
 7502SOL    HW233966   1.439   1.165   6.859 -1.0291 -0.8717 -0.5523
 7503SOL     OW33967   2.838   2.267  15.659  0.1689 -0.5358 -0.5291
 7503SOL    HW133968   2.827   2.212  15.736 -0.8725  0.1223 -0.2089
 7503SOL    HW233969   2.781   2.228  15.593  1.3824 -0.7132 -1.4922
 7504SOL     OW33970   2.553   4.316  16.032  0.2486 -0.3473 -0.2667
 7504SOL    HW133971   2.473   4.273  16.004 -0.0161 -0.1589  0.1984
 7504SOL    HW233972   2.503   4.375  16.088 -0.6271 -0.5179 -0.8823
 7505SOL     OW33973   1.958   1.249   9.340 -0.2173 -0.1785  0.1409
 7505SOL    HW133974   1.871   1.215   9.316  0.0058 -0.4377 -0.3073
 7505SOL    HW233975   2.007   1.214   9.266 -0.2762  2.4623 -1.1192
 7506SOL     OW33976   2.093   4.184   9.311  0.0824  0.8346  0.1091
 7506SOL    HW133977   2.136   4.253   9.260  0.6341 -1.7156 -2.8809
 7506SOL    HW233978   2.070   4.226   9.394 -1.1880  1.8190 -0.7533
 7507SOL     OW33979   0.157   2.779   9.323  0.0729  0.0734  0.4658
 7507SOL    HW133980   0.183   2.774   9.231  2.4016 -0.1285  1.1470
 7507SOL    HW233981   0.062   2.764   9.316  0.1660  0.4076 -1.6073
 7508SOL     OW33982   4.154   0.747   5.699 -0.0521 -0.0620  0.0074
 7508SOL    HW133983   4.201   0.737   5.616 -0.0806 -1.5033  0.1613
 7508SOL    HW233984   4.115   0.659   5.707  0.5741 -0.3561 -0.1466
 7509SOL     OW33985   3.145   1.046  14.155 -0.1020 -0.4047  0.5592
 7509SOL    HW133986   3.153   1.139  14.133 -1.2622 -0.2551  0.7580
 7509SOL    HW233987   3.225   1.011  14.116 -0.5534 -0.5046 -0.2750
 7510SOL     OW33988   0.461   2.171   7.023 -0.3488  0.5133  0.1262
 7510SOL    HW133989   0.479   2.100   7.085 -0.6012  0.5368  0.2240
 7510SOL    HW233990   0.383   2.138   6.979 -1.1459  0.1692  1.8341
 7511SOL     OW33991   1.029   3.088   7.115 -0.2446 -0.0323  0.3658
 7511SOL    HW133992   1.085   3.016   7.087  0.5526  0.5194  0.5559
 7511SOL    HW233993   1.063   3.164   7.067 -0.5534 -0.8431 -1.1226
 7512SOL     OW33994   3.508   0.838  12.676  0.1830 -0.0310 -0.0546
 7512SOL    HW133995   3.587   0.888  12.657 -0.1644  0.7619  0.6453
 7512SOL    HW233996   3.435   0.894  12.651  1.1894  0.2789 -2.2978
 7513SOL     OW33997   1.894   0.893  10.486 -0.5280 -0.3491  0.6486
 7513SOL    HW133998   1.899   0.972  10.433  1.0306 -0.4294  0.6673
 7513SOL    HW233999   1.826   0.908  10.552 -0.5554 -2.6669  1.1566
 7514SOL     OW34000   4.569   1.776  15.769 -0.1534 -0.0899 -0.2477
 7514SOL    HW134001   4.621   1.698  15.748 -0.8449 -0.2596 -1.3445
 7514SOL    HW234002   4.486   1.729  15.781 -0.6160  0.7135 -0.3003
 7515SOL     OW34003   2.000   2.506  10.400 -0.1806 -0.1463  0.2474
 7515SOL    HW134004   1.997   2.587  10.350 -4.4361 -0.1964  0.3907
 7515SOL    HW234005   2.062   2.517  10.472  1.7556  2.1637 -1.8299
 7516SOL     OW34006   2.800   0.307   6.945 -0.0970  0.3201 -0.1902
 7516SOL    HW134007   2.862   0.238   6.920 -0.8247 -0.3634 -0.1160
 7516SOL    HW234008   2.819   0.325   7.037 -2.2273  0.1960  0.2736
 7517SOL     OW34009   3.928   4.253   5.305  0.4648 -0.0279 -0.3509
 7517SOL    HW134010   3.903   4.164   5.281 -1.5950  0.1072  1.2975
 7517SOL    HW234011   3.953   4.290   5.220 -1.3437 -1.1474 -1.3709
 7518SOL     OW34012   0.287   3.541   1.443  0.1135 -0.4713  0.0222
 7518SOL    HW134013   0.347   3.475   1.476 -0.5445 -2.4990 -2.8823
 7518SOL    HW234014   0.337   3.621   1.427 -0.2212 -0.1071  0.7533
 7519SOL     OW34015   3.485   0.253  10.652  0.3329 -0.4098  0.4301
 7519SOL    HW134016   3.491   0.240  10.558 -0.6982  1.8389  0.0603
 7519SOL    HW234017   3.391   0.270  10.657  0.1021 -1.1342 -1.3719
 7520SOL     OW34018   4.096   4.565   9.024 -0.5377  0.4690  0.1796
 7520SOL    HW134019   4.182   4.599   9.002 -1.2587  0.8857 -1.9515
 7520SOL    HW234020   4.131   4.476   9.029  1.1501  1.1394  0.1733
 7521SOL     OW34021   4.012   3.504   0.069 -0.1424 -0.1714 -0.1105
 7521SOL    HW134022   4.097   3.502   0.026 -0.7997  0.5511 -1.4354
 7521SOL    HW234023   4.021   3.448   0.146 -2.5982 -0.0878  0.2431
 7522SOL     OW34024   2.839   1.000  10.603 -0.1066 -0.1197  0.0998
 7522SOL    HW134025   2.857   1.040  10.518 -1.0582 -2.2657 -1.0733
 7522SOL    HW234026   2.923   0.957  10.622 -0.6983 -0.9057  0.9432
 7523SOL     OW34027   0.541   4.194   2.412  1.1370 -0.6469 -0.2717
 7523SOL    HW134028   0.490   4.275   2.409  0.0557 -1.3907 -2.1117
 7523SOL    HW234029   0.473   4.127   2.421  0.3649  0.0503 -0.8738
 7524SOL     OW34030   0.126   2.807   7.014  0.0112 -0.4270  0.1620
 7524SOL    HW134031   0.051   2.851   6.974  1.1630  2.1850  0.8752
 7524SOL    HW234032   0.193   2.829   6.949  0.2552 -0.0100  0.5546
 7525SOL     OW34033   0.446   3.562  14.476 -0.3995  0.2230  0.0070
 7525SOL    HW134034   0.407   3.496  14.419  0.9102 -1.5663  1.1767
 7525SOL    HW234035   0.457   3.641  14.424 -1.1289 -0.2119 -0.8055
 7526SOL     OW34036   3.432   4.436   7.431 -0.7486 -0.1644  0.0280
 7526SOL    HW134037   3.382   4.478   7.361 -2.4473  0.2493  1.4819
 7526SOL    HW234038   3.365   4.395   7.486 -0.2345 -2.5892 -1.1585
 7527SOL     OW34039   0.731   2.591   8.886  0.0802 -0.3268 -0.0824
 7527SOL    HW134040   0.645   2.554   8.903 -0.0914  0.5118  0.8859
 7527SOL    HW234041   0.788   2.524   8.925 -0.5861 -1.6356 -1.3115
 7528SOL     OW34042   2.225   1.002   4.838 -0.4750  0.0723 -0.5753
 7528SOL    HW134043   2.297   1.006   4.774 -0.1374  0.4519 -0.1702
 7528SOL    HW234044   2.203   1.093   4.856 -1.0837  0.3735 -2.8701
 7529SOL     OW34045   3.495   0.967   8.362  0.0860  0.3794 -0.1115
 7529SOL    HW134046   3.426   0.935   8.304 -1.7197 -1.0830  2.8604
 7529SOL    HW234047   3.464   0.945   8.449  1.3313 -0.9798 -0.0095
 7530SOL     OW34048   3.025   1.219   7.602 -0.1443  0.1008 -0.1582
 7530SOL    HW134049   3.031   1.303   7.648 -3.0996 -1.4571  3.0301
 7530SOL    HW234050   2.933   1.205   7.582 -0.3549 -1.0257  1.5964
 7531SOL     OW34051   0.021   0.230   3.911 -0.5037  0.3694 -0.1914
 7531SOL    HW134052   0.027   0.319   3.945  2.2838 -0.1466  0.7327
 7531SOL    HW234053   4.665   0.235   3.858 -0.3118  0.5853 -0.4593
 7532SOL     OW34054   4.658   1.392   9.627  0.0370 -0.6273  0.4699
 7532SOL    HW134055   0.011   1.377   9.570 -0.2219  0.9967 -0.2922
 7532SOL    HW234056   4.592   1.340   9.582  0.6261 -2.5121  1.7635
 7533SOL     OW34057   1.355   1.366   8.380  0.0093 -0.3605  0.3329
 7533SOL    HW134058   1.400   1.281   8.378 -0.4350 -0.5885  0.2150
 7533SOL    HW234059   1.277   1.357   8.326 -0.7127  0.9683  1.1869
 7534SOL     OW34060   0.148   4.693   8.801 -0.2914 -0.0693 -0.3394
 7534SOL    HW134061   0.232   4.719   8.838 -0.5457  0.1063  0.1088
 7534SOL    HW234062   0.115   0.059   8.784 -0.1374 -0.4175 -2.5232
 7535SOL     OW34063   2.892   2.501  15.511  0.1383 -0.0429  0.1786
 7535SOL    HW134064   2.961   2.472  15.451 -1.8374  0.3514 -2.3200
 7535SOL    HW234065   2.850   2.418  15.534 -2.2282  1.2774  0.6646
 7536SOL     OW34066   3.648   2.704   8.914 -0.1289  0.0823 -0.1970
 7536SOL    HW134067   3.720   2.709   8.976  0.2058  0.4464 -0.6200
 7536SOL    HW234068   3.617   2.615   8.934  0.4331  0.2000  1.1998
 7537SOL     OW34069   3.949   0.952   0.663  0.2586  0.0225 -0.2229
 7537SOL    HW134070   3.993   0.943   0.748  2.1084 -0.3567 -1.2306
 7537SOL    HW234071   4.008   0.895   0.614  2.7840  1.1619  1.4897
 7538SOL     OW34072   1.577   0.271   6.284  0.0454  0.6108 -1.2360
 7538SOL    HW134073   1.651   0.224   6.247  0.8628  0.4157  0.6547
 7538SOL    HW234074   1.526   0.201   6.326 -0.0751  0.2202 -2.0327
 7539SOL     OW34075   1.056   1.663   5.310  0.2534 -0.2313 -0.3612
 7539SOL    HW134076   1.094   1.584   5.347  1.4859  0.5964  0.1567
 7539SOL    HW234077   1.107   1.735   5.347 -0.2912 -0.2455  0.4218
 7540SOL     OW34078   2.466   0.519  11.958 -0.5862  0.6746 -0.1868
 7540SOL    HW134079   2.442   0.601  11.999  1.5186  1.7962 -1.2082
 7540SOL    HW234080   2.506   0.474  12.033 -1.9723 -1.3985 -0.6780
 7541SOL     OW34081   0.277   0.790  10.815  0.3083 -0.7873 -0.3376
 7541SOL    HW134082   0.292   0.764  10.906 -0.4357 -2.1336 -0.6032
 7541SOL    HW234083   0.212   0.726  10.786  0.8514 -1.6317  0.3167
 7542SOL     OW34084   1.362   2.808  13.727  0.7335 -0.0368 -0.1840
 7542SOL    HW134085   1.273   2.807  13.693  0.7470 -0.7976 -0.1918
 7542SOL    HW234086   1.401   2.777  13.645 -3.9522 -0.5813 -2.1785
 7543SOL     OW34087   2.179   2.780  15.303 -0.9993 -0.3252 -0.4444
 7543SOL    HW134088   2.245   2.721  15.339  0.6167  1.0879 -1.1014
 7543SOL    HW234089   2.144   2.736  15.226  1.5045 -0.7587 -1.3363
 7544SOL     OW34090   0.608   0.219   4.553  0.3358  0.0725 -0.1320
 7544SOL    HW134091   0.702   0.235   4.543  0.3311  0.9704  1.2620
 7544SOL    HW234092   0.595   0.151   4.486 -0.7118  0.2239 -0.0741
 7545SOL     OW34093   4.248   0.233   9.058 -0.6201  0.6551  0.0942
 7545SOL    HW134094   4.252   0.224   9.153  0.5265  0.0325 -0.0134
 7545SOL    HW234095   4.338   0.228   9.025 -0.8810 -0.3787 -0.4687
 7546SOL     OW34096   2.640   4.631   0.263 -0.5070  0.0964  0.0061
 7546SOL    HW134097   2.569   4.669   0.213  0.6927  1.5103 -0.6121
 7546SOL    HW234098   2.620   4.541   0.238 -0.0736  0.0022 -0.0001
 7547SOL     OW34099   0.170   0.160   7.574  0.5306 -0.4398  0.3874
 7547SOL    HW134100   0.183   0.069   7.603  0.0978 -1.0353 -1.2576
 7547SOL    HW234101   0.242   0.204   7.618  1.8368 -1.1584 -1.0329
 7548SOL     OW34102   2.024   0.345   8.830  0.2037  0.1947 -0.0968
 7548SOL    HW134103   2.055   0.434   8.846  0.6195  0.1670 -0.7486
 7548SOL    HW234104   2.083   0.318   8.759  0.3886  0.2808  0.0262
 7549SOL     OW34105   2.457   0.427   8.639 -0.2273  0.1998  0.0451
 7549SOL    HW134106   2.532   0.486   8.642 -1.1826  1.4540 -1.0067
 7549SOL    HW234107   2.487   0.361   8.702  0.0385  0.5509  0.2846
 7550SOL     OW34108   3.895   3.851   4.308  0.1447 -0.1062  0.0005
 7550SOL    HW134109   3.846   3.771   4.291 -0.6427  0.5154 -0.6430
 7550SOL    HW234110   3.862   3.873   4.395  0.8127  2.6998 -0.4504
 7551SOL     OW34111   4.509   2.151   5.566 -0.0348  0.5734 -0.1751
 7551SOL    HW134112   4.472   2.234   5.537 -5.6236 -1.7571  0.2393
 7551SOL    HW234113   4.551   2.121   5.485 -0.3462 -4.0790  1.3655
 7552SOL     OW34114   2.273   2.389   1.664 -0.4927 -0.1594 -0.6612
 7552SOL    HW134115   2.190   2.342   1.662 -1.4593  1.5429  0.6169
 7552SOL    HW234116   2.335   2.319   1.641  0.7545  1.8321 -3.3520
 7553SOL     OW34117   1.691   1.221   8.307 -0.5858  0.6442  0.3457
 7553SOL    HW134118   1.715   1.263   8.389  1.0165  1.3935 -0.5141
 7553SOL    HW234119   1.681   1.301   8.256  0.9087  0.0019 -0.9679
 7554SOL     OW34120   1.086   3.460   4.629  0.4003 -0.0996 -0.5677
 7554SOL    HW134121   1.131   3.545   4.640  0.4166 -0.4583  2.1036
 7554SOL    HW234122   1.160   3.409   4.597  0.7181 -0.2265  0.3479
 7555SOL     OW34123   0.613   3.622   8.301 -0.0670 -0.0984 -0.3163
 7555SOL    HW134124   0.660   3.542   8.281 -0.4913 -0.7548  1.2505
 7555SOL    HW234125   0.681   3.666   8.352 -0.0336  1.8493 -2.0493
 7556SOL     OW34126   4.321   4.421  16.490  0.5136 -0.3915  0.2171
 7556SOL    HW134127   4.266   4.386  16.420 -0.1812  2.3208 -0.5872
 7556SOL    HW234128   4.309   4.346  16.548 -0.5866 -0.3828  0.0109
 7557SOL     OW34129   1.539   1.262   6.293  0.3932 -0.3208 -0.0442
 7557SOL    HW134130   1.540   1.172   6.262 -0.7539 -0.7787  1.2756
 7557SOL    HW234131   1.496   1.308   6.221  0.7798 -0.7585 -0.5527
 7558SOL     OW34132   3.027   3.032   4.800  0.1224 -0.3944 -1.0530
 7558SOL    HW134133   3.113   3.012   4.765  0.8255  1.4087 -0.3691
 7558SOL    HW234134   3.037   3.128   4.805  0.5068 -0.4221 -1.3124
 7559SOL     OW34135   2.752   1.661   5.171 -0.4603  0.3085  0.4649
 7559SOL    HW134136   2.814   1.630   5.235  1.5404 -0.5095 -1.8742
 7559SOL    HW234137   2.789   1.745   5.143 -0.1754  0.0761  0.1423
 7560SOL     OW34138   2.962   3.112   6.853  0.7729 -0.1503  0.1152
 7560SOL    HW134139   3.000   3.150   6.931  2.0609 -0.9935 -0.0943
 7560SOL    HW234140   2.989   3.173   6.784  0.9912 -2.4159 -1.8075
 7561SOL     OW34141   3.434   0.190   1.903  0.8205  0.7594  0.0553
 7561SOL    HW134142   3.485   0.147   1.835  0.4441  0.9077 -0.3293
 7561SOL    HW234143   3.465   0.142   1.979 -0.2489 -0.9195 -0.5690
 7562SOL     OW34144   2.883   4.428  12.340  0.4622 -0.0063  0.8156
 7562SOL    HW134145   2.823   4.470  12.278  2.0044 -0.4198 -0.9393
 7562SOL    HW234146   2.937   4.503  12.364 -1.6855  1.8509 -0.1628
 7563SOL     OW34147   3.040   0.109   1.011  0.8924 -0.4162  0.3461
 7563SOL    HW134148   2.997   0.041   1.063 -1.0722  0.9617  0.5203
 7563SOL    HW234149   2.974   0.178   1.012  1.4984  0.1672  0.1140
 7564SOL     OW34150   3.375   4.259  17.054 -0.0387  0.5761 -0.0946
 7564SOL    HW134151   3.385   4.323  17.124 -1.1001 -0.2753  0.8515
 7564SOL    HW234152   3.306   4.309  17.010  0.6020  0.2534 -1.4621
 7565SOL     OW34153   1.958   3.981   8.816 -0.1112 -0.7743  0.5350
 7565SOL    HW134154   1.922   3.926   8.885 -2.1976  0.4539  0.4214
 7565SOL    HW234155   1.955   3.914   8.748  0.3791 -0.5281  0.2673
 7566SOL     OW34156   2.912   3.909  14.359  0.1584  0.0275  0.1635
 7566SOL    HW134157   2.903   3.966  14.282  2.2112  0.3239  0.1586
 7566SOL    HW234158   2.821   3.886  14.380 -0.4061 -1.4608 -3.8916
 7567SOL     OW34159   0.618   1.888  11.978  0.1381 -0.5032  0.0876
 7567SOL    HW134160   0.640   1.951  11.909 -0.7354  1.4440  1.6102
 7567SOL    HW234161   0.704   1.846  11.979 -0.5275 -1.8193  3.4562
 7568SOL     OW34162   1.537   4.452  12.618 -0.5018 -0.3502 -0.0450
 7568SOL    HW134163   1.569   4.380  12.673 -1.1266  0.1027  0.9051
 7568SOL    HW234164   1.556   4.420  12.530 -1.8807 -1.2201 -0.0139
 7569SOL     OW34165   1.837   0.490   2.379 -0.3772 -0.0194  0.2329
 7569SOL    HW134166   1.749   0.528   2.382  0.2283  1.4390 -0.1201
 7569SOL    HW234167   1.885   0.572   2.392 -1.4492  0.6453 -0.0599
 7570SOL     OW34168   4.390   3.803  14.008  0.1892  0.3620  0.4523
 7570SOL    HW134169   4.328   3.767  13.945  0.7147  0.3345 -0.0474
 7570SOL    HW234170   4.330   3.831  14.077 -0.4291 -0.1146  0.1005
 7571SOL     OW34171   1.548   1.376   4.347 -1.3823  0.3059 -0.3512
 7571SOL    HW134172   1.499   1.410   4.272 -2.3312 -0.9619 -0.2833
 7571SOL    HW234173   1.624   1.435   4.349 -0.9859 -0.1715 -1.6665
 7572SOL     OW34174   1.886   0.993   3.645  0.6506  0.0528 -0.1145
 7572SOL    HW134175   1.902   1.057   3.714  0.5343 -1.2506  1.1218
 7572SOL    HW234176   1.975   0.983   3.611 -0.3880 -1.1980 -2.4984
 7573SOL     OW34177   1.821   1.425   6.593 -0.3423  0.3638  0.3720
 7573SOL    HW134178   1.894   1.439   6.532 -1.6391  4.6585 -0.2480
 7573SOL    HW234179   1.866   1.428   6.678  1.5870 -1.1306 -0.5917
 7574SOL     OW34180   0.092   2.897   8.978 -0.6607  0.4892  0.4656
 7574SOL    HW134181   0.146   2.824   9.008  1.0321  1.4739 -0.2023
 7574SOL    HW234182   0.115   2.965   9.041  1.1127  0.6256 -0.3362
 7575SOL     OW34183   1.229   4.175  12.039 -0.6260  0.4371 -0.3017
 7575SOL    HW134184   1.276   4.091  12.041  0.6975  1.2063  1.4163
 7575SOL    HW234185   1.261   4.222  12.117  1.6128 -3.7410  1.3370
 7576SOL     OW34186   2.688   2.952   8.592  0.0409 -0.2593  0.1863
 7576SOL    HW134187   2.717   3.043   8.583 -1.1769  0.2531  1.3953
 7576SOL    HW234188   2.744   2.914   8.660 -0.7744 -2.4078 -0.3529
 7577SOL     OW34189   4.079   0.822  11.503 -0.2142  0.0621 -0.1342
 7577SOL    HW134190   4.170   0.796  11.518 -0.0280  1.2789  0.8617
 7577SOL    HW234191   4.069   0.857  11.591 -0.9105 -1.2456  0.2928
 7578SOL     OW34192   4.437   2.357   5.964  0.2296  0.2519  0.1787
 7578SOL    HW134193   4.469   2.421   6.027  2.1098 -0.8185  0.2922
 7578SOL    HW234194   4.496   2.282   5.958 -0.3967 -0.2149 -0.1876
 7579SOL     OW34195   2.824   3.866   4.066 -0.8539 -0.2576 -0.2563
 7579SOL    HW134196   2.813   3.956   4.037 -0.5351 -0.9870 -2.5938
 7579SOL    HW234197   2.796   3.817   3.989 -0.4133 -0.5105 -0.2520
 7580SOL     OW34198   3.995   0.640  16.561 -0.0541 -0.4737 -0.1968
 7580SOL    HW134199   4.044   0.580  16.504  1.9150 -0.5739  1.6268
 7580SOL    HW234200   3.966   0.717  16.513  1.2013  0.1257  0.0333
 7581SOL     OW34201   1.486   2.451   7.254 -0.4280  0.4769 -0.0806
 7581SOL    HW134202   1.412   2.390   7.246 -0.2220  0.4266 -1.7058
 7581SOL    HW234203   1.481   2.506   7.176 -1.3412  1.5427  0.7391
 7582SOL     OW34204   0.388   2.411   3.249 -0.0743  0.5322  0.3072
 7582SOL    HW134205   0.459   2.373   3.302  1.2437  1.1562 -1.0150
 7582SOL    HW234206   0.412   2.386   3.160  1.0482  1.7639  0.2678
 7583SOL     OW34207   1.835   3.379   4.334  0.1162 -0.0397  0.3402
 7583SOL    HW134208   1.834   3.289   4.302 -0.1818  0.4072 -0.9147
 7583SOL    HW234209   1.861   3.423   4.253  0.3680 -2.2965 -0.8076
 7584SOL     OW34210   2.277   0.558   9.131 -0.4275  0.2797 -0.4489
 7584SOL    HW134211   2.252   0.545   9.040  0.7944 -2.9778 -0.3313
 7584SOL    HW234212   2.195   0.542   9.178  0.0100 -3.6151 -1.0339
 7585SOL     OW34213   2.602   2.653   6.521  0.1371 -0.8968 -0.4020
 7585SOL    HW134214   2.552   2.636   6.601  0.6752 -2.0912 -0.3105
 7585SOL    HW234215   2.544   2.684   6.452  0.6252  0.5627 -0.1477
 7586SOL     OW34216   3.285   0.025   2.314 -0.8457  0.2421 -0.0405
 7586SOL    HW134217   3.323   0.108   2.286  1.3016 -0.1463  1.6733
 7586SOL    HW234218   3.193   0.042   2.335 -0.7576  0.0992  0.4669
 7587SOL     OW34219   2.294   0.548   3.189 -0.1437 -0.2384 -0.2788
 7587SOL    HW134220   2.223   0.604   3.220 -3.3577 -3.8201 -1.1923
 7587SOL    HW234221   2.257   0.504   3.113  0.9517  0.0231 -0.9654
 7588SOL     OW34222   1.266   3.697  10.095  0.0050 -0.2041 -0.1907
 7588SOL    HW134223   1.337   3.659  10.147 -0.4298  0.3181  0.8097
 7588SOL    HW234224   1.235   3.775  10.142 -1.5813 -0.9117 -0.0689
 7589SOL     OW34225   2.464   3.087   2.713  0.0976  0.0291 -0.0372
 7589SOL    HW134226   2.528   3.072   2.644  0.4728  2.6364 -0.2465
 7589SOL    HW234227   2.424   3.001   2.728  0.6202 -0.6956 -2.7718
 7590SOL     OW34228   0.459   0.264   3.462  0.3988 -0.1791  0.1446
 7590SOL    HW134229   0.487   0.332   3.400 -2.5070 -0.4935 -1.5100
 7590SOL    HW234230   0.522   0.283   3.532  1.6819  2.5106 -1.7399
 7591SOL     OW34231   3.394   1.907   8.407  0.3140 -0.2262  0.5196
 7591SOL    HW134232   3.422   1.834   8.462 -2.2974 -0.3062  1.7366
 7591SOL    HW234233   3.452   1.895   8.331 -1.8229 -2.9216 -0.6710
 7592SOL     OW34234   0.896   3.409   2.715  0.0919  0.1965 -0.1619
 7592SOL    HW134235   0.814   3.415   2.665 -0.1128  2.1752  0.3846
 7592SOL    HW234236   0.935   3.331   2.677  1.1236  0.5451  0.1868
 7593SOL     OW34237   2.700   2.315  12.313 -0.8246  0.2819 -0.0517
 7593SOL    HW134238   2.793   2.308  12.334 -0.9464 -2.7556 -0.5361
 7593SOL    HW234239   2.685   2.222  12.297  1.8066 -0.1046 -0.3213
 7594SOL     OW34240   2.357   1.919  10.533 -0.2448 -0.0543 -0.6051
 7594SOL    HW134241   2.418   1.901  10.461  1.6221  3.0857  0.2035
 7594SOL    HW234242   2.311   1.835  10.542  2.0469 -1.5360 -2.5738
 7595SOL     OW34243   3.401   0.113   4.441  0.2356 -0.0562 -0.4013
 7595SOL    HW134244   3.321   0.166   4.438  1.8001  2.3147  0.3390
 7595SOL    HW234245   3.467   0.180   4.429  0.8921 -0.3650  1.4639
 7596SOL     OW34246   1.346   0.830   6.655  0.3029 -0.8163  0.5861
 7596SOL    HW134247   1.344   0.923   6.677  0.8245 -0.2112 -1.8780
 7596SOL    HW234248   1.276   0.843   6.591 -0.9553 -3.1191  1.4897
 7597SOL     OW34249   2.710   2.180   6.112 -0.0144 -0.3072  0.3140
 7597SOL    HW134250   2.776   2.229   6.161 -0.1244  0.9843 -0.8266
 7597SOL    HW234251   2.670   2.243   6.052  1.6355 -1.1594 -1.6955
 7598SOL     OW34252   2.686   1.570  13.817 -0.3909 -0.2448 -0.4977
 7598SOL    HW134253   2.681   1.498  13.754  2.8654 -0.1727 -0.8107
 7598SOL    HW234254   2.732   1.524  13.888 -1.4141  1.9411  1.5965
 7599SOL     OW34255   4.392   0.050   7.541 -0.2438 -0.6261 -0.6839
 7599SOL    HW134256   4.373   4.690   7.586  2.8845 -0.9271  0.0541
 7599SOL    HW234257   4.359   0.108   7.609  0.2281 -1.5392  0.3400
 7600SOL     OW34258   2.680   4.561  17.635 -0.4335 -0.3026 -0.7248
 7600SOL    HW134259   2.609   4.620  17.608  0.5832  1.2315 -0.0604
 7600SOL    HW234260   2.622   4.486  17.620  1.3924 -1.1673 -3.4169
 7601SOL     OW34261   1.680   2.548   3.994  0.0940 -0.2880 -0.0667
 7601SOL    HW134262   1.663   2.642   3.992  0.3601 -0.2356  0.1809
 7601SOL    HW234263   1.767   2.548   3.953  0.5232 -0.3841  0.8501
 7602SOL     OW34264   3.717   3.179   8.560  0.5517  0.0409  0.5634
 7602SOL    HW134265   3.657   3.156   8.631  1.6726 -1.9276  0.8547
 7602SOL    HW234266   3.762   3.100   8.529 -0.0151  0.1114 -0.4117
 7603SOL     OW34267   2.763   1.432   8.473 -0.2409  0.2190  0.2437
 7603SOL    HW134268   2.785   1.506   8.529  0.6010  0.8122 -0.8821
 7603SOL    HW234269   2.803   1.367   8.531 -0.0380  1.1726  1.1744
 7604SOL     OW34270   3.239   0.374   2.024 -0.0373 -0.0744 -0.2427
 7604SOL    HW134271   3.212   0.298   2.076  3.0375 -0.8809  0.2112
 7604SOL    HW234272   3.234   0.347   1.932  0.1608 -0.9932  0.0141
 7605SOL     OW34273   0.706   1.035   0.714 -0.1299  0.6556  0.4679
 7605SOL    HW134274   0.801   1.047   0.712  0.2136 -2.1971 -0.1812
 7605SOL    HW234275   0.702   0.944   0.743 -2.5951  0.7218  0.3629
 7606SOL     OW34276   1.984   0.691   9.389 -0.0158  0.2824 -0.1686
 7606SOL    HW134277   1.888   0.692   9.390  0.0241  1.6564  3.5373
 7606SOL    HW234278   2.007   0.605   9.356  1.6561  0.5996  0.1751
 7607SOL     OW34279   3.026   4.202   6.189  1.1805  0.1383 -0.3793
 7607SOL    HW134280   3.074   4.241   6.116  1.7610 -0.7662 -0.4882
 7607SOL    HW234281   3.051   4.110   6.190  1.2079  0.1644  1.8937
 7608SOL     OW34282   4.099   0.243   3.833  0.1813 -0.4458  0.7052
 7608SOL    HW134283   4.118   0.328   3.795 -0.6933 -0.6328 -0.1535
 7608SOL    HW234284   4.129   0.246   3.924  1.0557 -0.3784  0.4077
 7609SOL     OW34285   3.777   2.134   1.884  0.2653  0.2318 -0.0976
 7609SOL    HW134286   3.814   2.128   1.796  0.2532 -1.2764  0.0090
 7609SOL    HW234287   3.706   2.070   1.887  0.8020 -0.3567 -0.1039
 7610SOL     OW34288   0.734   3.919  10.518  0.2472  0.0717  0.3162
 7610SOL    HW134289   0.825   3.939  10.494 -0.4359  1.1584 -1.3540
 7610SOL    HW234290   0.737   3.830  10.554  0.5032 -0.3303 -0.6817
 7611SOL     OW34291   1.999   0.106  11.485  0.0298 -0.2392 -0.3829
 7611SOL    HW134292   1.948   0.168  11.434  1.0446  2.7104  2.1791
 7611SOL    HW234293   2.036   0.160  11.554 -0.0723  0.8558 -1.2021
 7612SOL     OW34294   2.540   2.185   2.617 -0.1196  0.0912 -0.1705
 7612SOL    HW134295   2.499   2.271   2.612 -0.3546  0.1120  1.9295
 7612SOL    HW234296   2.503   2.144   2.539 -2.5396  0.2259  0.9006
 7613SOL     OW34297   2.065   1.153   9.109  0.1499 -0.4733  0.4719
 7613SOL    HW134298   2.036   1.076   9.158 -2.2094 -1.9626 -3.2728
 7613SOL    HW234299   2.143   1.112   9.070 -0.5275 -0.1549 -1.1966
 7614SOL     OW34300   4.429   1.716   6.735  0.1834  0.2136  0.1658
 7614SOL    HW134301   4.388   1.772   6.800 -2.2353 -1.2383 -0.0887
 7614SOL    HW234302   4.372   1.639   6.743 -0.0911  0.5540  1.4632
 7615SOL     OW34303   4.187   2.342  12.704  0.3482  0.6452 -0.3578
 7615SOL    HW134304   4.095   2.367  12.707  0.2865  0.3233  0.6969
 7615SOL    HW234305   4.219   2.341  12.794  0.8119  0.0424 -0.5282
 7616SOL     OW34306   2.328   0.440   5.555 -0.4714 -0.5779 -0.2225
 7616SOL    HW134307   2.345   0.401   5.641  0.7152  2.1530  0.7796
 7616SOL    HW234308   2.252   0.495   5.571  0.7562  1.6466 -2.0444
 7617SOL     OW34309   2.916   0.292   8.821 -0.1162  0.3273  0.1291
 7617SOL    HW134310   2.909   0.209   8.773  0.9582 -0.0211  0.5816
 7617SOL    HW234311   2.956   0.272   8.906  2.2362  4.3076 -0.0731
 7618SOL     OW34312   0.121   1.961   3.918 -0.0621  0.1087  0.7821
 7618SOL    HW134313   0.199   2.013   3.939  0.7821 -0.2453 -1.4446
 7618SOL    HW234314   0.152   1.871   3.931  2.6349  0.8990 -0.1632
 7619SOL     OW34315   4.213   2.682  15.282  0.3603 -0.2007 -0.2963
 7619SOL    HW134316   4.122   2.659  15.298 -0.5784  1.9196 -2.6233
 7619SOL    HW234317   4.210   2.679  15.187 -0.0860  0.7278 -0.3161
 7620SOL     OW34318   3.268   1.738  10.589  0.0048  0.6786  0.4850
 7620SOL    HW134319   3.206   1.809  10.603 -2.5106 -1.5883  0.7513
 7620SOL    HW234320   3.235   1.701  10.507  3.1243 -3.8091  1.2893
 7621SOL     OW34321   0.692   3.308  15.105 -0.0893 -0.4071  0.1037
 7621SOL    HW134322   0.602   3.278  15.091 -0.3020 -1.0542  2.8463
 7621SOL    HW234323   0.674   3.397  15.133  0.1914  0.0718 -1.2757
 7622SOL     OW34324   4.405   4.525   7.394  0.0923  0.2548 -0.7008
 7622SOL    HW134325   4.379   4.503   7.484  1.3556  0.3462 -0.3204
 7622SOL    HW234326   4.385   4.618   7.407 -0.7960 -0.1292  0.7080
 7623SOL     OW34327   4.551   0.617   0.087  0.6685  0.3737  0.2407
 7623SOL    HW134328   4.571   0.664   0.006  0.5232 -0.7696 -0.4549
 7623SOL    HW234329   4.558   0.524   0.066  0.7704  0.4106  0.1164
 7624SOL     OW34330   4.009   1.648   5.481  0.0501  0.3175 -0.2999
 7624SOL    HW134331   3.956   1.586   5.531 -1.5793  1.3321 -0.7783
 7624SOL    HW234332   3.975   1.732   5.513 -1.2438  0.2559 -1.5168
 7625SOL     OW34333   3.369   3.292  12.799 -0.2370  0.0944  0.0603
 7625SOL    HW134334   3.334   3.380  12.784 -0.0464  0.2231  0.3807
 7625SOL    HW234335   3.463   3.295  12.782 -0.8958  1.3764 -3.5655
 7626SOL     OW34336   1.061   3.685   2.608  0.3162 -0.5418 -0.1399
 7626SOL    HW134337   1.104   3.673   2.692  0.4466  0.1958 -0.0999
 7626SOL    HW234338   1.106   3.759   2.568 -0.5769  0.2538  0.3325
 7627SOL     OW34339   0.649   4.492   5.267  0.2204 -0.4200 -0.2027
 7627SOL    HW134340   0.559   4.470   5.243 -0.0448 -1.0318  1.3287
 7627SOL    HW234341   0.685   4.490   5.178  1.2843 -0.8815  0.2428
 7628SOL     OW34342   1.211   4.087   8.122 -0.5390  0.3820  0.3905
 7628SOL    HW134343   1.203   3.993   8.105 -0.0479  0.0675  1.8696
 7628SOL    HW234344   1.304   4.089   8.145 -0.1494  1.3166 -1.2706
 7629SOL     OW34345   4.554   2.086  13.229  0.0066  0.0990  0.5330
 7629SOL    HW134346   4.505   2.137  13.294 -2.0578  1.3565 -1.9913
 7629SOL    HW234347   4.576   2.154  13.165 -2.4112  0.2461 -0.1575
 7630SOL     OW34348   1.103   0.846   7.486 -0.5142 -0.0804 -0.3613
 7630SOL    HW134349   1.152   0.927   7.503  0.8194 -0.6511 -1.4518
 7630SOL    HW234350   1.039   0.871   7.420 -0.6192  2.5843  0.7555
 7631SOL     OW34351   1.640   0.419  12.390  0.2134 -0.0506  0.0975
 7631SOL    HW134352   1.550   0.428  12.423  0.2854 -1.7535  0.7489
 7631SOL    HW234353   1.628   0.379  12.304  1.0934  0.2522 -0.1654
 7632SOL     OW34354   3.938   0.017   6.755  0.2446 -0.0280 -0.3300
 7632SOL    HW134355   3.923   4.651   6.721  1.9199  0.2098 -1.6800
 7632SOL    HW234356   4.008   0.044   6.695  2.2577 -2.2353  0.9911
 7633SOL     OW34357   1.953   4.716   9.162  0.0310 -0.1569 -0.3605
 7633SOL    HW134358   2.014   0.039   9.219 -2.0661  0.1254  1.6377
 7633SOL    HW234359   1.931   4.642   9.219 -1.7812  2.3973  2.2126
 7634SOL     OW34360   1.254   4.181   9.887 -0.1361  0.3642  0.5658
 7634SOL    HW134361   1.283   4.264   9.926 -1.0905  1.2306 -0.5226
 7634SOL    HW234362   1.204   4.224   9.817  0.2440 -1.4969 -0.8370
 7635SOL     OW34363   1.412   2.588  15.211 -0.8371  0.4369  0.3241
 7635SOL    HW134364   1.417   2.679  15.241  1.8405  0.1824  0.6088
 7635SOL    HW234365   1.321   2.566  15.189 -0.8765 -1.7998  2.7580
 7636SOL     OW34366   4.266   2.762   3.800 -0.0975 -0.1051 -0.3288
 7636SOL    HW134367   4.253   2.774   3.894  0.1308  2.7287 -0.6678
 7636SOL    HW234368   4.354   2.726   3.810 -0.0522  0.1246  0.1135
 7637SOL     OW34369   3.442   3.025   5.520  0.5258  0.7356 -0.7503
 7637SOL    HW134370   3.371   2.996   5.577  2.0897 -1.7970 -0.0852
 7637SOL    HW234371   3.390   3.066   5.451 -0.3485 -0.6123 -0.8978
 7638SOL     OW34372   1.378   0.322   3.733 -0.4163 -0.2284  0.0403
 7638SOL    HW134373   1.409   0.356   3.817  0.1686 -1.3931  0.3049
 7638SOL    HW234374   1.444   0.368   3.680  0.7423 -1.3235  0.5205
 7639SOL     OW34375   2.578   4.231   7.364  0.0634  0.6191 -0.0420
 7639SOL    HW134376   2.505   4.189   7.319  1.0187 -1.4779  0.3509
 7639SOL    HW234377   2.560   4.322   7.385  2.7216  1.4576 -1.3084
 7640SOL     OW34378   1.355   1.973   0.426 -0.2617 -0.4747  0.0625
 7640SOL    HW134379   1.288   2.021   0.474  0.7385  0.2207  0.7908
 7640SOL    HW234380   1.359   1.897   0.484 -0.0046 -0.3939  0.1526
 7641SOL     OW34381   2.505   2.350  14.042  0.2473  0.0818 -0.1989
 7641SOL    HW134382   2.514   2.271  14.096 -1.2443  0.6487  0.8714
 7641SOL    HW234383   2.531   2.321  13.954 -0.4920 -0.7460 -0.1470
 7642SOL     OW34384   2.362   0.456   3.637 -0.5239  0.1673 -0.1771
 7642SOL    HW134385   2.364   0.376   3.585  1.2916  0.0372  0.0715
 7642SOL    HW234386   2.288   0.456   3.697 -0.6384 -2.4356 -0.3429
 7643SOL     OW34387   2.319   3.938   3.477 -0.4453  0.1299 -0.0496
 7643SOL    HW134388   2.226   3.938   3.456 -0.4870  0.1612  0.1324
 7643SOL    HW234389   2.336   4.027   3.448  1.5269  0.9970  3.7505
 7644SOL     OW34390   1.058   2.707   7.483  0.1807  0.2134  0.4153
 7644SOL    HW134391   0.967   2.700   7.512  0.6689  0.9169  2.1275
 7644SOL    HW234392   1.043   2.725   7.391 -0.0524 -0.0643  0.4013
 7645SOL     OW34393   0.905   1.985   7.904  0.3256 -0.2580  0.3776
 7645SOL    HW134394   0.988   1.938   7.897 -0.6152 -1.8589 -0.0104
 7645SOL    HW234395   0.927   2.076   7.926 -2.3796  0.8149 -1.3165
 7646SOL     OW34396   3.407   2.162   6.828  0.6913 -0.1355 -0.1283
 7646SOL    HW134397   3.388   2.114   6.747  1.0646  0.4624 -0.5756
 7646SOL    HW234398   3.438   2.250   6.806 -1.5635  0.8931  0.8470
 7647SOL     OW34399   4.447   4.382   8.815  0.2599 -0.1940  0.1900
 7647SOL    HW134400   4.521   4.432   8.779  1.1325  0.0620  2.3014
 7647SOL    HW234401   4.463   4.396   8.908  1.4275 -1.5431  0.1888
 7648SOL     OW34402   4.244   2.099   3.899  0.2625  0.3023  0.2730
 7648SOL    HW134403   4.224   2.055   3.982 -0.3699  0.3188  0.1280
 7648SOL    HW234404   4.224   2.033   3.832  0.3879  1.1564 -0.5993
 7649SOL     OW34405   4.693   1.518   8.046 -0.0601 -0.0561  0.1636
 7649SOL    HW134406   4.625   1.489   8.106 -0.9984  2.3317  0.2603
 7649SOL    HW234407   4.653   1.600   8.016 -3.0747 -0.7963  2.2300
 7650SOL     OW34408   4.291   2.807   7.899  0.0202 -0.1145 -0.0140
 7650SOL    HW134409   4.200   2.779   7.891  0.9276 -2.3461 -2.3140
 7650SOL    HW234410   4.318   2.792   7.809  1.5331  1.8708  0.1057
 7651SOL     OW34411   0.569   2.328  10.545 -0.0302  0.6565 -0.0921
 7651SOL    HW134412   0.641   2.276  10.580 -1.0621 -0.4936  0.3511
 7651SOL    HW234413   0.519   2.340  10.626 -2.2019  1.3504 -1.5283
 7652SOL     OW34414   3.294   4.375   8.675  0.1587 -0.0515  0.2256
 7652SOL    HW134415   3.261   4.297   8.718 -0.0746 -0.8784 -1.4468
 7652SOL    HW234416   3.278   4.342   8.586 -1.4187 -1.4229  1.0308
 7653SOL     OW34417   2.536   2.910   7.261  0.2088  0.4007 -0.2360
 7653SOL    HW134418   2.491   2.986   7.298 -1.0259 -1.1300  1.3744
 7653SOL    HW234419   2.558   2.868   7.344  0.3616  0.2858 -0.3361
 7654SOL     OW34420   1.981   3.517   6.544  0.2136  0.7427 -0.0015
 7654SOL    HW134421   1.934   3.515   6.628 -1.5505 -0.5710 -1.0191
 7654SOL    HW234422   2.068   3.547   6.569  0.1876  0.3493  0.5732
 7655SOL     OW34423   2.465   1.972  14.442  0.1569  0.6355  0.0325
 7655SOL    HW134424   2.469   1.882  14.474  0.6853  0.2543 -1.1145
 7655SOL    HW234425   2.371   1.990  14.434 -0.1820 -1.0370  0.1929
 7656SOL     OW34426   0.575   1.347   9.291 -0.9942 -0.5412 -0.1950
 7656SOL    HW134427   0.590   1.315   9.202  2.3085  0.3421  0.0270
 7656SOL    HW234428   0.546   1.438   9.278  1.0795  0.0948 -0.4507
 7657SOL     OW34429   2.477   0.802   1.056 -0.2105  0.0865  0.3687
 7657SOL    HW134430   2.560   0.840   1.081 -0.5162  1.7674 -1.1795
 7657SOL    HW234431   2.467   0.841   0.969 -0.2590  1.0008  0.7893
 7658SOL     OW34432   4.466   1.917   4.054 -0.1710  0.3079 -0.3140
 7658SOL    HW134433   4.476   2.012   4.048  1.6696  0.0650 -0.9770
 7658SOL    HW234434   4.522   1.901   4.130 -1.2972  0.1047  0.4673
 7659SOL     OW34435   4.629   4.547   6.271 -0.6972 -0.6474  0.3387
 7659SOL    HW134436   4.611   4.575   6.182  0.3097 -0.0844  0.3054
 7659SOL    HW234437   4.613   4.625   6.324  0.5651  1.0000 -1.7281
 7660SOL     OW34438   0.286   1.568   1.851  0.0653  0.6002 -0.4056
 7660SOL    HW134439   0.322   1.656   1.857  1.7986 -0.1456  0.0820
 7660SOL    HW234440   0.194   1.589   1.870 -0.7378 -1.3518 -2.1785
 7661SOL     OW34441   2.618   1.207  14.556  0.4020 -0.0219 -0.6188
 7661SOL    HW134442   2.689   1.267  14.533 -0.1078  0.9162  0.2864
 7661SOL    HW234443   2.669   1.143  14.607  0.0181 -0.2847 -0.5613
 7662SOL     OW34444   2.802   2.745  11.115  0.4816  0.4823 -0.3568
 7662SOL    HW134445   2.790   2.655  11.145  0.7813 -0.5459 -3.3202
 7662SOL    HW234446   2.787   2.800  11.191 -0.4311 -1.4008  0.8212
 7663SOL     OW34447   0.524   3.747   1.399  0.2340 -0.4263  0.4048
 7663SOL    HW134448   0.543   3.782   1.312 -0.4627 -0.2874  0.3129
 7663SOL    HW234449   0.522   3.826   1.453  1.6989 -0.2071  0.1503
 7664SOL     OW34450   3.388   4.337   5.308  0.4867  0.2801  0.4861
 7664SOL    HW134451   3.468   4.312   5.263  1.2703  1.2725  1.3270
 7664SOL    HW234452   3.399   4.432   5.311  0.7025  0.2242  1.6649
 7665SOL     OW34453   4.235   4.367   8.076  0.2255  0.2711  0.1849
 7665SOL    HW134454   4.261   4.455   8.050 -0.8653  0.6733  0.4783
 7665SOL    HW234455   4.157   4.360   8.021  1.1359  0.2424 -1.1285
 7666SOL     OW34456   0.949   2.266   6.223 -0.4443  0.2881  0.3412
 7666SOL    HW134457   0.891   2.327   6.270  0.0286  0.0477  1.2382
 7666SOL    HW234458   1.001   2.325   6.168  0.9074 -0.7912  0.4813
 7667SOL     OW34459   2.475   3.947   7.823  0.0322  0.0547  0.1655
 7667SOL    HW134460   2.406   3.949   7.890 -1.5166 -0.2397 -1.4094
 7667SOL    HW234461   2.504   4.038   7.830 -2.4339  0.7136  1.8981
 7668SOL     OW34462   3.144   2.870   2.245 -0.2089  0.2605 -0.2272
 7668SOL    HW134463   3.055   2.844   2.268  0.5501  0.3582  2.7985
 7668SOL    HW234464   3.130   2.963   2.260 -0.1307  0.3183 -0.5200
 7669SOL     OW34465   0.507   4.490  12.753  0.3482  0.5434  0.2062
 7669SOL    HW134466   0.571   4.460  12.689  0.2342  2.6399 -0.8993
 7669SOL    HW234467   0.509   4.586  12.749  2.0597  0.5067  0.2179
 7670SOL     OW34468   2.803   4.383   8.095 -0.2084  0.4247  0.5561
 7670SOL    HW134469   2.711   4.404   8.109 -0.2039 -0.3047  1.6620
 7670SOL    HW234470   2.827   4.475   8.086  2.1684 -0.1658  0.7751
 7671SOL     OW34471   0.819   3.683   8.001 -0.2189 -0.3592  0.2604
 7671SOL    HW134472   0.888   3.733   7.959  0.1944 -0.1215  1.2213
 7671SOL    HW234473   0.823   3.708   8.093 -0.1247  0.7797 -0.0518
 7672SOL     OW34474   3.348   0.267   1.485 -0.5156 -0.1014 -0.3380
 7672SOL    HW134475   3.260   0.297   1.463  0.3604  1.2653 -2.0297
 7672SOL    HW234476   3.405   0.299   1.415  0.3091  1.0200  0.8387
 7673SOL     OW34477   4.556   0.125  13.916  0.2973 -0.1067  0.3630
 7673SOL    HW134478   4.596   0.208  13.940  0.3917 -0.8101  2.6060
 7673SOL    HW234479   4.630   0.064  13.913  0.3137 -0.0955  0.6060
 7674SOL     OW34480   1.676   3.202  12.890  0.2711  0.3017 -0.6021
 7674SOL    HW134481   1.677   3.219  12.795  0.4168 -2.8124 -1.1692
 7674SOL    HW234482   1.594   3.248  12.908 -0.7320 -1.9186  0.5565
 7675SOL     OW34483   1.122   3.290   6.969  0.0771 -0.2087 -0.1812
 7675SOL    HW134484   1.154   3.380   6.976 -1.9386  0.4829  0.1351
 7675SOL    HW234485   1.038   3.297   6.924 -1.1062 -1.6421  1.7798
 7676SOL     OW34486   0.232   2.496   2.001  0.0434 -0.1707 -0.3646
 7676SOL    HW134487   0.278   2.526   1.923 -3.2992  1.2644 -1.7193
 7676SOL    HW234488   0.214   2.404   1.979  2.0040 -1.4629  3.3356
 7677SOL     OW34489   3.534   2.305   1.507  0.4884 -0.1716 -0.4241
 7677SOL    HW134490   3.624   2.278   1.521  0.9578  1.8777  0.4264
 7677SOL    HW234491   3.492   2.334   1.588  1.7828 -2.7879  1.2077
 7678SOL     OW34492   1.528   3.264   4.199  0.3382 -0.3333  0.1251
 7678SOL    HW134493   1.541   3.225   4.113  1.2023  0.7655 -0.2388
 7678SOL    HW234494   1.558   3.354   4.192 -0.1359 -0.0775  1.3582
 7679SOL     OW34495   2.816   0.956   8.205  0.0166 -0.4149 -0.5955
 7679SOL    HW134496   2.742   1.017   8.206 -0.6248 -1.2612  4.0022
 7679SOL    HW234497   2.772   0.878   8.239 -0.3767 -0.8613 -2.1054
 7680SOL     OW34498   3.616   1.509   0.030  0.3341 -0.1384  0.1171
 7680SOL    HW134499   3.582   1.488   0.117 -0.1165  0.2258  0.0299
 7680SOL    HW234500   3.688   1.446   0.025 -0.0813 -0.6700  0.8148
 7681SOL     OW34501   2.061   1.537   5.534  0.3348 -0.2755 -0.1757
 7681SOL    HW134502   2.119   1.464   5.555  1.5858  0.6545 -0.3647
 7681SOL    HW234503   2.028   1.516   5.447 -1.6120 -0.5122  0.6352
 7682SOL     OW34504   2.687   2.368   3.833  0.4058 -0.1490 -0.0721
 7682SOL    HW134505   2.705   2.328   3.918 -0.6760  0.6161  0.5130
 7682SOL    HW234506   2.648   2.289   3.798 -0.9598  1.0085 -1.1355
 7683SOL     OW34507   0.508   1.837   5.143  0.4453  0.3307  0.1881
 7683SOL    HW134508   0.550   1.762   5.186  0.9586  0.8491  0.5937
 7683SOL    HW234509   0.574   1.900   5.172  0.0669 -0.2431  2.2952
 7684SOL     OW34510   3.510   1.536   0.566  0.2790  0.4008 -0.4447
 7684SOL    HW134511   3.561   1.460   0.594  2.2018  1.5288 -0.8151
 7684SOL    HW234512   3.579   1.603   0.573  0.6280  0.0398 -0.3910
 7685SOL     OW34513   4.358   0.992   1.752 -0.3360 -0.5981  0.0497
 7685SOL    HW134514   4.344   1.075   1.707 -0.7360 -0.6838  0.0111
 7685SOL    HW234515   4.449   0.974   1.733 -0.6610 -0.4290 -1.6237
 7686SOL     OW34516   0.635   3.925   5.503 -0.3445 -0.6461 -0.0579
 7686SOL    HW134517   0.561   3.920   5.444  0.6552 -0.8869 -1.2940
 7686SOL    HW234518   0.654   4.017   5.483 -2.1129 -0.4027 -0.6062
 7687SOL     OW34519   0.005   0.196  14.196 -0.0526  0.4939 -0.1716
 7687SOL    HW134520   4.717   0.269  14.135  1.3655  0.5601 -0.3488
 7687SOL    HW234521   4.662   0.226  14.259  0.4460  1.5394 -0.1581
 7688SOL     OW34522   3.260   0.512   6.243  0.3159 -0.0258  0.2302
 7688SOL    HW134523   3.245   0.558   6.326  1.6979 -2.2373  1.7222
 7688SOL    HW234524   3.267   0.582   6.178  0.3694  0.9155  1.2486
 7689SOL     OW34525   1.122   1.616   5.745 -0.1989  0.0980  0.0052
 7689SOL    HW134526   1.052   1.552   5.759  0.8235 -1.1265 -0.5091
 7689SOL    HW234527   1.168   1.587   5.666 -0.4649 -1.7806  0.5503
 7690SOL     OW34528   3.197   0.789   0.235  0.7835  0.7552  0.7520
 7690SOL    HW134529   3.163   0.827   0.317  1.2274  0.1407  1.2146
 7690SOL    HW234530   3.278   0.750   0.266  0.2984  0.0971  1.1970
 7691SOL     OW34531   4.393   0.387   8.383  0.4124  0.5881 -0.6669
 7691SOL    HW134532   4.379   0.322   8.452  3.7204  0.7778  0.1676
 7691SOL    HW234533   4.455   0.336   8.331  0.1881  0.4430 -0.7937
 7692SOL     OW34534   3.517   0.076  15.063 -0.3775 -0.0878  0.0047
 7692SOL    HW134535   3.479   4.716  15.031 -0.9715 -1.2414  3.6879
 7692SOL    HW234536   3.607   0.045  15.058  0.1175  1.0850  1.8349
 7693SOL     OW34537   1.483   2.408  14.260  0.7185  0.0463 -0.0773
 7693SOL    HW134538   1.535   2.328  14.267  0.4322  0.0413  2.0433
 7693SOL    HW234539   1.413   2.374  14.204  1.1388 -0.3842 -0.3437
 7694SOL     OW34540   0.644   0.325  10.195 -0.2607  0.5176  0.0552
 7694SOL    HW134541   0.663   0.275  10.274 -1.4386 -1.2547 -0.7814
 7694SOL    HW234542   0.702   0.281  10.133  0.6948  2.4622 -0.4442
 7695SOL     OW34543   4.440   0.139   8.108 -0.1193 -0.2808  0.2589
 7695SOL    HW134544   4.427   0.231   8.086 -1.1262 -1.2474 -3.1692
 7695SOL    HW234545   4.360   0.100   8.072  1.2216 -0.5514 -2.4277
 7696SOL     OW34546   3.733   1.903   5.009  0.1417  0.3084 -0.5444
 7696SOL    HW134547   3.720   1.851   5.089  0.6735  0.8112 -0.1319
 7696SOL    HW234548   3.659   1.865   4.962  1.1342 -1.6519 -0.5113
 7697SOL     OW34549   0.593   4.226   4.635  0.6799  0.7084 -0.1005
 7697SOL    HW134550   0.675   4.181   4.658  0.8953  0.5719 -1.1190
 7697SOL    HW234551   0.524   4.166   4.661  0.2780  1.1090 -0.2473
 7698SOL     OW34552   1.704   1.531   6.259 -0.1532 -0.6054  0.0656
 7698SOL    HW134553   1.760   1.474   6.311  0.9621  0.0475 -0.4071
 7698SOL    HW234554   1.637   1.537   6.326 -0.5274 -1.1173 -0.2620
 7699SOL     OW34555   1.260   3.999   2.904  0.2347  0.1604  0.2439
 7699SOL    HW134556   1.326   3.991   2.836 -0.6397 -2.7793 -0.2430
 7699SOL    HW234557   1.315   3.998   2.983  0.9810 -0.1682 -0.2837
 7700SOL     OW34558   1.778   4.699   5.143 -0.2289 -0.1938  0.0418
 7700SOL    HW134559   1.776   4.664   5.054  1.1699 -0.4287  0.0991
 7700SOL    HW234560   1.729   4.629   5.187  0.0323  0.7927  1.9364
 7701SOL     OW34561   0.131   3.737   5.908 -0.2903 -0.0609  1.0691
 7701SOL    HW134562   0.218   3.768   5.884 -0.1010  0.2651  2.1877
 7701SOL    HW234563   0.089   3.749   5.823  1.5741 -0.5795  0.0723
 7702SOL     OW34564   2.581   2.565  12.908 -0.0465  0.0037  0.2700
 7702SOL    HW134565   2.515   2.615  12.859 -0.5456 -1.8503 -0.9659
 7702SOL    HW234566   2.574   2.479  12.866 -0.3532  1.7149 -3.1618
 7703SOL     OW34567   4.339   2.457   3.998  0.1792  0.4118 -0.1079
 7703SOL    HW134568   4.269   2.523   3.998 -2.0557 -1.9431 -0.3733
 7703SOL    HW234569   4.304   2.400   3.930  2.1302 -0.6181 -0.2248
 7704SOL     OW34570   4.658   1.094  17.142  0.1982 -0.4102 -0.3088
 7704SOL    HW134571   4.698   1.007  17.137  0.0893 -0.6011  2.2034
 7704SOL    HW234572   4.629   1.103  17.052  0.3203 -2.8745 -0.5821
 7705SOL     OW34573   4.074   2.503   8.696 -0.2908 -0.3965 -0.5998
 7705SOL    HW134574   4.049   2.518   8.605 -1.5449  1.8721  0.1337
 7705SOL    HW234575   4.155   2.451   8.696  0.5072  0.8524  0.1782
 7706SOL     OW34576   2.976   3.654   3.384 -0.1525  0.1030  0.0239
 7706SOL    HW134577   2.964   3.720   3.315 -2.1577 -1.0137 -0.7043
 7706SOL    HW234578   2.903   3.675   3.442 -0.5323 -0.3964 -0.2673
 7707SOL     OW34579   1.279   2.770   7.655 -0.1609 -0.6122  0.3461
 7707SOL    HW134580   1.226   2.716   7.597  0.0053 -1.1705  0.7057
 7707SOL    HW234581   1.243   2.745   7.740 -0.1408 -1.9464 -0.0398
 7708SOL     OW34582   3.581   4.467  10.306  0.5533  0.1812  0.1604
 7708SOL    HW134583   3.544   4.494  10.223  0.9472 -0.9354 -0.3764
 7708SOL    HW234584   3.671   4.499  10.299 -0.1175  1.7838 -0.9119
 7709SOL     OW34585   1.266   1.772  13.275 -0.7564 -0.1638 -0.0420
 7709SOL    HW134586   1.186   1.754  13.325 -1.2691  0.8346 -0.4947
 7709SOL    HW234587   1.246   1.864  13.255 -2.4424 -0.9683 -2.0342
 7710SOL     OW34588   0.878   0.572   1.354 -0.0261 -0.4491  0.4925
 7710SOL    HW134589   0.967   0.596   1.380 -0.7192  1.2161  1.3098
 7710SOL    HW234590   0.872   0.477   1.338 -0.5876 -0.1532 -1.0032
 7711SOL     OW34591   1.477   3.026  13.843 -0.8233 -0.6133 -0.3564
 7711SOL    HW134592   1.410   3.092  13.825  0.5495  1.0799  0.6764
 7711SOL    HW234593   1.439   2.948  13.802  0.0366 -0.5374 -1.2946
 7712SOL     OW34594   2.191   4.164   4.340 -0.3824 -0.2718  0.0863
 7712SOL    HW134595   2.259   4.231   4.350 -2.3725  1.5304  1.4536
 7712SOL    HW234596   2.133   4.190   4.412 -2.4374 -2.3792 -0.8158
 7713SOL     OW34597   3.783   0.841   1.948 -0.0088 -0.2038 -0.5010
 7713SOL    HW134598   3.784   0.913   1.885 -1.7534 -0.3201 -0.6724
 7713SOL    HW234599   3.689   0.846   1.966  0.4055 -0.1553  1.7067
 7714SOL     OW34600   3.296   2.089   5.072 -0.1780 -0.7679  0.1335
 7714SOL    HW134601   3.379   2.132   5.052 -1.2000  1.9484  1.6094
 7714SOL    HW234602   3.301   2.077   5.167  0.9006  1.2925  0.3463
 7715SOL     OW34603   1.090   2.551   4.544 -0.3988  0.1817  0.2920
 7715SOL    HW134604   0.997   2.537   4.559 -0.5495 -2.3733 -3.0083
 7715SOL    HW234605   1.087   2.542   4.448 -1.8149  0.3934  0.3138
 7716SOL     OW34606   3.378   0.496   2.827 -0.0572 -0.2031 -0.1643
 7716SOL    HW134607   3.369   0.548   2.907 -1.9914  1.8033 -1.7146
 7716SOL    HW234608   3.295   0.449   2.821  0.1749 -0.5158 -0.8930
 7717SOL     OW34609   3.157   2.173  15.239 -0.1907 -0.3334 -0.2013
 7717SOL    HW134610   3.114   2.211  15.163  0.7117  1.5911  0.2716
 7717SOL    HW234611   3.237   2.139  15.199 -0.8331 -0.4844 -1.3749
 7718SOL     OW34612   3.892   2.840   2.757 -0.1348 -0.0691 -0.4857
 7718SOL    HW134613   3.893   2.916   2.699 -0.0561 -0.3462 -0.8436
 7718SOL    HW234614   3.841   2.871   2.832  1.3696 -0.6438  0.7818
 7719SOL     OW34615   2.828   0.747   5.771 -0.1376  0.2392 -0.3617
 7719SOL    HW134616   2.742   0.723   5.806  1.0201 -0.5941  1.9461
 7719SOL    HW234617   2.879   0.671   5.798  4.7836  2.7963 -2.4895
 7720SOL     OW34618   0.059   0.085   7.323 -0.0629  0.5376  0.1547
 7720SOL    HW134619   0.150   0.106   7.344  0.9516 -1.2931 -2.3685
 7720SOL    HW234620   0.044   0.000   7.365 -2.9522 -0.0012 -1.9825
 7721SOL     OW34621   3.550   3.089   3.669  0.5181  0.2805  0.3754
 7721SOL    HW134622   3.578   3.017   3.612 -1.4689 -0.5846  0.5028
 7721SOL    HW234623   3.511   3.028   3.731  1.1285 -0.1890  0.2958
 7722SOL     OW34624   1.010   0.137   6.327  0.3521  0.1042  0.5013
 7722SOL    HW134625   0.957   0.131   6.407  0.3711 -0.0990  0.4967
 7722SOL    HW234626   0.959   0.074   6.277 -0.0144  2.9720 -2.7937
 7723SOL     OW34627   1.691   4.019   9.942 -0.6417  0.0688  0.0778
 7723SOL    HW134628   1.711   4.110   9.965 -2.9733  0.6000 -0.0391
 7723SOL    HW234629   1.706   4.009   9.848  0.0656 -2.8172  0.4894
 7724SOL     OW34630   3.165   0.781   0.512 -0.1948  0.2313 -0.5814
 7724SOL    HW134631   3.251   0.819   0.529  1.6629 -2.4974 -3.7986
 7724SOL    HW234632   3.181   0.687   0.521  0.0979  0.4137  0.8459
 7725SOL     OW34633   4.667   1.109   2.178  0.0687  0.3326 -1.1005
 7725SOL    HW134634   4.633   1.069   2.258 -1.4867  2.7635 -0.5575
 7725SOL    HW234635   4.641   1.042   2.114  0.0559 -1.2001  0.5108
 7726SOL     OW34636   3.034   1.933   3.043  0.2358  0.1180  0.1225
 7726SOL    HW134637   3.058   1.902   2.956  0.4989 -0.8581  0.5455
 7726SOL    HW234638   2.954   1.882   3.059  0.4031  0.3976  1.8637
 7727SOL     OW34639   4.478   0.559  15.931  0.1331 -0.6130 -0.4132
 7727SOL    HW134640   4.542   0.557  15.860 -0.8901  1.1170 -1.3661
 7727SOL    HW234641   4.449   0.468  15.935  0.2579 -0.5919  1.0365
 7728SOL     OW34642   1.975   3.439   2.749 -0.1809 -0.0167  0.3170
 7728SOL    HW134643   1.914   3.485   2.806 -0.7091 -2.9002  2.1008
 7728SOL    HW234644   1.980   3.497   2.673 -2.8390 -0.5213 -0.2327
 7729SOL     OW34645   3.896   1.716   3.529 -0.0916 -0.1402  0.4192
 7729SOL    HW134646   3.812   1.746   3.563  0.5944 -1.4022  3.1819
 7729SOL    HW234647   3.932   1.666   3.602 -0.1756 -0.4966  0.2169
 7730SOL     OW34648   4.570   0.334   0.262 -0.4023  0.2878 -0.2264
 7730SOL    HW134649   4.580   0.343   0.168 -1.0888 -0.0931 -0.3340
 7730SOL    HW234650   4.484   0.375   0.265 -0.8491 -0.6174 -0.7231
 7731SOL     OW34651   2.098   1.959   7.536 -0.7838 -0.2522  0.6325
 7731SOL    HW134652   2.171   1.975   7.476 -0.4655  0.0257  1.0982
 7731SOL    HW234653   2.066   1.876   7.500 -1.1861  0.4222 -0.5950
 7732SOL     OW34654   1.343   1.397   7.064 -0.0301 -0.0533  0.0060
 7732SOL    HW134655   1.273   1.442   7.017  0.4921  0.2655 -0.4718
 7732SOL    HW234656   1.346   1.310   7.022  1.6576 -0.4895  1.0169
 7733SOL     OW34657   2.334   1.424   7.605  0.0416 -0.0459  0.1849
 7733SOL    HW134658   2.339   1.393   7.696  0.1988  0.4130  0.3334
 7733SOL    HW234659   2.243   1.455   7.605  0.1984  0.4061 -1.4931
 7734SOL     OW34660   1.412   3.579   5.320  0.4201  0.0945  0.1173
 7734SOL    HW134661   1.457   3.660   5.294 -1.3194  0.8474 -0.5502
 7734SOL    HW234662   1.318   3.593   5.307  0.6124  0.9533 -0.3619
 7735SOL     OW34663   1.779   3.160   2.192  0.2849  0.3271  0.7131
 7735SOL    HW134664   1.688   3.180   2.216 -0.3769 -0.1482 -1.4439
 7735SOL    HW234665   1.769   3.071   2.160  0.8738 -0.0327  1.5223
 7736SOL     OW34666   3.709   0.799   2.711  0.7331 -0.5480 -0.4422
 7736SOL    HW134667   3.635   0.840   2.756  1.2532  1.3189 -1.2866
 7736SOL    HW234668   3.767   0.875   2.718 -2.7631  2.3264 -2.2360
 7737SOL     OW34669   0.621   1.918  17.219  0.2196 -0.0051  0.4076
 7737SOL    HW134670   0.699   1.927  17.272  0.3463  0.4782  0.1398
 7737SOL    HW234671   0.574   1.878  17.292 -1.1179  1.0061  0.0965
 7738SOL     OW34672   1.991   1.514   1.258  0.0157  0.2077 -0.3538
 7738SOL    HW134673   1.996   1.558   1.173 -0.2718  0.5414 -0.1943
 7738SOL    HW234674   2.080   1.529   1.291  1.1080  0.7677 -3.4635
 7739SOL     OW34675   3.480   3.238   6.212 -0.2914  0.0534  0.4250
 7739SOL    HW134676   3.468   3.164   6.272  1.3433 -1.4965 -1.1570
 7739SOL    HW234677   3.576   3.236   6.205 -0.3362 -2.0401  0.4359
 7740SOL     OW34678   0.732   0.011   7.874  0.4858 -0.1178  0.4299
 7740SOL    HW134679   0.820   4.717   7.909  0.3035  1.6359  1.7519
 7740SOL    HW234680   0.740   0.107   7.877 -1.3042  0.0327  0.3992
 7741SOL     OW34681   1.582   1.306   3.833 -0.2444 -0.1571 -0.0702
 7741SOL    HW134682   1.487   1.317   3.843 -0.5326 -0.9541 -1.8315
 7741SOL    HW234683   1.599   1.308   3.738 -0.8910 -2.1202 -0.2213
 7742SOL     OW34684   3.903   0.723   8.256 -0.9748  0.3208  0.3208
 7742SOL    HW134685   3.983   0.765   8.225  0.2246 -0.9436  1.7359
 7742SOL    HW234686   3.939   0.671   8.328 -0.3986  0.8022  0.3840
 7743SOL     OW34687   2.946   1.910   9.929  0.3007 -0.3735  0.1555
 7743SOL    HW134688   3.036   1.919   9.899 -0.0364 -1.3026 -1.1198
 7743SOL    HW234689   2.901   1.862   9.860 -1.4383 -1.1382  1.8056
 7744SOL     OW34690   2.464   1.228   3.900 -0.0528 -0.3177 -0.2059
 7744SOL    HW134691   2.491   1.283   3.973 -2.4012 -0.1322  0.5477
 7744SOL    HW234692   2.416   1.159   3.946  0.0323  0.3323  0.8684
 7745SOL     OW34693   4.216   1.876  12.373 -0.5186  0.6759 -0.4577
 7745SOL    HW134694   4.240   1.966  12.347  0.8731 -0.5354 -3.4056
 7745SOL    HW234695   4.282   1.829  12.323  0.1312  1.1235 -0.0241
 7746SOL     OW34696   4.644   2.983   4.455  0.3381  0.3163  0.3312
 7746SOL    HW134697   4.581   3.056   4.455  0.7971  0.7074 -0.5472
 7746SOL    HW234698   4.656   2.952   4.365  1.8820  1.5971  0.0953
 7747SOL     OW34699   4.516   0.286   4.216  0.5681 -0.1494 -0.1442
 7747SOL    HW134700   4.587   0.326   4.166 -0.2925  0.6085 -0.7596
 7747SOL    HW234701   4.498   0.220   4.149  1.0423 -1.4513  1.0228
 7748SOL     OW34702   3.407   2.474   8.567  0.0647 -0.2422  0.1679
 7748SOL    HW134703   3.391   2.558   8.610 -0.7896  0.1968 -1.0108
 7748SOL    HW234704   3.499   2.480   8.542  0.3741  2.1455  1.8609
 7749SOL     OW34705   4.557   0.372   1.998  0.1508 -0.1472  0.1263
 7749SOL    HW134706   4.604   0.455   1.999  0.9805 -0.6177  0.8595
 7749SOL    HW234707   4.492   0.385   2.068  0.9096  1.9911  0.4315
 7750SOL     OW34708   0.061   2.595   6.057 -0.5012  0.4101 -0.1047
 7750SOL    HW134709   0.070   2.565   5.967 -1.1432 -1.0347  0.3199
 7750SOL    HW234710   4.690   2.615   6.056 -0.7538 -0.6570  1.8855
 7751SOL     OW34711   0.082   3.508  11.995  0.2771  0.2201 -0.4376
 7751SOL    HW134712   0.142   3.554  11.936 -0.1437  3.1729  1.4444
 7751SOL    HW234713   0.026   3.572  12.040 -1.6767 -0.0754 -2.4331
 7752SOL     OW34714   0.338   2.423   7.652 -0.0877  0.5891  0.4410
 7752SOL    HW134715   0.395   2.427   7.729 -0.5645  1.2295  0.7610
 7752SOL    HW234716   0.399   2.378   7.594 -1.2407 -1.6008  0.9248
 7753SOL     OW34717   0.126   1.241  15.424 -0.4840  0.1185 -0.0456
 7753SOL    HW134718   0.160   1.322  15.464 -1.2285  0.7200 -0.6274
 7753SOL    HW234719   0.116   1.191  15.504  0.9630 -1.2229 -0.7162
 7754SOL     OW34720   4.186   2.984  13.785 -0.2194 -0.3625 -0.1296
 7754SOL    HW134721   4.198   3.078  13.776 -0.1046 -0.1823  1.9734
 7754SOL    HW234722   4.215   2.965  13.874 -1.6674  0.6310  0.5400
 7755SOL     OW34723   0.238   3.821   3.463  0.7637  0.0520 -0.2731
 7755SOL    HW134724   0.280   3.849   3.382  0.5356  0.5048 -0.2304
 7755SOL    HW234725   0.310   3.785   3.515  1.8071  1.8724 -0.4523
 7756SOL     OW34726   3.033   4.092  17.130  0.6534  0.1972 -0.2667
 7756SOL    HW134727   2.977   4.122  17.058  0.3295  0.1549 -0.0318
 7756SOL    HW234728   2.997   4.144  17.202  1.1439  2.5557 -1.6969
 7757SOL     OW34729   3.542   2.136   5.740 -0.2372 -0.2322 -0.4875
 7757SOL    HW134730   3.461   2.165   5.782 -1.4072 -2.5161 -1.1409
 7757SOL    HW234731   3.532   2.173   5.652 -1.5133 -1.0375 -0.6862
 7758SOL     OW34732   0.330   3.751  11.270  0.2655 -0.3555  0.0717
 7758SOL    HW134733   0.324   3.693  11.194 -0.1682  1.2625 -1.1404
 7758SOL    HW234734   0.252   3.806  11.256  1.3494  0.4815 -2.8259
 7759SOL     OW34735   3.286   0.281   0.972  0.6603  0.0249 -0.1973
 7759SOL    HW134736   3.328   0.258   0.889 -0.4532 -0.1523 -0.7143
 7759SOL    HW234737   3.210   0.225   0.986 -1.2584  2.8977  0.9467
 7760SOL     OW34738   3.806   4.429   3.760 -0.0285  0.1035  0.4272
 7760SOL    HW134739   3.849   4.514   3.756  1.9912 -0.9759 -1.0863
 7760SOL    HW234740   3.805   4.412   3.666  1.5765 -2.4664  0.8648
 7761SOL     OW34741   3.472   2.822   0.081 -0.3356 -0.5345  0.1675
 7761SOL    HW134742   3.398   2.770   0.050 -2.1951  1.0618  1.8949
 7761SOL    HW234743   3.524   2.749   0.114 -1.3658 -1.4875 -0.3194
 7762SOL     OW34744   2.429   2.532  10.610 -0.4470  0.3863 -0.2229
 7762SOL    HW134745   2.424   2.580  10.527  1.0035  1.6615  0.4208
 7762SOL    HW234746   2.481   2.461  10.575  1.6493  2.2492 -0.8432
 7763SOL     OW34747   3.611   1.327   1.508  0.0347 -0.0209 -0.3373
 7763SOL    HW134748   3.576   1.389   1.443 -0.3866  0.2116  0.1142
 7763SOL    HW234749   3.703   1.342   1.490  0.6502 -0.7700  2.2758
 7764SOL     OW34750   3.659   1.796   3.639 -0.2488 -0.0881  0.2450
 7764SOL    HW134751   3.667   1.704   3.665  0.3283 -0.3313 -0.7776
 7764SOL    HW234752   3.581   1.796   3.583  1.3177 -0.5419 -1.9292
 7765SOL     OW34753   2.104   1.251   7.270 -0.4593  0.1660 -0.1022
 7765SOL    HW134754   2.190   1.254   7.228 -1.2411  1.9571 -1.5616
 7765SOL    HW234755   2.131   1.282   7.356 -0.8774  2.5235 -0.8370
 7766SOL     OW34756   3.053   2.226   8.299 -1.0440 -0.8330 -0.0488
 7766SOL    HW134757   3.080   2.195   8.213  0.7398  0.1640  0.1348
 7766SOL    HW234758   3.084   2.151   8.349  1.4905 -0.4882 -1.1167
 7767SOL     OW34759   3.613   0.105   7.989  0.0451  0.5749 -0.9321
 7767SOL    HW134760   3.661   0.178   7.950  1.3384 -0.1131 -0.6269
 7767SOL    HW234761   3.644   0.105   8.080 -1.2151 -0.5440 -0.5019
 7768SOL     OW34762   2.149   0.960   5.840 -0.6272  0.2773  0.0539
 7768SOL    HW134763   2.205   0.960   5.918  1.0453 -1.7357 -1.1668
 7768SOL    HW234764   2.217   0.937   5.777  0.1633 -0.1446  1.0588
 7769SOL     OW34765   3.186   1.830   5.534 -0.3843 -0.2872 -0.3410
 7769SOL    HW134766   3.205   1.738   5.553 -2.9676 -1.4286 -3.3124
 7769SOL    HW234767   3.236   1.849   5.455 -0.5681 -0.1305 -0.4220
 7770SOL     OW34768   4.289   3.494   1.525  0.5304  0.2623 -0.1669
 7770SOL    HW134769   4.270   3.579   1.485 -3.9027 -1.8926 -2.6274
 7770SOL    HW234770   4.256   3.496   1.615 -0.2717 -0.2052 -0.4458
 7771SOL     OW34771   4.216   4.528   1.532 -0.7878  0.5850  0.0299
 7771SOL    HW134772   4.248   4.561   1.616 -2.0706 -0.2369  0.8209
 7771SOL    HW234773   4.189   4.607   1.486  1.7984  1.8919  0.7549
 7772SOL     OW34774   1.633   3.184   7.138  0.1198 -0.0234  0.0780
 7772SOL    HW134775   1.623   3.094   7.170  1.6481 -0.5888 -1.0742
 7772SOL    HW234776   1.541   3.209   7.145  0.5706  1.4742  0.7971
 7773SOL     OW34777   4.250   4.418   6.122 -0.1684  0.1661  0.1706
 7773SOL    HW134778   4.276   4.361   6.195 -2.0248 -1.8766 -0.7857
 7773SOL    HW234779   4.291   4.377   6.046  0.5404  0.0081  0.6336
 7774SOL     OW34780   3.084   2.848   4.006  1.0450 -0.2051 -0.1890
 7774SOL    HW134781   3.021   2.822   4.073  1.4204  1.3787  0.7787
 7774SOL    HW234782   3.155   2.841   4.070 -0.8254  2.5397  2.1533
 7775SOL     OW34783   3.090   2.964   5.080  0.4770  0.3152 -0.1605
 7775SOL    HW134784   3.053   2.969   4.991 -1.0917 -3.2461  0.2966
 7775SOL    HW234785   3.173   3.009   5.066  0.2987  0.5924 -0.3449
 7776SOL     OW34786   0.329   0.481   4.732  0.3080  0.2974 -0.0829
 7776SOL    HW134787   0.416   0.513   4.756  0.3089  0.6333 -0.5352
 7776SOL    HW234788   0.355   0.389   4.731 -0.3579  0.0973  0.7029
 7777SOL     OW34789   1.720   3.758  13.995 -0.1013  0.2262 -0.3891
 7777SOL    HW134790   1.693   3.751  14.086  0.7261 -0.3794 -0.1917
 7777SOL    HW234791   1.762   3.844  13.998 -1.3411  0.8558 -1.0835
 7778SOL     OW34792   4.225   3.226   1.480 -0.2778 -0.2851  1.0890
 7778SOL    HW134793   4.147   3.222   1.424  0.4569  0.1150  0.0381
 7778SOL    HW234794   4.237   3.320   1.488 -1.4603 -0.1807  1.6160
 7779SOL     OW34795   1.714   3.411   9.014  0.0744 -0.2712 -0.0384
 7779SOL    HW134796   1.791   3.444   9.060  0.0101  3.3000 -2.5386
 7779SOL    HW234797   1.748   3.413   8.925  2.2195  0.1111  0.7740
 7780SOL     OW34798   3.666   1.649  10.349  0.1702 -0.4392  1.1977
 7780SOL    HW134799   3.714   1.566  10.345  0.5209 -0.1550 -0.1609
 7780SOL    HW234800   3.698   1.698  10.425  0.7410  0.8403  0.1204
 7781SOL     OW34801   1.470   0.188   2.844  0.3963 -0.1913  0.2130
 7781SOL    HW134802   1.518   0.186   2.762 -0.0301 -0.8816 -0.0271
 7781SOL    HW234803   1.449   0.281   2.849  0.1412 -0.2799  0.8752
 7782SOL     OW34804   4.320   2.128   2.732  0.1405 -0.2910  0.0806
 7782SOL    HW134805   4.305   2.136   2.638  0.5570 -0.4882 -0.0021
 7782SOL    HW234806   4.350   2.218   2.743 -0.8122 -0.0471  0.6554
 7783SOL     OW34807   1.943   0.733   9.994  0.8128  0.6108 -0.0223
 7783SOL    HW134808   1.859   0.758   9.955 -0.6508 -1.8548  1.5212
 7783SOL    HW234809   1.926   0.746  10.088  1.6267 -0.1993  0.2380
 7784SOL     OW34810   1.573   4.111   6.784 -0.0363  0.1645 -0.4457
 7784SOL    HW134811   1.580   4.093   6.690 -1.5565 -0.8685 -0.3686
 7784SOL    HW234812   1.504   4.178   6.785 -0.9108 -0.7028 -1.7299
 7785SOL     OW34813   1.548   0.724   4.281 -0.0267  0.6843 -0.0864
 7785SOL    HW134814   1.627   0.685   4.317 -1.2298 -1.5857  0.0907
 7785SOL    HW234815   1.557   0.819   4.286 -0.5973  0.8692 -2.5627
 7786SOL     OW34816   0.047   1.530  15.120 -0.0116  0.2387  0.4663
 7786SOL    HW134817   0.014   1.570  15.201 -0.6430 -0.8717  0.7621
 7786SOL    HW234818   4.687   1.532  15.073  2.0388  0.0005 -3.1066
 7787SOL     OW34819   0.257   2.708   2.607 -0.2034  1.1315  0.3829
 7787SOL    HW134820   0.172   2.752   2.612 -1.5555 -1.4273  0.0556
 7787SOL    HW234821   0.276   2.678   2.696 -1.0527 -0.8748 -0.1204
 7788SOL     OW34822   3.247   4.345  13.671 -0.5180  0.1381 -0.8352
 7788SOL    HW134823   3.257   4.250  13.679  1.0465  0.3266 -0.4374
 7788SOL    HW234824   3.229   4.370  13.762  0.6179 -1.4839 -0.1486
 7789SOL     OW34825   4.161   2.966  15.851  0.3196 -0.4362  0.2960
 7789SOL    HW134826   4.129   2.889  15.804 -1.8320  0.2370  0.6457
 7789SOL    HW234827   4.076   2.994  15.887  0.0069 -0.3145 -0.5432
 7790SOL     OW34828   1.998   1.004   5.498 -0.0041  0.4230  0.3100
 7790SOL    HW134829   2.085   1.034   5.471 -0.1917  0.3809 -0.3386
 7790SOL    HW234830   1.942   1.082   5.501  1.1278  1.3777 -2.9399
 7791SOL     OW34831   0.454   2.268  17.582  0.3548 -0.1362  0.0289
 7791SOL    HW134832   0.520   2.261  17.651  1.4877 -0.1409 -1.0409
 7791SOL    HW234833   0.491   2.342  17.534 -1.6885  0.0181 -1.3193
 7792SOL     OW34834   0.264   3.101   7.857  0.3332 -0.6991  0.1551
 7792SOL    HW134835   0.316   3.021   7.868  1.7944  0.2347 -0.0391
 7792SOL    HW234836   0.229   3.109   7.946  2.1183  0.8871  0.7090
 7793SOL     OW34837   1.269   0.114  17.336  0.1652  0.2600 -0.2788
 7793SOL    HW134838   1.338   0.179  17.320 -2.3547  3.0167 -0.0524
 7793SOL    HW234839   1.275   0.103  17.431 -0.2956  0.7689 -0.1904
 7794SOL     OW34840   0.927   0.393   5.270  0.1545  1.7265 -0.2969
 7794SOL    HW134841   0.963   0.311   5.237 -2.0309  0.5516  0.2747
 7794SOL    HW234842   0.921   0.380   5.364 -1.6986  1.2661 -0.4678
 7795SOL     OW34843   1.539   2.493   6.991 -0.4712 -0.4803 -0.4697
 7795SOL    HW134844   1.470   2.467   6.930 -2.0541  0.3866  0.9520
 7795SOL    HW234845   1.575   2.405   7.005  2.1487  0.8371  1.0337
 7796SOL     OW34846   1.878   1.566   2.316  0.0066  0.9684  0.0566
 7796SOL    HW134847   1.884   1.660   2.302  2.1719  0.4958 -2.2640
 7796SOL    HW234848   1.962   1.545   2.274 -1.0138 -0.8778 -1.0864
 7797SOL     OW34849   3.589   1.718   1.087 -0.1110 -0.2130 -0.1137
 7797SOL    HW134850   3.499   1.734   1.058  1.3532  2.0675 -3.4786
 7797SOL    HW234851   3.597   1.782   1.156 -0.6591  0.3236 -0.5531
 7798SOL     OW34852   3.085   1.029   7.796 -0.1346 -0.2281 -0.0991
 7798SOL    HW134853   3.082   1.101   7.734 -0.0141 -1.2014 -1.2400
 7798SOL    HW234854   2.993   1.024   7.824 -0.0003 -0.2405  0.3332
 7799SOL     OW34855   0.257   1.231  15.193  0.7724 -0.2948  0.0854
 7799SOL    HW134856   0.212   1.252  15.275  1.7437 -1.5687  0.9397
 7799SOL    HW234857   0.319   1.304  15.181  0.6692 -0.8285 -3.6045
 7800SOL     OW34858   0.246   1.922   4.461  0.0231 -0.0702 -0.7899
 7800SOL    HW134859   0.235   2.005   4.507 -0.2545  0.0248 -1.0333
 7800SOL    HW234860   0.168   1.877   4.495 -0.5768  1.1208 -0.6146
 7801SOL     OW34861   2.787   3.206   8.583 -0.2454 -0.4777 -0.0370
 7801SOL    HW134862   2.734   3.284   8.570 -0.0436 -0.6268 -1.7603
 7801SOL    HW234863   2.830   3.214   8.668 -1.0045 -3.0243  0.5868
 7802SOL     OW34864   2.675   1.043   8.529  0.3894  0.4470 -0.5974
 7802SOL    HW134865   2.660   1.064   8.437  1.1187 -0.9307 -1.0356
 7802SOL    HW234866   2.707   1.126   8.564  0.7711 -0.6954  1.7929
 7803SOL     OW34867   0.312   2.251  12.416 -0.3048 -0.6445 -0.5893
 7803SOL    HW134868   0.377   2.182  12.401 -0.6418 -1.0661 -0.1126
 7803SOL    HW234869   0.369   2.319  12.451  2.5601 -1.9856 -2.6886
 7804SOL     OW34870   1.974   2.882   2.050 -0.3403 -0.2782  0.3971
 7804SOL    HW134871   1.890   2.853   2.087 -0.9037  1.7457  0.7185
 7804SOL    HW234872   1.958   2.858   1.959  0.4296 -0.7159  0.3850
 7805SOL     OW34873   4.161   2.624   0.217 -0.0122  0.1370  0.0689
 7805SOL    HW134874   4.086   2.565   0.228  1.4729 -1.7782 -0.1233
 7805SOL    HW234875   4.230   2.571   0.256 -0.6640 -2.2684 -2.0190
 7806SOL     OW34876   1.644   1.197  17.383 -0.2754 -0.4246  1.0218
 7806SOL    HW134877   1.688   1.141  17.319 -1.5189 -0.7350  0.4596
 7806SOL    HW234878   1.646   1.138  17.458  1.2499 -0.6017  0.8571
 7807SOL     OW34879   4.313   1.227   0.592 -0.0115  0.0758 -0.2811
 7807SOL    HW134880   4.398   1.183   0.594 -0.2949 -0.3913  1.4052
 7807SOL    HW234881   4.324   1.292   0.522  0.0656 -0.1673 -0.4940
 7808SOL     OW34882   2.218   1.511  17.291 -0.5981  0.1567 -0.3837
 7808SOL    HW134883   2.196   1.507  17.384  1.3776 -0.8868  0.0378
 7808SOL    HW234884   2.310   1.539  17.294 -0.0297 -1.7620  0.3664
 7809SOL     OW34885   2.339   0.899   3.764 -0.2722  0.2321  0.1767
 7809SOL    HW134886   2.423   0.918   3.721 -0.3725 -0.7731 -0.4541
 7809SOL    HW234887   2.273   0.920   3.698  0.7646 -1.9663 -1.5517
 7810SOL     OW34888   0.859   0.709   5.015 -0.4097  0.8519 -0.4353
 7810SOL    HW134889   0.851   0.742   5.105 -0.6918  0.3976 -0.2959
 7810SOL    HW234890   0.945   0.668   5.011 -0.0573  1.8307 -2.9196
 7811SOL     OW34891   0.002   0.776   9.334  0.1226  0.5872  0.3833
 7811SOL    HW134892   4.722   0.871   9.323  0.4058  0.5283 -0.2236
 7811SOL    HW234893   4.700   0.752   9.244 -2.1290  1.0987  0.8660
 7812SOL     OW34894   0.318   0.357  12.816  0.5319  1.5623 -0.0182
 7812SOL    HW134895   0.238   0.318  12.780  0.2444 -1.3558  3.7841
 7812SOL    HW234896   0.286   0.436  12.859 -2.3955  1.3360 -1.7835
 7813SOL     OW34897   2.751   4.176   3.013 -0.1392  0.1500 -0.0896
 7813SOL    HW134898   2.789   4.105   2.962 -0.2463 -0.1054  0.1827
 7813SOL    HW234899   2.660   4.164   2.986 -1.1331 -1.1952  3.7357
 7814SOL     OW34900   2.806   1.065   8.872 -0.1427 -0.3394  0.1540
 7814SOL    HW134901   2.872   1.033   8.933 -1.5481  0.7694  2.2594
 7814SOL    HW234902   2.729   1.029   8.916  0.0738  1.2265  1.7826
 7815SOL     OW34903   4.180   1.743  16.015 -0.0234 -0.0206  0.9842
 7815SOL    HW134904   4.137   1.774  16.094  0.8154  2.1094  0.5863
 7815SOL    HW234905   4.181   1.819  15.957 -0.6493 -1.0296 -0.3682
 7816SOL     OW34906   3.064   0.306   3.736  0.1811 -0.3950  0.2376
 7816SOL    HW134907   3.002   0.374   3.709  0.3594 -0.2270  0.2550
 7816SOL    HW234908   3.043   0.296   3.829  0.4404  1.6277  0.5177
 7817SOL     OW34909   1.291   0.960   9.701 -0.4723 -0.1127  0.2570
 7817SOL    HW134910   1.262   0.872   9.676  0.0338  0.0142 -0.7810
 7817SOL    HW234911   1.361   0.969   9.637 -1.3072  0.7173 -0.5499
 7818SOL     OW34912   1.024   2.096  15.068  0.0979  0.0429  0.0261
 7818SOL    HW134913   1.108   2.105  15.024  0.5408 -0.8235  0.6928
 7818SOL    HW234914   0.998   2.187  15.086 -0.0095 -0.2986  1.6556
 7819SOL     OW34915   4.121   4.531   4.527  0.0888 -0.0644 -0.4732
 7819SOL    HW134916   4.144   4.613   4.484 -1.1323  0.8191  0.5445
 7819SOL    HW234917   4.073   4.562   4.605 -1.9107  0.5119 -1.9220
 7820SOL     OW34918   4.353   4.609   4.003 -0.3300  0.6629 -0.2507
 7820SOL    HW134919   4.396   4.618   4.088  1.3679 -1.2991 -0.9096
 7820SOL    HW234920   4.258   4.615   4.015  0.2160  1.9463  3.3652
 7821SOL     OW34921   0.798   3.761   8.454 -0.3102 -0.3437  0.0622
 7821SOL    HW134922   0.808   3.734   8.546 -0.9741 -1.5737 -0.2379
 7821SOL    HW234923   0.890   3.769   8.428  0.2425 -1.4814  1.6537
 7822SOL     OW34924   2.149   4.537   5.965 -1.0784 -0.2954 -0.1206
 7822SOL    HW134925   2.065   4.545   6.009 -2.6557 -2.7681 -2.6773
 7822SOL    HW234926   2.190   4.478   6.027 -1.1070  0.1289  0.3038
 7823SOL     OW34927   2.219   0.054   7.603 -0.1217  0.6973  0.0116
 7823SOL    HW134928   2.221   4.682   7.587 -1.7024  0.8959 -1.5061
 7823SOL    HW234929   2.145   0.077   7.546 -1.6197 -1.3888  1.1064
 7824SOL     OW34930   4.449   1.109   7.020  0.3134  0.2293 -0.0770
 7824SOL    HW134931   4.471   1.198   7.047 -1.6500  0.4016  0.9871
 7824SOL    HW234932   4.463   1.124   6.926  0.5713 -0.1455 -0.1001
 7825SOL     OW34933   2.796   4.412   4.740  0.0538  0.0815  0.4944
 7825SOL    HW134934   2.786   4.446   4.829  0.1504  0.6751  0.2739
 7825SOL    HW234935   2.871   4.462   4.709 -1.3227  1.5661 -0.4023
 7826SOL     OW34936   3.317   1.451   8.387  0.2507 -0.1229 -0.2605
 7826SOL    HW134937   3.407   1.426   8.367 -0.6264 -1.4315 -2.6349
 7826SOL    HW234938   3.296   1.403   8.467  1.1843 -0.2630 -0.0965
 7827SOL     OW34939   0.533   0.822   7.073 -0.0145 -0.6012 -0.3806
 7827SOL    HW134940   0.549   0.762   6.999 -0.8995  0.3541 -1.3403
 7827SOL    HW234941   0.603   0.884   7.052  1.2655 -1.5013  1.1928
 7828SOL     OW34942   0.679   4.289   9.205 -0.7035  0.4287  0.0257
 7828SOL    HW134943   0.649   4.338   9.129  1.9008  0.4595 -0.9789
 7828SOL    HW234944   0.706   4.367   9.253  2.6332 -0.4101 -0.5229
 7829SOL     OW34945   2.702   4.004   3.765  0.0049  0.6055 -0.0963
 7829SOL    HW134946   2.649   4.031   3.840 -0.0354  1.5107 -0.4505
 7829SOL    HW234947   2.699   3.910   3.783 -1.0860  0.7337  0.3396
 7830SOL     OW34948   1.905   0.158   2.202  0.2564 -0.8658  0.1224
 7830SOL    HW134949   1.848   0.202   2.139 -1.4805  0.7751  2.8522
 7830SOL    HW234950   1.841   0.113   2.257 -0.3580  0.5664  0.5772
 7831SOL     OW34951   4.261   3.859   2.244  0.7609 -0.0309  0.0423
 7831SOL    HW134952   4.341   3.868   2.296  0.8602 -1.9293  0.2327
 7831SOL    HW234953   4.302   3.863   2.157  1.3620 -1.5758  0.2449
 7832SOL     OW34954   0.658   1.718   5.574  0.2210  0.5797  0.3328
 7832SOL    HW134955   0.659   1.810   5.600 -0.8883  1.0679 -1.3568
 7832SOL    HW234956   0.699   1.669   5.646 -0.9484  0.7700  1.1447
 7833SOL     OW34957   4.538   2.441   2.623  0.7572 -0.6037 -0.6197
 7833SOL    HW134958   4.622   2.400   2.639  0.7296 -0.8209 -1.0324
 7833SOL    HW234959   4.555   2.534   2.640 -1.2335 -0.1454 -1.0828
 7834SOL     OW34960   2.712   0.279   7.972  0.4269  0.0794 -0.3746
 7834SOL    HW134961   2.673   0.327   7.899 -4.5279 -0.0525  2.1915
 7834SOL    HW234962   2.695   0.189   7.944  1.2522 -0.1355 -0.2022
 7835SOL     OW34963   3.202   3.058  15.019 -0.3307 -0.0617 -0.4280
 7835SOL    HW134964   3.127   3.042  14.961 -1.1640 -0.5410  0.7742
 7835SOL    HW234965   3.167   3.108  15.093  3.1957  0.3283  0.9596
 7836SOL     OW34966   1.552   2.437   8.800 -0.3393  0.1414 -0.2614
 7836SOL    HW134967   1.550   2.392   8.885 -0.9406  1.1972  0.2724
 7836SOL    HW234968   1.482   2.387   8.758  0.4388 -1.0517 -0.1640
 7837SOL     OW34969   3.251   2.540   7.488 -0.0834  0.5685 -0.1175
 7837SOL    HW134970   3.211   2.517   7.571 -1.1600  0.0882 -0.7701
 7837SOL    HW234971   3.198   2.616   7.465 -1.0249 -0.1308 -0.2499
 7838SOL     OW34972   4.329   0.281  16.753 -0.2628  0.5211  0.0333
 7838SOL    HW134973   4.276   0.360  16.750  1.4851  1.6595 -1.3432
 7838SOL    HW234974   4.265   0.213  16.773  0.9741 -0.3674  0.9744
 7839SOL     OW34975   0.200   0.362   5.300  0.1184 -0.7795  0.5086
 7839SOL    HW134976   0.169   0.430   5.360 -1.7902  0.2529 -1.6372
 7839SOL    HW234977   0.234   0.417   5.230  1.2398 -0.6477  1.1600
 7840SOL     OW34978   1.822   3.213   7.698  0.2545 -0.5643  0.0849
 7840SOL    HW134979   1.901   3.267   7.701 -1.2782  1.7764 -1.2979
 7840SOL    HW234980   1.821   3.174   7.785  2.9559 -1.4164 -0.2931
 7841SOL     OW34981   3.598   0.150  10.889 -0.2265  0.6653  0.6601
 7841SOL    HW134982   3.558   0.182  10.808  3.3429  0.4649 -1.1931
 7841SOL    HW234983   3.689   0.182  10.890  0.6710 -1.8933  1.5656
 7842SOL     OW34984   4.049   3.355  17.406 -0.0488 -0.2794 -0.4444
 7842SOL    HW134985   4.002   3.277  17.378 -1.2410 -0.1329  1.1206
 7842SOL    HW234986   4.103   3.383  17.332  3.0361  0.0297  1.9528
 7843SOL     OW34987   1.141   3.526   8.946 -0.1961 -0.6157  0.1275
 7843SOL    HW134988   1.126   3.517   9.040 -1.5490 -0.6465 -0.1014
 7843SOL    HW234989   1.236   3.537   8.951 -0.1513 -0.9515  0.0141
 7844SOL     OW34990   2.146   2.122  15.276  0.5288  0.5646 -0.0564
 7844SOL    HW134991   2.115   2.035  15.298  1.2982  0.7989  2.0068
 7844SOL    HW234992   2.180   2.154  15.360 -1.0928 -0.8991  1.1526
 7845SOL     OW34993   0.225   3.626   8.116  0.1817  0.0342 -0.2542
 7845SOL    HW134994   0.253   3.599   8.203  0.3226  1.2969  0.0904
 7845SOL    HW234995   0.132   3.602   8.112  0.5648 -1.2168 -1.6725
 7846SOL     OW34996   2.844   2.458  10.188 -0.3810  0.3320 -0.2565
 7846SOL    HW134997   2.806   2.437  10.103  0.1993  2.0611 -0.9463
 7846SOL    HW234998   2.781   2.499  10.248 -0.5259  2.1490 -1.6653
 7847SOL     OW34999   0.277   0.853   8.106 -0.0813 -0.0565 -0.5752
 7847SOL    HW135000   0.244   0.782   8.051  0.2798  1.3447 -2.5834
 7847SOL    HW235001   0.272   0.801   8.187 -0.7907  2.0059  0.7088
 7848SOL     OW35002   4.660   0.117   1.832  0.1590  0.5905 -0.1696
 7848SOL    HW135003   4.671   0.092   1.740  0.1612 -1.8418  0.5174
 7848SOL    HW235004   4.637   0.210   1.830  1.6263  0.9343 -0.8751
 7849SOL     OW35005   1.051   3.187   7.376  0.0366 -0.1058  0.4277
 7849SOL    HW135006   1.085   3.121   7.437  0.2238  0.9264  1.4363
 7849SOL    HW235007   1.033   3.129   7.303 -0.4281  2.1265 -1.2100
 7850SOL     OW35008   3.481   0.038   3.011  0.2638  0.4306  0.0018
 7850SOL    HW135009   3.517   0.072   2.929  2.1780 -1.8693 -0.1286
 7850SOL    HW235010   3.514   4.671   3.013  0.0670  0.3562 -0.1117
 7851SOL     OW35011   2.498   3.491   2.420 -0.1621 -0.5885 -0.0008
 7851SOL    HW135012   2.486   3.548   2.496  2.7124  0.9521 -0.7086
 7851SOL    HW235013   2.519   3.405   2.456  2.1677 -0.3848 -0.8974
 7852SOL     OW35014   0.240   1.818   8.699 -0.3263 -0.3214 -0.8651
 7852SOL    HW135015   0.149   1.802   8.673 -0.4912  1.0515 -1.1458
 7852SOL    HW235016   0.276   1.842   8.613  0.5595  2.9490  0.3966
 7853SOL     OW35017   1.646   2.254   8.351 -0.1579 -0.1253 -0.2432
 7853SOL    HW135018   1.568   2.202   8.367  0.0523 -1.0658 -2.2169
 7853SOL    HW235019   1.630   2.328   8.410 -0.3878  0.7297 -1.3646
 7854SOL     OW35020   3.698   0.062   4.545  1.1946  0.0220 -0.3834
 7854SOL    HW135021   3.685   4.719   4.614  0.3718  0.9213  0.3262
 7854SOL    HW235022   3.689   0.001   4.472  0.0620 -0.3804  0.0961
 7855SOL     OW35023   1.143   0.628  12.024  0.6134 -0.1194  0.4030
 7855SOL    HW135024   1.153   0.648  12.117  0.4084  1.6214  0.0440
 7855SOL    HW235025   1.124   0.535  12.034  0.9638 -0.5663 -3.2492
 7856SOL     OW35026   3.803   3.114   7.371  0.3587  0.2269  0.2003
 7856SOL    HW135027   3.879   3.162   7.403  0.9351 -0.8601  0.4538
 7856SOL    HW235028   3.841   3.045   7.317 -2.2631 -0.3702 -0.9034
 7857SOL     OW35029   2.932   2.302   2.865 -0.0644  0.5765  0.3926
 7857SOL    HW135030   2.914   2.228   2.808  0.8475  0.4782  0.2336
 7857SOL    HW235031   3.020   2.327   2.837 -0.6664  0.5650 -1.4950
 7858SOL     OW35032   2.214   2.212   8.779 -0.2324 -0.7116 -0.3814
 7858SOL    HW135033   2.268   2.229   8.702  0.5595 -2.8216 -0.2778
 7858SOL    HW235034   2.126   2.241   8.756  0.1358  0.4440 -0.3172
 7859SOL     OW35035   1.261   2.028   5.209 -0.5228  0.1640 -0.1497
 7859SOL    HW135036   1.322   2.100   5.226 -0.9129  0.7222 -1.0856
 7859SOL    HW235037   1.185   2.078   5.177 -1.0578 -0.6849 -0.2022
 7860SOL     OW35038   1.717   2.859   3.950  0.6868 -0.0020  0.2753
 7860SOL    HW135039   1.785   2.883   4.013  2.1771 -0.3874 -1.1737
 7860SOL    HW235040   1.653   2.826   4.012  0.4409 -2.1521 -1.1227
 7861SOL     OW35041   4.252   2.054   7.230 -0.1925  0.7792 -0.5519
 7861SOL    HW135042   4.231   2.001   7.307 -0.3873 -0.1347 -1.2420
 7861SOL    HW235043   4.310   2.003   7.173  0.7244 -0.3833  1.4154
 7862SOL     OW35044   4.637   3.179   7.395  0.1669 -0.5011  0.4776
 7862SOL    HW135045   4.666   3.217   7.478  0.0650 -0.2860  0.4145
 7862SOL    HW235046   4.690   3.238   7.342  1.1839 -0.2804  1.7300
 7863SOL     OW35047   3.044   0.527   4.052  0.5189  0.1604 -0.2540
 7863SOL    HW135048   2.962   0.527   4.004  0.0253 -0.8611  0.5847
 7863SOL    HW235049   3.054   0.432   4.060  0.3829  0.1872  0.2165
 7864SOL     OW35050   2.771   0.522   9.179 -0.2404 -0.0784 -0.5111
 7864SOL    HW135051   2.788   0.429   9.188  0.3389  0.1384  0.6467
 7864SOL    HW235052   2.712   0.537   9.254 -0.2340  0.5123 -0.6205
 7865SOL     OW35053   0.777   4.138   8.855  0.1328 -0.0299 -0.2268
 7865SOL    HW135054   0.799   4.224   8.820  0.0677  0.0804  0.0031
 7865SOL    HW235055   0.750   4.160   8.945  1.0860 -0.6068  0.2062
 7866SOL     OW35056   0.138   2.267   3.365 -0.3094 -0.0230 -0.4410
 7866SOL    HW135057   0.204   2.334   3.346  1.5336 -1.8876 -0.6468
 7866SOL    HW235058   0.077   2.321   3.416  0.5439  0.7381 -0.2046
 7867SOL     OW35059   1.482   2.503   5.750  0.2753 -0.0671 -0.3561
 7867SOL    HW135060   1.561   2.499   5.804 -1.2276 -0.9656  1.7740
 7867SOL    HW235061   1.459   2.410   5.755  0.1710  0.0135  0.6983
 7868SOL     OW35062   0.942   1.397   5.740  0.1904 -0.2179  0.7766
 7868SOL    HW135063   0.884   1.381   5.665  0.0170  0.2827  0.8004
 7868SOL    HW235064   0.934   1.311   5.781 -1.7309 -0.0619  0.7543
 7869SOL     OW35065   0.882   0.861   3.060 -0.2709 -0.2580 -1.0143
 7869SOL    HW135066   0.907   0.946   3.094  1.6849 -0.6966 -1.3501
 7869SOL    HW235067   0.902   0.888   2.971  1.2272 -2.1042 -1.2508
 7870SOL     OW35068   2.942   0.528   9.934 -0.0812 -0.4621 -0.1755
 7870SOL    HW135069   2.896   0.512   9.851  1.0808 -3.5511 -0.2094
 7870SOL    HW235070   2.879   0.479   9.986  0.3542  1.0460  1.7807
 7871SOL     OW35071   2.879   2.352  14.665  0.7007  0.3500  0.1268
 7871SOL    HW135072   2.941   2.306  14.722  0.4987  0.2648  0.2769
 7871SOL    HW235073   2.861   2.441  14.694 -0.0711 -0.2981  1.6154
 7872SOL     OW35074   4.000   0.185   5.946 -0.4154  0.3189 -0.0775
 7872SOL    HW135075   3.943   0.177   6.022  1.0065 -0.5936  0.8850
 7872SOL    HW235076   4.069   0.238   5.984  0.5178 -0.5069 -0.6235
 7873SOL     OW35077   0.405   1.544   6.996  0.4078  0.4474 -0.5970
 7873SOL    HW135078   0.359   1.617   6.954 -0.3638  0.0505 -0.4421
 7873SOL    HW235079   0.484   1.543   6.941  0.1861  1.8590 -0.9464
 7874SOL     OW35080   4.543   2.234  15.670 -0.0168 -0.4533 -0.4741
 7874SOL    HW135081   4.583   2.213  15.754  0.1176  0.7646 -0.2233
 7874SOL    HW235082   4.568   2.163  15.611 -0.5051  0.5655 -1.9101
 7875SOL     OW35083   3.131   1.994   8.432  0.2457  0.0788  0.0543
 7875SOL    HW135084   3.128   1.898   8.433  0.9205  0.0726  1.3461
 7875SOL    HW235085   3.224   2.010   8.414  0.6276 -0.8147  1.1584
 7876SOL     OW35086   0.825   3.321   5.702  0.4116  0.1700  0.1419
 7876SOL    HW135087   0.903   3.351   5.655  0.5492 -0.0600  0.2168
 7876SOL    HW235088   0.862   3.297   5.787 -1.3600 -4.5819 -0.3918
 7877SOL     OW35089   3.918   4.685   7.034  0.0152  0.8426 -0.1268
 7877SOL    HW135090   4.008   4.691   7.066 -0.3079 -0.2050  0.9442
 7877SOL    HW235091   3.924   4.710   6.942 -0.3404 -4.5154 -1.5560
 7878SOL     OW35092   2.978   0.065  12.220  0.2341 -0.2029  0.5584
 7878SOL    HW135093   3.055   0.044  12.167 -0.3240 -1.1107  0.1115
 7878SOL    HW235094   3.019   0.042  12.303  0.4691 -2.8103 -0.2862
 7879SOL     OW35095   3.830   3.344   2.462  0.1465  0.1032 -0.0316
 7879SOL    HW135096   3.805   3.387   2.381  0.0419  1.7430  0.8611
 7879SOL    HW235097   3.913   3.387   2.485 -0.9082  3.7272 -3.2356
 7880SOL     OW35098   3.677   1.002  10.285  0.1505  0.9569 -0.2665
 7880SOL    HW135099   3.596   1.053  10.294 -1.2973 -1.6262  1.3552
 7880SOL    HW235100   3.648   0.927  10.337 -2.2226  1.7577 -0.3825
 7881SOL     OW35101   2.208   3.622   3.744 -0.5126  0.3392  0.5777
 7881SOL    HW135102   2.280   3.561   3.735 -0.2669  0.5807  0.9260
 7881SOL    HW235103   2.215   3.644   3.837 -2.7583  3.0035  0.1330
 7882SOL     OW35104   3.808   0.512   4.585 -0.0081  0.0091  0.2947
 7882SOL    HW135105   3.861   0.434   4.601  1.2762  0.8662  0.1919
 7882SOL    HW235106   3.729   0.488   4.634 -0.0698 -2.6205 -1.0683
 7883SOL     OW35107   1.530   1.043   9.558  0.4486  0.2820  0.1800
 7883SOL    HW135108   1.553   1.136   9.549  2.5219 -0.4063 -1.6316
 7883SOL    HW235109   1.511   1.012   9.470  1.9315  0.9307 -0.3706
 7884SOL     OW35110   1.248   4.360   1.839 -0.2445 -0.2616 -0.1960
 7884SOL    HW135111   1.174   4.306   1.812 -1.3857  1.1893  0.0224
 7884SOL    HW235112   1.284   4.299   1.903  1.1162  1.4673  0.7107
 7885SOL     OW35113   0.207   0.127   9.807  0.7217 -0.7609  0.3266
 7885SOL    HW135114   0.280   0.188   9.817 -1.2599  1.3581  1.9561
 7885SOL    HW235115   0.159   0.156   9.730  0.2931 -0.5545  0.6651
 7886SOL     OW35116   0.083   2.605  12.605  0.7751  0.0359  0.7649
 7886SOL    HW135117   4.722   2.559  12.601 -0.3600  2.2357 -0.5964
 7886SOL    HW235118   0.126   2.559  12.677  3.3422 -0.3664 -1.0085
 7887SOL     OW35119   1.497   0.557   6.320 -0.2017 -0.6590  0.0071
 7887SOL    HW135120   1.552   0.483   6.297  0.0474 -0.8334  1.1817
 7887SOL    HW235121   1.494   0.558   6.416 -2.1109  0.7994 -0.0713
 7888SOL     OW35122   3.510   2.751  16.015 -0.3582  0.2782  0.2205
 7888SOL    HW135123   3.513   2.785  16.104 -2.8697  1.9254 -0.3443
 7888SOL    HW235124   3.453   2.675  16.023 -1.3155  1.3566  3.5037
 7889SOL     OW35125   0.605   1.376   8.376 -0.1771 -0.0638 -0.0436
 7889SOL    HW135126   0.601   1.470   8.392  0.6893 -0.0954  0.3070
 7889SOL    HW235127   0.584   1.321   8.451 -0.0939 -2.4470 -1.7458
 7890SOL     OW35128   1.146   1.673  11.962 -0.3586 -0.0201 -0.1634
 7890SOL    HW135129   1.059   1.689  12.000 -0.1108  0.5519  0.1736
 7890SOL    HW235130   1.204   1.705  12.031  1.3843 -0.0612 -1.6190
 7891SOL     OW35131   2.060   3.361   4.531  0.1429  0.7290  0.3967
 7891SOL    HW135132   2.027   3.304   4.600  0.1271  0.8905  0.5249
 7891SOL    HW235133   1.989   3.350   4.467 -0.6150  2.6960  0.9016
 7892SOL     OW35134   3.649   2.050   2.173 -0.4131 -0.5021  0.3183
 7892SOL    HW135135   3.685   2.051   2.261  0.8714 -1.3745 -0.2014
 7892SOL    HW235136   3.595   2.127   2.158  0.5965  0.1928  0.2972
 7893SOL     OW35137   1.450   2.548   5.311 -0.3436 -0.1391  0.4805
 7893SOL    HW135138   1.504   2.533   5.389 -0.4598  1.1314  0.8183
 7893SOL    HW235139   1.390   2.474   5.315 -0.1051 -0.3119  0.8456
 7894SOL     OW35140   0.821   2.959   2.902  0.0850 -0.1465  0.0841
 7894SOL    HW135141   0.767   2.926   2.831  1.3675 -0.6637 -0.6435
 7894SOL    HW235142   0.876   3.016   2.849  0.7301  0.6592  1.6050
 7895SOL     OW35143   4.003   1.317   6.889 -0.8402  0.3523 -0.0855
 7895SOL    HW135144   3.996   1.229   6.853  2.4924 -0.3518  1.0145
 7895SOL    HW235145   4.007   1.384   6.820 -1.5965  1.0648  0.5481
 7896SOL     OW35146   1.100   3.297   3.283  0.5370 -0.3366 -0.2057
 7896SOL    HW135147   1.036   3.356   3.243 -0.2375 -1.2141 -0.2652
 7896SOL    HW235148   1.126   3.353   3.356 -2.1647 -0.1084  0.5736
 7897SOL     OW35149   4.592   2.477  15.420 -0.1866 -0.1768  0.4954
 7897SOL    HW135150   4.589   2.451  15.328 -0.0349  2.8374 -0.3780
 7897SOL    HW235151   4.507   2.451  15.455  0.1913 -2.6663 -0.4896
 7898SOL     OW35152   3.754   2.288   6.100 -0.0185  0.0165  0.0887
 7898SOL    HW135153   3.690   2.222   6.130  0.3556 -0.3715  0.0384
 7898SOL    HW235154   3.816   2.229   6.058  2.1025  1.0037  1.8116
 7899SOL     OW35155   0.506   3.408  11.028 -0.0914  0.2903 -0.0119
 7899SOL    HW135156   0.438   3.471  11.006  0.5266  1.4768  1.5142
 7899SOL    HW235157   0.458   3.332  10.995 -0.0124 -0.1427  0.8821
 7900SOL     OW35158   2.671   1.620   3.630 -0.1326 -0.0599 -0.2434
 7900SOL    HW135159   2.742   1.678   3.604  1.6174 -1.1185  2.2225
 7900SOL    HW235160   2.637   1.670   3.704  3.0003  0.6661  0.6994
 7901SOL     OW35161   3.215   3.244  16.700 -0.4168 -0.1155  0.5111
 7901SOL    HW135162   3.271   3.198  16.762  0.4422 -1.3649 -1.1846
 7901SOL    HW235163   3.134   3.240  16.752  0.3987 -0.9798  1.7292
 7902SOL     OW35164   0.263   2.889   8.519  0.1533 -0.0276  0.1697
 7902SOL    HW135165   0.290   2.817   8.462  3.6155  1.3200  0.0897
 7902SOL    HW235166   0.293   2.856   8.604 -1.4048  1.4713  1.2906
 7903SOL     OW35167   0.175   3.379  14.976 -0.3730 -0.0549 -0.5438
 7903SOL    HW135168   0.146   3.347  15.061  2.5355  1.0446  0.8616
 7903SOL    HW235169   0.246   3.319  14.952 -0.7629  0.1823 -2.2897
 7904SOL     OW35170   2.971   3.473   5.767  0.0118  0.8018  0.3298
 7904SOL    HW135171   2.898   3.535   5.777  0.1393  1.1344 -0.8485
 7904SOL    HW235172   2.923   3.398   5.732 -0.3976  1.1940  0.0438
 7905SOL     OW35173   0.065   4.262   4.371  1.0676  0.5361  0.6909
 7905SOL    HW135174   0.056   4.255   4.466 -0.7068 -0.6955  0.4216
 7905SOL    HW235175   0.156   4.283   4.352  1.1563  0.1724  0.7244
 7906SOL     OW35176   0.287   3.363   7.699 -0.3144  0.3751 -0.0546
 7906SOL    HW135177   0.255   3.282   7.739 -1.9107  0.6866 -0.7172
 7906SOL    HW235178   0.306   3.410   7.780 -1.0701 -2.4930  1.7589
 7907SOL     OW35179   3.656   4.001  11.567 -0.2304 -0.5760  0.1263
 7907SOL    HW135180   3.601   4.016  11.645  2.2810 -0.8802  1.9503
 7907SOL    HW235181   3.682   4.087  11.534  0.9384 -1.0891 -0.2862
 7908SOL     OW35182   3.953   2.298   4.667 -0.1009  0.3127  0.2865
 7908SOL    HW135183   3.916   2.214   4.640 -2.6298  1.8880 -1.2525
 7908SOL    HW235184   3.982   2.327   4.580  0.8238 -1.1041  0.1374
 7909SOL     OW35185   0.880   0.736   7.101  0.5488  0.5503 -0.0069
 7909SOL    HW135186   0.865   0.708   7.191 -1.0654 -1.0878 -0.7996
 7909SOL    HW235187   0.901   0.654   7.058 -1.0339 -0.6828  1.5948
 7910SOL     OW35188   3.032   0.227   5.953 -0.5951 -0.5415  0.0116
 7910SOL    HW135189   3.021   0.172   5.875  0.2765 -2.8055  1.4939
 7910SOL    HW235190   2.942   0.223   5.985  0.1844 -5.0817  1.5776
 7911SOL     OW35191   0.912   1.329   2.989  0.1188  1.0191  0.3740
 7911SOL    HW135192   0.993   1.328   2.938 -0.8874  0.2718 -1.1973
 7911SOL    HW235193   0.848   1.280   2.937  0.2607  1.1616  0.0685
 7912SOL     OW35194   3.155   0.780   2.504  0.3146  0.0539  0.0258
 7912SOL    HW135195   3.207   0.774   2.424  3.9044 -1.0422  2.4273
 7912SOL    HW235196   3.124   0.689   2.510  0.9893 -0.2793 -1.7723
 7913SOL     OW35197   1.416   3.974   9.710  0.5171  0.1828  0.0820
 7913SOL    HW135198   1.406   4.035   9.783  2.7872  0.3426  0.2653
 7913SOL    HW235199   1.348   4.009   9.653 -0.1366  0.7691  1.2188
 7914SOL     OW35200   4.403   3.050   7.314  0.2792  0.2005 -0.0592
 7914SOL    HW135201   4.392   3.117   7.382 -0.8792  0.8655 -0.8856
 7914SOL    HW235202   4.498   3.043   7.314  0.1386 -1.6216 -1.4562
 7915SOL     OW35203   3.114   1.317   3.194  0.8440  0.4248 -0.0357
 7915SOL    HW135204   3.027   1.332   3.156 -0.2468  0.3195  2.4352
 7915SOL    HW235205   3.171   1.300   3.119 -0.9220 -0.4834 -1.1722
 7916SOL     OW35206   0.957   0.126   3.380  0.1689 -0.3815 -0.0991
 7916SOL    HW135207   0.943   0.199   3.320 -0.4928  0.0394  0.5626
 7916SOL    HW235208   0.918   0.154   3.462 -0.9530 -4.3293  0.7342
 7917SOL     OW35209   1.119   4.387  11.826 -0.5963 -0.7807 -0.1632
 7917SOL    HW135210   1.059   4.417  11.895  0.4796  1.6595 -0.2604
 7917SOL    HW235211   1.057   4.383  11.754 -1.1000 -2.2190  0.3569
 7918SOL     OW35212   3.557   1.250   0.661  0.0689 -0.2999  0.2053
 7918SOL    HW135213   3.614   1.179   0.631  1.1207 -0.0709  1.6584
 7918SOL    HW235214   3.611   1.281   0.734 -0.3697 -0.7719  0.7262
 7919SOL     OW35215   0.562   4.075  15.627  0.1513  0.2292 -0.3170
 7919SOL    HW135216   0.581   4.169  15.627  0.9986  0.0675 -2.0466
 7919SOL    HW235217   0.495   4.066  15.559 -0.5351  1.1036  0.2449
 7920SOL     OW35218   1.435   1.101   5.124 -0.1764 -0.1158  0.7562
 7920SOL    HW135219   1.511   1.069   5.172  0.6171 -1.5021 -1.4489
 7920SOL    HW235220   1.441   1.040   5.051 -1.2136  0.0427  0.5385
 7921SOL     OW35221   1.149   3.306   2.891  0.3873  0.0581 -0.3863
 7921SOL    HW135222   1.086   3.371   2.924 -1.5429 -1.2162 -1.5523
 7921SOL    HW235223   1.085   3.244   2.856  0.2401 -0.3185  0.5344
 7922SOL     OW35224   4.030   1.940   1.771  0.3199 -0.9462  0.1269
 7922SOL    HW135225   4.111   1.909   1.731  1.6172 -1.0477  2.7784
 7922SOL    HW235226   4.055   2.027   1.803  1.3191 -1.1940  0.0407
 7923SOL     OW35227   4.568   2.132  15.237  0.1655  0.0938 -0.2485
 7923SOL    HW135228   4.650   2.126  15.286 -0.4118 -0.4625  0.6588
 7923SOL    HW235229   4.570   2.227  15.236 -0.7672  0.1089 -0.7168
 7924SOL     OW35230   3.507   2.166   4.772  0.3861 -0.3744  0.1069
 7924SOL    HW135231   3.504   2.081   4.815 -0.0632  0.7050  2.1745
 7924SOL    HW235232   3.429   2.207   4.809  0.8039  0.9301 -0.4393
 7925SOL     OW35233   4.366   3.105   0.017  0.3205 -0.4422  0.2764
 7925SOL    HW135234   4.394   3.030   0.069  0.8584 -0.5372 -0.1501
 7925SOL    HW235235   4.427   3.179   0.014  0.3525 -0.4818 -0.0435
 7926SOL     OW35236   4.695   0.305   8.716 -0.0044 -0.1399  0.0256
 7926SOL    HW135237   4.603   0.325   8.701 -0.1806  1.4228  3.2668
 7926SOL    HW235238   4.694   0.301   8.812  1.7130 -2.7346 -0.0655
 7927SOL     OW35239   3.092   4.183   9.210  0.2147 -0.0294 -0.7789
 7927SOL    HW135240   3.101   4.128   9.132  1.0761  0.6761 -1.1836
 7927SOL    HW235241   3.159   4.142   9.265  0.9255  1.1922 -0.7361
 7928SOL     OW35242   2.753   3.636   2.611  0.3165 -0.5754 -0.1642
 7928SOL    HW135243   2.659   3.647   2.594  0.8028 -0.8622 -2.9369
 7928SOL    HW235244   2.784   3.712   2.562 -2.4517  1.3848  1.0969
 7929SOL     OW35245   2.005   3.401   5.512  0.6689 -0.5961  0.0857
 7929SOL    HW135246   1.938   3.469   5.510  2.0666  0.6993 -2.0786
 7929SOL    HW235247   2.057   3.418   5.434  0.3712  3.2377  0.7240
 7930SOL     OW35248   1.446   4.354  15.881  1.1006 -0.2361  0.4624
 7930SOL    HW135249   1.417   4.263  15.874 -2.6985  1.1323 -1.3198
 7930SOL    HW235250   1.439   4.369  15.976 -2.3268 -3.1515  0.6577
 7931SOL     OW35251   4.107   4.587   0.894  0.3687 -0.1626  0.4980
 7931SOL    HW135252   4.123   4.558   0.984  1.1495 -1.1490  0.0390
 7931SOL    HW235253   4.163   4.531   0.842  0.2250  0.8755 -0.7779
 7932SOL     OW35254   1.272   2.189   4.342  0.2399 -0.1788  0.1359
 7932SOL    HW135255   1.272   2.244   4.421 -0.0562  2.0978 -1.4427
 7932SOL    HW235256   1.184   2.150   4.344 -0.1520  0.7195  0.5373
 7933SOL     OW35257   3.714   3.541   7.552  0.2891 -0.2504 -0.1784
 7933SOL    HW135258   3.681   3.502   7.633 -2.5419 -0.7250 -1.5685
 7933SOL    HW235259   3.735   3.630   7.577  0.7596 -1.1162  2.5296
 7934SOL     OW35260   1.966   3.913   2.067  0.4678  0.1999  0.3291
 7934SOL    HW135261   2.023   3.988   2.051 -2.5724  2.2773 -0.7740
 7934SOL    HW235262   2.035   3.852   2.094 -0.7060 -1.6474 -0.8046
 7935SOL     OW35263   1.621   3.706   3.523 -0.2058 -0.1275  0.1705
 7935SOL    HW135264   1.532   3.742   3.517 -0.2823 -0.2095  0.7432
 7935SOL    HW235265   1.665   3.790   3.513 -0.1825 -0.3259 -1.4167
 7936SOL     OW35266   3.417   3.383   7.195 -0.2585  0.2242 -0.4072
 7936SOL    HW135267   3.499   3.382   7.245 -0.4074 -2.6819 -0.2243
 7936SOL    HW235268   3.359   3.427   7.256  0.6957  0.8106  0.0861
 7937SOL     OW35269   3.576   2.818  17.124  0.2561  0.3561 -0.3548
 7937SOL    HW135270   3.641   2.758  17.088 -0.2390  1.2497 -2.7089
 7937SOL    HW235271   3.497   2.782  17.082  0.8468  0.7069 -1.7619
 7938SOL     OW35272   0.376   0.126   4.861  0.7694  0.2489 -0.2883
 7938SOL    HW135273   0.318   0.148   4.934  0.9964 -1.3097  0.3579
 7938SOL    HW235274   0.461   0.149   4.897  0.0468 -0.1413  1.7333
 7939SOL     OW35275   0.288   1.949  11.739 -0.6871  0.7225 -0.2516
 7939SOL    HW135276   0.320   2.011  11.805  0.9579 -0.4028  0.0258
 7939SOL    HW235277   0.325   1.995  11.664 -0.6930  1.8749  0.4653
 7940SOL     OW35278   2.551   3.598   4.834  0.3958 -0.5770 -0.0862
 7940SOL    HW135279   2.578   3.565   4.920  0.3084 -2.0476 -0.6327
 7940SOL    HW235280   2.457   3.601   4.851  0.2410 -1.5355 -0.7801
 7941SOL     OW35281   3.326   1.561  10.138  0.5973 -0.0691 -0.4118
 7941SOL    HW135282   3.341   1.644  10.094  2.8211 -0.8547 -1.1748
 7941SOL    HW235283   3.415   1.524  10.138  0.5723 -0.1218 -1.5529
 7942SOL     OW35284   2.324   0.128  12.668 -0.1269  0.6487 -0.4403
 7942SOL    HW135285   2.339   0.084  12.751 -2.2575  0.1640 -0.2985
 7942SOL    HW235286   2.353   0.218  12.683 -1.6710  1.6287 -3.2859
 7943SOL     OW35287   1.812   0.784   7.663 -0.1821  0.2565 -0.0042
 7943SOL    HW135288   1.855   0.736   7.733 -0.9912 -1.0267 -0.3919
 7943SOL    HW235289   1.767   0.852   7.714  1.5053  0.3362  1.3529
 7944SOL     OW35290   4.684   4.591   8.261  0.0898 -0.7185  0.4311
 7944SOL    HW135291   0.019   4.603   8.336  0.9417  0.4956 -0.4190
 7944SOL    HW235292   4.599   4.623   8.293 -0.3656 -1.1282 -0.3393
 7945SOL     OW35293   0.969   0.954   2.802 -0.4292  0.3405  0.2379
 7945SOL    HW135294   1.026   1.010   2.750 -1.6177 -0.7804 -2.2529
 7945SOL    HW235295   0.970   0.869   2.759 -0.4045  0.4945 -0.0641
 7946SOL     OW35296   4.180   1.312  10.117  0.3191  0.0043 -0.6657
 7946SOL    HW135297   4.232   1.363  10.179  0.6961 -1.3630  0.1544
 7946SOL    HW235298   4.164   1.371  10.044 -1.8862 -1.9816 -1.7704
 7947SOL     OW35299   0.788   2.771   3.413  0.0632 -0.6109  0.1984
 7947SOL    HW135300   0.694   2.779   3.425  0.3682  0.4737  1.8884
 7947SOL    HW235301   0.801   2.682   3.445  0.7180 -0.4812  0.2976
 7948SOL     OW35302   4.374   1.538   5.077  0.1058 -0.2320 -0.4394
 7948SOL    HW135303   4.313   1.586   5.021  0.6946 -2.0263 -2.6464
 7948SOL    HW235304   4.446   1.532   5.015  1.8057  0.3967  1.4951
 7949SOL     OW35305   4.141   3.435   5.830  0.4713  0.6072  0.3853
 7949SOL    HW135306   4.217   3.419   5.887  2.3817  0.3892 -2.2192
 7949SOL    HW235307   4.110   3.348   5.803  3.5832 -0.0313 -1.1798
 7950SOL     OW35308   2.207   3.745   2.384  0.0204 -0.1646 -0.2893
 7950SOL    HW135309   2.242   3.768   2.471  0.2705  0.8713 -0.6582
 7950SOL    HW235310   2.168   3.826   2.351  3.1125  0.7144 -1.7957
 7951SOL     OW35311   3.757   0.981  12.686  0.2608  0.4466  0.0647
 7951SOL    HW135312   3.810   1.018  12.616  0.9739  2.1867  1.5191
 7951SOL    HW235313   3.801   0.896  12.690  3.1211  1.9094  0.1372
 7952SOL     OW35314   2.691   0.490   3.428  0.0188  0.1773  0.1267
 7952SOL    HW135315   2.664   0.497   3.337  2.8375 -1.7691 -0.8595
 7952SOL    HW235316   2.700   0.395   3.443  0.2245  0.2384  0.3939
 7953SOL     OW35317   3.797   1.088  13.513  0.1287  0.0352 -0.4876
 7953SOL    HW135318   3.893   1.089  13.520  0.1099  1.4270 -0.4888
 7953SOL    HW235319   3.764   1.049  13.594  1.9061 -0.2150  0.1075
 7954SOL     OW35320   1.197   4.432   7.900 -0.0857 -0.4098  0.4580
 7954SOL    HW135321   1.207   4.502   7.835 -0.9764 -0.9918 -0.2932
 7954SOL    HW235322   1.110   4.409   7.869  0.4777 -1.6224 -0.2138
 7955SOL     OW35323   0.957   0.600   3.131 -0.0042  0.1131 -0.3571
 7955SOL    HW135324   1.051   0.604   3.113  0.0367  0.4788 -0.0579
 7955SOL    HW235325   0.926   0.684   3.096  0.4357  0.4466  0.0598
 7956SOL     OW35326   0.870   0.911   7.703  0.1746  0.0883 -0.0517
 7956SOL    HW135327   0.883   0.986   7.645  2.0989 -0.1036  0.1447
 7956SOL    HW235328   0.788   0.938   7.745  0.6748  2.0070 -0.2973
 7957SOL     OW35329   4.493   4.654   1.523  0.7322  0.3773  0.1995
 7957SOL    HW135330   4.507   4.571   1.569 -1.4310  0.1775  0.5422
 7957SOL    HW235331   4.578   4.695   1.513  0.9927 -0.4247 -0.9507
 7958SOL     OW35332   3.517   4.238  16.599  0.1902 -0.0220  0.7591
 7958SOL    HW135333   3.502   4.244  16.505 -0.8886 -0.3049  0.9008
 7958SOL    HW235334   3.430   4.262  16.633 -0.2785 -1.2730  0.4552
 7959SOL     OW35335   2.852   2.730   4.455 -0.2161  0.0725  0.3471
 7959SOL    HW135336   2.812   2.684   4.529  1.5035 -0.6099  0.8318
 7959SOL    HW235337   2.852   2.821   4.483 -1.6960  0.9966 -2.5683
 7960SOL     OW35338   3.149   2.272   2.550 -0.3869  0.8513 -0.1682
 7960SOL    HW135339   3.125   2.194   2.500  0.0878  1.0723 -0.7471
 7960SOL    HW235340   3.067   2.322   2.542  1.0700  3.1226 -0.7893
 7961SOL     OW35341   0.010   2.070  13.585 -0.3835 -0.6089  0.0988
 7961SOL    HW135342   4.672   2.010  13.541 -2.7315 -0.5199  3.1899
 7961SOL    HW235343   0.063   2.093  13.509 -0.3839  0.5490  0.4481
 7962SOL     OW35344   0.447   3.100   8.496  0.0950 -0.1267 -0.4920
 7962SOL    HW135345   0.385   3.163   8.458 -0.2514  0.9808  1.8863
 7962SOL    HW235346   0.382   3.034   8.519 -0.6960  0.3154 -1.4385
 7963SOL     OW35347   2.210   3.458   3.083 -0.7691  0.0760 -0.1518
 7963SOL    HW135348   2.173   3.537   3.121 -2.8158 -0.7227 -0.4654
 7963SOL    HW235349   2.272   3.500   3.024 -0.8108 -0.7635 -0.7947
 7964SOL     OW35350   1.989   4.628   1.964 -0.1609  0.1173 -0.5760
 7964SOL    HW135351   1.960   4.593   2.048 -1.1156  0.5942 -0.7138
 7964SOL    HW235352   1.910   4.622   1.911 -0.1681  2.1248 -0.7741
 7965SOL     OW35353   0.306   0.984  16.967  0.0697  0.1434 -0.0517
 7965SOL    HW135354   0.261   1.068  16.975 -1.7090 -0.8396  0.1651
 7965SOL    HW235355   0.229   0.928  16.967  0.5418 -0.5139 -0.4689
 7966SOL     OW35356   4.146   1.692   4.944  0.2181  0.3550  0.0637
 7966SOL    HW135357   4.090   1.643   5.005  2.2878 -2.6607 -0.4783
 7966SOL    HW235358   4.083   1.744   4.894  0.0980  1.0636  0.9557
 7967SOL     OW35359   0.533   3.735  16.299 -0.9882  0.6004  0.0117
 7967SOL    HW135360   0.599   3.799  16.273 -2.0368  1.3822 -0.7050
 7967SOL    HW235361   0.506   3.702  16.213 -2.4126 -0.3949  0.8340
 7968SOL     OW35362   2.084   2.127   9.192 -0.2298  0.2734 -0.2991
 7968SOL    HW135363   2.059   2.107   9.282  2.5989  0.5521  0.5523
 7968SOL    HW235364   2.091   2.038   9.159  1.4162  0.6578 -1.0098
 7969SOL     OW35365   2.844   2.059   1.861 -0.1324 -0.2473  0.3624
 7969SOL    HW135366   2.805   1.973   1.877  1.1176 -0.2420  3.4492
 7969SOL    HW235367   2.762   2.107   1.862  0.7565  1.2411  1.5818
 7970SOL     OW35368   2.318   4.401  14.296  0.0073  0.0159 -0.3169
 7970SOL    HW135369   2.266   4.433  14.370 -0.9121  0.7157 -1.2575
 7970SOL    HW235370   2.345   4.489  14.268 -1.1699  0.2035 -0.8812
 7971SOL     OW35371   2.536   3.390  11.539 -0.3749 -0.1346 -0.2306
 7971SOL    HW135372   2.570   3.364  11.454 -1.9155 -1.5810 -0.3807
 7971SOL    HW235373   2.491   3.308  11.555 -0.1728 -0.4149 -1.1324
 7972SOL     OW35374   3.459   4.271   5.590  0.6310 -0.2298  0.5013
 7972SOL    HW135375   3.393   4.204   5.606  0.1209  0.1256 -0.0662
 7972SOL    HW235376   3.429   4.302   5.504  1.1490 -3.7863 -0.9586
 7973SOL     OW35377   4.256   0.305   2.826  0.4744  0.1504 -0.0242
 7973SOL    HW135378   4.247   0.321   2.732  2.4199  0.8638 -0.0729
 7973SOL    HW235379   4.335   0.251   2.830  0.1759 -0.2977 -0.0890
 7974SOL     OW35380   1.139   1.851   7.889 -1.2460  0.2058  0.3913
 7974SOL    HW135381   1.186   1.786   7.943 -0.4827  1.3525  1.1001
 7974SOL    HW235382   1.138   1.811   7.802  0.3890  1.1840 -0.0644
 7975SOL     OW35383   0.284   2.894   3.646  0.0264  0.0152  0.1390
 7975SOL    HW135384   0.281   2.902   3.742 -1.9973 -2.6525  0.3204
 7975SOL    HW235385   0.290   2.989   3.638  0.6979 -0.2268 -2.2167
 7976SOL     OW35386   4.136   4.176   1.696  0.0292  0.1977 -0.2208
 7976SOL    HW135387   4.232   4.176   1.698  0.0097 -0.2700  0.5028
 7976SOL    HW235388   4.114   4.104   1.755 -4.6596  0.4804 -1.6042
 7977SOL     OW35389   1.935   0.825  13.704  0.0130 -0.5754  0.0719
 7977SOL    HW135390   1.902   0.735  13.709 -3.3569  0.4876 -3.1797
 7977SOL    HW235391   2.015   0.817  13.756  0.3920 -0.1126 -0.4467
 7978SOL     OW35392   0.989   4.359   4.095 -0.1474  0.2867  0.3735
 7978SOL    HW135393   0.919   4.307   4.057 -1.6542  1.1691  1.9488
 7978SOL    HW235394   0.947   4.433   4.138 -0.6178  1.6107 -2.3839
 7979SOL     OW35395   4.564   1.450   3.906  0.2706  0.5935 -0.8486
 7979SOL    HW135396   4.617   1.441   3.826  1.3275 -4.5374  0.4431
 7979SOL    HW235397   4.619   1.516   3.948 -0.7370  1.0369 -0.2229
 7980SOL     OW35398   2.661   3.062   5.462  0.2820 -0.2971 -0.0569
 7980SOL    HW135399   2.621   3.068   5.375 -2.0554  1.2742  1.1591
 7980SOL    HW235400   2.585   3.093   5.510  0.6299  0.3117  0.0893
 7981SOL     OW35401   0.840   1.216   7.847 -0.1214 -0.4851  0.1183
 7981SOL    HW135402   0.800   1.281   7.789 -0.2378  0.4957  1.3113
 7981SOL    HW235403   0.934   1.231   7.846  0.0296 -1.4791 -0.2162
 7982SOL     OW35404   2.042   3.760  16.455 -0.0227 -0.3026 -0.6026
 7982SOL    HW135405   2.005   3.799  16.375  0.0228  0.1435 -0.4089
 7982SOL    HW235406   1.986   3.794  16.524 -1.1509 -0.8598 -1.2485
 7983SOL     OW35407   3.835   3.952  11.018  0.8322 -0.4167  0.5868
 7983SOL    HW135408   3.783   4.020  10.975  0.5481 -1.4157 -0.6376
 7983SOL    HW235409   3.837   3.989  11.107 -1.7043  2.0970 -0.4062
 7984SOL     OW35410   4.340   3.745   3.615  0.1557  0.1151  0.0212
 7984SOL    HW135411   4.280   3.818   3.631 -0.6759  0.1462 -3.4145
 7984SOL    HW235412   4.286   3.678   3.656  2.4257 -0.5382  1.9873
 7985SOL     OW35413   0.196   1.573   0.663  0.1094 -0.7320  0.0035
 7985SOL    HW135414   0.140   1.497   0.682 -0.8301 -0.4534 -1.5789
 7985SOL    HW235415   0.273   1.531   0.625  0.8161  0.7603 -0.1853
 7986SOL     OW35416   0.152   2.603   7.176 -0.5344 -0.1036 -0.2467
 7986SOL    HW135417   0.144   2.677   7.115  0.4827  1.0047  0.9735
 7986SOL    HW235418   0.092   2.541   7.135  0.6567 -2.7356  2.0033
 7987SOL     OW35419   3.626   4.276   6.715 -0.3475 -0.3009  0.3003
 7987SOL    HW135420   3.656   4.238   6.632  0.9988 -1.4164  1.2941
 7987SOL    HW235421   3.535   4.247   6.716 -0.1225 -0.9941  1.3285
 7988SOL     OW35422   1.169   4.143   4.145  0.0092 -0.1864 -0.9933
 7988SOL    HW135423   1.125   4.108   4.222  1.6009 -0.9496 -0.4266
 7988SOL    HW235424   1.107   4.199   4.098  0.4543 -0.1483 -1.5500
 7989SOL     OW35425   0.309   0.866   1.913  0.2194  0.3494 -0.2125
 7989SOL    HW135426   0.267   0.817   1.843  1.6771 -0.1569 -0.7269
 7989SOL    HW235427   0.390   0.885   1.865  1.0807 -0.2517  0.9866
 7990SOL     OW35428   4.507   2.799  15.462  0.6060  0.5986 -0.4862
 7990SOL    HW135429   4.434   2.748  15.497 -0.9602  2.3811 -1.1403
 7990SOL    HW235430   4.499   2.876  15.518  1.3161  2.7442 -3.3287
 7991SOL     OW35431   3.028   3.729   5.986  0.1407 -0.1069 -0.0815
 7991SOL    HW135432   3.115   3.696   5.961  0.4825 -0.2776  1.3327
 7991SOL    HW235433   2.971   3.693   5.918 -1.8070  0.7029  1.1489
 7992SOL     OW35434   4.464   2.450   3.313 -0.3560 -0.4367 -0.3412
 7992SOL    HW135435   4.388   2.469   3.257  0.8377  0.3970 -1.6653
 7992SOL    HW235436   4.417   2.479   3.391 -0.7669  2.2735 -1.5907
 7993SOL     OW35437   2.175   2.616   2.925  0.2363 -0.0773  0.3533
 7993SOL    HW135438   2.169   2.622   2.829 -0.6207  0.7753  0.4684
 7993SOL    HW235439   2.263   2.644   2.950  0.2544 -0.0270  0.2351
 7994SOL     OW35440   0.459   1.297   4.364 -0.3676  0.1644  0.2453
 7994SOL    HW135441   0.404   1.224   4.333  2.1537 -0.9919 -1.5031
 7994SOL    HW235442   0.465   1.355   4.288 -0.5626  2.9107  2.3414
 7995SOL     OW35443   0.533   1.061  16.851 -0.0400 -0.0301 -0.4660
 7995SOL    HW135444   0.466   1.016  16.903  1.1977  0.7608  1.8166
 7995SOL    HW235445   0.477   1.127  16.810  3.3166  2.0078 -1.7824
 7996SOL     OW35446   2.287   3.580   7.208 -0.4682  0.1602 -0.3811
 7996SOL    HW135447   2.306   3.518   7.138  1.2832 -0.5437  0.7026
 7996SOL    HW235448   2.199   3.548   7.227  0.2502 -0.2389  2.3782
 7997SOL     OW35449   1.720   2.359   4.965  0.4685 -0.0650 -0.0196
 7997SOL    HW135450   1.636   2.400   4.984  1.7213  2.3600  0.3127
 7997SOL    HW235451   1.699   2.305   4.889  1.2195 -0.7329  0.2427
 7998SOL     OW35452   3.323   2.039   6.615  0.3803  0.6609  0.2138
 7998SOL    HW135453   3.358   2.048   6.526  0.4416  0.8242  0.2542
 7998SOL    HW235454   3.231   2.037   6.589  0.3298 -0.3903  0.4666
 7999SOL     OW35455   3.684   3.380  17.237  1.0688  0.3825  0.2826
 7999SOL    HW135456   3.747   3.321  17.277 -1.6573 -2.8302 -0.1518
 7999SOL    HW235457   3.626   3.403  17.309  0.6371  3.9677 -1.1893
 8000SOL     OW35458   0.383   1.406   3.957  0.2527 -0.0779 -0.5537
 8000SOL    HW135459   0.463   1.355   3.966  0.3454  0.2435  0.5002
 8000SOL    HW235460   0.396   1.440   3.868  1.5632 -0.3295 -0.4528
 8001SOL     OW35461   0.605   1.043   8.562  0.4332 -0.0171  0.2003
 8001SOL    HW135462   0.681   1.038   8.503 -0.0397  1.7486 -0.5610
 8001SOL    HW235463   0.583   0.951   8.547 -0.4421  0.0904  0.9061
 8002SOL     OW35464   3.373   4.439  13.458  0.1095  0.4913 -0.1953
 8002SOL    HW135465   3.322   4.385  13.399  2.1130 -0.8871 -0.6871
 8002SOL    HW235466   3.325   4.424  13.539  0.6919 -3.2572 -0.5600
 8003SOL     OW35467   0.484   1.338   6.766 -0.6633 -0.5060 -0.1847
 8003SOL    HW135468   0.442   1.397   6.703 -1.1979  1.0331  1.5974
 8003SOL    HW235469   0.549   1.302   6.706  0.4681 -1.0130  1.3692
 8004SOL     OW35470   0.374   1.553   5.299  0.7026 -0.0262  0.0193
 8004SOL    HW135471   0.463   1.587   5.290  0.4695 -0.2201 -2.8890
 8004SOL    HW235472   0.349   1.610   5.372 -1.0705 -0.9901  0.1594
 8005SOL     OW35473   3.968   0.547   7.358 -0.3826 -0.2418  0.1919
 8005SOL    HW135474   3.994   0.638   7.344 -1.8837  0.3289  1.1532
 8005SOL    HW235475   3.886   0.547   7.309  0.8648  2.5977 -1.9367
 8006SOL     OW35476   3.555   0.231  13.314  0.3709  0.1149 -0.0893
 8006SOL    HW135477   3.481   0.290  13.302  0.3841  0.6463  2.3332
 8006SOL    HW235478   3.627   0.289  13.291  0.2123  1.5664  3.0649
 8007SOL     OW35479   3.859   2.901   7.181  0.3523  0.4548 -0.9304
 8007SOL    HW135480   3.814   2.900   7.097 -0.7750 -0.3165 -0.3248
 8007SOL    HW235481   3.934   2.953   7.152  1.0066  0.5082  0.8475
 8008SOL     OW35482   4.625   1.586   6.849  0.0410  0.4804 -0.1459
 8008SOL    HW135483   4.687   1.657   6.868  0.6697 -0.6559  1.9847
 8008SOL    HW235484   4.561   1.634   6.797 -0.5873 -0.0816  0.1210
 8009SOL     OW35485   1.484   2.267   3.357  0.4914  0.4913 -0.1946
 8009SOL    HW135486   1.552   2.267   3.425  0.2747 -0.8481  0.0174
 8009SOL    HW235487   1.450   2.178   3.361  0.1681  0.6720  1.0556
 8010SOL     OW35488   0.026   0.305  15.633  0.6392  0.8024  0.2249
 8010SOL    HW135489   0.076   0.241  15.684 -0.7360  0.7093  1.4383
 8010SOL    HW235490   4.670   0.257  15.609  1.5862 -0.4643 -0.3743
 8011SOL     OW35491   4.372   0.445   2.199 -0.2490  0.4892  0.4780
 8011SOL    HW135492   4.363   0.491   2.283  0.7820 -2.3025  2.1148
 8011SOL    HW235493   4.284   0.410   2.186 -0.4309  0.5248  1.5642
 8012SOL     OW35494   4.038   1.327   8.723 -0.0388 -0.0906 -0.4371
 8012SOL    HW135495   3.989   1.247   8.704  1.5471 -0.8013 -1.5411
 8012SOL    HW235496   3.969   1.368   8.775  0.5775 -0.1062  0.3914
 8013SOL     OW35497   3.920   3.265   4.281  0.3110 -0.0712 -0.5283
 8013SOL    HW135498   3.887   3.343   4.327  1.2943 -0.0245  0.1081
 8013SOL    HW235499   3.990   3.303   4.227  0.0628  0.6171 -0.3671
 8014SOL     OW35500   2.303   2.506  12.529  0.2521  0.0404  0.1873
 8014SOL    HW135501   2.340   2.556  12.456  0.9389 -2.2429 -1.0313
 8014SOL    HW235502   2.361   2.528  12.602 -0.6458  0.3111  0.8115
 8015SOL     OW35503   3.689   3.119  13.332  0.3002  0.4652 -0.0276
 8015SOL    HW135504   3.630   3.088  13.401 -0.9853  0.0713 -1.3193
 8015SOL    HW235505   3.782   3.106  13.354  0.4887  1.8254 -0.0244
 8016SOL     OW35506   0.034   2.630   8.883  0.0782 -0.4059  0.1059
 8016SOL    HW135507   0.091   2.700   8.852  0.2664 -0.6344 -0.0628
 8016SOL    HW235508   0.097   2.580   8.934 -1.2999 -2.5029 -0.2433
 8017SOL     OW35509   2.668   4.081   4.794 -0.4244 -0.1528  0.3818
 8017SOL    HW135510   2.749   4.094   4.844 -0.4997 -0.4646  0.5834
 8017SOL    HW235511   2.682   4.001   4.744 -1.7259  0.7930 -1.5005
 8018SOL     OW35512   0.901   3.616   5.319 -0.1847 -0.1998 -0.1803
 8018SOL    HW135513   0.971   3.602   5.383 -0.1354 -1.9828 -0.6286
 8018SOL    HW235514   0.836   3.648   5.380 -0.4663 -1.4938  0.1986
 8019SOL     OW35515   2.149   2.441  10.614 -0.2840  0.3190  0.3217
 8019SOL    HW135516   2.228   2.491  10.633 -1.3472  1.9840  0.3921
 8019SOL    HW235517   2.193   2.356  10.623  1.1423  1.1486  1.1319
 8020SOL     OW35518   1.118   1.824   7.313 -0.3721 -0.1449  0.2174
 8020SOL    HW135519   1.051   1.756   7.319 -0.0337 -0.6186 -1.2677
 8020SOL    HW235520   1.060   1.896   7.335  1.2426  1.3180 -0.2961
 8021SOL     OW35521   3.250   1.164   8.789  0.2517  0.1088 -0.2142
 8021SOL    HW135522   3.193   1.124   8.854 -2.2147  1.0304 -1.8138
 8021SOL    HW235523   3.334   1.141   8.829 -0.7611 -1.9366  0.7249
 8022SOL     OW35524   2.176   4.145  14.278 -0.0194  0.1799 -0.3462
 8022SOL    HW135525   2.192   4.232  14.241  0.9074  0.5482  0.9276
 8022SOL    HW235526   2.143   4.167  14.365  0.9366 -2.6747  0.7429
 8023SOL     OW35527   0.594   3.725   2.875 -0.1008 -0.0818  0.0962
 8023SOL    HW135528   0.605   3.636   2.909 -1.4339  0.1123  1.0608
 8023SOL    HW235529   0.675   3.737   2.826 -0.7508  0.4727 -0.8557
 8024SOL     OW35530   4.528   3.112   3.346  0.5983  0.0629  0.7887
 8024SOL    HW135531   4.493   3.038   3.397 -0.2041 -0.0693  0.0356
 8024SOL    HW235532   4.618   3.081   3.332  1.0922  1.9189 -0.0971
 8025SOL     OW35533   1.275   2.951   7.214  0.1410 -0.5335 -0.0806
 8025SOL    HW135534   1.347   2.994   7.259 -0.9649  0.5702  0.6355
 8025SOL    HW235535   1.216   2.961   7.288 -0.0302  1.9105 -0.5307
 8026SOL     OW35536   1.394   0.897   0.926 -0.4173  0.7311 -0.3819
 8026SOL    HW135537   1.342   0.977   0.933 -1.6109 -0.1026  0.1707
 8026SOL    HW235538   1.448   0.913   1.003 -1.3051 -0.7025  0.5503
 8027SOL     OW35539   0.709   4.201   0.996 -0.0059 -0.1297  0.2711
 8027SOL    HW135540   0.664   4.242   1.070 -0.4730  1.5382 -0.9335
 8027SOL    HW235541   0.776   4.145   1.035 -1.7263 -1.3182  1.5375
 8028SOL     OW35542   4.697   3.646   2.293  0.0685  0.5137 -0.2246
 8028SOL    HW135543   4.667   3.571   2.344 -0.2303  0.2432 -0.8011
 8028SOL    HW235544   4.703   3.605   2.207  1.2859 -2.0307  1.0610
 8029SOL     OW35545   4.629   4.308   4.741  0.0688  0.2803  0.3247
 8029SOL    HW135546   4.702   4.296   4.681  0.1468  0.1003  0.4586
 8029SOL    HW235547   4.637   4.234   4.801 -1.2176 -1.5780 -1.7922
 8030SOL     OW35548   1.661   2.229   2.787  0.0303  0.0039  1.0739
 8030SOL    HW135549   1.582   2.181   2.763  2.1947 -3.6783  1.2855
 8030SOL    HW235550   1.720   2.193   2.720 -0.1468 -0.3447  1.1074
 8031SOL     OW35551   0.705   1.350   2.455  0.3057  0.0319 -0.2459
 8031SOL    HW135552   0.766   1.323   2.386  1.6620  3.5252 -0.4201
 8031SOL    HW235553   0.630   1.291   2.446  1.4920 -1.7497  1.5355
 8032SOL     OW35554   0.345   3.977  15.498 -0.0520  0.1894  0.5709
 8032SOL    HW135555   0.309   3.890  15.484  0.5237 -0.3239  2.2056
 8032SOL    HW235556   0.299   4.024  15.428  1.4900  0.0686 -0.5377
 8033SOL     OW35557   1.212   2.291   6.401  0.2555 -0.5765 -0.0758
 8033SOL    HW135558   1.213   2.382   6.430  1.9368 -0.9005  0.8329
 8033SOL    HW235559   1.131   2.281   6.349 -0.8111 -0.5165  1.5866
 8034SOL     OW35560   0.159   4.529  12.155 -0.3121 -0.0878 -0.3925
 8034SOL    HW135561   0.081   4.584  12.151 -0.6971 -0.7712 -2.6483
 8034SOL    HW235562   0.219   4.595  12.119 -2.4418  1.4911 -1.0537
 8035SOL     OW35563   2.110   2.446   4.347  0.2584 -0.1593 -0.1531
 8035SOL    HW135564   2.150   2.526   4.314  1.6689 -0.2187  1.3913
 8035SOL    HW235565   2.017   2.470   4.344  0.4027  0.0074 -3.5579
 8036SOL     OW35566   2.441   2.736  12.767  0.5115  0.0008  0.1153
 8036SOL    HW135567   2.352   2.760  12.794  1.0953  0.6964  1.4139
 8036SOL    HW235568   2.482   2.817  12.738 -1.7036  0.1586 -2.6535
 8037SOL     OW35569   1.730   0.373  15.348 -0.2818 -0.4759 -0.3320
 8037SOL    HW135570   1.819   0.406  15.341 -0.6696  0.3655 -1.4859
 8037SOL    HW235571   1.738   0.280  15.326 -0.6796 -0.4584 -0.5630
 8038SOL     OW35572   2.749   0.614   4.236 -0.5501 -0.0415 -0.0044
 8038SOL    HW135573   2.753   0.590   4.144 -0.9758 -2.0797  0.5098
 8038SOL    HW235574   2.831   0.657   4.258  0.7328 -1.6449 -1.6934
 8039SOL     OW35575   2.991   1.214   1.210 -0.2655 -0.1427 -0.3767
 8039SOL    HW135576   3.060   1.279   1.229 -2.1168  1.1187  2.1132
 8039SOL    HW235577   3.007   1.203   1.117 -0.7852  0.4350 -0.5353
 8040SOL     OW35578   4.533   3.293   5.162 -0.3189  0.0738  0.1330
 8040SOL    HW135579   4.518   3.249   5.079  1.4946  1.5400 -0.9556
 8040SOL    HW235580   4.515   3.386   5.150  2.9670  0.7324  0.4181
 8041SOL     OW35581   3.027   0.697   7.253  0.4543 -0.0166 -0.3355
 8041SOL    HW135582   3.055   0.702   7.162 -3.8741 -2.7896 -1.8165
 8041SOL    HW235583   3.113   0.697   7.295  0.7900 -0.5898 -1.0398
 8042SOL     OW35584   3.015   4.517  13.661  0.0560  0.8306 -0.4981
 8042SOL    HW135585   3.080   4.450  13.639  2.2498  1.8405  2.9065
 8042SOL    HW235586   3.076   4.580  13.700 -0.6914  1.3175 -0.1059
 8043SOL     OW35587   0.250   2.761   5.931  0.1229  0.5422 -0.1133
 8043SOL    HW135588   0.175   2.782   5.876  0.6328 -1.3514 -1.5387
 8043SOL    HW235589   0.210   2.717   6.006  0.4754  1.2743  0.5048
 8044SOL     OW35590   4.141   3.918  10.436 -0.0078 -0.3316 -0.0028
 8044SOL    HW135591   4.110   4.001  10.399 -0.1907 -1.5682 -2.6365
 8044SOL    HW235592   4.058   3.870  10.443  0.7990 -2.1100 -2.4264
 8045SOL     OW35593   1.651   3.597  14.975  0.4677 -0.0762 -0.3462
 8045SOL    HW135594   1.582   3.538  14.946 -0.3588  0.1875  1.0825
 8045SOL    HW235595   1.730   3.543  14.976  0.9387  0.6120 -0.3521
 8046SOL     OW35596   2.947   1.380   3.466  0.1899  0.5709  0.0802
 8046SOL    HW135597   2.860   1.386   3.507  1.5775  0.1690  3.0809
 8046SOL    HW235598   3.002   1.447   3.507 -1.0627 -0.0626  2.8270
 8047SOL     OW35599   1.712   1.743   0.356 -0.0349  0.0753  0.1403
 8047SOL    HW135600   1.622   1.754   0.325  0.9170  3.3626 -1.4121
 8047SOL    HW235601   1.759   1.771   0.278 -0.6676  1.4042  0.2249
 8048SOL     OW35602   2.763   3.593  17.387 -0.2591  0.2309  0.3845
 8048SOL    HW135603   2.770   3.574  17.294 -1.9984 -1.8374  0.6775
 8048SOL    HW235604   2.796   3.514  17.430  1.5958  1.2769  0.8876
 8049SOL     OW35605   4.166   1.216  12.617  0.3076  0.1116  0.1270
 8049SOL    HW135606   4.118   1.294  12.643  0.7407  1.1574 -2.1477
 8049SOL    HW235607   4.191   1.239  12.527  1.0897 -1.3248 -0.0250
 8050SOL     OW35608   4.300   0.880   4.165 -0.0282 -0.0884  0.2688
 8050SOL    HW135609   4.320   0.818   4.236  1.4868 -0.1205 -0.2029
 8050SOL    HW235610   4.390   0.907   4.150  0.3348 -0.1136  2.3168
 8051SOL     OW35611   4.350   2.342   9.815 -0.3776 -0.0809 -0.4330
 8051SOL    HW135612   4.437   2.315   9.786  0.6865  1.7788  1.0209
 8051SOL    HW235613   4.312   2.265   9.856 -1.3515 -0.1567 -1.4740
 8052SOL     OW35614   4.582   4.404   4.293  0.0911  0.1815  0.4533
 8052SOL    HW135615   4.596   4.363   4.208 -0.1980  1.0602 -0.0137
 8052SOL    HW235616   4.639   4.340   4.336  1.6638 -0.3797 -2.5086
 8053SOL     OW35617   2.663   1.884   2.623  0.2951 -0.6375  0.0296
 8053SOL    HW135618   2.619   1.951   2.675  2.0548 -0.9118  1.8929
 8053SOL    HW235619   2.614   1.806   2.649  1.0489 -0.6715  1.3424
 8054SOL     OW35620   4.517   0.135   9.382 -0.4279  0.0508  0.2020
 8054SOL    HW135621   4.530   0.041   9.364 -0.7763 -0.3227  1.8675
 8054SOL    HW235622   4.599   0.165   9.345 -0.8096  2.3958  1.2827
 8055SOL     OW35623   1.312   3.294   4.932 -0.4360 -0.1649 -0.0912
 8055SOL    HW135624   1.338   3.349   5.005  2.0211  0.2054 -1.2608
 8055SOL    HW235625   1.392   3.259   4.894 -0.1111 -0.1956  0.6242
 8056SOL     OW35626   1.909   3.465   4.059  0.1157 -1.0120  0.3147
 8056SOL    HW135627   1.919   3.446   3.966 -1.2694  0.3943 -0.1125
 8056SOL    HW235628   2.002   3.479   4.081 -0.1322  1.9275 -0.5233
 8057SOL     OW35629   0.492   2.451   7.893 -0.2613 -0.0428 -0.3390
 8057SOL    HW135630   0.554   2.425   7.961 -0.7940 -1.3756 -0.3575
 8057SOL    HW235631   0.426   2.487   7.952  1.0341  0.9436  0.5140
 8058SOL     OW35632   0.442   2.915   7.250  0.4762  0.3391  0.1689
 8058SOL    HW135633   0.349   2.900   7.266  0.7206 -0.7026  0.6298
 8058SOL    HW235634   0.475   2.867   7.326  2.1957 -1.0392 -1.4706
 8059SOL     OW35635   2.337   0.753   6.554  0.0499 -0.0569 -0.3517
 8059SOL    HW135636   2.348   0.814   6.481  2.3236  0.0299  0.0786
 8059SOL    HW235637   2.400   0.682   6.538 -1.7610 -1.9780  1.0535
 8060SOL     OW35638   3.777   1.025   8.431  0.0759 -0.0565  0.0522
 8060SOL    HW135639   3.686   1.023   8.401 -0.0746  0.8219  0.4591
 8060SOL    HW235640   3.809   1.082   8.361  0.3848 -1.2938 -0.8059
 8061SOL     OW35641   2.304   0.310   6.431  0.7404 -0.1812  0.1696
 8061SOL    HW135642   2.385   0.294   6.481  0.7935  0.8686  0.4289
 8061SOL    HW235643   2.250   0.238   6.462  1.4888 -0.3011  1.2073
 8062SOL     OW35644   2.659   4.357   2.454 -0.3006  0.2817 -0.4590
 8062SOL    HW135645   2.720   4.420   2.493 -1.1023  1.6323 -1.3785
 8062SOL    HW235646   2.605   4.341   2.531 -1.6003  0.9202 -1.2425
 8063SOL     OW35647   0.807   2.272   3.238  0.0960  0.2054 -0.1210
 8063SOL    HW135648   0.776   2.342   3.181 -1.0476 -1.2338 -1.2588
 8063SOL    HW235649   0.883   2.235   3.193 -1.1964 -0.4248 -1.7951
 8064SOL     OW35650   1.964   2.613   7.257 -0.1426 -0.1944  0.0761
 8064SOL    HW135651   1.896   2.650   7.313  0.5254 -0.3548  0.9989
 8064SOL    HW235652   2.033   2.597   7.322 -0.6239 -0.8279  0.4353
 8065SOL     OW35653   4.407   2.085  12.352  0.1193  0.0828  0.1133
 8065SOL    HW135654   4.326   2.118  12.391 -0.1896  0.8728 -1.1953
 8065SOL    HW235655   4.458   2.063  12.429 -0.8358  2.9674  1.5651
 8066SOL     OW35656   3.771   2.803   5.844  0.1080 -0.6068 -0.0371
 8066SOL    HW135657   3.780   2.819   5.938  0.0287  1.6555 -0.4124
 8066SOL    HW235658   3.842   2.742   5.828 -1.7633 -2.4749 -1.2116
 8067SOL     OW35659   0.201   1.308   3.371 -0.0277  0.2439  0.2369
 8067SOL    HW135660   0.151   1.247   3.425 -1.3576  0.4138 -0.8020
 8067SOL    HW235661   0.280   1.254   3.375 -2.2418 -2.7802  2.5208
 8068SOL     OW35662   4.496   0.480   9.579 -0.4655 -0.1292 -0.4810
 8068SOL    HW135663   4.443   0.542   9.629 -0.0272 -1.2401  1.3513
 8068SOL    HW235664   4.484   0.396   9.623 -0.1549 -0.2133 -0.5579
 8069SOL     OW35665   1.882   1.391  10.604 -0.0981  0.7040 -0.0824
 8069SOL    HW135666   1.801   1.441  10.614  0.6297  1.6121  1.3262
 8069SOL    HW235667   1.864   1.310  10.652 -1.4178  0.5140 -0.9246
 8070SOL     OW35668   0.790   4.473   7.472  0.3736  0.2634  0.4125
 8070SOL    HW135669   0.885   4.486   7.468  0.7490 -2.5781  0.1689
 8070SOL    HW235670   0.779   4.378   7.476  0.8077  0.1473 -1.0426
 8071SOL     OW35671   3.550   1.801   8.221  0.1343 -0.3934  0.2880
 8071SOL    HW135672   3.626   1.754   8.188  1.4376  0.7270  1.6758
 8071SOL    HW235673   3.477   1.782   8.162 -0.9418  1.4901  0.9823
 8072SOL     OW35674   2.958   3.287   6.590  0.2145  0.0317 -0.2816
 8072SOL    HW135675   3.038   3.314   6.635 -0.1130  1.0229 -0.3004
 8072SOL    HW235676   2.974   3.323   6.502 -1.7285  1.9981  0.1651
 8073SOL     OW35677   4.481   1.301   6.091 -0.0001  0.8516  0.3403
 8073SOL    HW135678   4.388   1.283   6.077 -0.0528  1.8678 -0.6056
 8073SOL    HW235679   4.520   1.253   6.018  1.2365  0.6632  1.1125
 8074SOL     OW35680   4.260   1.303   7.841 -0.3591  0.7328 -0.3627
 8074SOL    HW135681   4.234   1.325   7.751  0.6569 -0.9265 -1.0636
 8074SOL    HW235682   4.340   1.251   7.830 -1.4521 -0.6276 -1.8318
 8075SOL     OW35683   3.607   1.114   7.325  0.4719 -0.1807  0.6425
 8075SOL    HW135684   3.587   1.146   7.237 -1.3571 -3.4638 -0.1491
 8075SOL    HW235685   3.671   1.179   7.352 -0.8530  1.9611 -1.3949
 8076SOL     OW35686   0.126   0.892   7.382  0.0080  0.6793 -0.1210
 8076SOL    HW135687   0.107   0.825   7.447 -1.0672 -1.5767 -2.7487
 8076SOL    HW235688   0.151   0.839   7.307  1.0646  0.5763  0.3093
 8077SOL     OW35689   4.678   3.888  13.882  0.1935  0.2946  0.4818
 8077SOL    HW135690   4.709   3.886  13.792  0.7622  0.4387  0.6753
 8077SOL    HW235691   4.626   3.968  13.880 -0.2321 -0.0926 -3.3570
 8078SOL     OW35692   4.457   0.730   4.356  0.1323 -0.2208  0.3092
 8078SOL    HW135693   4.471   0.776   4.439 -1.1168  0.3420  0.2078
 8078SOL    HW235694   4.446   0.641   4.388  1.5996 -0.4609  0.1385
 8079SOL     OW35695   1.795   2.723   6.007 -0.2876  0.2786  0.5983
 8079SOL    HW135696   1.736   2.672   6.063 -1.5476  0.2052 -0.8172
 8079SOL    HW235697   1.810   2.794   6.069 -0.6930  1.2074 -0.3687
 8080SOL     OW35698   3.049   1.362  16.858 -0.3352 -0.4967 -0.2522
 8080SOL    HW135699   3.133   1.317  16.852  0.1567  0.5475 -1.1082
 8080SOL    HW235700   3.069   1.450  16.827  0.3069  0.3111  2.3895
 8081SOL     OW35701   4.280   4.676   3.167 -0.7322 -0.2255  0.3323
 8081SOL    HW135702   4.375   4.671   3.158 -1.1772 -1.5518 -3.4509
 8081SOL    HW235703   4.260   4.587   3.138  0.2410 -0.6172  0.8624
 8082SOL     OW35704   1.480   2.480   8.131 -0.0987  0.5795  0.5774
 8082SOL    HW135705   1.571   2.504   8.110 -0.2914 -1.3590 -2.5825
 8082SOL    HW235706   1.487   2.474   8.226  1.5181 -1.9042  0.3145
 8083SOL     OW35707   0.565   3.863  15.343  0.4785  0.3064  0.2120
 8083SOL    HW135708   0.632   3.896  15.404 -3.2009  1.3108  3.7611
 8083SOL    HW235709   0.486   3.907  15.375  0.7857  0.1159  1.2467
 8084SOL     OW35710   2.959   1.606   0.222  0.1216  0.0771  0.1647
 8084SOL    HW135711   2.996   1.652   0.147 -0.0345  1.7891  1.1352
 8084SOL    HW235712   2.955   1.677   0.286 -0.7529 -0.2270  0.4473
 8085SOL     OW35713   1.985   2.702   6.357  0.0104 -0.8129 -0.5284
 8085SOL    HW135714   1.974   2.608   6.350 -1.7265 -0.7743  1.5967
 8085SOL    HW235715   2.075   2.722   6.333  0.3522 -0.3318  1.1555
 8086SOL     OW35716   2.006   4.219   6.140  0.3802  0.0951  0.2654
 8086SOL    HW135717   1.921   4.189   6.108  1.0216 -1.0876 -0.3173
 8086SOL    HW235718   2.048   4.133   6.149 -1.3963 -0.7344  0.7244
 8087SOL     OW35719   3.198   3.903   3.075 -0.0978 -0.7114  0.3193
 8087SOL    HW135720   3.264   3.958   3.116 -0.3564 -0.0590 -0.1221
 8087SOL    HW235721   3.210   3.819   3.118 -2.1606  0.3464  2.9528
 8088SOL     OW35722   0.570   3.539   5.344  0.8635  0.0298  0.7378
 8088SOL    HW135723   0.525   3.461   5.310 -2.6726  1.9496  0.9805
 8088SOL    HW235724   0.511   3.609   5.317 -1.5406 -2.9787 -1.7608
 8089SOL     OW35725   2.844   4.003   4.983  0.3985 -0.0278  0.4271
 8089SOL    HW135726   2.795   3.930   5.021 -1.2122  1.3859  1.0594
 8089SOL    HW235727   2.905   3.956   4.926 -1.1140  0.1988 -1.3489
 8090SOL     OW35728   0.746   3.098   2.351 -0.3869  0.6987 -0.1100
 8090SOL    HW135729   0.655   3.121   2.367 -0.3144 -0.2628  1.6809
 8090SOL    HW235730   0.786   3.185   2.350  2.0353 -0.4012  0.4344
 8091SOL     OW35731   2.953   3.779  10.578 -0.2107 -0.1500 -0.1848
 8091SOL    HW135732   3.019   3.711  10.590  0.4706  0.2351 -1.7970
 8091SOL    HW235733   2.949   3.797  10.484 -2.3828 -2.1713 -0.4990
 8092SOL     OW35734   4.482   0.853  13.267 -0.0892 -0.2195  0.5134
 8092SOL    HW135735   4.463   0.760  13.275 -2.8777 -0.0003 -3.3934
 8092SOL    HW235736   4.572   0.855  13.300  0.4812 -1.0299 -1.0041
 8093SOL     OW35737   0.267   1.421   8.491 -0.0560  0.5011  0.2556
 8093SOL    HW135738   0.334   1.357   8.515 -1.2839  0.3555  3.2799
 8093SOL    HW235739   0.189   1.377   8.524 -1.5898  1.8747 -1.5397
 8094SOL     OW35740   3.723   2.347   1.257  0.3550  0.0077  0.2246
 8094SOL    HW135741   3.665   2.353   1.333 -1.9662  1.3248 -1.6718
 8094SOL    HW235742   3.663   2.378   1.190  0.0276 -0.3923  0.3364
 8095SOL     OW35743   3.696   1.277   0.346  0.2543 -0.3813  0.2573
 8095SOL    HW135744   3.750   1.235   0.279  1.1277  1.0133  0.0963
 8095SOL    HW235745   3.699   1.210   0.414  1.8039 -2.3741 -1.7683
 8096SOL     OW35746   3.123   2.903   3.518  0.1718  0.2729  0.2295
 8096SOL    HW135747   3.115   2.859   3.603  1.9576 -1.7811 -0.6680
 8096SOL    HW235748   3.029   2.902   3.499  0.2101  2.1677  0.0080
 8097SOL     OW35749   3.723   1.675   8.658  0.0407 -0.1759 -0.4589
 8097SOL    HW135750   3.708   1.739   8.587  1.8519 -0.7663 -1.3812
 8097SOL    HW235751   3.652   1.614   8.642  0.3962 -0.4720 -0.9119
 8098SOL     OW35752   3.030   3.279   6.283 -0.4338  0.3627 -0.0074
 8098SOL    HW135753   3.065   3.307   6.198  1.2628 -1.4110  0.1075
 8098SOL    HW235754   2.938   3.279   6.256 -1.0520 -0.5125  2.1050
 8099SOL     OW35755   0.512   0.752   2.072 -0.0040  0.3877  0.4843
 8099SOL    HW135756   0.439   0.780   2.017 -0.0208 -0.7374 -0.0691
 8099SOL    HW235757   0.530   0.661   2.046 -0.9368  0.3828 -0.1332
 8100SOL     OW35758   4.169   0.181  15.622  0.4601  0.3058 -0.2195
 8100SOL    HW135759   4.084   0.156  15.659  0.8567  2.2722  1.9440
 8100SOL    HW235760   4.236   0.155  15.685  2.2816  3.8345 -0.7000
 8101SOL     OW35761   4.176   0.295   5.108 -0.4237 -0.3185  0.1715
 8101SOL    HW135762   4.219   0.330   5.029  0.0636  2.3839  1.6433
 8101SOL    HW235763   4.253   0.270   5.160 -0.9898  1.6294  1.9159
 8102SOL     OW35764   2.834   4.666   2.893 -0.3969  0.0370 -1.0510
 8102SOL    HW135765   2.764   4.680   2.830  1.2613 -1.7178 -3.2649
 8102SOL    HW235766   2.799   4.605   2.957  0.2547 -0.6939 -1.3919
 8103SOL     OW35767   0.071   0.724   7.564  0.4122  0.0550  0.0737
 8103SOL    HW135768   0.014   0.664   7.517 -1.6522  1.4673  0.7620
 8103SOL    HW235769   0.008   0.744   7.633 -0.5421 -0.3909 -0.6555
 8104SOL     OW35770   3.878   2.605   7.075 -0.2310  0.1875 -0.2939
 8104SOL    HW135771   3.882   2.525   7.128 -1.1606  0.1863 -0.2286
 8104SOL    HW235772   3.845   2.671   7.137 -1.8663  0.6416 -1.6535
 8105SOL     OW35773   0.588   4.092  10.646 -0.0500 -0.4273 -0.4710
 8105SOL    HW135774   0.509   4.039  10.636 -1.0622  1.2941 -1.5636
 8105SOL    HW235775   0.649   4.039  10.595  0.6155 -0.9365  0.8475
 8106SOL     OW35776   1.295   1.653   7.967 -0.1054  0.4827  0.1136
 8106SOL    HW135777   1.363   1.686   8.026  0.0939  0.2990 -0.0093
 8106SOL    HW235778   1.345   1.591   7.913 -0.7560 -0.2598  0.3546
 8107SOL     OW35779   3.904   1.426   3.341 -0.0633 -0.0550  0.4177
 8107SOL    HW135780   3.839   1.488   3.308  1.9933  0.8262 -2.0283
 8107SOL    HW235781   3.919   1.452   3.432  3.4166  0.7623 -0.3742
 8108SOL     OW35782   1.237   2.927   3.598  0.6042  0.5562  0.1422
 8108SOL    HW135783   1.296   2.905   3.526 -0.4611  0.1509 -0.5985
 8108SOL    HW235784   1.217   3.015   3.567  1.9266  0.8723  0.1719
 8109SOL     OW35785   2.305   2.866   4.540 -0.2152 -0.2921 -0.1873
 8109SOL    HW135786   2.350   2.885   4.622 -1.5953 -1.0200  0.7164
 8109SOL    HW235787   2.378   2.869   4.478  1.3987 -0.8848  1.6766
 8110SOL     OW35788   2.178   2.222  11.980 -0.4673  0.4836 -0.9255
 8110SOL    HW135789   2.218   2.300  12.018 -0.1413 -1.0033  1.8158
 8110SOL    HW235790   2.211   2.149  12.032  0.2110  0.7866 -0.9230
 8111SOL     OW35791   0.334   3.750   5.675  0.1983 -0.0060 -0.6175
 8111SOL    HW135792   0.287   3.801   5.609  0.5835  1.1594  0.0143
 8111SOL    HW235793   0.317   3.660   5.648 -1.9103  1.3826 -4.0566
 8112SOL     OW35794   1.322   0.708   5.739  0.9542  0.4850  0.1114
 8112SOL    HW135795   1.307   0.755   5.657  1.6794  1.0624  0.3067
 8112SOL    HW235796   1.411   0.738   5.759  0.4279  0.5262  2.3892
 8113SOL     OW35797   2.719   4.518   5.000 -1.1240 -0.1653  0.4631
 8113SOL    HW135798   2.643   4.518   5.058 -1.3657  0.7649  0.1566
 8113SOL    HW235799   2.786   4.484   5.059  0.6226 -0.6671 -1.8158
 8114SOL     OW35800   0.636   3.367   9.286  0.0077 -0.3211 -0.3139
 8114SOL    HW135801   0.642   3.304   9.214  0.2256  0.4100 -0.9425
 8114SOL    HW235802   0.550   3.408   9.293  0.3855  0.2068  1.1702
 8115SOL     OW35803   0.673   4.280   6.695 -0.0019  0.0990  0.5689
 8115SOL    HW135804   0.614   4.276   6.770 -1.0597  0.6714 -0.2331
 8115SOL    HW235805   0.640   4.210   6.639  2.2985  0.7210 -1.6059
 8116SOL     OW35806   1.316   0.532   4.503 -0.6760 -0.4955  0.1252
 8116SOL    HW135807   1.224   0.509   4.488 -0.7046  0.1779 -0.7437
 8116SOL    HW235808   1.362   0.462   4.457  0.3857 -0.2830  0.8877
 8117SOL     OW35809   4.212   4.340   3.777  0.7118  0.5665 -0.0039
 8117SOL    HW135810   4.160   4.300   3.708  2.8160 -1.8782 -0.1930
 8117SOL    HW235811   4.160   4.316   3.853  0.1146 -0.9256 -0.8890
 8118SOL     OW35812   0.713   1.477  15.906  0.2687  0.0564 -0.2179
 8118SOL    HW135813   0.701   1.571  15.917 -0.4518 -0.1242  0.5425
 8118SOL    HW235814   0.628   1.452  15.869 -0.2534 -1.0195  1.7142
 8119SOL     OW35815   0.378   1.156   2.765 -0.5498  0.5142  0.6387
 8119SOL    HW135816   0.428   1.222   2.718 -0.8442 -1.1572 -2.0062
 8119SOL    HW235817   0.453   1.118   2.810  1.5663  2.5516 -1.2287
 8120SOL     OW35818   1.498   3.418   9.293 -0.2054  0.1040 -0.2448
 8120SOL    HW135819   1.529   3.456   9.375  0.9473 -1.0594 -0.1416
 8120SOL    HW235820   1.446   3.344   9.325 -0.3655 -0.1233 -1.0231
 8121SOL     OW35821   1.795   0.790   5.045 -0.2761 -0.5947  0.1175
 8121SOL    HW135822   1.758   0.720   4.992  0.8844 -0.5046 -0.8039
 8121SOL    HW235823   1.856   0.826   4.981  0.2984  0.1940  1.1012
 8122SOL     OW35824   3.324   0.650  12.090 -0.4260 -0.3940  0.2910
 8122SOL    HW135825   3.387   0.582  12.067 -0.6181 -0.4449 -0.0847
 8122SOL    HW235826   3.340   0.637  12.183  0.1722 -4.2869 -0.3885
 8123SOL     OW35827   1.178   1.069   3.314  0.2459  0.3122 -0.1781
 8123SOL    HW135828   1.142   1.140   3.367 -0.5105  0.8234 -1.3607
 8123SOL    HW235829   1.123   1.061   3.236 -1.2748 -0.2506  0.9432
 8124SOL     OW35830   0.859   0.282   4.543 -0.6031  0.1290  0.0200
 8124SOL    HW135831   0.904   0.319   4.620 -1.1427 -0.7237  0.7367
 8124SOL    HW235832   0.918   0.319   4.477 -0.8248  0.1869 -0.1434
 8125SOL     OW35833   1.508   3.723   7.712  0.6383 -0.4685 -0.7620
 8125SOL    HW135834   1.487   3.786   7.643 -1.5797  0.1637  0.4985
 8125SOL    HW235835   1.590   3.760   7.744  0.7156  0.4496 -2.0303
 8126SOL     OW35836   0.324   3.144   3.336  0.7109  0.2427 -0.2141
 8126SOL    HW135837   0.401   3.087   3.340  0.2507 -0.3265  0.7306
 8126SOL    HW235838   0.324   3.188   3.421  0.6791  0.0790 -0.1292
 8127SOL     OW35839   2.839   0.300   4.768  0.6045  0.1913  0.2724
 8127SOL    HW135840   2.835   0.231   4.834 -1.3115 -1.2505 -1.3204
 8127SOL    HW235841   2.764   0.355   4.792  0.6156 -0.8283  2.5998
 8128SOL     OW35842   0.033   0.850  15.554  0.3310 -0.9134 -0.2264
 8128SOL    HW135843   0.010   0.787  15.486 -1.5600 -0.1276 -0.3001
 8128SOL    HW235844   0.106   0.812  15.603  1.3299  0.5781 -0.5702
 8129SOL     OW35845   1.588   3.545   7.498  0.6856 -0.0110 -0.5597
 8129SOL    HW135846   1.573   3.600   7.575  1.2784 -2.6277  1.4037
 8129SOL    HW235847   1.569   3.461   7.540  0.3682  1.5172  2.3558
 8130SOL     OW35848   1.843   4.533   4.925  0.1370 -0.5523 -0.5129
 8130SOL    HW135849   1.761   4.489   4.901  0.8617 -2.8148  1.1607
 8130SOL    HW235850   1.881   4.472   4.988 -1.4199 -0.7646  0.1962
 8131SOL     OW35851   3.089   2.538  17.256 -0.3967  0.8738 -0.2858
 8131SOL    HW135852   3.086   2.608  17.322 -1.1441 -1.2171  1.8820
 8131SOL    HW235853   3.106   2.460  17.307 -0.0372  0.7979 -0.5232
 8132SOL     OW35854   2.981   4.388   1.865  0.1973 -0.8803  0.3463
 8132SOL    HW135855   2.975   4.475   1.825  1.7745 -0.6911  0.5095
 8132SOL    HW235856   2.940   4.406   1.949  0.4061  0.5447  0.1525
 8133SOL     OW35857   4.038   0.514   8.383  0.0766  0.2622 -0.1496
 8133SOL    HW135858   4.115   0.549   8.337  1.0070  0.2948  1.4146
 8133SOL    HW235859   4.044   0.425   8.347  0.6508  0.5817 -0.8435
 8134SOL     OW35860   4.182   0.822   4.502  0.3156 -0.9764  0.6459
 8134SOL    HW135861   4.106   0.854   4.550  0.9012  2.0892 -0.5156
 8134SOL    HW235862   4.163   0.735   4.467 -1.4717 -0.4293  0.2410
 8135SOL     OW35863   1.747   3.787   4.872  0.0051  0.1746  0.0470
 8135SOL    HW135864   1.744   3.692   4.856  0.3283  0.7583 -3.4272
 8135SOL    HW235865   1.785   3.822   4.792 -3.4862  2.7618 -0.4706
 8136SOL     OW35866   1.410   0.927   8.866  0.1778 -0.0461 -0.0510
 8136SOL    HW135867   1.318   0.943   8.891  0.0291  2.1994 -2.0515
 8136SOL    HW235868   1.416   1.002   8.807 -2.9118 -0.3673 -0.7836
 8137SOL     OW35869   3.038   1.994  12.307 -0.6829  0.0307  0.1068
 8137SOL    HW135870   3.112   1.935  12.298 -0.7062 -0.0056  0.1521
 8137SOL    HW235871   2.996   1.965  12.227 -1.2874  0.3371  0.3060
 8138SOL     OW35872   2.551   2.744   7.723  1.1084 -0.0910  0.4566
 8138SOL    HW135873   2.469   2.724   7.679  1.3952 -2.5865  1.1048
 8138SOL    HW235874   2.586   2.825   7.686  1.6533 -0.1491  0.8439
 8139SOL     OW35875   4.244   3.605   8.167 -0.1859 -0.5540 -0.3812
 8139SOL    HW135876   4.296   3.529   8.192 -0.7013 -1.4228 -1.9494
 8139SOL    HW235877   4.205   3.638   8.248  1.0033  0.6450 -0.3098
 8140SOL     OW35878   0.047   2.226  12.072  0.1419 -0.4251  0.1847
 8140SOL    HW135879   0.036   2.239  12.167 -1.1419 -0.3599  0.0255
 8140SOL    HW235880   4.713   2.150  12.062 -1.9775  1.3871 -1.3695
 8141SOL     OW35881   0.255   2.223   5.084 -0.0406  0.2649 -0.1774
 8141SOL    HW135882   0.196   2.169   5.137  0.6357  0.1249  0.4358
 8141SOL    HW235883   0.199   2.295   5.055 -0.5728  0.6850  1.8634
 8142SOL     OW35884   0.357   4.303   5.564  0.2792 -0.6498  0.3834
 8142SOL    HW135885   0.331   4.394   5.576  1.6809 -0.1029 -0.8270
 8142SOL    HW235886   0.434   4.296   5.621  1.1096  1.2891 -0.5161
 8143SOL     OW35887   1.811   1.401   8.476 -0.3485  0.3815  0.1979
 8143SOL    HW135888   1.805   1.497   8.468 -1.2752  0.1538 -1.9045
 8143SOL    HW235889   1.901   1.384   8.449 -1.1738 -1.2394 -1.4687
 8144SOL     OW35890   1.996   3.598   2.524 -0.1355 -0.0198 -0.1753
 8144SOL    HW135891   1.963   3.682   2.491 -1.0013 -1.3639 -2.7084
 8144SOL    HW235892   2.072   3.589   2.466  0.2730  3.6547 -0.1745
 8145SOL     OW35893   4.232   1.985   6.331  0.2119  0.6531  0.3362
 8145SOL    HW135894   4.321   2.000   6.361  0.2998  0.0269  0.3859
 8145SOL    HW235895   4.234   2.017   6.241  0.7941 -2.5212 -0.7777
 8146SOL     OW35896   3.693   4.237   2.937 -0.5109 -0.0319 -0.3469
 8146SOL    HW135897   3.785   4.215   2.953 -1.3946 -1.7437  2.2747
 8146SOL    HW235898   3.692   4.267   2.846 -1.4978 -0.4366 -0.4580
 8147SOL     OW35899   4.631   3.951   3.458  0.1955  0.4238  0.6390
 8147SOL    HW135900   4.566   4.014   3.428  0.0689  0.7292  1.5349
 8147SOL    HW235901   4.713   3.994   3.434  0.9824 -0.7766  1.1435
 8148SOL     OW35902   4.288   1.191   8.824 -0.2864  0.0392  0.5270
 8148SOL    HW135903   4.261   1.124   8.762  0.5419  0.8288 -0.6939
 8148SOL    HW235904   4.222   1.259   8.814 -0.8819 -0.8978 -1.7549
 8149SOL     OW35905   2.554   4.421  10.157  0.1120  0.2425  0.2935
 8149SOL    HW135906   2.580   4.503  10.115  1.5621  0.4803  1.6628
 8149SOL    HW235907   2.544   4.369  10.077  1.4993  1.3493 -0.5914
 8150SOL     OW35908   3.223   0.842   6.626 -0.3171  0.2930 -0.3161
 8150SOL    HW135909   3.290   0.874   6.565 -0.1358 -1.0659 -0.8135
 8150SOL    HW235910   3.274   0.799   6.695 -1.2432 -1.1864 -0.5711
 8151SOL     OW35911   4.196   2.152   8.028 -0.1546 -0.5659  0.5274
 8151SOL    HW135912   4.272   2.210   8.026  0.6997 -1.6890  0.3614
 8151SOL    HW235913   4.214   2.093   8.101  0.7037 -0.2395  0.5772
 8152SOL     OW35914   2.501   4.608   3.050 -0.0614 -0.1062  0.2041
 8152SOL    HW135915   2.440   4.538   3.074  0.5887 -1.1503 -1.1637
 8152SOL    HW235916   2.588   4.571   3.067  0.4158 -0.9646 -4.0003
 8153SOL     OW35917   4.018   2.351   1.326  0.4686  0.7039  0.3135
 8153SOL    HW135918   4.017   2.261   1.293  1.4777  0.8245 -0.0345
 8153SOL    HW235919   3.923   2.368   1.323 -0.2614 -3.2434  0.8242
 8154SOL     OW35920   0.876   2.396  12.564  0.4552  0.7477 -0.0535
 8154SOL    HW135921   0.930   2.335  12.614 -0.5821 -1.7206 -1.9261
 8154SOL    HW235922   0.934   2.472  12.560 -0.6132  1.5747  0.2580
 8155SOL     OW35923   0.840   1.824  11.792 -0.1913  0.3661 -0.5276
 8155SOL    HW135924   0.849   1.771  11.712  2.0123 -1.6356  1.0449
 8155SOL    HW235925   0.922   1.873  11.797 -0.3981  0.6893 -0.3153
 8156SOL     OW35926   2.689   0.866   6.045 -0.2933  0.1113  0.2808
 8156SOL    HW135927   2.611   0.813   6.035 -0.1199 -0.0614 -0.1658
 8156SOL    HW235928   2.664   0.957   6.027  1.3244  0.3367 -0.8987
 8157SOL     OW35929   4.200   2.898   2.463  0.3564 -0.2149  0.0905
 8157SOL    HW135930   4.140   2.923   2.393  2.4992  0.0472 -1.6507
 8157SOL    HW235931   4.145   2.836   2.510  0.9504 -0.2514  0.7346
 8158SOL     OW35932   3.834   3.182   3.524  0.5520  0.5343  0.0056
 8158SOL    HW135933   3.742   3.156   3.515  0.2387  1.9684 -1.1657
 8158SOL    HW235934   3.836   3.221   3.612  2.0916 -0.5464  0.4364
 8159SOL     OW35935   4.274   0.927   0.303 -0.1156 -0.3563  0.2197
 8159SOL    HW135936   4.243   0.974   0.226 -2.2466 -1.6161  0.3149
 8159SOL    HW235937   4.231   0.843   0.285  0.7273 -0.0448 -3.2565
 8160SOL     OW35938   2.553   0.604   4.523 -0.0743 -0.4149  0.6702
 8160SOL    HW135939   2.540   0.654   4.604  1.0209  2.1885 -0.7611
 8160SOL    HW235940   2.464   0.610   4.489 -0.0590 -1.4788  0.4448
 8161SOL     OW35941   3.595   0.399   2.024 -0.1721  0.3857  0.0471
 8161SOL    HW135942   3.614   0.461   1.953  0.7507 -0.2027 -0.2198
 8161SOL    HW235943   3.541   0.333   1.980 -1.5973  0.8595  1.1087
 8162SOL     OW35944   0.248   3.198   5.099 -0.6137  0.1499 -0.0505
 8162SOL    HW135945   0.179   3.132   5.092 -0.0318 -0.3779 -0.8502
 8162SOL    HW235946   0.260   3.226   5.008 -0.4879  0.6445  0.1204
 8163SOL     OW35947   4.717   2.212  16.359  0.1637 -0.1858  0.1641
 8163SOL    HW135948   0.070   2.154  16.348 -0.9103 -1.8587  1.6372
 8163SOL    HW235949   4.659   2.196  16.285  2.2792  0.4123 -1.6101
 8164SOL     OW35950   3.773   3.240   6.526  0.6358  0.0168 -0.1201
 8164SOL    HW135951   3.681   3.238   6.552  0.2347 -0.4687 -1.5339
 8164SOL    HW235952   3.778   3.329   6.492  1.4395  0.8669  2.2891
 8165SOL     OW35953   3.234   0.282   6.754 -0.1270  0.8262  0.1899
 8165SOL    HW135954   3.197   0.238   6.677 -0.3655 -1.1984  1.4548
 8165SOL    HW235955   3.167   0.350   6.765  0.6012  1.9431 -2.1615
 8166SOL     OW35956   1.030   0.115   2.634  0.7605 -0.2084  0.7764
 8166SOL    HW135957   1.072   0.093   2.717 -0.3103 -0.1987  1.3225
 8166SOL    HW235958   0.955   0.056   2.630  0.6478 -0.1510  2.1621
 8167SOL     OW35959   2.934   2.717   0.797  0.4780 -0.0536 -0.6522
 8167SOL    HW135960   2.943   2.812   0.796  0.9868 -0.0933  0.2502
 8167SOL    HW235961   2.995   2.706   0.723 -1.6110 -0.2084 -2.3690
 8168SOL     OW35962   3.438   1.871   5.217  0.3514 -0.1262  0.0256
 8168SOL    HW135963   3.519   1.820   5.210  0.7568  0.6613 -1.0717
 8168SOL    HW235964   3.476   1.934   5.278  1.1306  0.6734 -1.2657
 8169SOL     OW35965   0.455   1.727   6.691 -0.4315  0.3338  0.1132
 8169SOL    HW135966   0.499   1.781   6.625  1.9030  0.8049  2.0593
 8169SOL    HW235967   0.519   1.742   6.760 -3.2146 -0.3532  2.8266
 8170SOL     OW35968   3.960   1.322   5.953 -0.4537 -0.0711 -0.1835
 8170SOL    HW135969   3.934   1.232   5.972 -0.8675  0.2033  0.5704
 8170SOL    HW235970   3.906   1.366   6.018  1.5640 -1.2072  2.2562
 8171SOL     OW35971   4.423   2.895   3.486 -0.4348 -0.1509  0.2110
 8171SOL    HW135972   4.479   2.834   3.436 -0.7132 -2.0182  2.1862
 8171SOL    HW235973   4.335   2.872   3.457 -0.2186 -2.1624  1.0817
 8172SOL     OW35974   2.557   1.124   7.779  0.3297  0.5423  0.3022
 8172SOL    HW135975   2.483   1.185   7.782  1.6819  2.2628 -1.1302
 8172SOL    HW235976   2.519   1.059   7.719  2.6694 -0.3453 -0.2365
 8173SOL     OW35977   4.082   0.492   0.042  0.4515  0.6301  0.0811
 8173SOL    HW135978   4.155   0.439   0.076  0.4115 -0.3033 -1.3249
 8173SOL    HW235979   4.005   0.437   0.055  2.0002 -0.9344  2.6685
 8174SOL     OW35980   2.687   1.623  17.492  0.0192  0.3902 -0.3463
 8174SOL    HW135981   2.747   1.548  17.491 -1.2874 -0.6340 -0.9194
 8174SOL    HW235982   2.676   1.637  17.586 -1.4799  0.8546 -0.5861
 8175SOL     OW35983   0.011   0.146   0.620  0.5513  0.3511 -0.3342
 8175SOL    HW135984   0.046   0.160   0.708  0.7155 -0.5754 -0.2609
 8175SOL    HW235985   4.694   0.233   0.608  0.6994  0.5328  0.5320
 8176SOL     OW35986   0.707   1.806  15.231 -0.0330 -0.0242  0.0931
 8176SOL    HW135987   0.691   1.873  15.165 -0.7277 -0.6414 -0.3543
 8176SOL    HW235988   0.673   1.728  15.188 -0.7989  1.8926 -2.7166
 8177SOL     OW35989   2.352   3.003   3.494 -0.1193  0.2702 -0.3091
 8177SOL    HW135990   2.361   3.096   3.512 -1.1221  0.8092 -2.6540
 8177SOL    HW235991   2.262   2.994   3.524  0.2632 -1.7465  0.2630
 8178SOL     OW35992   1.272   0.424   2.518 -0.3064  0.2648  0.2784
 8178SOL    HW135993   1.247   0.333   2.533 -0.0455  0.0354 -0.6387
 8178SOL    HW235994   1.255   0.427   2.424 -1.0714 -1.1736  0.3734
 8179SOL     OW35995   1.921   4.121  12.586  0.0177 -0.8051  0.0891
 8179SOL    HW135996   1.983   4.190  12.562 -0.7876  0.3348  1.2761
 8179SOL    HW235997   1.949   4.097  12.674  1.4175  0.1604 -0.0842
 8180SOL     OW35998   2.458   0.813   8.323  1.2846  0.3109  0.0054
 8180SOL    HW135999   2.443   0.810   8.418  1.2333 -0.0752 -0.0126
 8180SOL    HW236000   2.413   0.894   8.300  2.4107  1.2350  1.0257
 8181SOL     OW36001   3.457   1.634   3.833  0.3099  0.2937  0.3933
 8181SOL    HW136002   3.488   1.556   3.787  1.4653  0.6580  0.5520
 8181SOL    HW236003   3.363   1.625   3.815  0.7815 -3.0466 -0.2838
 8182SOL     OW36004   4.164   1.605  11.309  0.8862 -0.3232 -0.6665
 8182SOL    HW136005   4.077   1.612  11.347  1.2630 -0.5382  0.2418
 8182SOL    HW236006   4.213   1.623  11.390  0.0907 -0.3390 -0.1795
 8183SOL     OW36007   1.020   3.032   5.496  0.1451 -0.3716  0.2161
 8183SOL    HW136008   1.091   3.047   5.434 -0.1882 -0.7799 -0.2668
 8183SOL    HW236009   1.064   3.056   5.577  0.4026  0.8111 -0.2753
 8184SOL     OW36010   2.692   2.039   7.544 -0.4194  0.1004 -0.0536
 8184SOL    HW136011   2.729   2.126   7.560 -0.7109  0.6121 -2.1257
 8184SOL    HW236012   2.602   2.071   7.536 -0.1590  0.5247 -1.2650
 8185SOL     OW36013   1.627   1.320   1.485 -0.4051  0.7907 -0.5399
 8185SOL    HW136014   1.722   1.317   1.475 -0.1772  1.7479  1.4736
 8185SOL    HW236015   1.607   1.311   1.578  0.2828  2.4272 -0.2396
 8186SOL     OW36016   4.335   4.526   3.594  0.1466 -0.1964 -0.4909
 8186SOL    HW136017   4.423   4.488   3.598 -0.1300 -0.7288  0.6542
 8186SOL    HW236018   4.296   4.488   3.673 -0.3215  0.9705 -0.1629
 8187SOL     OW36019   3.470   0.730   5.221  0.2757  0.0806  0.1192
 8187SOL    HW136020   3.505   0.750   5.135 -0.2942 -1.6260 -0.5149
 8187SOL    HW236021   3.422   0.648   5.209 -0.0705  0.0873  1.4295
 8188SOL     OW36022   1.914   3.873  12.352  0.0221 -0.1710 -0.0081
 8188SOL    HW136023   1.864   3.797  12.322  1.7050 -1.0455 -0.5958
 8188SOL    HW236024   1.857   3.925  12.408  0.7683  1.6149 -0.9382
 8189SOL     OW36025   1.568   2.643   9.085 -0.8198  0.5329  0.2805
 8189SOL    HW136026   1.600   2.676   9.169  0.6737  0.7078 -0.3492
 8189SOL    HW236027   1.582   2.716   9.024  1.6214  0.5185  0.8064
 8190SOL     OW36028   3.632   2.077   7.128  0.3802  0.9037  0.3633
 8190SOL    HW136029   3.659   2.155   7.177  0.0291  0.2812  1.5493
 8190SOL    HW236030   3.710   2.066   7.074  1.5108 -0.3087  2.2228
 8191SOL     OW36031   1.352   3.866   3.497  0.1600 -0.7816  0.1131
 8191SOL    HW136032   1.276   3.859   3.555  0.9085  0.1971  1.2129
 8191SOL    HW236033   1.380   3.956   3.515 -2.2047 -0.2510  1.1491
 8192SOL     OW36034   3.206   3.416   7.942  0.5034 -0.1143 -0.6544
 8192SOL    HW136035   3.194   3.322   7.930  1.1767 -0.2091 -0.5729
 8192SOL    HW236036   3.297   3.435   7.918  0.5033  2.5529  1.4991
 8193SOL     OW36037   0.666   0.259   2.705  0.8570  0.2194  0.4926
 8193SOL    HW136038   0.697   0.172   2.682 -2.4231 -0.7947 -0.1688
 8193SOL    HW236039   0.650   0.241   2.797  1.1695 -2.8838 -0.0814
 8194SOL     OW36040   0.460   1.233  14.949  0.9294  0.2579  0.5006
 8194SOL    HW136041   0.517   1.157  14.963  0.6633 -0.0035  0.1693
 8194SOL    HW236042   0.419   1.207  14.866 -0.7203  2.1959  0.7159
 8195SOL     OW36043   1.471   0.294   7.200  0.8091 -0.6163  0.3908
 8195SOL    HW136044   1.530   0.246   7.141  0.6354 -2.1327  1.4637
 8195SOL    HW236045   1.494   0.385   7.178 -3.0467 -0.0263 -1.3192
 8196SOL     OW36046   0.119   0.219  10.204  0.1668 -0.3224  0.0449
 8196SOL    HW136047   0.034   0.195  10.241  1.5505 -1.9277  2.1641
 8196SOL    HW236048   0.188   0.180  10.258 -0.3794  0.2602  1.1638
 8197SOL     OW36049   3.930   0.041  14.547  0.1455  0.1583  0.2268
 8197SOL    HW136050   3.921   0.105  14.476  0.1651  0.7361  0.7463
 8197SOL    HW236051   4.022   0.037  14.571  0.3291 -1.6446 -0.8027
 8198SOL     OW36052   3.684   2.609  16.957  0.2740 -0.0021 -0.5181
 8198SOL    HW136053   3.622   2.552  17.002  1.2591 -0.3159  0.4471
 8198SOL    HW236054   3.708   2.553  16.883  0.7477  0.2037 -0.5217
 8199SOL     OW36055   4.076   3.105   4.429  0.2125  0.4262  0.2590
 8199SOL    HW136056   4.022   3.077   4.503  0.0141  0.0127 -0.0413
 8199SOL    HW236057   4.014   3.161   4.382  0.2220  0.4445  0.2680
 8200SOL     OW36058   0.841   1.743   7.263  0.2436  0.0979 -0.1090
 8200SOL    HW136059   0.807   1.663   7.302  1.0661 -0.0869  0.2362
 8200SOL    HW236060   0.830   1.728   7.169  0.6584 -2.3145  0.2351
 8201SOL     OW36061   2.831   4.639   8.021 -0.3360  0.4897  0.2915
 8201SOL    HW136062   2.872   4.711   7.972  0.4960 -1.1950 -1.4509
 8201SOL    HW236063   2.789   4.691   8.090  0.6026  2.3469 -0.5228
 8202SOL     OW36064   3.204   2.487   4.808  0.1096 -0.1152  0.2347
 8202SOL    HW136065   3.165   2.413   4.855  0.5993 -1.7393 -1.8928
 8202SOL    HW236066   3.192   2.558   4.871 -0.3536 -1.0326  1.1807
 8203SOL     OW36067   2.777   3.540  17.121 -0.1827  0.0176 -0.4327
 8203SOL    HW136068   2.720   3.591  17.065  0.6254  1.7111  0.3010
 8203SOL    HW236069   2.819   3.475  17.064 -1.2703 -0.8311 -0.2782
 8204SOL     OW36070   4.218   2.006   8.332  0.0625 -0.2739 -0.0577
 8204SOL    HW136071   4.173   1.991   8.415  0.6941  0.0482  0.3350
 8204SOL    HW236072   4.271   1.927   8.322  0.0145 -0.4840  1.3028
 8205SOL     OW36073   1.330   4.204  12.696 -0.1264  0.2696  0.5123
 8205SOL    HW136074   1.236   4.195  12.713  0.2514 -2.6996  1.0332
 8205SOL    HW236075   1.329   4.240  12.607 -1.8017 -1.9147 -0.3494
 8206SOL     OW36076   0.173   4.291   6.730 -0.8173 -0.5362 -0.4404
 8206SOL    HW136077   0.158   4.383   6.710 -0.5904 -0.4375 -0.1635
 8206SOL    HW236078   0.149   4.253   6.646 -0.2061  1.7552 -1.6269
 8207SOL     OW36079   0.032   2.458  11.919 -0.0207  0.1573 -0.9300
 8207SOL    HW136080   0.009   2.519  11.989  0.5015  1.4837 -1.9179
 8207SOL    HW236081   0.043   2.375  11.965  0.9430  0.1110 -1.2409
 8208SOL     OW36082   1.430   1.492   4.900  0.1519  0.5810 -0.2501
 8208SOL    HW136083   1.426   1.492   4.995 -0.8988 -2.0075 -0.2936
 8208SOL    HW236084   1.506   1.545   4.876  1.1928 -1.0396 -0.5938
 8209SOL     OW36085   0.602   3.197  15.940  0.0251 -0.4921  0.2474
 8209SOL    HW136086   0.683   3.231  15.978  1.0213 -3.9997  1.2554
 8209SOL    HW236087   0.638   3.144  15.870 -2.1296 -3.4185  1.3587
 8210SOL     OW36088   3.200   4.131   8.786 -0.4706  0.4166  0.0605
 8210SOL    HW136089   3.188   4.103   8.877  1.1248  1.7809  0.7007
 8210SOL    HW236090   3.155   4.056   8.747 -0.4049 -0.6762  2.0659
 8211SOL     OW36091   2.629   2.614  14.145 -0.6454  0.3065  0.1378
 8211SOL    HW136092   2.581   2.551  14.091  2.4293  0.5901 -2.9438
 8211SOL    HW236093   2.697   2.565  14.193  0.3848 -0.9096 -2.5960
 8212SOL     OW36094   2.713   0.938   4.145  0.0515 -0.3339 -0.1231
 8212SOL    HW136095   2.701   0.849   4.176 -1.0815  0.0745  0.6481
 8212SOL    HW236096   2.765   0.977   4.216  0.0685 -0.5612 -0.0095
 8213SOL     OW36097   1.851   0.763   8.542  0.1315  0.1393  0.3072
 8213SOL    HW136098   1.889   0.679   8.567  0.0738  0.2892  0.8847
 8213SOL    HW236099   1.924   0.824   8.550 -2.7246  3.6522 -0.4072
 8214SOL     OW36100   2.610   3.778   1.394 -0.0228  0.9153 -0.7345
 8214SOL    HW136101   2.694   3.785   1.438 -1.0969  0.8865  1.3465
 8214SOL    HW236102   2.557   3.768   1.473 -1.1541  0.0379 -1.6004
 8215SOL     OW36103   4.615   3.128  16.866  0.5941 -0.0993  0.0101
 8215SOL    HW136104   4.689   3.184  16.843 -1.0116  2.3774  0.8795
 8215SOL    HW236105   4.585   3.113  16.777  1.4991 -1.4400 -0.0712
 8216SOL     OW36106   3.627   1.353   6.393  0.7001 -0.1436 -0.0109
 8216SOL    HW136107   3.547   1.340   6.343  0.7727 -0.9497  0.0706
 8216SOL    HW236108   3.599   1.298   6.466  0.8752  1.2231  1.0908
 8217SOL     OW36109   2.699   2.107  16.715  0.0736 -0.4658  0.3459
 8217SOL    HW136110   2.645   2.165  16.769  0.9127 -1.1892  1.9547
 8217SOL    HW236111   2.746   2.163  16.653  1.2051 -3.7010 -1.7321
 8218SOL     OW36112   1.668   1.234  16.060 -0.0041 -0.0065 -0.3273
 8218SOL    HW136113   1.755   1.272  16.077 -0.4565  0.5824  0.6578
 8218SOL    HW236114   1.614   1.313  16.059 -1.2595 -0.8491  1.0726
 8219SOL     OW36115   4.247   0.736  14.960  0.6628 -0.0332  0.3695
 8219SOL    HW136116   4.280   0.753  14.871 -1.1510  1.3965 -0.0322
 8219SOL    HW236117   4.247   0.640  14.962  0.0560 -0.0604 -0.7915
 8220SOL     OW36118   0.903   4.603   2.957 -0.1626 -0.0509 -0.1325
 8220SOL    HW136119   0.900   4.553   2.876 -2.4953 -1.6916  0.9499
 8220SOL    HW236120   0.916   4.534   3.022 -1.5903  0.0021  0.2211
 8221SOL     OW36121   2.006   0.279   5.095  0.3257  0.0451 -0.3699
 8221SOL    HW136122   1.931   0.338   5.101 -2.6420 -3.6204 -1.3761
 8221SOL    HW236123   2.057   0.313   5.168  0.8301  1.8396 -1.5430
 8222SOL     OW36124   1.992   3.125   3.272  0.2170 -0.4308 -0.0805
 8222SOL    HW136125   2.000   3.030   3.266 -0.6117 -0.3570 -2.3365
 8222SOL    HW236126   2.079   3.166   3.274 -0.3545  0.8220 -1.0096
 8223SOL     OW36127   4.512   2.551   0.551  0.3174  0.0255 -0.4463
 8223SOL    HW136128   4.523   2.503   0.633  1.1327  0.8309 -0.0763
 8223SOL    HW236129   4.543   2.639   0.575  0.9092 -0.6136  1.0891
 8224SOL     OW36130   2.313   1.822   6.967 -0.0029  0.0941 -0.3651
 8224SOL    HW136131   2.301   1.810   6.873 -0.1015 -1.6004 -0.1338
 8224SOL    HW236132   2.402   1.793   6.985 -0.5519  0.1536  2.4640
 8225SOL     OW36133   4.597   0.806   7.137 -0.7983 -0.0028  0.7489
 8225SOL    HW136134   4.594   0.901   7.128 -2.4077 -0.2784 -1.7537
 8225SOL    HW236135   4.540   0.799   7.213 -2.0590 -2.3827 -0.3930
 8226SOL     OW36136   3.052   2.796  14.357  0.4409  0.3784  0.1499
 8226SOL    HW136137   3.008   2.816  14.439 -1.9986 -1.3725 -0.7170
 8226SOL    HW236138   3.032   2.702  14.352  1.2748  0.2425 -0.8350
 8227SOL     OW36139   3.193   1.572  10.389  0.5692 -0.5641  0.0297
 8227SOL    HW136140   3.243   1.557  10.309  1.8397  1.3839  0.4463
 8227SOL    HW236141   3.108   1.547  10.354  1.0811 -0.2746 -1.4145
 8228SOL     OW36142   4.130   0.016  16.897 -0.3604  0.2566  0.4494
 8228SOL    HW136143   4.038   4.717  16.913 -0.2986 -0.0097  0.4500
 8228SOL    HW236144   4.167   4.700  16.976 -0.3077  0.7589  0.6704
 8229SOL     OW36145   4.094   4.229   5.531  0.4582 -0.4715 -1.1274
 8229SOL    HW136146   4.034   4.236   5.456  0.6129 -0.3490 -1.2402
 8229SOL    HW236147   4.078   4.144   5.573 -2.0508 -0.4553 -2.0611
 8230SOL     OW36148   1.699   3.081   4.443  0.1769 -0.1047  0.2854
 8230SOL    HW136149   1.606   3.105   4.439  0.4174  0.7494 -0.1105
 8230SOL    HW236150   1.691   3.025   4.521  0.9236 -1.1642 -0.4004
 8231SOL     OW36151   3.344   0.647   3.056 -0.0531 -0.0752  0.4059
 8231SOL    HW136152   3.377   0.734   3.079  0.7404 -0.0327 -0.8769
 8231SOL    HW236153   3.378   0.597   3.130 -0.8979 -1.4988 -0.1553
 8232SOL     OW36154   4.531   1.812  17.675 -0.1075 -0.3921  0.1773
 8232SOL    HW136155   4.458   1.765  17.634  0.5498  0.3494 -1.8576
 8232SOL    HW236156   4.540   1.898  17.635  0.6132 -1.1130 -1.1964
 8233SOL     OW36157   1.216   4.427   2.919  0.0647  0.1419  0.3012
 8233SOL    HW136158   1.235   4.520   2.930  1.5054  0.0084 -1.0509
 8233SOL    HW236159   1.292   4.388   2.963  0.0282  3.4430  3.3249
 8234SOL     OW36160   4.481   1.085   0.927 -0.3775 -0.3344  0.2233
 8234SOL    HW136161   4.574   1.101   0.911 -0.9369  0.6549 -2.0405
 8234SOL    HW236162   4.471   1.114   1.018 -2.7158 -1.1627  0.2281
 8235SOL     OW36163   4.182   2.115  16.759  0.4068  0.4247  0.0732
 8235SOL    HW136164   4.174   2.202  16.796  2.1984  0.5830  0.0797
 8235SOL    HW236165   4.212   2.059  16.830 -0.4492  2.0337  1.6900
 8236SOL     OW36166   3.387   0.326  17.124  0.6094  0.6682  0.4979
 8236SOL    HW136167   3.357   0.336  17.215 -0.9179  0.9892 -0.0269
 8236SOL    HW236168   3.343   0.244  17.100  0.7367  0.7277  0.0642
 8237SOL     OW36169   1.397   3.710   8.821 -0.1212  0.2949 -0.4131
 8237SOL    HW136170   1.409   3.666   8.905 -1.3672  0.4669 -0.1374
 8237SOL    HW236171   1.476   3.699   8.770  0.0872  1.3511 -0.3251
 8238SOL     OW36172   2.359   2.252   8.535  0.3075 -0.2806 -0.7726
 8238SOL    HW136173   2.351   2.257   8.439 -2.5513  2.0567 -0.4011
 8238SOL    HW236174   2.421   2.323   8.554 -1.0556  1.2586 -2.0971
 8239SOL     OW36175   3.267   0.872  10.132  0.1353 -0.0558  0.6954
 8239SOL    HW136176   3.233   0.782  10.128 -1.3841  0.6159 -1.6922
 8239SOL    HW236177   3.189   0.913  10.170 -0.4847 -1.1394  0.6123
 8240SOL     OW36178   1.634   2.048   1.816  0.7298  0.8592 -0.0923
 8240SOL    HW136179   1.598   2.110   1.880 -1.2444  1.1180 -1.4566
 8240SOL    HW236180   1.555   1.998   1.794  1.0872  0.4679 -0.4918
 8241SOL     OW36181   4.463   3.590  17.187 -0.3104  0.2427 -0.5889
 8241SOL    HW136182   4.525   3.578  17.258  0.9491 -1.4050 -1.9747
 8241SOL    HW236183   4.455   3.685  17.196  1.9062 -0.0267  3.9311
 8242SOL     OW36184   3.320   1.588   5.793 -0.2051 -0.2267 -0.4913
 8242SOL    HW136185   3.327   1.604   5.887  2.2187 -3.2719 -0.1379
 8242SOL    HW236186   3.253   1.521   5.787  1.2578 -1.8521  1.2641
 8243SOL     OW36187   3.150   2.631  15.838 -0.0425 -0.0962  0.3907
 8243SOL    HW136188   3.139   2.668  15.751 -1.6442 -0.6637  0.3615
 8243SOL    HW236189   3.201   2.551  15.824  1.8537  0.6274  3.0654
 8244SOL     OW36190   0.933   1.382   0.582  0.6000  0.4331  0.5191
 8244SOL    HW136191   0.953   1.313   0.518 -1.8251 -1.1334  1.4435
 8244SOL    HW236192   0.996   1.371   0.652  3.0249 -1.3588 -1.9193
 8245SOL     OW36193   2.898   1.201   6.918  0.0632  0.1037 -0.0627
 8245SOL    HW136194   2.961   1.202   6.990 -0.4155  1.8139  0.3197
 8245SOL    HW236195   2.813   1.182   6.958  0.4639 -0.3915  0.5551
 8246SOL     OW36196   2.015   4.485  14.293  0.0650  0.4755 -1.0011
 8246SOL    HW136197   2.079   4.479  14.364 -1.8424  1.7765  0.8173
 8246SOL    HW236198   2.033   4.578  14.284 -1.0122  0.7352 -0.4174
 8247SOL     OW36199   1.988   1.871   9.002 -0.1744  0.6511  0.0715
 8247SOL    HW136200   1.946   1.942   8.955  0.5982  1.2238  0.2492
 8247SOL    HW236201   1.953   1.803   8.945  0.1583  1.3009 -0.9022
 8248SOL     OW36202   0.467   3.805   6.644  0.3402  0.2748  0.2188
 8248SOL    HW136203   0.540   3.782   6.586  2.6996  0.6783  3.0276
 8248SOL    HW236204   0.421   3.722   6.653  0.6361  0.0574 -0.2703
 8249SOL     OW36205   3.705   1.524  16.254  0.0182 -0.1814 -0.5494
 8249SOL    HW136206   3.642   1.503  16.185  0.0003 -0.4569 -0.4475
 8249SOL    HW236207   3.781   1.468  16.240 -1.3518 -2.6344  1.9318
 8250SOL     OW36208   0.679   2.657   2.865  0.1338 -0.1954  0.3281
 8250SOL    HW136209   0.679   2.718   2.938  0.5553  0.6987 -0.4138
 8250SOL    HW236210   0.683   2.724   2.797  1.8820 -0.4371  0.1899
 8251SOL     OW36211   3.563   3.858   5.500  0.6825 -0.0783  0.0110
 8251SOL    HW136212   3.658   3.853   5.492  0.8114  1.2986  0.7293
 8251SOL    HW236213   3.558   3.770   5.537  1.9077 -0.0099  0.3408
 8252SOL     OW36214   4.498   2.638   3.870  1.1138 -0.3037  0.0649
 8252SOL    HW136215   4.534   2.676   3.950 -0.2567 -0.9665  0.9832
 8252SOL    HW236216   4.460   2.560   3.909  1.7911 -0.6538  0.0318
 8253SOL     OW36217   4.070   4.610   7.468 -0.4285 -0.3116 -0.0040
 8253SOL    HW136218   4.053   4.684   7.527  1.1679 -0.2846  0.4074
 8253SOL    HW236219   4.085   4.548   7.540  1.4391  1.0658  0.7722
 8254SOL     OW36220   3.807   2.729  17.517 -0.7439  0.0511  0.0250
 8254SOL    HW136221   3.771   2.641  17.523 -1.7890  0.6478  2.7474
 8254SOL    HW236222   3.878   2.728  17.582 -1.9158 -0.1887  1.2907
 8255SOL     OW36223   3.529   4.269  10.668 -0.1400 -0.3382 -0.2711
 8255SOL    HW136224   3.450   4.316  10.643 -0.9879 -0.8692  1.4597
 8255SOL    HW236225   3.548   4.315  10.750 -0.6097  1.2930 -1.0849
 8256SOL     OW36226   1.127   3.602  12.140  0.1203 -0.2045  0.4069
 8256SOL    HW136227   1.189   3.593  12.212  0.5317  1.0500  0.2108
 8256SOL    HW236228   1.181   3.590  12.062  2.1507  0.1368  1.7777
 8257SOL     OW36229   3.702   0.782   4.776 -0.0335 -0.2480  0.2727
 8257SOL    HW136230   3.647   0.860   4.766  0.7294  0.3345  0.6772
 8257SOL    HW236231   3.701   0.752   4.685  0.4678  1.5912 -0.3341
 8258SOL     OW36232   1.234   0.288   9.232 -0.4021  0.0762 -0.1476
 8258SOL    HW136233   1.165   0.342   9.269 -0.8903  0.5337 -1.7212
 8258SOL    HW236234   1.201   0.200   9.251  1.5857 -0.4577  0.8051
 8259SOL     OW36235   1.045   4.334  15.921 -0.4686  0.2982 -0.4064
 8259SOL    HW136236   1.078   4.271  15.984  0.6451 -0.0491 -1.3413
 8259SOL    HW236237   1.084   4.312  15.836 -0.8723 -1.1918 -0.2061
 8260SOL     OW36238   1.577   4.479   6.913 -0.5555 -0.2812  0.2668
 8260SOL    HW136239   1.525   4.462   6.991 -0.6792  0.8868  0.4407
 8260SOL    HW236240   1.513   4.479   6.842 -0.6525  2.0398  0.3386
 8261SOL     OW36241   3.090   0.740   9.258 -0.1837  0.1822 -0.2185
 8261SOL    HW136242   3.005   0.761   9.220 -1.2457 -0.6393  1.6888
 8261SOL    HW236243   3.153   0.781   9.199 -1.1560  0.8265 -0.8020
 8262SOL     OW36244   0.230   2.929  14.774 -0.0371 -0.0898 -0.1505
 8262SOL    HW136245   0.249   2.858  14.711  1.7570 -1.0605  1.4932
 8262SOL    HW236246   0.221   2.886  14.859  1.7505 -0.2999 -0.0757
 8263SOL     OW36247   0.812   4.417   8.240  0.3899 -0.0499  0.4758
 8263SOL    HW136248   0.847   4.505   8.232 -0.8287  0.2360 -1.5215
 8263SOL    HW236249   0.895   4.371   8.255  1.1447  1.2062  0.0842
 8264SOL     OW36250   0.111   1.514  14.839  0.5151  0.8337  0.1473
 8264SOL    HW136251   0.086   1.435  14.886 -0.2534  0.4852 -0.8416
 8264SOL    HW236252   0.199   1.535  14.871  0.8421  2.0805 -1.5557
 8265SOL     OW36253   2.229   4.705   4.076  0.3051 -0.0794 -0.1931
 8265SOL    HW136254   2.155   4.658   4.115  0.6000 -0.4909 -0.1327
 8265SOL    HW236255   2.301   4.644   4.093  1.3520  0.4851 -2.5814
 8266SOL     OW36256   1.246   1.096   7.497 -0.2113  0.1038 -0.2999
 8266SOL    HW136257   1.285   1.183   7.504  0.2378 -0.1603  0.4573
 8266SOL    HW236258   1.316   1.047   7.453 -0.3530 -1.0331  0.7390
 8267SOL     OW36259   4.319   3.403   6.780  0.0355  0.2091  0.3874
 8267SOL    HW136260   4.374   3.381   6.704 -1.6472  0.0936 -0.8058
 8267SOL    HW236261   4.349   3.493   6.790 -3.2986  1.3404  0.2294
 8268SOL     OW36262   3.403   1.303  17.474 -0.2203  0.0138  0.7272
 8268SOL    HW136263   3.484   1.320  17.426 -0.4679  0.4119  0.4534
 8268SOL    HW236264   3.391   1.383  17.525  1.5681  1.7448 -1.5632
 8269SOL     OW36265   3.480   2.549  15.702  0.1537  0.2364 -0.0012
 8269SOL    HW136266   3.550   2.486  15.684 -0.0030  0.2836 -0.7590
 8269SOL    HW236267   3.415   2.496  15.750  0.9696  0.1987  1.0665
 8270SOL     OW36268   4.102   4.197   4.626  0.0626  0.4380  0.5344
 8270SOL    HW136269   4.070   4.232   4.543  1.1267 -2.2890 -1.0319
 8270SOL    HW236270   4.170   4.263   4.640 -0.2267  1.5119 -2.9194
 8271SOL     OW36271   0.486   3.135  11.452 -0.5461 -0.7538  0.0419
 8271SOL    HW136272   0.521   3.189  11.523  1.3731 -0.2235 -1.3254
 8271SOL    HW236273   0.529   3.187  11.384 -1.0740 -0.5286 -0.1202
 8272SOL     OW36274   3.754   0.400  10.330 -0.0544  0.0388  0.1241
 8272SOL    HW136275   3.665   0.373  10.355 -0.5765  0.1656 -1.5807
 8272SOL    HW236276   3.805   0.320  10.341 -3.5994 -2.1611  0.7092
 8273SOL     OW36277   3.691   2.810   7.350  0.5337 -0.3854  0.0613
 8273SOL    HW136278   3.753   2.841   7.284  1.3671 -1.4902  0.3144
 8273SOL    HW236279   3.617   2.865   7.324 -0.4333 -1.0472  1.3985
 8274SOL     OW36280   1.922   1.706   7.251 -0.1020 -0.2547 -0.3906
 8274SOL    HW136281   1.936   1.800   7.264  1.6809 -0.5889  0.0565
 8274SOL    HW236282   1.920   1.707   7.156 -1.2511  0.1382 -0.3572
 8275SOL     OW36283   4.297   2.052  15.934 -0.4754 -0.0477 -0.0134
 8275SOL    HW136284   4.391   2.035  15.926 -0.8557 -2.5853  1.0913
 8275SOL    HW236285   4.282   2.068  16.027 -0.6836  3.5934 -0.6813
 8276SOL     OW36286   3.779   1.355   0.839  0.2558 -0.4966  0.6801
 8276SOL    HW136287   3.850   1.323   0.784  0.1559 -0.0047  0.2710
 8276SOL    HW236288   3.797   1.446   0.861  2.6047 -1.5431  3.0861
 8277SOL     OW36289   3.123   2.589   9.228  0.4725  0.1062  0.2966
 8277SOL    HW136290   3.047   2.531   9.223  1.4991 -1.1146 -1.2666
 8277SOL    HW236291   3.169   2.512   9.263 -0.3789  0.5516  2.3878
 8278SOL     OW36292   4.169   3.289   3.114 -0.4341  0.1362 -0.0856
 8278SOL    HW136293   4.098   3.228   3.137 -1.7353  2.1108  1.1065
 8278SOL    HW236294   4.127   3.347   3.051 -0.9543 -0.9383 -0.7273
 8279SOL     OW36295   4.410   4.023   4.859 -0.4120  0.8715  0.0115
 8279SOL    HW136296   4.479   4.088   4.871  0.7895 -0.4888  0.4301
 8279SOL    HW236297   4.370   4.009   4.944 -1.2072 -0.8336 -0.6397
 8280SOL     OW36298   3.462   2.483   0.161 -1.3059 -0.1559  0.4557
 8280SOL    HW136299   3.460   2.511   0.069  0.3648  1.3032  0.8492
 8280SOL    HW236300   3.415   2.556   0.203 -1.1431 -0.1289  0.5904
 8281SOL     OW36301   2.573   1.711   8.216 -0.5589  0.0647 -0.5283
 8281SOL    HW136302   2.649   1.711   8.157 -0.5746 -0.9668 -0.5420
 8281SOL    HW236303   2.616   1.720   8.301 -1.1302 -1.3116 -0.1137
 8282SOL     OW36304   3.464   0.390   3.648 -0.5452  0.1904 -0.1181
 8282SOL    HW136305   3.522   0.373   3.574 -1.1682  1.1412 -0.8196
 8282SOL    HW236306   3.390   0.437   3.611 -0.1788  2.5224  2.0510
 8283SOL     OW36307   2.453   2.550   7.102  0.0283 -0.6533 -0.0610
 8283SOL    HW136308   2.494   2.509   7.178 -0.1796 -3.0566 -1.2153
 8283SOL    HW236309   2.517   2.615   7.075 -2.9735  1.5903 -1.7333
 8284SOL     OW36310   3.330   0.291   2.538  0.1255 -0.4680  0.1807
 8284SOL    HW136311   3.375   0.284   2.453 -1.3761 -0.1697 -0.6337
 8284SOL    HW236312   3.387   0.237   2.594  0.5936  0.7347  0.8499
 8285SOL     OW36313   3.846   2.836   3.824 -0.5986 -0.1985  0.3485
 8285SOL    HW136314   3.811   2.868   3.907  2.9325  0.6485  1.5318
 8285SOL    HW236315   3.813   2.747   3.817 -1.6577  0.0060  2.7715
 8286SOL     OW36316   0.391   1.326   5.714  0.5269 -0.2287  0.6575
 8286SOL    HW136317   0.394   1.248   5.769 -0.0963 -2.3108 -2.2836
 8286SOL    HW236318   0.438   1.394   5.763  0.0082  1.2898 -0.9605
 8287SOL     OW36319   3.979   1.817   0.315  0.5081 -0.6710  0.0015
 8287SOL    HW136320   3.994   1.751   0.382 -0.0553 -0.3606  0.4413
 8287SOL    HW236321   4.069   1.840   0.294  0.5347  2.1875  3.1187
 8288SOL     OW36322   1.375   4.415   3.235 -0.2679 -0.7581 -0.3724
 8288SOL    HW136323   1.404   4.327   3.210  1.1664 -0.7698  1.3179
 8288SOL    HW236324   1.454   4.462   3.209  0.6726 -1.8869  0.4479
 8289SOL     OW36325   3.166   4.705   3.818 -0.0301 -0.1096 -0.5921
 8289SOL    HW136326   3.166   0.069   3.858 -1.7373 -0.1315 -0.5477
 8289SOL    HW236327   3.123   0.005   3.735 -0.5945 -1.9605 -0.8094
 8290SOL     OW36328   1.815   0.628   6.972 -0.0696  0.0451 -0.1498
 8290SOL    HW136329   1.823   0.538   6.940  0.0931  0.2513 -0.6764
 8290SOL    HW236330   1.799   0.673   6.889 -0.4952 -1.0177 -0.6477
 8291SOL     OW36331   2.338   1.336   5.891  0.0745  0.0200  0.2893
 8291SOL    HW136332   2.327   1.387   5.971  1.1202 -1.6093  1.4650
 8291SOL    HW236333   2.418   1.380   5.862  0.2793 -2.4551 -2.9622
 8292SOL     OW36334   0.173   0.272   6.761 -0.1774 -0.2494 -0.2237
 8292SOL    HW136335   0.131   0.358   6.766  0.7748  0.2007  0.0373
 8292SOL    HW236336   0.109   0.214   6.802  2.0370 -2.2488  0.4308
 8293SOL     OW36337   0.201   4.289  17.325 -0.0981 -0.2515  0.0389
 8293SOL    HW136338   0.158   4.372  17.308  0.4081  0.5163  2.5495
 8293SOL    HW236339   0.143   4.232  17.275 -0.4602  1.4470 -1.4792
 8294SOL     OW36340   0.245   0.724  15.681 -0.6182 -0.3347  0.0902
 8294SOL    HW136341   0.240   0.634  15.713  1.2084 -0.3672  0.2879
 8294SOL    HW236342   0.319   0.709  15.622  0.6894 -0.6495  1.7978
 8295SOL     OW36343   1.566   2.996   6.612  0.1420 -0.2939 -0.4791
 8295SOL    HW136344   1.642   2.983   6.668 -0.4478 -1.0102  0.1591
 8295SOL    HW236345   1.500   2.963   6.674  1.5414 -1.9737  0.1329
 8296SOL     OW36346   3.542   1.958  13.793 -0.2370 -0.6764  0.6411
 8296SOL    HW136347   3.629   1.995  13.806 -1.1973  1.4241  1.2039
 8296SOL    HW236348   3.485   2.021  13.837  1.2952  0.1807  1.3670
 8297SOL     OW36349   2.322   4.666   3.711  0.3277  0.0649 -0.8128
 8297SOL    HW136350   2.367   0.014   3.757 -2.9277  1.9689 -0.5858
 8297SOL    HW236351   2.330   4.589   3.768 -1.4930  0.6514  0.2200
 8298SOL     OW36352   2.181   1.682   8.616 -0.3708  0.1590  1.0322
 8298SOL    HW136353   2.220   1.683   8.703  2.8546  0.5854 -0.4266
 8298SOL    HW236354   2.243   1.733   8.564 -1.8940 -0.4206 -1.3719
 8299SOL     OW36355   0.168   1.534  11.737 -0.3984 -0.0025 -0.2735
 8299SOL    HW136356   0.159   1.597  11.809  1.9919 -0.8435  0.7522
 8299SOL    HW236357   0.262   1.550  11.729 -0.0767 -0.3550  2.7723
 8300SOL     OW36358   4.482   3.927   5.891 -0.1824 -0.1193 -0.1640
 8300SOL    HW136359   4.501   3.895   5.803 -1.8653  0.1968 -0.6520
 8300SOL    HW236360   4.567   3.956   5.924 -0.9291  0.4889  1.2630
 8301SOL     OW36361   0.183   0.663   6.184 -0.0669 -0.4560  0.4851
 8301SOL    HW136362   0.158   0.733   6.244 -1.3381  0.0636 -0.6447
 8301SOL    HW236363   0.155   0.697   6.099 -1.7402  0.6096  1.4530
 8302SOL     OW36364   4.308   3.353  14.696 -0.3490 -0.0734 -0.4941
 8302SOL    HW136365   4.238   3.400  14.649 -1.3438 -1.6640 -0.5961
 8302SOL    HW236366   4.372   3.349  14.626 -0.5210  0.9421 -0.7117
 8303SOL     OW36367   2.969   0.781   3.937  0.1251  0.6735  0.3205
 8303SOL    HW136368   2.877   0.778   3.911  1.2049 -2.8674 -3.1014
 8303SOL    HW236369   2.974   0.787   4.032  2.0390 -0.1426  0.2690
 8304SOL     OW36370   1.516   1.544   5.369 -0.2370  0.0692 -0.5504
 8304SOL    HW136371   1.496   1.622   5.420 -1.2134  0.8002 -2.0602
 8304SOL    HW236372   1.519   1.479   5.440  0.2896  2.0944  1.2827
 8305SOL     OW36373   1.967   0.532   8.603 -0.3573 -0.7077  0.0332
 8305SOL    HW136374   1.940   0.456   8.552 -0.8404 -0.8027  0.4264
 8305SOL    HW236375   2.055   0.547   8.569 -1.3970 -1.0225 -2.8436
 8306SOL     OW36376   2.293   1.011   8.974 -0.4964  0.0065  0.0384
 8306SOL    HW136377   2.338   1.012   8.889 -1.2650  2.1254 -0.3486
 8306SOL    HW236378   2.359   1.055   9.028  0.6244 -1.2704 -0.2867
 8307SOL     OW36379   3.246   4.662   8.129 -0.0549  0.4851 -0.1411
 8307SOL    HW136380   3.158   4.659   8.166  0.7833 -2.2878  1.5658
 8307SOL    HW236381   3.236   0.031   8.102  0.8092  0.4676 -0.5205
 8308SOL     OW36382   1.271   1.690   9.645  0.2538 -0.1740  0.1397
 8308SOL    HW136383   1.192   1.742   9.626  0.4757  0.6213  1.4293
 8308SOL    HW236384   1.265   1.616   9.584 -3.0278 -0.8626  1.2864
 8309SOL     OW36385   1.110   1.552   3.901 -0.0418  0.8963 -0.1645
 8309SOL    HW136386   1.037   1.599   3.940  1.3745  3.2447 -0.3632
 8309SOL    HW236387   1.155   1.631   3.871  0.4829  1.6637  2.5620
 8310SOL     OW36388   4.376   1.088   8.091  0.1093  0.1878  0.6496
 8310SOL    HW136389   4.395   1.079   7.998 -1.6702 -1.4470  0.4622
 8310SOL    HW236390   4.282   1.106   8.097 -0.0475 -0.6341  0.6963
 8311SOL     OW36391   2.477   3.945   3.961  0.2668  0.2761 -0.1514
 8311SOL    HW136392   2.433   3.919   3.880 -0.5558 -2.3892  1.1230
 8311SOL    HW236393   2.479   3.866   4.015  0.3775  1.3000  1.3290
 8312SOL     OW36394   3.998   2.939   5.487  0.0479  0.1367  0.2889
 8312SOL    HW136395   3.950   2.966   5.566 -3.1381 -0.6530 -1.3554
 8312SOL    HW236396   4.015   2.849   5.513 -1.7471  0.4204  2.4803
 8313SOL     OW36397   1.915   3.978   9.341  0.3731  0.2882  0.2088
 8313SOL    HW136398   1.976   4.052   9.340 -1.7143  2.0085  0.2726
 8313SOL    HW236399   1.849   4.016   9.400  0.7655  1.9822 -0.4314
 8314SOL     OW36400   1.446   2.981   7.863  0.1454  0.1093  0.0216
 8314SOL    HW136401   1.367   2.972   7.916  0.1317 -0.6385 -0.1338
 8314SOL    HW236402   1.509   3.009   7.929 -0.5662  0.7046  0.4602
 8315SOL     OW36403   1.968   4.529   6.666  0.1633  0.0174 -0.0043
 8315SOL    HW136404   1.934   4.439   6.663 -2.8504  1.0431  3.1038
 8315SOL    HW236405   2.041   4.523   6.728 -1.2476 -3.2302  1.3984
 8316SOL     OW36406   1.447   1.625   8.597  0.0379  0.0073  0.4116
 8316SOL    HW136407   1.376   1.612   8.661 -1.3849 -0.1255 -1.1744
 8316SOL    HW236408   1.524   1.614   8.653 -0.0223 -0.3624  0.4208
 8317SOL     OW36409   2.834   1.207   9.801 -0.4163  0.2479  0.1067
 8317SOL    HW136410   2.857   1.272   9.735 -2.8667 -0.1299 -1.1363
 8317SOL    HW236411   2.741   1.224   9.817 -1.0479 -1.7721 -1.4517
 8318SOL     OW36412   2.678   3.727   3.863  1.1727  0.4475 -0.5206
 8318SOL    HW136413   2.671   3.638   3.830  0.1653 -1.0554  3.6652
 8318SOL    HW236414   2.619   3.721   3.938  0.3880 -1.0485 -1.2766
 8319SOL     OW36415   1.322   3.775   6.582 -0.8482  0.1701  0.0150
 8319SOL    HW136416   1.350   3.739   6.666 -1.6925  0.0197  0.2384
 8319SOL    HW236417   1.234   3.806   6.604 -1.0310  0.1061 -0.6356
 8320SOL     OW36418   1.896   4.604  10.748  0.2115 -0.1725  0.1754
 8320SOL    HW136419   1.843   4.620  10.671  0.8316 -3.3587 -0.9035
 8320SOL    HW236420   1.979   4.630  10.707  0.8194 -0.2420  1.3329
 8321SOL     OW36421   0.114   2.862   0.283 -0.2610 -0.0427  0.0727
 8321SOL    HW136422   0.132   2.821   0.368 -0.5062  0.6386  0.4534
 8321SOL    HW236423   0.042   2.803   0.259 -0.0632 -0.1160 -0.3395
 8322SOL     OW36424   1.453   3.579  10.246  0.6568 -0.4763 -0.1666
 8322SOL    HW136425   1.501   3.602  10.326  0.6401 -1.8576  0.2342
 8322SOL    HW236426   1.518   3.600  10.179  0.7892 -1.9917 -0.4972
 8323SOL     OW36427   0.550   0.920   4.729  0.0279  0.2099 -0.0853
 8323SOL    HW136428   0.610   0.846   4.729  1.3426  1.2967 -1.5915
 8323SOL    HW236429   0.473   0.872   4.699  1.2964 -2.1291  0.3996
 8324SOL     OW36430   0.742   4.417  10.937  0.0669 -0.2622 -0.0282
 8324SOL    HW136431   0.834   4.390  10.933  0.4709  1.0618  0.4993
 8324SOL    HW236432   0.744   4.512  10.944  0.6924 -0.2637 -0.1655
 8325SOL     OW36433   1.692   4.690  10.922  0.4028 -0.8317 -0.2609
 8325SOL    HW136434   1.756   4.652  10.861  0.4962  0.7448 -1.1452
 8325SOL    HW236435   1.740   0.026  10.980 -3.1995 -0.2843  2.1897
 8326SOL     OW36436   3.207   0.678   8.074 -0.0870 -0.2004 -0.3731
 8326SOL    HW136437   3.141   0.709   8.012  0.5509  0.2263 -0.8379
 8326SOL    HW236438   3.244   0.601   8.029  2.3276 -0.9098  2.8701
 8327SOL     OW36439   0.189   4.473   9.508  0.2262 -0.1130 -0.4858
 8327SOL    HW136440   0.238   4.391   9.506 -1.2989 -1.0122 -0.8936
 8327SOL    HW236441   0.213   4.507   9.594  1.7773 -1.4931 -0.3714
 8328SOL     OW36442   1.773   1.896  15.000 -0.3714  0.7364  0.0019
 8328SOL    HW136443   1.828   1.974  14.993  0.2292  0.2566 -0.6990
 8328SOL    HW236444   1.822   1.854  15.070 -1.5771  1.2453  1.1395
 8329SOL     OW36445   4.083   0.110   5.302  0.2502  0.1061  0.0883
 8329SOL    HW136446   4.118   0.042   5.244  1.9058  0.0469  1.1476
 8329SOL    HW236447   4.102   0.189   5.252 -2.8922  0.1502 -1.0431
 8330SOL     OW36448   2.058   4.338  13.515 -0.2320 -0.4149  0.6097
 8330SOL    HW136449   2.088   4.420  13.476  2.5080 -2.3580 -1.4521
 8330SOL    HW236450   2.090   4.279  13.446  0.7501 -0.8940  1.4856
 8331SOL     OW36451   0.686   3.601  14.170  0.2773 -0.0038  0.1981
 8331SOL    HW136452   0.601   3.639  14.195  0.2318 -0.0306  0.0868
 8331SOL    HW236453   0.689   3.535  14.239 -0.3779 -0.5106 -0.2529
 8332SOL     OW36454   2.919   2.761  13.084 -0.1515  0.5494  0.1759
 8332SOL    HW136455   2.954   2.848  13.065  0.0224 -0.0416 -2.3271
 8332SOL    HW236456   2.978   2.738  13.155  0.7446  1.1288 -0.3717
 8333SOL     OW36457   1.863   1.265   6.880 -0.0696 -0.1372 -0.0443
 8333SOL    HW136458   1.771   1.281   6.900 -0.7316 -0.7678 -2.5771
 8333SOL    HW236459   1.910   1.291   6.959 -0.1861 -1.2672  0.3985
 8334SOL     OW36460   1.810   3.401   2.400 -0.1359  0.0956  0.2027
 8334SOL    HW136461   1.824   3.463   2.472 -0.7403  0.0188  0.3908
 8334SOL    HW236462   1.842   3.438   2.318 -1.0145 -0.5870 -0.4488
 8335SOL     OW36463   4.011   0.284   9.378 -0.2646 -0.1705 -0.1086
 8335SOL    HW136464   3.974   0.245   9.457 -0.2675  1.5285  0.7302
 8335SOL    HW236465   4.092   0.234   9.371 -1.1479 -1.5981 -0.0470
 8336SOL     OW36466   3.421   4.609  10.101 -0.2494  0.6012 -0.7759
 8336SOL    HW136467   3.331   4.586  10.121  0.5821 -1.0043  1.1559
 8336SOL    HW236468   3.434   4.613  10.006  1.4841  1.7140 -0.4971
 8337SOL     OW36469   2.904   3.942   2.264  0.8192  0.4630  0.6227
 8337SOL    HW136470   2.847   3.952   2.187  2.0741  2.3123 -0.0551
 8337SOL    HW236471   2.885   3.857   2.302 -0.7455  1.1508  1.3537
 8338SOL     OW36472   1.302   2.089   5.482  0.0061 -0.2739 -0.0186
 8338SOL    HW136473   1.360   2.033   5.431 -0.4480  1.1801 -2.1154
 8338SOL    HW236474   1.369   2.131   5.537  1.0890 -1.2413 -0.6061
 8339SOL     OW36475   3.359   2.872  17.338 -0.2311  0.1354  0.4188
 8339SOL    HW136476   3.414   2.802  17.375 -0.5739  0.0639  0.7948
 8339SOL    HW236477   3.344   2.827  17.255 -1.7170  0.6171  0.4388
 8340SOL     OW36478   3.743   2.268   0.027 -0.1097  0.3992  0.2047
 8340SOL    HW136479   3.795   2.244  17.642 -0.2486  1.0217 -0.0855
 8340SOL    HW236480   3.704   2.353   0.004 -2.6498 -0.7092  0.4453
 8341SOL     OW36481   3.383   0.116   7.755  0.1289 -0.2530  0.1392
 8341SOL    HW136482   3.402   0.202   7.792 -0.4162  0.0652 -0.3185
 8341SOL    HW236483   3.407   0.066   7.833  2.3833 -0.6056 -0.8052
 8342SOL     OW36484   4.059   4.415   7.665  0.1779 -0.1506  0.1316
 8342SOL    HW136485   4.020   4.411   7.752  0.1883  0.1870  0.1547
 8342SOL    HW236486   4.022   4.339   7.622 -0.5015  0.5760 -0.5763
 8343SOL     OW36487   1.759   4.634  11.252 -0.1934  0.0643 -0.0091
 8343SOL    HW136488   1.798   4.716  11.221 -0.3018  0.4135  0.7725
 8343SOL    HW236489   1.729   4.601  11.168 -1.3204 -1.3177  0.9323
 8344SOL     OW36490   2.655   1.903   9.231  0.5204  0.0201  0.5395
 8344SOL    HW136491   2.597   1.944   9.296  0.1361  0.8101 -0.3050
 8344SOL    HW236492   2.595   1.841   9.189 -1.6774  3.1605 -0.9587
 8345SOL     OW36493   0.307   0.204   9.512  0.1798 -0.2229  0.0085
 8345SOL    HW136494   0.255   0.158   9.447 -0.4929  2.0359 -1.0653
 8345SOL    HW236495   0.270   0.292   9.510  3.5421  1.2137 -0.2522
 8346SOL     OW36496   3.798   3.533   2.211  0.1909 -0.0228 -0.4047
 8346SOL    HW136497   3.725   3.591   2.191  0.4084  0.5292  0.4236
 8346SOL    HW236498   3.854   3.597   2.253  2.1046 -0.6544 -2.0343
 8347SOL     OW36499   0.156   0.831   3.273  0.5453 -0.0357 -0.3129
 8347SOL    HW136500   0.247   0.831   3.304  0.7276  0.7932 -0.8638
 8347SOL    HW236501   0.168   0.835   3.179 -0.6606 -3.6292 -0.6346
 8348SOL     OW36502   1.907   0.335  11.375  0.1032 -0.1775 -0.2608
 8348SOL    HW136503   1.925   0.385  11.454  0.5626 -0.2214 -0.3362
 8348SOL    HW236504   1.827   0.377  11.343  0.0718 -0.4225 -0.5002
 8349SOL     OW36505   2.304   0.343   7.777 -0.5046  0.4440 -0.4488
 8349SOL    HW136506   2.260   0.417   7.818 -0.3210  1.1348 -1.5132
 8349SOL    HW236507   2.246   0.329   7.703  1.4862 -1.5866 -1.6528
 8350SOL     OW36508   3.728   0.199   0.572 -0.1722 -0.2447 -0.2097
 8350SOL    HW136509   3.749   0.203   0.665 -0.4339 -0.8809 -0.1232
 8350SOL    HW236510   3.760   0.110   0.554 -0.1592 -0.4048  0.6221
 8351SOL     OW36511   3.344   1.734   8.045 -0.8386  0.7531  0.1511
 8351SOL    HW136512   3.363   1.681   7.968 -0.1572  0.8690  0.2377
 8351SOL    HW236513   3.280   1.681   8.091  0.3792 -2.6179 -2.0406
 8352SOL     OW36514   0.563   3.626   2.139  0.0511 -0.5286 -0.0543
 8352SOL    HW136515   0.490   3.603   2.197 -0.0841  0.7867  0.3017
 8352SOL    HW236516   0.620   3.550   2.137  1.7188  0.6815  1.4983
 8353SOL     OW36517   4.201   1.474   2.134  0.2097 -0.2399  0.3511
 8353SOL    HW136518   4.285   1.449   2.095 -0.7200 -1.8248 -0.6454
 8353SOL    HW236519   4.198   1.415   2.209 -0.3022 -1.0652 -0.3225
 8354SOL     OW36520   2.207   2.086   6.025 -0.2313  0.0266 -0.2060
 8354SOL    HW136521   2.220   2.008   5.972  1.8843  1.3068 -1.5930
 8354SOL    HW236522   2.298   2.098   6.054 -0.6718  0.5018  0.9577
 8355SOL     OW36523   3.526   0.260   6.474  0.1611  0.0891  0.4200
 8355SOL    HW136524   3.489   0.263   6.386 -0.3150 -1.2307  0.5759
 8355SOL    HW236525   3.506   0.347   6.508 -3.1379  0.3420 -2.1381
 8356SOL     OW36526   0.356   3.369   9.304  0.0302  0.7383  0.3526
 8356SOL    HW136527   0.390   3.459   9.307 -0.4302  0.9077  0.5504
 8356SOL    HW236528   0.328   3.348   9.393  1.3063 -1.0260  0.3433
 8357SOL     OW36529   3.106   3.518   7.102 -0.0108 -0.3069  0.2884
 8357SOL    HW136530   3.184   3.571   7.118 -1.4271  1.6766  0.5919
 8357SOL    HW236531   3.035   3.582   7.116 -0.0831 -0.4713  0.6670
 8358SOL     OW36532   4.119   4.128   0.474 -0.5761 -0.1781 -0.4641
 8358SOL    HW136533   4.102   4.064   0.543 -1.2258  0.6745  0.1619
 8358SOL    HW236534   4.212   4.118   0.455 -0.2869  1.6838  0.0066
 8359SOL     OW36535   1.764   2.888   7.647  0.2622 -0.1559 -0.8679
 8359SOL    HW136536   1.778   2.981   7.661 -0.2713 -0.4994  1.8423
 8359SOL    HW236537   1.669   2.880   7.637  0.3836  0.5734 -2.5622
 8360SOL     OW36538   4.208   3.471   2.791 -0.2152  0.6596 -0.1587
 8360SOL    HW136539   4.220   3.544   2.730 -0.7367  1.3636  0.5744
 8360SOL    HW236540   4.276   3.487   2.858 -0.4548  1.3129 -0.0704
 8361SOL     OW36541   0.355   3.775   7.649 -0.2936 -0.2763  0.3150
 8361SOL    HW136542   0.311   3.711   7.593 -0.2209  0.7726 -0.9466
 8361SOL    HW236543   0.313   3.756   7.732  2.1156  2.2864  2.1135
 8362SOL     OW36544   2.228   1.020   4.321 -0.4838 -0.5608  0.4113
 8362SOL    HW136545   2.147   0.993   4.277 -0.0799 -2.0182  0.5508
 8362SOL    HW236546   2.232   0.956   4.392  0.2346 -1.5575 -0.5231
 8363SOL     OW36547   0.022   4.417   5.801 -0.0213  0.2013  0.1017
 8363SOL    HW136548   0.057   4.486   5.857  0.9624 -0.0597 -0.1920
 8363SOL    HW236549   4.682   4.371   5.855 -0.6740  0.9372 -0.0268
 8364SOL     OW36550   3.142   2.067   2.366  0.0639  0.2876  0.5167
 8364SOL    HW136551   3.068   2.080   2.307  1.6691  1.9884 -1.1548
 8364SOL    HW236552   3.212   2.100   2.310  2.6540 -0.0027  3.5807
 8365SOL     OW36553   3.057   0.875  10.753 -0.6263  0.3065  0.0428
 8365SOL    HW136554   3.016   0.863  10.839 -1.5959 -1.6235 -0.7001
 8365SOL    HW236555   3.149   0.867  10.778 -0.5857 -0.3641 -0.3197
 8366SOL     OW36556   1.057   2.446   7.767  0.2408  0.3529  0.1592
 8366SOL    HW136557   1.049   2.485   7.854 -0.4906 -0.0184  0.2611
 8366SOL    HW236558   1.135   2.391   7.773  0.3178  0.1557 -2.5950
 8367SOL     OW36559   2.205   4.195   2.580 -0.1169 -0.1573 -0.4190
 8367SOL    HW136560   2.114   4.216   2.604 -0.2806  0.5018 -1.6179
 8367SOL    HW236561   2.222   4.254   2.507  0.1324  1.7418  1.1798
 8368SOL     OW36562   1.936   1.453  17.408  0.4619  0.6367 -0.0223
 8368SOL    HW136563   1.843   1.475  17.406  0.8642  2.1802 -1.8334
 8368SOL    HW236564   1.978   1.539  17.414  0.7027  0.2930  3.0783
 8369SOL     OW36565   0.272   0.774   3.679  0.3641  0.0082 -0.5750
 8369SOL    HW136566   0.191   0.737   3.644 -0.4561  1.0567  0.1969
 8369SOL    HW236567   0.248   0.866   3.694 -1.3607 -0.6512  0.8433
 8370SOL     OW36568   0.060   1.490  12.962  0.2516 -0.6405  0.0038
 8370SOL    HW136569   0.148   1.475  12.997 -0.2342 -0.0388  1.4932
 8370SOL    HW236570   0.060   1.465  12.870 -2.0176 -1.2806  0.1848
 8371SOL     OW36571   3.660   1.514  12.891 -0.4703  0.3226  0.1094
 8371SOL    HW136572   3.626   1.483  12.975  1.0791  0.0378  0.6413
 8371SOL    HW236573   3.639   1.437  12.838  1.4079  0.7773 -1.2967
 8372SOL     OW36574   3.853   0.655   2.150 -0.1391  0.1706  0.1008
 8372SOL    HW136575   3.848   0.730   2.210 -1.1073 -0.4594  0.8081
 8372SOL    HW236576   3.846   0.701   2.067  1.2979 -2.1027 -1.2539
 8373SOL     OW36577   0.309   1.341  12.727 -0.3531  0.2633  0.4051
 8373SOL    HW136578   0.228   1.327  12.679  0.1683  0.1334 -0.4293
 8373SOL    HW236579   0.286   1.419  12.779 -0.3831  0.7076 -0.2785
 8374SOL     OW36580   1.030   1.204  12.020 -0.5991  0.3314  0.0991
 8374SOL    HW136581   1.029   1.126  12.076  0.6269  0.3569  0.1475
 8374SOL    HW236582   0.991   1.267  12.080  0.1963 -1.1139  2.1466
 8375SOL     OW36583   3.841   4.206   6.080 -0.5056 -0.2000 -0.1359
 8375SOL    HW136584   3.880   4.149   6.014 -2.5306  1.3232 -2.6369
 8375SOL    HW236585   3.916   4.265   6.089 -0.7008 -0.1836  1.4649
 8376SOL     OW36586   0.456   4.716   5.256 -0.0848  0.7535  0.6490
 8376SOL    HW136587   0.402   0.031   5.325 -0.6431  0.0495  0.6032
 8376SOL    HW236588   0.542   0.007   5.295 -0.1306 -0.5804  1.2155
 8377SOL     OW36589   2.927   1.958   3.815 -0.5242  0.1313 -0.6571
 8377SOL    HW136590   2.965   2.019   3.751 -0.3776  1.1798  0.4119
 8377SOL    HW236591   2.998   1.901   3.845 -1.7570  0.4616  2.8545
 8378SOL     OW36592   3.200   0.673  15.467  0.0719 -0.0522  0.1668
 8378SOL    HW136593   3.204   0.736  15.395 -2.1816  1.3438  1.2728
 8378SOL    HW236594   3.117   0.631  15.443 -0.7286  1.3062  0.5369
 8379SOL     OW36595   2.728   1.491   0.132 -0.3376 -0.2697  0.3643
 8379SOL    HW136596   2.805   1.523   0.180 -0.2689 -0.4344  0.3618
 8379SOL    HW236597   2.679   1.573   0.130 -2.0475 -1.2461  2.3815
 8380SOL     OW36598   2.590   1.118   8.240  0.3115  0.3306 -0.4164
 8380SOL    HW136599   2.495   1.111   8.233  0.1875  1.3266  0.2655
 8380SOL    HW236600   2.596   1.212   8.220 -2.1298  0.9357  1.7260
 8381SOL     OW36601   1.051   2.522  13.568 -0.5230  0.4146 -0.2320
 8381SOL    HW136602   1.004   2.439  13.577 -0.0595 -0.1752 -3.3877
 8381SOL    HW236603   1.055   2.540  13.662 -0.3092 -1.3859  0.1091
 8382SOL     OW36604   3.737   4.260  11.519  0.8928  0.4103  0.0248
 8382SOL    HW136605   3.761   4.328  11.582 -0.4754 -0.2808  1.2857
 8382SOL    HW236606   3.667   4.311  11.477 -0.4008 -1.0805  0.3564
 8383SOL     OW36607   0.314   0.323   1.347 -0.8595 -0.3082 -0.0377
 8383SOL    HW136608   0.372   0.251   1.372  0.3995  0.6076 -0.3044
 8383SOL    HW236609   0.225   0.287   1.347 -1.7727  1.9572  0.7066
 8384SOL     OW36610   1.051   3.876  12.943 -0.5672 -0.3855 -0.2093
 8384SOL    HW136611   1.008   3.794  12.918 -2.6298  0.1769  1.4664
 8384SOL    HW236612   1.126   3.877  12.883 -0.3343  1.6973  0.1146
 8385SOL     OW36613   4.287   2.882  16.748 -0.0591  0.0005  0.4397
 8385SOL    HW136614   4.275   2.880  16.653  0.6153  0.9464  0.3410
 8385SOL    HW236615   4.249   2.966  16.775  1.6219  0.9987 -0.3488
 8386SOL     OW36616   4.113   1.133   3.866  0.3532  0.0686 -0.3973
 8386SOL    HW136617   4.033   1.144   3.816 -0.6610 -2.4391  0.6797
 8386SOL    HW236618   4.155   1.219   3.869 -1.7831  1.0684  0.3933
 8387SOL     OW36619   3.920   2.335   2.752  0.8585  0.1315  0.1767
 8387SOL    HW136620   3.904   2.246   2.720 -0.6469  0.0178  1.2654
 8387SOL    HW236621   3.971   2.373   2.681  0.4553  0.6103  0.1472
 8388SOL     OW36622   2.156   0.233   8.584 -0.0704  0.6808  0.1267
 8388SOL    HW136623   2.191   0.269   8.503  0.9832 -0.0821  0.2405
 8388SOL    HW236624   2.235   0.181   8.601  0.3796  0.8645 -1.4218
 8389SOL     OW36625   2.117   1.059  10.046  0.2185  0.7681 -0.6241
 8389SOL    HW136626   2.138   1.149  10.069 -1.9460  0.7540  1.4125
 8389SOL    HW236627   2.095   1.061   9.953  2.1994  1.2955 -1.0792
 8390SOL     OW36628   2.765   0.835   2.200  0.1725 -0.5623  0.1391
 8390SOL    HW136629   2.774   0.870   2.288  0.8402  1.0829 -0.5609
 8390SOL    HW236630   2.688   0.886   2.175  3.2353  4.0510  0.0149
 8391SOL     OW36631   3.606   4.493   3.058 -0.9632  0.6445 -0.4191
 8391SOL    HW136632   3.601   4.520   2.966  1.3328  2.7250  0.0517
 8391SOL    HW236633   3.624   4.401   3.040 -0.1904  0.3552  1.8738
 8392SOL     OW36634   3.980   3.463   0.892  0.4571  0.2568 -0.3209
 8392SOL    HW136635   3.903   3.408   0.909 -1.0675  2.8682  1.2488
 8392SOL    HW236636   3.966   3.496   0.803 -2.6206  1.8925  0.7410
 8393SOL     OW36637   3.739   1.386   6.110  0.0109  0.1977 -0.4556
 8393SOL    HW136638   3.660   1.409   6.158 -0.4615  0.1290 -1.2178
 8393SOL    HW236639   3.728   1.291   6.104  0.7026  0.0048  1.0563
 8394SOL     OW36640   3.837   0.201   2.832 -0.4766  0.3882  0.3149
 8394SOL    HW136641   3.744   0.219   2.844 -0.7330  0.5443 -2.0710
 8394SOL    HW236642   3.876   0.289   2.836  0.1475  0.0922  0.7351
 8395SOL     OW36643   4.710   2.048   9.417  0.0132  0.3104 -0.4953
 8395SOL    HW136644   4.660   1.973   9.447  1.2045 -0.6964 -0.9961
 8395SOL    HW236645   4.714   2.043   9.321  0.3875 -0.9554 -0.4158
 8396SOL     OW36646   0.753   0.616   7.839 -0.3118 -0.1911 -0.6374
 8396SOL    HW136647   0.716   0.704   7.838 -0.1890 -0.1458 -1.3412
 8396SOL    HW236648   0.841   0.632   7.804 -0.4164  2.9637  0.5560
 8397SOL     OW36649   2.083   0.143   9.373 -0.0646  0.0143  0.0573
 8397SOL    HW136650   2.021   0.205   9.412  1.2214  1.3668 -0.0376
 8397SOL    HW236651   2.167   0.182   9.399  0.3190  0.2202 -1.4985
 8398SOL     OW36652   2.645   3.470   4.603 -0.6868 -0.4419 -0.2938
 8398SOL    HW136653   2.646   3.486   4.698  1.8926 -2.6539  0.0797
 8398SOL    HW236654   2.579   3.536   4.584 -0.0330 -0.1993 -1.7162
 8399SOL     OW36655   3.637   0.432   1.371  0.4990  0.5911  0.3446
 8399SOL    HW136656   3.653   0.399   1.283 -0.8310 -0.6539  0.5696
 8399SOL    HW236657   3.674   0.363   1.426 -0.9308 -0.1650  0.3743
 8400SOL     OW36658   2.237   2.965   0.304  0.3629  0.4741 -0.5590
 8400SOL    HW136659   2.329   2.985   0.321  0.6606 -0.6714 -0.8411
 8400SOL    HW236660   2.229   2.987   0.212 -0.7018  1.5467 -0.2120
 8401SOL     OW36661   3.826   3.458  17.571 -0.1059 -0.2136 -0.0020
 8401SOL    HW136662   3.894   3.423  17.513  0.4600 -0.5307  0.8486
 8401SOL    HW236663   3.881   3.477  17.648 -0.1290 -0.9577  0.1929
 8402SOL     OW36664   1.989   1.762  16.584 -0.4166 -0.7109 -0.1514
 8402SOL    HW136665   1.928   1.688  16.590 -2.2759  0.7528 -0.9879
 8402SOL    HW236666   2.016   1.782  16.673  1.7716 -2.2380 -0.4758
 8403SOL     OW36667   2.382   4.695   0.174 -0.6483  0.6290  0.1406
 8403SOL    HW136668   2.299   4.656   0.204  0.2480  0.5418  2.5641
 8403SOL    HW236669   2.369   0.054   0.223 -0.3799 -0.1960  1.5805
 8404SOL     OW36670   4.055   3.461   7.112 -0.2817  0.5261  0.6484
 8404SOL    HW136671   4.079   3.378   7.151  2.4580  0.1907 -1.7303
 8404SOL    HW236672   4.115   3.521   7.156  1.5354 -2.0296  1.5964
 8405SOL     OW36673   0.493   0.449  13.398 -0.2945 -0.0866 -0.2992
 8405SOL    HW136674   0.417   0.428  13.343 -0.1439 -3.0354  0.6134
 8405SOL    HW236675   0.463   0.416  13.483 -0.0810  0.6017  0.0479
 8406SOL     OW36676   2.874   1.674   6.467 -0.2509 -0.3211  0.1311
 8406SOL    HW136677   2.848   1.742   6.529 -1.2391 -1.2990  0.7925
 8406SOL    HW236678   2.856   1.591   6.511  1.4616 -0.4861  0.5166
 8407SOL     OW36679   3.507   2.201   7.552  0.6727  0.0220  0.1480
 8407SOL    HW136680   3.519   2.294   7.533 -0.3437  0.1126 -0.0437
 8407SOL    HW236681   3.451   2.167   7.483 -0.4490 -0.0050  1.0855
 8408SOL     OW36682   2.519   0.182   9.132  0.0798  0.3130 -0.4533
 8408SOL    HW136683   2.606   0.222   9.139 -0.4752  1.5142 -0.3353
 8408SOL    HW236684   2.483   0.208   9.216  0.8669 -1.2834  0.3642
 8409SOL     OW36685   0.904   3.796   6.316 -0.3973  0.1826  0.7618
 8409SOL    HW136686   0.989   3.756   6.335 -0.7374 -0.8090  0.2134
 8409SOL    HW236687   0.924   3.887   6.336  2.2870 -0.3742  0.6732
 8410SOL     OW36688   3.267   1.094   1.120 -0.3746  0.0940 -0.3182
 8410SOL    HW136689   3.230   1.146   1.049  0.1945 -0.1210 -0.7764
 8410SOL    HW236690   3.344   1.147   1.145 -0.4942 -0.3079  0.9313
 8411SOL     OW36691   4.252   0.383  13.533  0.6226  0.6377 -0.1548
 8411SOL    HW136692   4.300   0.353  13.455 -0.2332  1.7219 -1.1079
 8411SOL    HW236693   4.166   0.405  13.497 -0.4144  0.5724  2.2943
 8412SOL     OW36694   4.561   2.301   7.093  0.2142  0.4463 -0.1314
 8412SOL    HW136695   4.480   2.346   7.070  0.2416  0.6789  0.2282
 8412SOL    HW236696   4.541   2.249   7.170  0.6863  0.3760 -0.0543
 8413SOL     OW36697   0.646   0.987  17.102 -0.1611 -0.0448 -0.0983
 8413SOL    HW136698   0.682   1.071  17.129  1.1589 -0.4130 -0.7088
 8413SOL    HW236699   0.623   0.994  17.009 -0.1999 -0.6963 -0.1378
 8414SOL     OW36700   3.925   0.789   1.219  0.4141  0.2213  0.0568
 8414SOL    HW136701   3.944   0.821   1.308  1.5278  2.1383 -0.8784
 8414SOL    HW236702   3.835   0.764   1.238 -0.1274  1.9392 -0.2207
 8415SOL     OW36703   2.373   0.658  13.257  0.2851 -0.1454  0.0073
 8415SOL    HW136704   2.321   0.578  13.264  0.4205 -0.1592  0.9064
 8415SOL    HW236705   2.434   0.644  13.185  1.1122 -0.5458  0.7820
 8416SOL     OW36706   3.994   3.407   8.252 -0.5121  0.3914 -0.4850
 8416SOL    HW136707   3.932   3.443   8.187  1.3836  0.9398 -1.9909
 8416SOL    HW236708   3.937   3.362   8.314  0.2521  1.2539  0.8211
 8417SOL     OW36709   2.172   4.645  11.279 -0.1857  0.4233 -0.0267
 8417SOL    HW136710   2.152   0.009  11.316 -2.6788  0.9555 -2.5975
 8417SOL    HW236711   2.135   4.657  11.191  0.3825 -0.0518 -0.3251
 8418SOL     OW36712   4.319   2.239   4.186  0.0277 -0.7163  0.0586
 8418SOL    HW136713   4.307   2.297   4.110  1.0509 -1.5356 -0.7291
 8418SOL    HW236714   4.234   2.195   4.186  0.7827 -2.1531 -0.9135
 8419SOL     OW36715   1.420   2.563   1.957  0.7194  0.1964 -0.0039
 8419SOL    HW136716   1.327   2.570   1.978  0.7467 -0.0862  0.1984
 8419SOL    HW236717   1.423   2.641   1.900 -0.8779  0.9575  0.9724
 8420SOL     OW36718   3.927   2.691   8.812  0.0447 -0.0642  0.6883
 8420SOL    HW136719   3.925   2.653   8.900 -2.5432 -0.6800  0.3707
 8420SOL    HW236720   3.985   2.630   8.766  1.9496  2.3864 -0.1464
 8421SOL     OW36721   4.398   1.857   7.087  0.2839 -0.4730 -0.3882
 8421SOL    HW136722   4.483   1.896   7.109 -0.1551 -0.5383  1.4114
 8421SOL    HW236723   4.414   1.773   7.131  3.5610  1.9180  2.8927
 8422SOL     OW36724   4.233   4.021   5.330  0.1036 -0.2971  0.1305
 8422SOL    HW136725   4.318   3.989   5.359 -0.4669  0.5277  2.7358
 8422SOL    HW236726   4.198   4.080   5.397 -0.0282 -0.9671  0.6495
 8423SOL     OW36727   0.382   0.001   3.468 -0.3137 -0.1040 -0.0107
 8423SOL    HW136728   0.367   0.007   3.562  0.5776  2.0933 -0.0193
 8423SOL    HW236729   0.407   0.093   3.459 -1.8478  0.3112 -0.0063
 8424SOL     OW36730   1.233   3.063   8.426 -0.3283 -0.0083  0.2264
 8424SOL    HW136731   1.160   3.125   8.426  0.4845  0.9443 -3.6932
 8424SOL    HW236732   1.258   3.061   8.518  0.4442  0.2053  0.0212
 8425SOL     OW36733   1.588   0.494   0.868  0.0733  0.0113 -0.6033
 8425SOL    HW136734   1.641   0.565   0.903 -0.2584 -0.5521  1.0381
 8425SOL    HW236735   1.502   0.526   0.898 -0.5948  0.0265 -2.5509
 8426SOL     OW36736   2.149   0.245   3.992  0.2705 -0.5117 -0.0592
 8426SOL    HW136737   2.076   0.216   3.936 -0.8861 -0.8869  1.6359
 8426SOL    HW236738   2.165   0.164   4.041 -0.8993 -1.2216 -0.8617
 8427SOL     OW36739   2.812   1.513   8.830 -1.4658 -0.1148 -0.4894
 8427SOL    HW136740   2.872   1.560   8.772 -0.4752 -1.3231 -0.4339
 8427SOL    HW236741   2.756   1.586   8.858 -0.5118  0.4530 -0.0693
 8428SOL     OW36742   4.056   0.647   7.029  0.3258  0.6954  0.4278
 8428SOL    HW136743   3.973   0.614   6.995  0.4851 -0.6238  1.3262
 8428SOL    HW236744   4.112   0.572   7.012 -0.2679  0.4390 -0.4029
 8429SOL     OW36745   0.441   0.180  10.096  0.4115 -0.0237  0.0110
 8429SOL    HW136746   0.484   0.244  10.152  1.6943 -0.8789  0.0073
 8429SOL    HW236747   0.379   0.231  10.045  0.6658  0.3749  0.1005
 8430SOL     OW36748   0.959   1.682  15.055  0.1221 -0.5982 -0.2195
 8430SOL    HW136749   0.957   1.776  15.038 -1.1494 -0.6420 -0.3507
 8430SOL    HW236750   0.874   1.663  15.013  1.0674 -2.0946 -1.4762
 8431SOL     OW36751   4.436   0.257   5.210  0.0292 -0.1968 -0.1587
 8431SOL    HW136752   4.475   0.328   5.262  0.3048 -0.4126 -0.0689
 8431SOL    HW236753   4.441   0.175   5.259  0.8308  0.3683  0.7091
 8432SOL     OW36754   2.617   3.864   2.245  0.2575  0.0239 -0.0208
 8432SOL    HW136755   2.539   3.814   2.220  0.2265  0.0208  0.0792
 8432SOL    HW236756   2.682   3.795   2.242  0.4054  0.1801 -0.4239
 8433SOL     OW36757   4.332   0.618  15.349 -0.2478  0.3111 -0.7644
 8433SOL    HW136758   4.254   0.667  15.321 -0.6813 -1.0684 -1.9771
 8433SOL    HW236759   4.292   0.534  15.371  0.7702  0.2061  0.6750
 8434SOL     OW36760   4.161   4.499  10.488 -0.5428 -0.3365 -0.0748
 8434SOL    HW136761   4.121   4.431  10.542 -0.7878  1.1385  1.6169
 8434SOL    HW236762   4.248   4.465  10.470 -0.4569  0.4785 -1.2121
 8435SOL     OW36763   3.496   4.200  11.234 -0.0131 -0.1202  0.6776
 8435SOL    HW136764   3.507   4.285  11.190 -0.6684 -0.6405 -0.4705
 8435SOL    HW236765   3.409   4.210  11.272  0.1868  1.5549  0.7112
 8436SOL     OW36766   2.798   2.904  10.883  0.1512 -0.0744 -0.0774
 8436SOL    HW136767   2.847   2.978  10.919  0.1583 -0.3781  0.5451
 8436SOL    HW236768   2.808   2.836  10.950 -2.0843 -1.6871 -1.4093
 8437SOL     OW36769   1.712   4.458   4.556 -0.2105  0.1121 -0.6971
 8437SOL    HW136770   1.631   4.509   4.556 -0.2289  0.0878  0.2698
 8437SOL    HW236771   1.781   4.524   4.559 -1.1705  0.9879  2.3208
 8438SOL     OW36772   0.657   4.208  15.339 -0.0286  0.1060 -0.2723
 8438SOL    HW136773   0.749   4.191  15.318 -0.4243 -2.4585  0.1019
 8438SOL    HW236774   0.608   4.196  15.258  0.5675  2.6541 -1.0084
 8439SOL     OW36775   1.948   4.188  15.503  0.1242 -0.7989 -0.0483
 8439SOL    HW136776   1.999   4.207  15.424 -2.4328  0.5475 -1.3657
 8439SOL    HW236777   1.865   4.227  15.477  0.4736  0.0290  0.0866
 8440SOL     OW36778   3.150   4.312  13.356  0.2572 -0.3010  0.5141
 8440SOL    HW136779   3.070   4.259  13.346  0.9347 -1.6517  2.3346
 8440SOL    HW236780   3.131   4.389  13.303 -0.1232 -0.9165 -0.2496
 8441SOL     OW36781   0.687   0.899   7.334 -0.1971  0.3283  0.0846
 8441SOL    HW136782   0.650   0.859   7.255 -1.7941  1.0272  0.4782
 8441SOL    HW236783   0.628   0.858   7.397 -1.7183  1.6334 -0.4994
 8442SOL     OW36784   4.565   3.399  17.595  0.5700  0.5745  0.0378
 8442SOL    HW136785   4.545   3.355  17.677 -2.9290  2.1108  0.0146
 8442SOL    HW236786   4.638   3.345  17.565 -1.0412 -1.6765  0.1977
 8443SOL     OW36787   0.252   2.514   4.129 -0.1244 -0.5193 -0.4262
 8443SOL    HW136788   0.200   2.461   4.069 -0.5206  0.4876 -0.9665
 8443SOL    HW236789   0.190   2.585   4.146 -0.4160 -1.4315  2.3204
 8444SOL     OW36790   2.031   4.608   3.062 -0.1049  0.2034 -0.6233
 8444SOL    HW136791   2.113   4.593   3.016  0.8546  0.3347  1.0464
 8444SOL    HW236792   2.052   4.574   3.149 -3.3667  0.8032  0.4097
 8445SOL     OW36793   4.474   1.066  16.079 -0.2875  0.1133 -0.5842
 8445SOL    HW136794   4.507   0.978  16.062  0.4349  0.6215 -1.8213
 8445SOL    HW236795   4.543   1.107  16.131 -0.5207  1.1045 -1.0504
 8446SOL     OW36796   1.633   0.493  15.580 -0.0688  0.1777  0.4865
 8446SOL    HW136797   1.661   0.450  15.500 -0.4730 -1.3211  1.1364
 8446SOL    HW236798   1.540   0.471  15.586 -0.0148  0.2323  1.5278
 8447SOL     OW36799   2.838   1.645   1.393  0.5596  0.0884 -0.0707
 8447SOL    HW136800   2.896   1.720   1.378 -0.6016  0.9380 -0.2949
 8447SOL    HW236801   2.821   1.594   1.314 -0.9431 -1.0742  0.9910
 8448SOL     OW36802   4.648   0.267   8.329 -0.4762 -0.2586 -0.0980
 8448SOL    HW136803   4.641   0.194   8.391 -0.0848 -1.2950 -1.2856
 8448SOL    HW236804   4.674   0.215   8.253  0.2815  0.7017 -0.5011
 8449SOL     OW36805   0.557   2.264   2.388  0.3978 -0.2898 -0.2751
 8449SOL    HW136806   0.513   2.303   2.313  1.4825  0.4043 -0.5449
 8449SOL    HW236807   0.507   2.182   2.386 -1.2941  0.7505 -0.5067
 8450SOL     OW36808   1.832   0.217   3.341  0.4910  0.9532  0.4780
 8450SOL    HW136809   1.799   0.128   3.354  0.6512  0.8850  0.4149
 8450SOL    HW236810   1.896   0.201   3.272  0.8804 -0.2507  1.1189
 8451SOL     OW36811   3.744   1.572   4.866 -0.2880  0.3904  0.0731
 8451SOL    HW136812   3.736   1.610   4.778 -0.2325 -0.2485 -0.2055
 8451SOL    HW236813   3.717   1.646   4.921 -1.9597  1.5828 -2.3286
 8452SOL     OW36814   1.042   3.727   8.793  0.4584  0.2226 -0.4190
 8452SOL    HW136815   1.062   3.646   8.840  0.5594  0.5014  0.0184
 8452SOL    HW236816   0.947   3.739   8.792  0.3395 -0.5590  1.1538
 8453SOL     OW36817   1.756   3.992   6.311  0.0704  0.3106  0.1290
 8453SOL    HW136818   1.789   3.926   6.372  0.9353 -1.4369 -2.2462
 8453SOL    HW236819   1.746   3.935   6.235 -1.3400  0.7708 -0.0284
 8454SOL     OW36820   0.941   2.624   3.065  0.1866  0.3788  0.3225
 8454SOL    HW136821   0.885   2.547   3.056  0.0416  0.6118 -0.7538
 8454SOL    HW236822   0.885   2.669   3.128 -1.9448  0.9367 -1.9485
 8455SOL     OW36823   3.067   0.464   8.667 -0.0452  0.0330  0.4039
 8455SOL    HW136824   3.016   0.395   8.709  0.2695 -1.0864 -1.0760
 8455SOL    HW236825   3.092   0.417   8.588 -0.2560  0.7234 -0.0817
 8456SOL     OW36826   2.780   3.683   7.530  0.2911  0.0350  0.0585
 8456SOL    HW136827   2.808   3.745   7.597 -1.6565  1.6295 -0.5877
 8456SOL    HW236828   2.776   3.598   7.573 -1.9404 -0.7293 -1.6203
 8457SOL     OW36829   0.068   2.529   8.385  0.0083 -0.4125 -0.0200
 8457SOL    HW136830   0.037   2.481   8.308  1.3194  0.3643 -1.0333
 8457SOL    HW236831   4.712   2.572   8.419  0.8808  0.8775  0.3613
 8458SOL     OW36832   3.552   1.201   6.624 -0.5556 -0.4307  0.0818
 8458SOL    HW136833   3.593   1.131   6.676  1.2146  1.0221  0.6399
 8458SOL    HW236834   3.472   1.213   6.675  0.5549  3.3848  0.8778
 8459SOL     OW36835   1.249   4.611   0.325 -0.6269 -0.2290 -0.7955
 8459SOL    HW136836   1.158   4.605   0.295 -0.7463 -0.3025 -0.4255
 8459SOL    HW236837   1.253   4.697   0.367  0.0588 -1.4277  1.6143
 8460SOL     OW36838   3.221   0.002   9.434  0.2134 -0.3439  0.2246
 8460SOL    HW136839   3.194   0.045   9.515 -0.2747  1.2662 -0.7926
 8460SOL    HW236840   3.309   4.694   9.456  0.3985  1.7066  2.3471
 8461SOL     OW36841   3.356   2.444   1.678 -0.4500 -0.2524 -0.2496
 8461SOL    HW136842   3.268   2.445   1.641  0.3242 -2.5624 -2.1636
 8461SOL    HW236843   3.398   2.514   1.628 -1.3284  1.1493  0.9720
 8462SOL     OW36844   1.637   0.027   6.788  0.2278  0.1668 -0.2279
 8462SOL    HW136845   1.727   0.002   6.767 -0.2187  0.4700 -2.4924
 8462SOL    HW236846   1.597   4.663   6.779  1.0458 -0.1830 -0.5792
 8463SOL     OW36847   4.208   2.583   4.384 -0.3566  0.3005  0.4354
 8463SOL    HW136848   4.250   2.639   4.319  0.1267 -1.0653 -0.4447
 8463SOL    HW236849   4.258   2.613   4.459  0.2589 -1.4235  0.7075
 8464SOL     OW36850   4.117   3.583  14.848  0.4418 -0.3747  0.7415
 8464SOL    HW136851   4.122   3.503  14.901 -1.3148 -0.9927 -0.0591
 8464SOL    HW236852   4.167   3.558  14.770 -0.3236  0.0322  0.1196
 8465SOL     OW36853   4.424   0.305  15.856  0.5455  0.4003 -0.1966
 8465SOL    HW136854   4.465   0.293  15.770 -0.4399 -1.4287 -0.4007
 8465SOL    HW236855   4.375   0.224  15.869  0.4278  0.7755  1.6465
 8466SOL     OW36856   1.988   3.206   2.453  0.1320  0.2437 -0.3164
 8466SOL    HW136857   1.935   3.284   2.438 -1.3845 -0.2598  2.5029
 8466SOL    HW236858   1.961   3.166   2.371 -2.8853  0.6689  0.4860
 8467SOL     OW36859   2.753   2.537   5.540  0.0687 -0.2750  0.0200
 8467SOL    HW136860   2.722   2.604   5.479  0.9985 -1.1809 -1.4453
 8467SOL    HW236861   2.746   2.578   5.627 -0.1868  1.9256 -1.0375
 8468SOL     OW36862   4.539   2.015   1.705  0.1231 -0.2134  0.0123
 8468SOL    HW136863   4.491   2.097   1.713  1.3906  0.7554 -2.3077
 8468SOL    HW236864   4.555   1.988   1.796 -0.5458 -0.7149 -0.0213
 8469SOL     OW36865   1.518   2.294  12.303 -0.4863 -0.4707  0.4601
 8469SOL    HW136866   1.486   2.216  12.257 -1.2734 -0.3865  0.8671
 8469SOL    HW236867   1.494   2.364  12.242 -3.2751 -0.5771  1.4289
 8470SOL     OW36868   1.937   3.312  12.833 -0.0786  0.0126 -0.4904
 8470SOL    HW136869   1.917   3.346  12.746  3.8208  1.2143 -0.9118
 8470SOL    HW236870   1.855   3.267  12.856  0.3543 -1.3062 -1.4932
 8471SOL     OW36871   2.158   1.284   1.925 -0.0499  0.9886  1.0024
 8471SOL    HW136872   2.086   1.347   1.922 -0.2327  0.8463  2.4605
 8471SOL    HW236873   2.215   1.314   1.854  0.2278  0.2438  0.9110
 8472SOL     OW36874   0.859   2.030   2.591  0.0729 -0.2585 -0.1105
 8472SOL    HW136875   0.952   2.018   2.570 -0.5735 -0.9161 -2.6161
 8472SOL    HW236876   0.816   2.009   2.508 -1.6259  1.5620  0.2990
 8473SOL     OW36877   1.822   2.714   8.370  0.3674 -0.2272 -0.4319
 8473SOL    HW136878   1.772   2.723   8.451  0.2430 -1.3921 -0.3853
 8473SOL    HW236879   1.849   2.806   8.364  0.0104 -0.2690 -2.7217
 8474SOL     OW36880   4.407   4.057   9.008  0.2970 -0.2830 -0.1061
 8474SOL    HW136881   4.436   4.147   9.021 -1.7095  0.6070 -1.8018
 8474SOL    HW236882   4.381   4.028   9.096  0.5820 -2.1479 -0.6417
 8475SOL     OW36883   3.412   4.285   9.036  0.4579  0.3834  0.3930
 8475SOL    HW136884   3.333   4.329   9.005 -0.6557 -2.1208 -0.2969
 8475SOL    HW236885   3.479   4.353   9.022  1.8258 -1.0247  0.0965
 8476SOL     OW36886   3.911   2.101   4.978 -0.3039 -0.5326 -0.5551
 8476SOL    HW136887   3.852   2.174   4.963  1.4956  0.6823 -1.8063
 8476SOL    HW236888   3.858   2.029   5.011  0.5470 -0.6458  0.5669
 8477SOL     OW36889   4.273   0.626   8.294  0.0106  0.1044  0.3348
 8477SOL    HW136890   4.338   0.646   8.226 -0.9075  0.1103 -0.5356
 8477SOL    HW236891   4.314   0.547   8.329 -0.8957 -1.3999 -1.9960
 8478SOL     OW36892   0.120   1.540   2.139 -0.1906 -0.0176  0.3558
 8478SOL    HW136893   0.037   1.497   2.162 -0.3396 -0.5455 -1.1935
 8478SOL    HW236894   0.120   1.622   2.188 -2.5762  0.5212 -0.5998
 8479SOL     OW36895   1.365   0.027  14.626 -0.0259 -0.0632  0.1478
 8479SOL    HW136896   1.343   0.024  14.533  0.5002 -1.7912  0.0876
 8479SOL    HW236897   1.281   4.721  14.663 -1.7600  1.9477 -2.1949
 8480SOL     OW36898   0.194   1.340   5.517  0.2855 -1.0277 -0.0135
 8480SOL    HW136899   0.181   1.435   5.517 -0.1961 -1.0957 -0.3808
 8480SOL    HW236900   0.241   1.316   5.597 -1.2966 -1.0252  0.9367
 8481SOL     OW36901   4.666   1.105   7.613  0.2359  0.2257  0.4157
 8481SOL    HW136902   0.019   1.136   7.663 -1.7379  3.3569  1.4384
 8481SOL    HW236903   4.700   1.041   7.550  0.3892 -1.5802  2.3218
 8482SOL     OW36904   2.290   3.926  16.713  0.1815  0.1732  0.7981
 8482SOL    HW136905   2.275   4.004  16.766  1.7092 -0.4772  2.1764
 8482SOL    HW236906   2.301   3.855  16.776 -1.9342 -1.9858 -1.2974
 8483SOL     OW36907   1.704   0.638   2.979  0.0373  0.0661  0.2127
 8483SOL    HW136908   1.614   0.662   2.957  0.6373 -0.9116 -3.2305
 8483SOL    HW236909   1.715   0.568   2.916 -1.7097 -1.6473  1.7941
 8484SOL     OW36910   3.203   2.460   8.283 -0.1784 -0.1524 -0.2988
 8484SOL    HW136911   3.165   2.374   8.305  0.2966  0.5134  3.1197
 8484SOL    HW236912   3.292   2.456   8.316  0.5546 -0.7523 -2.3571
 8485SOL     OW36913   2.593   0.578   1.181 -0.3217 -0.1487 -0.0312
 8485SOL    HW136914   2.560   0.652   1.131 -2.1295 -2.4351 -2.1983
 8485SOL    HW236915   2.636   0.620   1.256  0.8101  0.1533 -0.8522
 8486SOL     OW36916   1.893   4.502   8.087 -0.5480  0.2622 -0.1396
 8486SOL    HW136917   1.926   4.506   8.177 -0.7205  1.5551 -0.1418
 8486SOL    HW236918   1.905   4.592   8.057  1.9920 -0.1344 -0.3037
 8487SOL     OW36919   0.338   3.288   8.136  0.4377 -0.5960  0.0599
 8487SOL    HW136920   0.396   3.213   8.123 -0.4808 -0.8094 -2.7586
 8487SOL    HW236921   0.350   3.343   8.059  1.4241 -1.4652 -0.3990
 8488SOL     OW36922   0.680   1.614   2.338 -0.5524  0.5567  0.1645
 8488SOL    HW136923   0.759   1.611   2.392  0.5176  0.4189 -1.4230
 8488SOL    HW236924   0.649   1.534   2.381 -0.7750 -0.3815 -1.7565
 8489SOL     OW36925   3.070   1.416   6.920  0.0261 -0.6420  0.0024
 8489SOL    HW136926   3.050   1.489   6.861  0.1272  0.8573  1.7793
 8489SOL    HW236927   3.011   1.349   6.886 -1.5326  0.9563 -0.4347
 8490SOL     OW36928   3.679   2.733   0.373  0.4329 -0.2958 -0.5316
 8490SOL    HW136929   3.720   2.776   0.298 -0.0375  2.1617  0.6173
 8490SOL    HW236930   3.750   2.699   0.428  1.4487 -2.2504 -3.0661
 8491SOL     OW36931   1.385   0.438  12.322 -0.6865  0.1583  0.1332
 8491SOL    HW136932   1.383   0.467  12.231 -1.8303 -1.1688 -0.2450
 8491SOL    HW236933   1.343   0.510  12.370 -1.9984  0.1683 -1.0497
 8492SOL     OW36934   2.528   1.488  16.671 -0.1713  0.2320  0.1840
 8492SOL    HW136935   2.609   1.438  16.659 -1.1694 -1.4887  0.5970
 8492SOL    HW236936   2.470   1.451  16.605 -1.4063 -0.1852  1.5034
 8493SOL     OW36937   2.402   4.122  13.605  0.5325  0.6294 -0.1292
 8493SOL    HW136938   2.427   4.112  13.697  0.0169  0.2214 -0.0378
 8493SOL    HW236939   2.443   4.206  13.582  0.5255 -0.1377 -2.9765
 8494SOL     OW36940   1.592   3.900   7.247  0.6701 -0.2839  0.0595
 8494SOL    HW136941   1.537   3.978   7.260  1.5271  0.2095  0.6995
 8494SOL    HW236942   1.544   3.866   7.171 -1.7301  0.5816  1.1950
 8495SOL     OW36943   1.319   0.899   5.542 -0.0212  0.3712  0.4660
 8495SOL    HW136944   1.297   0.974   5.598  1.8484  2.0200 -1.0175
 8495SOL    HW236945   1.291   0.937   5.459 -1.4629  1.6612  1.5455
 8496SOL     OW36946   2.984   1.397   4.940 -0.2337 -0.8333  0.2051
 8496SOL    HW136947   3.039   1.434   4.871  0.0648  0.2238  1.0183
 8496SOL    HW236948   3.044   1.332   4.979  1.9939  0.3183 -1.3024
 8497SOL     OW36949   1.871   3.516   0.897  0.2228  0.6989 -0.0524
 8497SOL    HW136950   1.810   3.568   0.948 -1.3769 -0.5270 -0.6854
 8497SOL    HW236951   1.873   3.559   0.812  0.9655 -1.1186 -0.9637
 8498SOL     OW36952   1.171   0.774   0.703 -0.0652  0.0614  0.0379
 8498SOL    HW136953   1.238   0.728   0.754 -0.0214  0.2773  0.1747
 8498SOL    HW236954   1.176   0.721   0.623 -1.2653 -0.6184  0.4124
 8499SOL     OW36955   2.514   0.717  11.381 -0.4709  0.1016  0.4443
 8499SOL    HW136956   2.434   0.684  11.341 -0.1407  1.5977 -1.4675
 8499SOL    HW236957   2.489   0.808  11.395 -1.4031  0.0231 -0.6567
 8500SOL     OW36958   1.263   1.121   3.791  0.0004  0.0117  0.3913
 8500SOL    HW136959   1.319   1.076   3.728 -2.3196  0.2257 -1.8385
 8500SOL    HW236960   1.216   1.051   3.836  1.6815 -0.8188  0.8591
 8501SOL     OW36961   3.974   0.864   8.765 -0.6846 -0.0120  0.0014
 8501SOL    HW136962   4.046   0.922   8.740 -1.2789  1.5169  1.8641
 8501SOL    HW236963   4.007   0.806   8.834 -1.5721 -1.0578 -0.4364
 8502SOL     OW36964   1.477   4.433   1.174  0.2525  0.4530  0.2639
 8502SOL    HW136965   1.499   4.397   1.260  2.0685 -1.7965 -1.1238
 8502SOL    HW236966   1.517   4.366   1.117 -1.4013  1.5369 -2.1657
 8503SOL     OW36967   4.529   0.783  16.084  0.5478 -0.5060  0.4038
 8503SOL    HW136968   4.623   0.764  16.089  0.4909 -1.0572 -0.7170
 8503SOL    HW236969   4.504   0.701  16.043  3.3015 -0.9446 -0.4299
 8504SOL     OW36970   3.299   3.885  12.811  0.0698  0.0232 -0.1780
 8504SOL    HW136971   3.221   3.836  12.788  0.7645 -0.7797 -0.8333
 8504SOL    HW236972   3.262   3.941  12.879 -1.4734  0.0409 -1.0333
 8505SOL     OW36973   4.283   4.001   1.480 -0.1742 -0.3273  0.0766
 8505SOL    HW136974   4.322   4.067   1.537  0.1402 -1.8984  1.6852
 8505SOL    HW236975   4.254   4.048   1.402  0.3213  0.7870  0.5727
 8506SOL     OW36976   2.393   2.626  15.407  0.1515 -0.2744 -0.1577
 8506SOL    HW136977   2.451   2.551  15.394 -2.9916 -2.7716  0.2536
 8506SOL    HW236978   2.464   2.690  15.410 -1.6904  1.7525 -0.7526
 8507SOL     OW36979   0.510   0.036  13.287 -0.0788 -0.0281 -0.0981
 8507SOL    HW136980   0.592   0.041  13.337 -0.5886 -3.3884  1.0724
 8507SOL    HW236981   0.461   4.696  13.339 -1.0598  2.2890  1.7632
 8508SOL     OW36982   4.161   2.858   3.537 -0.1084  0.2917  0.3919
 8508SOL    HW136983   4.200   2.820   3.615 -1.5996 -1.4540  0.2882
 8508SOL    HW236984   4.066   2.865   3.553 -0.0493  1.5298  0.2266
 8509SOL     OW36985   4.356   1.719  11.477  0.6738  0.3053 -0.1584
 8509SOL    HW136986   4.358   1.630  11.512  3.1860  0.4751  0.1353
 8509SOL    HW236987   4.396   1.695  11.394  0.6720  0.4865 -0.2132
 8510SOL     OW36988   2.752   0.950   2.749 -0.7100  0.2995  0.1422
 8510SOL    HW136989   2.847   0.940   2.742 -0.7786  0.4005 -0.8909
 8510SOL    HW236990   2.743   1.032   2.700  1.5405  0.7457  0.4940
 8511SOL     OW36991   1.149   0.844   3.432 -0.7645  0.0088  0.2338
 8511SOL    HW136992   1.186   0.780   3.371  0.5008  0.5491  0.4395
 8511SOL    HW236993   1.164   0.920   3.375 -2.1532  0.9053  1.0673
 8512SOL     OW36994   2.116   2.644   2.648  0.2545  0.0520  0.1777
 8512SOL    HW136995   2.135   2.624   2.556  0.1987  0.1415  0.1471
 8512SOL    HW236996   2.058   2.720   2.641  0.1509  0.1827  2.6536
 8513SOL     OW36997   0.646   2.440   5.209 -0.0549  0.5311  0.2642
 8513SOL    HW136998   0.643   2.534   5.226 -1.3702  0.6484 -0.6428
 8513SOL    HW236999   0.570   2.401   5.250  0.2536 -2.1080 -1.7063
 8514SOL     OW37000   0.083   2.775   5.393  0.0875  0.1950  0.4055
 8514SOL    HW137001   0.022   2.836   5.352 -1.9348 -1.6074  0.7693
 8514SOL    HW237002   0.141   2.827   5.450  1.4972 -1.8097  0.7990
 8515SOL     OW37003   1.594   3.787   6.524  0.2620  0.0839  0.4070
 8515SOL    HW137004   1.595   3.864   6.467 -0.8353 -0.6275 -0.5802
 8515SOL    HW237005   1.500   3.767   6.522  0.6354 -1.7159  1.2503
 8516SOL     OW37006   3.175   0.722  15.119 -0.1181  0.0188 -0.1856
 8516SOL    HW137007   3.114   0.736  15.047 -1.9226  0.3298  1.4051
 8516SOL    HW237008   3.122   0.672  15.180 -1.1929  2.8934  1.2490
 8517SOL     OW37009   4.622   1.369   0.590 -0.3764  0.6884 -0.0762
 8517SOL    HW137010   4.690   1.397   0.529 -0.9375 -0.2062 -1.1323
 8517SOL    HW237011   4.550   1.373   0.526  0.2328  1.7134 -0.7025
 8518SOL     OW37012   3.636   4.248  16.098  0.8922  0.1625  0.0647
 8518SOL    HW137013   3.587   4.177  16.138  0.6810  0.0600 -0.3765
 8518SOL    HW237014   3.562   4.304  16.077  1.5692  1.3995  0.9663
 8519SOL     OW37015   0.111   3.985   7.151 -0.7057 -0.7902  0.1861
 8519SOL    HW137016   0.170   3.916   7.121 -1.6147 -1.3399 -0.3132
 8519SOL    HW237017   0.028   3.946   7.123 -0.9532  0.3212 -0.6008
 8520SOL     OW37018   3.828   1.179  17.012  0.3218  0.0042 -0.5414
 8520SOL    HW137019   3.764   1.109  17.027  1.7924 -1.7005 -2.1227
 8520SOL    HW237020   3.804   1.203  16.922  1.1626 -0.5277 -0.9064
 8521SOL     OW37021   4.150   4.075  14.867  0.1555 -0.0802  0.8060
 8521SOL    HW137022   4.151   4.162  14.907  1.4186 -0.3029  1.2667
 8521SOL    HW237023   4.102   4.097  14.788 -1.3708 -1.1320  1.4402
 8522SOL     OW37024   0.159   2.318   7.943  0.2186  0.5891 -0.1563
 8522SOL    HW137025   0.201   2.234   7.925  1.2670  1.2600 -0.8586
 8522SOL    HW237026   0.111   2.336   7.862 -1.0423 -1.5413  0.1172
 8523SOL     OW37027   2.013   0.619   5.162  0.1549  0.3249  0.6588
 8523SOL    HW137028   1.975   0.694   5.208  0.8959  0.5925  0.8411
 8523SOL    HW237029   1.944   0.553   5.168 -0.0912  0.7110  2.1171
 8524SOL     OW37030   2.946   4.714   7.125 -0.8156 -0.8850  0.2168
 8524SOL    HW137031   2.908   0.028   7.045 -1.6235 -0.8124  0.6333
 8524SOL    HW237032   3.038   0.016   7.118 -0.7327 -0.6181  2.3314
 8525SOL     OW37033   4.716   0.453  16.596  0.5061 -0.7702  0.0346
 8525SOL    HW137034   0.068   0.495  16.638 -0.9514  1.7876  0.0935
 8525SOL    HW237035   4.713   0.489  16.507 -1.0674 -1.6192 -0.2615
 8526SOL     OW37036   3.698   4.368   7.781 -0.5434 -0.1812 -0.9212
 8526SOL    HW137037   3.673   4.425   7.708  1.5978  0.4639 -1.1335
 8526SOL    HW237038   3.648   4.419   7.846 -1.8791 -1.1214 -1.2038
 8527SOL     OW37039   3.527   4.360   4.583 -0.3024  0.2773  0.5070
 8527SOL    HW137040   3.499   4.381   4.493 -0.1976 -0.4889  0.2960
 8527SOL    HW237041   3.557   4.444   4.617 -0.7411  0.2673  0.9291
 8528SOL     OW37042   0.553   4.562   9.379  0.2089 -0.1094  0.0972
 8528SOL    HW137043   0.492   4.628   9.346  2.6790  2.5481  0.7693
 8528SOL    HW237044   0.549   4.596   9.468 -0.6895 -4.3394  1.6437
 8529SOL     OW37045   3.349   1.192   0.854 -0.7573  0.2831  0.0763
 8529SOL    HW137046   3.417   1.219   0.793  0.4211 -1.3936  0.6470
 8529SOL    HW237047   3.361   1.097   0.859 -1.3588  0.3270  2.3329
 8530SOL     OW37048   0.525   0.272   1.097 -0.1309  0.4221 -1.0895
 8530SOL    HW137049   0.445   0.317   1.122  0.8190  1.2945  0.4017
 8530SOL    HW237050   0.588   0.344   1.102  2.3302 -1.8704  0.6510
 8531SOL     OW37051   3.409   2.090  12.119 -0.7841 -0.0719  0.3522
 8531SOL    HW137052   3.393   2.008  12.166 -0.6813 -0.2917  0.0084
 8531SOL    HW237053   3.349   2.065  12.049 -1.5264  3.3942 -0.2380
 8532SOL     OW37054   0.015   0.271   9.293 -0.1449  0.1993  0.3337
 8532SOL    HW137055   4.694   0.355   9.277  0.5941  0.5066 -0.0619
 8532SOL    HW237056   0.109   0.291   9.297  0.0223 -0.5984  0.2884
 8533SOL     OW37057   4.138   2.034   4.168 -0.4108  0.4742 -0.6913
 8533SOL    HW137058   4.144   1.939   4.177 -0.7728  0.6013  0.8209
 8533SOL    HW237059   4.043   2.047   4.167 -0.3532  1.0364  1.7365
 8534SOL     OW37060   0.368   2.863   6.885  0.2985  0.1516 -0.3377
 8534SOL    HW137061   0.394   2.916   6.960  1.4161 -0.2688 -0.4316
 8534SOL    HW237062   0.442   2.878   6.825 -1.8138  3.0555 -2.2495
 8535SOL     OW37063   1.235   3.989   5.288 -0.5355  0.6141  0.3146
 8535SOL    HW137064   1.212   4.082   5.279 -0.8162  0.5022 -0.1119
 8535SOL    HW237065   1.149   3.967   5.323 -0.9426  0.6273 -0.7009
 8536SOL     OW37066   4.697   1.898   4.544 -0.0777  0.0630  0.0962
 8536SOL    HW137067   4.634   1.827   4.529 -0.3377  0.2770  0.1652
 8536SOL    HW237068   4.656   1.955   4.609 -0.8313 -0.7040  0.3018
 8537SOL     OW37069   0.121   4.563   8.507 -0.4541 -0.3448 -0.2679
 8537SOL    HW137070   0.052   4.498   8.497  0.0018 -0.9761  0.7969
 8537SOL    HW237071   0.195   4.525   8.555 -1.0731 -0.7366  0.3581
 8538SOL     OW37072   0.049   2.232  12.370  0.5135 -0.1521  0.2543
 8538SOL    HW137073   0.050   2.138  12.384  0.5069 -0.6008 -2.8013
 8538SOL    HW237074   0.144   2.244  12.369  0.2267  2.1300 -0.7460
 8539SOL     OW37075   0.270   4.111   7.789  0.2051 -0.8058 -0.2494
 8539SOL    HW137076   0.336   4.118   7.858  0.8648 -1.4868 -0.8173
 8539SOL    HW237077   0.198   4.144   7.844  0.9900  0.3633  0.0779
 8540SOL     OW37078   1.863   2.324   4.098 -0.1252 -0.5513  0.0182
 8540SOL    HW137079   1.919   2.390   4.057  0.4069 -0.3159  1.1155
 8540SOL    HW237080   1.777   2.357   4.071  0.3725  0.2116 -0.6103
 8541SOL     OW37081   3.525   2.168   2.521  0.3552 -0.0577 -0.0560
 8541SOL    HW137082   3.501   2.115   2.445  1.0098  1.8504 -1.5903
 8541SOL    HW237083   3.613   2.194   2.493 -0.5275  2.9230 -0.0396
 8542SOL     OW37084   4.718   1.078   0.802  0.4488  0.2652 -0.0310
 8542SOL    HW137085   4.662   1.110   0.731 -0.4956 -3.0901 -0.7971
 8542SOL    HW237086   0.081   1.068   0.761  0.9053 -0.7371  1.1877
 8543SOL     OW37087   0.063   3.288  13.488 -0.0865  0.0363  0.0884
 8543SOL    HW137088   0.126   3.361  13.488 -0.5830  0.4630  0.3967
 8543SOL    HW237089   0.137   3.231  13.468 -0.0890  0.1535 -0.2517
 8544SOL     OW37090   0.369   0.146   5.874 -0.3530 -0.0859 -0.4556
 8544SOL    HW137091   0.358   0.225   5.927 -0.5405 -0.1912 -0.3377
 8544SOL    HW237092   0.325   0.173   5.794 -0.1416  0.0034 -0.5408
 8545SOL     OW37093   1.992   4.273   7.165  0.3339  0.4329  0.5314
 8545SOL    HW137094   2.064   4.300   7.108 -0.1390 -2.6501 -1.5130
 8545SOL    HW237095   1.922   4.331   7.134  0.9332  0.7539 -0.2355
 8546SOL     OW37096   2.289   4.037   8.796 -0.2385  0.2584 -0.1963
 8546SOL    HW137097   2.204   4.005   8.826 -0.2388  2.5562  2.1544
 8546SOL    HW237098   2.340   3.956   8.799  0.0315  0.5040  1.7452
 8547SOL     OW37099   3.093   0.115   3.551 -0.1664 -0.5670  0.0700
 8547SOL    HW137100   3.032   0.158   3.490 -0.5260 -2.9951 -1.2851
 8547SOL    HW237101   3.096   0.181   3.621 -1.4561 -0.5716  0.1254
 8548SOL     OW37102   1.505   0.299  16.207 -0.3314  0.2864  0.3438
 8548SOL    HW137103   1.565   0.241  16.160  1.4202 -1.0138  4.1310
 8548SOL    HW237104   1.543   0.385  16.187  0.7761 -0.4602 -0.8109
 8549SOL     OW37105   2.539   3.984   8.193 -0.4820  0.2785  0.0280
 8549SOL    HW137106   2.580   4.013   8.111 -1.3377 -0.2210 -0.5843
 8549SOL    HW237107   2.581   3.899   8.209 -0.3217 -0.0066 -1.8680
 8550SOL     OW37108   3.847   0.309   7.289  0.2697 -0.0207 -0.2664
 8550SOL    HW137109   3.830   0.232   7.344  0.5039  0.8191  0.9754
 8550SOL    HW237110   3.902   0.362   7.346  0.4153  1.1757 -1.5420
 8551SOL     OW37111   0.917   0.274   5.865 -0.0449 -0.8771  0.6427
 8551SOL    HW137112   0.869   0.352   5.838  0.1554 -0.8590  0.3493
 8551SOL    HW237113   0.893   0.279   5.958  0.2758  1.7540  0.5645
 8552SOL     OW37114   4.224   3.626   7.897 -0.2088  0.0335 -0.1422
 8552SOL    HW137115   4.223   3.720   7.881  0.8040 -0.1996 -1.5941
 8552SOL    HW237116   4.241   3.629   7.992  0.2147 -0.4451 -0.1988
 8553SOL     OW37117   0.816   4.039   8.233  0.8245 -0.2337  0.0066
 8553SOL    HW137118   0.877   4.112   8.247  2.3074 -1.4857  0.0413
 8553SOL    HW237119   0.767   4.046   8.315  0.6146 -2.4864  0.0697
 8554SOL     OW37120   2.902   0.417   1.002  1.0508  0.6111  0.6121
 8554SOL    HW137121   2.807   0.425   0.990  0.9982 -2.4394 -0.7861
 8554SOL    HW237122   2.908   0.453   1.091 -0.5689 -0.1996  1.0521
 8555SOL     OW37123   4.057   3.775  14.155 -0.0017  0.1882 -0.2740
 8555SOL    HW137124   4.005   3.852  14.178  1.5345  0.5959  1.7979
 8555SOL    HW237125   4.056   3.787  14.060  0.9618 -2.1986 -0.5923
 8556SOL     OW37126   0.847   0.786   4.614 -0.0614  0.1592 -0.3890
 8556SOL    HW137127   0.920   0.731   4.644 -1.0304 -1.7881 -1.6139
 8556SOL    HW237128   0.784   0.763   4.682 -1.7807  1.6878 -1.4652
 8557SOL     OW37129   2.155   0.203   2.293  0.1983  0.0008  0.4602
 8557SOL    HW137130   2.067   0.216   2.260  0.4563 -1.0912 -0.6461
 8557SOL    HW237131   2.175   0.116   2.260  0.5478 -0.0420  0.7852
 8558SOL     OW37132   4.533   2.023  12.589  0.7847 -0.6226  0.4930
 8558SOL    HW137133   4.614   2.006  12.541  0.0750  3.1752 -2.0074
 8558SOL    HW237134   4.525   1.943  12.641 -0.7818 -0.7380  0.0649
 8559SOL     OW37135   2.816   2.736  12.843 -0.0601 -0.9466  0.5404
 8559SOL    HW137136   2.729   2.727  12.881 -0.0112 -0.9212  0.6585
 8559SOL    HW237137   2.868   2.737  12.923  0.8579 -0.3285 -0.0517
 8560SOL     OW37138   1.205   3.268   7.796 -0.3850  0.0339  0.2331
 8560SOL    HW137139   1.299   3.264   7.812 -0.2136  3.4687  0.1044
 8560SOL    HW237140   1.196   3.277   7.701  0.7890 -1.4792 -0.0089
 8561SOL     OW37141   1.353   1.700   6.152 -0.3496 -0.6924  0.2995
 8561SOL    HW137142   1.333   1.717   6.060  0.2241 -0.0889  0.2818
 8561SOL    HW237143   1.360   1.605   6.157  2.7048 -0.5600 -1.1739
 8562SOL     OW37144   3.325   0.937  16.327 -0.2655 -0.0502 -0.7240
 8562SOL    HW137145   3.398   0.998  16.340 -0.8096  0.7370 -1.3193
 8562SOL    HW237146   3.308   0.953  16.234  0.5384  1.8083 -0.5505
 8563SOL     OW37147   1.076   0.525   6.017 -0.5322 -0.2887  0.2224
 8563SOL    HW137148   1.163   0.501   5.986 -0.9909 -2.7537  0.8363
 8563SOL    HW237149   1.048   0.445   6.062 -1.5603  0.5853  1.1243
 8564SOL     OW37150   0.800   4.682  14.163  0.6446 -0.2313 -0.5666
 8564SOL    HW137151   0.896   4.681  14.160  0.6608 -0.3729  0.0418
 8564SOL    HW237152   0.787   0.052  14.182 -0.3854 -0.4918 -0.0327
 8565SOL     OW37153   3.452   0.673  10.168 -0.1177 -0.4612 -0.0245
 8565SOL    HW137154   3.427   0.765  10.157 -1.0465 -0.7796 -0.6311
 8565SOL    HW237155   3.374   0.636  10.126  0.8437 -1.4835 -0.8848
 8566SOL     OW37156   3.882   4.629  16.631  0.5922 -0.3806  0.0157
 8566SOL    HW137157   3.972   4.608  16.654  0.2975 -0.3192  1.2114
 8566SOL    HW237158   3.874   4.583  16.547  1.2963  1.3598 -1.0229
 8567SOL     OW37159   3.264   0.293  17.367  0.2719  0.5009 -0.2443
 8567SOL    HW137160   3.219   0.371  17.399  0.0863 -0.7400  2.4637
 8567SOL    HW237161   3.209   0.219  17.392 -0.4113  0.8173 -0.8210
 8568SOL     OW37162   4.684   0.889   3.686  0.2431  0.1933 -0.4315
 8568SOL    HW137163   0.017   0.967   3.687 -1.0471  1.1213 -0.7599
 8568SOL    HW237164   0.004   0.842   3.615  2.0406 -1.5652  1.8124
 8569SOL     OW37165   1.014   2.769   0.324 -0.3892 -0.0491  0.3136
 8569SOL    HW137166   1.024   2.675   0.336 -0.0670 -0.1567 -0.7961
 8569SOL    HW237167   1.022   2.768   0.229 -2.9600  1.1363  0.0985
 8570SOL     OW37168   4.397   2.330   5.416  0.0157  0.0711  0.2378
 8570SOL    HW137169   4.335   2.263   5.386  0.7818 -0.8965  0.8261
 8570SOL    HW237170   4.401   2.376   5.332 -2.4183 -0.1360  0.0099
 8571SOL     OW37171   0.207   3.693   9.233 -0.3786  0.3212  0.0152
 8571SOL    HW137172   0.299   3.708   9.210  0.6002 -1.0820  3.0502
 8571SOL    HW237173   0.228   3.672   9.324 -2.3112 -0.5947  0.2486
 8572SOL     OW37174   0.558   2.829   4.305 -0.4419  0.0957 -0.5453
 8572SOL    HW137175   0.649   2.820   4.333  0.0346 -0.0154 -2.0950
 8572SOL    HW237176   0.559   2.752   4.249 -0.6372  1.3414 -2.2763
 8573SOL     OW37177   4.233   1.524   7.617 -0.0170  0.5147  0.0415
 8573SOL    HW137178   4.285   1.474   7.554 -3.9512 -1.7945 -1.3675
 8573SOL    HW237179   4.164   1.566   7.566 -1.4397 -0.5408  1.1144
 8574SOL     OW37180   3.461   0.310   0.737  0.3477  0.7007  0.3572
 8574SOL    HW137181   3.526   0.240   0.743  0.3313  0.7975  1.5210
 8574SOL    HW237182   3.424   0.288   0.651  2.7706  1.6529 -0.9415
 8575SOL     OW37183   2.521   1.485   1.414 -0.2029 -0.0332 -0.4869
 8575SOL    HW137184   2.540   1.508   1.505  0.7100  0.9647 -0.9214
 8575SOL    HW237185   2.475   1.403   1.429  2.1327 -1.3931 -0.8478
 8576SOL     OW37186   1.851   4.624  11.550  0.0440  0.0923  0.1439
 8576SOL    HW137187   1.798   4.610  11.472  1.5748  0.5023 -0.9904
 8576SOL    HW237188   1.908   4.691  11.511  0.4934  0.8264  2.0530
 8577SOL     OW37189   0.047   1.607   7.266  0.3159  0.1705  0.2607
 8577SOL    HW137190   0.085   1.688   7.231  0.7119  0.2319  0.8476
 8577SOL    HW237191   0.097   1.539   7.221 -1.1949 -0.6939 -0.1049
 8578SOL     OW37192   3.335   2.390  14.406  0.0928 -0.1361 -0.4203
 8578SOL    HW137193   3.379   2.365  14.325 -1.0194 -0.7176 -0.8423
 8578SOL    HW237194   3.252   2.345  14.389  0.7503 -0.8750 -1.5763
 8579SOL     OW37195   2.275   1.448   4.273  0.6554  0.5217 -0.0591
 8579SOL    HW137196   2.291   1.434   4.366 -2.7427 -0.1711  0.4018
 8579SOL    HW237197   2.327   1.527   4.258  1.5140  0.3464  2.0716
 8580SOL     OW37198   0.597   0.406   4.774 -0.1517 -0.0809  0.7422
 8580SOL    HW137199   0.646   0.352   4.713 -2.8952 -0.8643 -0.7944
 8580SOL    HW237200   0.612   0.350   4.851  2.3799 -0.1456  0.1987
 8581SOL     OW37201   4.160   2.576   7.499  0.0516  0.4577 -0.4026
 8581SOL    HW137202   4.161   2.658   7.449 -1.4161 -0.0850 -1.3480
 8581SOL    HW237203   4.073   2.588   7.538  0.6599  0.2076  1.0274
 8582SOL     OW37204   3.535   3.009  16.727  0.3027 -0.0229 -0.4261
 8582SOL    HW137205   3.478   3.057  16.666 -1.3782  1.6656  2.4451
 8582SOL    HW237206   3.513   3.049  16.811  2.5375 -1.6394  0.9174
 8583SOL     OW37207   3.700   4.526   0.283 -0.3105  0.9415 -0.3622
 8583SOL    HW137208   3.689   4.448   0.337  1.2546 -0.0297 -1.4637
 8583SOL    HW237209   3.724   4.592   0.348  1.9334  0.1383 -0.3788
 8584SOL     OW37210   3.273   0.558   7.217 -0.6602  0.4344  0.0434
 8584SOL    HW137211   3.297   0.507   7.139 -0.1406  0.1987  0.3524
 8584SOL    HW237212   3.345   0.620   7.230 -0.4766  0.3348 -0.5172
 8585SOL     OW37213   4.467   3.173   4.435  0.1787 -0.2479 -0.1935
 8585SOL    HW137214   4.409   3.229   4.487  2.2970  1.0626  0.7336
 8585SOL    HW237215   4.497   3.231   4.365  0.0104 -1.3099 -1.1508
 8586SOL     OW37216   1.880   3.206   4.994 -0.7760  0.0959 -0.4368
 8586SOL    HW137217   1.798   3.166   5.022 -0.7098  1.4428  1.7044
 8586SOL    HW237218   1.942   3.186   5.065 -0.1744 -0.1332 -1.0282
 8587SOL     OW37219   3.459   1.863   3.447  0.3044 -0.2325  0.0302
 8587SOL    HW137220   3.425   1.952   3.456  1.6172  0.4538 -1.8789
 8587SOL    HW237221   3.398   1.824   3.384 -1.0386  1.7435  0.1007
 8588SOL     OW37222   3.969   3.300   9.805  0.2469  0.0506  0.1441
 8588SOL    HW137223   4.022   3.222   9.788 -0.2788 -0.6516  1.7590
 8588SOL    HW237224   3.885   3.268   9.772  0.4280 -0.6141  0.3324
 8589SOL     OW37225   3.379   4.014   4.758  0.4974 -0.1853  0.4277
 8589SOL    HW137226   3.309   3.970   4.709  0.3406 -0.2174  0.6790
 8589SOL    HW237227   3.442   3.943   4.766  1.1157  0.2488 -0.6890
 8590SOL     OW37228   4.292   1.234   4.267  0.9993 -0.3472  0.1037
 8590SOL    HW137229   4.229   1.193   4.209 -0.6010  1.6903  0.4022
 8590SOL    HW237230   4.292   1.177   4.344  0.7552  0.1290  0.4593
 8591SOL     OW37231   4.487   4.111   2.670 -0.5822  0.4758 -0.5000
 8591SOL    HW137232   4.546   4.155   2.731  0.6658  0.5156 -1.7373
 8591SOL    HW237233   4.535   4.029   2.658  0.8808  1.2016  0.4033
 8592SOL     OW37234   1.540   0.097   3.114  0.2232 -0.0562  0.1183
 8592SOL    HW137235   1.512   0.135   3.031  0.8806  1.8239  0.7552
 8592SOL    HW237236   1.557   0.006   3.089 -0.0364 -0.2783  0.7470
 8593SOL     OW37237   2.749   0.212   8.403 -0.3463 -0.1682  0.1086
 8593SOL    HW137238   2.842   0.232   8.399  0.1741 -2.2388  1.7513
 8593SOL    HW237239   2.734   0.190   8.495 -0.8192 -4.7162 -1.0222
 8594SOL     OW37240   1.046   0.605   8.813  0.2213 -0.2405 -0.3272
 8594SOL    HW137241   1.135   0.576   8.830  1.3363  1.6015 -3.0968
 8594SOL    HW237242   1.037   0.698   8.830 -1.2069 -0.4928  0.3387
 8595SOL     OW37243   2.101   1.077   2.336 -0.0960  0.0425  0.7609
 8595SOL    HW137244   2.143   1.013   2.394 -2.3009 -1.5529  0.6472
 8595SOL    HW237245   2.010   1.047   2.340  0.0769 -0.3807  1.5748
 8596SOL     OW37246   2.404   4.191   4.076 -0.4884  0.4207 -1.1014
 8596SOL    HW137247   2.433   4.116   4.023 -2.7533  0.8717 -2.9626
 8596SOL    HW237248   2.309   4.186   4.077 -0.4144 -1.3415 -2.3689
 8597SOL     OW37249   3.633   1.162   3.225 -0.0500 -0.0338  0.3800
 8597SOL    HW137250   3.575   1.089   3.244 -1.1775  1.2435  1.8019
 8597SOL    HW237251   3.583   1.237   3.258 -0.6767 -1.0062  1.5907
 8598SOL     OW37252   1.917   0.112   8.440 -0.0719 -0.0466 -0.4754
 8598SOL    HW137253   1.989   0.154   8.486  2.3336 -2.6452 -1.8567
 8598SOL    HW237254   1.884   0.187   8.391 -0.5847 -0.6415 -1.0564
 8599SOL     OW37255   4.269   1.830  17.147 -0.6793  0.2412 -0.1352
 8599SOL    HW137256   4.205   1.851  17.214 -0.5569  0.9931 -0.2590
 8599SOL    HW237257   4.345   1.875  17.184 -1.7377  3.0849 -1.4326
 8600SOL     OW37258   1.929   2.849   5.270 -0.1833 -0.5527 -0.1103
 8600SOL    HW137259   1.866   2.807   5.212  0.9511  0.2233 -1.9387
 8600SOL    HW237260   1.883   2.887   5.345 -0.9113  0.8357 -1.2610
 8601SOL     OW37261   2.452   4.216   8.621 -0.2461 -0.5026  0.2061
 8601SOL    HW137262   2.388   4.175   8.678 -1.3609  1.3107  0.2519
 8601SOL    HW237263   2.420   4.306   8.618  1.0733  0.0850  4.1509
 8602SOL     OW37264   1.903   2.093  17.272 -0.4257  0.7070  0.1432
 8602SOL    HW137265   1.926   2.167  17.328 -0.8838 -0.4168  1.8027
 8602SOL    HW237266   1.830   2.068  17.328 -1.1504  0.4268 -0.9210
 8603SOL     OW37267   0.487   0.354   6.460 -0.3559  0.0837  0.0960
 8603SOL    HW137268   0.417   0.290   6.474 -0.8175  0.4227 -0.6781
 8603SOL    HW237269   0.457   0.400   6.382 -0.0286  0.4115  0.1644
 8604SOL     OW37270   2.336   1.718  17.617 -0.4753  0.3442  0.1883
 8604SOL    HW137271   2.318   1.624  17.610 -1.9851  0.4203  2.9151
 8604SOL    HW237272   2.279   1.749  17.687 -1.6570  1.9267 -1.4598
 8605SOL     OW37273   4.221   2.813   7.297  0.0163  0.1005  0.1571
 8605SOL    HW137274   4.149   2.862   7.337 -0.4038  1.2959 -2.0313
 8605SOL    HW237275   4.298   2.859   7.332  1.5716 -0.0852 -3.0018
 8606SOL     OW37276   3.438   0.577  10.649 -0.0426  0.9962 -0.0241
 8606SOL    HW137277   3.342   0.584  10.646 -0.2422 -0.6536  2.6233
 8606SOL    HW237278   3.441   0.502  10.588 -0.2419  1.3235 -0.4380
 8607SOL     OW37279   3.250   0.386   5.896 -0.3036  0.0931  0.5895
 8607SOL    HW137280   3.176   0.330   5.918  0.0514 -0.1165  1.2425
 8607SOL    HW237281   3.204   0.453   5.844  1.9713  0.8688 -0.4150
 8608SOL     OW37282   0.378   2.816   2.999 -0.1759 -0.0617 -0.2212
 8608SOL    HW137283   0.405   2.769   3.078 -1.3377 -0.3292  0.0264
 8608SOL    HW237284   0.423   2.766   2.931 -2.8947 -2.4621 -0.2718
 8609SOL     OW37285   1.279   1.069  11.548 -0.2964  0.0281  0.4698
 8609SOL    HW137286   1.271   1.116  11.631  0.0593  0.5262  0.2217
 8609SOL    HW237287   1.255   1.132  11.480 -0.3382  3.2183  3.4360
 8610SOL     OW37288   1.341   2.326   8.704  0.1357 -0.3596 -0.2695
 8610SOL    HW137289   1.302   2.353   8.788  2.1014  4.8192 -1.0244
 8610SOL    HW237290   1.272   2.272   8.666 -0.9764 -1.3033  3.0923
 8611SOL     OW37291   3.866   1.161   8.209  0.1690 -0.4317  0.2289
 8611SOL    HW137292   3.854   1.239   8.264 -0.1437 -0.2520 -0.0981
 8611SOL    HW237293   3.931   1.197   8.149 -0.9551 -1.0137 -1.3332
 8612SOL     OW37294   3.960   0.470   6.115  0.4801  0.4285  0.2839
 8612SOL    HW137295   3.889   0.416   6.151 -1.6732  3.2379  0.2494
 8612SOL    HW237296   3.931   0.483   6.025 -1.3856 -0.7371  0.7166
 8613SOL     OW37297   1.917   2.268   7.917  0.1286 -0.0336 -0.0360
 8613SOL    HW137298   1.852   2.234   7.978  0.5763  0.5564  0.7681
 8613SOL    HW237299   1.921   2.201   7.849  1.9829 -1.7412  1.7376
 8614SOL     OW37300   4.315   2.654  15.540 -0.0003  0.2345 -0.6057
 8614SOL    HW137301   4.317   2.558  15.550  1.6541  0.3939  0.6813
 8614SOL    HW237302   4.278   2.656  15.452  0.8947 -0.2077 -0.9913
 8615SOL     OW37303   3.751   0.892   3.622  0.1737  0.3384  0.2459
 8615SOL    HW137304   3.778   0.858   3.537  0.3126 -2.1806  1.3143
 8615SOL    HW237305   3.658   0.877   3.603  0.4510  0.3956 -1.1707
 8616SOL     OW37306   1.893   4.224   2.049  0.0713 -0.7357  0.5483
 8616SOL    HW137307   1.844   4.205   1.969  0.0996 -1.1720  0.6321
 8616SOL    HW237308   1.981   4.203   2.018 -0.1633 -2.6567  1.1627
 8617SOL     OW37309   4.204   3.973   3.633  0.0788  0.2597  0.0681
 8617SOL    HW137310   4.139   3.980   3.563 -0.7718 -0.0353  0.8454
 8617SOL    HW237311   4.273   4.023   3.588 -1.5067  1.9707 -0.4858
 8618SOL     OW37312   0.926   1.122   3.190  0.0232 -0.5302  0.0365
 8618SOL    HW137313   0.923   1.187   3.119 -1.8646  0.0152  0.6067
 8618SOL    HW237314   0.854   1.140   3.251 -1.1335 -0.9083 -1.2324
 8619SOL     OW37315   4.417   0.775  15.627 -0.5797  0.4809  0.3074
 8619SOL    HW137316   4.413   0.856  15.576  0.1660 -0.2306 -0.8933
 8619SOL    HW237317   4.486   0.734  15.575 -0.3296 -0.5150  1.4378
 8620SOL     OW37318   0.277   0.512   5.082  0.3555  0.3797  0.5766
 8620SOL    HW137319   0.322   0.578   5.029  1.7775 -0.8500  0.2396
 8620SOL    HW237320   0.184   0.531   5.070  0.6418 -0.5797 -3.3236
 8621SOL     OW37321   0.560   0.657   5.928 -0.1163  0.0147 -0.1554
 8621SOL    HW137322   0.542   0.651   6.022 -0.5665  0.9479 -0.1845
 8621SOL    HW237323   0.471   0.648   5.893  0.2021 -1.3119 -0.6382
 8622SOL     OW37324   0.637   0.925   6.178 -0.1338 -0.7081  0.1501
 8622SOL    HW137325   0.630   0.840   6.221  1.6876  0.4951  2.8022
 8622SOL    HW237326   0.585   0.985   6.232  1.7282  2.2139 -1.3350
 8623SOL     OW37327   3.249   0.058   1.220 -0.4262  0.1671 -0.0310
 8623SOL    HW137328   3.203   4.718   1.277  1.8624 -1.1933  0.3609
 8623SOL    HW237329   3.202   0.135   1.251  1.0914  0.5102  1.4644
 8624SOL     OW37330   2.443   2.923  16.501 -0.1303 -0.1584  0.2874
 8624SOL    HW137331   2.396   2.941  16.419 -1.1433 -3.5543  0.0945
 8624SOL    HW237332   2.447   3.007  16.545  1.2701  0.3185 -0.7396
 8625SOL     OW37333   1.624   1.960   3.965 -0.3627  0.4591 -0.2073
 8625SOL    HW137334   1.674   1.981   3.886 -0.0951  3.0059  0.6379
 8625SOL    HW237335   1.541   1.936   3.923 -0.4030 -1.8866  1.1644
 8626SOL     OW37336   2.822   3.897   6.177 -0.3708  0.1569 -0.3081
 8626SOL    HW137337   2.880   3.886   6.101 -0.1207  0.0100 -0.0971
 8626SOL    HW237338   2.829   3.810   6.217  1.0505  0.0509 -0.7739
 8627SOL     OW37339   2.935   4.263   6.779  0.0525  0.8020 -0.4800
 8627SOL    HW137340   2.842   4.275   6.799 -0.2979 -0.7117 -1.1695
 8627SOL    HW237341   2.937   4.264   6.683  0.8343  1.2484 -0.4528
 8628SOL     OW37342   1.634   1.162   0.570  0.1717 -0.3146 -0.7075
 8628SOL    HW137343   1.686   1.128   0.498  1.3031  0.5378 -0.2926
 8628SOL    HW237344   1.704   1.202   0.621  0.2622  0.6365 -1.5747
 8629SOL     OW37345   4.516   4.545  15.135  0.1507  0.1136  0.3698
 8629SOL    HW137346   4.562   4.502  15.062 -1.5345  0.2857 -0.7855
 8629SOL    HW237347   4.429   4.505  15.134 -0.4316  1.4349 -1.7741
 8630SOL     OW37348   1.712   3.936   7.697 -0.5403 -0.2400  0.5998
 8630SOL    HW137349   1.753   3.940   7.611 -1.1659  0.0861  0.3150
 8630SOL    HW237350   1.667   4.020   7.695 -0.9465 -0.4822 -0.5225
 8631SOL     OW37351   1.867   4.471  16.779 -0.3558 -0.4145 -0.4373
 8631SOL    HW137352   1.808   4.505  16.847  0.3273  0.8622 -0.4799
 8631SOL    HW237353   1.812   4.406  16.735  0.3481 -0.4461 -1.2678
 8632SOL     OW37354   2.586   0.171   5.598  0.4364 -0.5570  0.3392
 8632SOL    HW137355   2.627   0.223   5.529 -0.0041 -0.2785  0.2835
 8632SOL    HW237356   2.624   0.086   5.576  2.2450  0.7224 -1.3560
 8633SOL     OW37357   1.990   1.722   4.034  0.0947 -0.4530  0.6228
 8633SOL    HW137358   1.962   1.710   3.943 -2.3532 -0.0174  1.3247
 8633SOL    HW237359   2.079   1.754   4.020 -0.1334 -0.9540 -1.9039
 8634SOL     OW37360   1.154   0.878   4.545  0.1692  0.4469  0.4641
 8634SOL    HW137361   1.243   0.882   4.580  0.1624 -0.8368  0.6655
 8634SOL    HW237362   1.109   0.955   4.577  1.2834  0.7573  1.2731
 8635SOL     OW37363   3.851   1.396  11.393  0.0280 -0.1524  0.5365
 8635SOL    HW137364   3.880   1.483  11.419 -0.6093  0.0739  0.5001
 8635SOL    HW237365   3.928   1.364  11.347  0.7050 -0.1528  1.6604
 8636SOL     OW37366   4.436   2.308  11.106  0.4828  0.2307  0.1781
 8636SOL    HW137367   4.377   2.293  11.180  0.6282 -3.1877 -0.4006
 8636SOL    HW237368   4.463   2.219  11.082 -3.0841 -0.5883 -0.8141
 8637SOL     OW37369   0.040   1.407  12.692  0.3427 -0.2245 -0.9134
 8637SOL    HW137370   0.039   1.400  12.596  1.9079 -1.1992 -0.8544
 8637SOL    HW237371   4.669   1.417  12.708  0.4856  2.3143 -1.7687
 8638SOL     OW37372   3.942   4.257   6.523  0.0109  0.3399 -0.5300
 8638SOL    HW137373   3.985   4.189   6.472 -1.1975 -0.1380 -0.9070
 8638SOL    HW237374   3.857   4.212   6.519  0.0341  0.4046 -1.8015
 8639SOL     OW37375   3.073   3.810   2.535 -0.2261 -0.0333  0.2103
 8639SOL    HW137376   3.097   3.785   2.624 -2.2768  0.5262  0.9127
 8639SOL    HW237377   3.045   3.900   2.551 -0.4383  0.0801 -0.7580
 8640SOL     OW37378   3.107   4.292   5.721 -0.2554  0.1175 -0.1507
 8640SOL    HW137379   3.182   4.248   5.761 -0.3552 -1.3212 -1.5418
 8640SOL    HW237380   3.130   4.273   5.630 -3.9741  0.7743 -1.2344
 8641SOL     OW37381   1.103   1.191   7.292 -0.4560 -0.3362  0.0536
 8641SOL    HW137382   1.046   1.115   7.302 -2.0738  0.8708  0.0448
 8641SOL    HW237383   1.157   1.179   7.370 -1.6845 -1.0617  0.7823
 8642SOL     OW37384   1.827   0.326   7.863 -0.2100 -0.1253 -0.3071
 8642SOL    HW137385   1.783   0.387   7.921  1.4714 -0.2423  1.1097
 8642SOL    HW237386   1.834   0.366   7.776  1.0399 -0.0918 -0.1896
 8643SOL     OW37387   1.892   2.140   0.814 -0.4854  0.0867 -0.7328
 8643SOL    HW137388   1.887   2.140   0.719 -2.3951  2.0653 -0.6302
 8643SOL    HW237389   1.800   2.119   0.833  0.2562 -1.7546  0.8535
 8644SOL     OW37390   3.749   0.228   1.545 -0.0328  0.1975 -0.5415
 8644SOL    HW137391   3.838   0.222   1.509  0.6969 -1.0871  1.4654
 8644SOL    HW237392   3.770   0.271   1.628 -0.2563  1.9631 -1.4174
 8645SOL     OW37393   0.317   0.204  12.255 -0.5625 -0.5531 -0.0134
 8645SOL    HW137394   0.332   0.110  12.242  0.0840 -0.2651 -1.4412
 8645SOL    HW237395   0.398   0.238  12.217 -1.2896  0.2058 -0.9037
 8646SOL     OW37396   3.270   1.075  17.345 -0.1071  0.2578 -0.0793
 8646SOL    HW137397   3.178   1.081  17.373 -0.2768  1.9253 -0.9909
 8646SOL    HW237398   3.313   1.144  17.395  1.2194 -0.6229 -0.0089
 8647SOL     OW37399   0.349   3.984   3.270  1.0064 -0.0717 -0.0740
 8647SOL    HW137400   0.428   3.950   3.228  1.6929  0.3756  0.8569
 8647SOL    HW237401   0.385   4.029   3.346  1.3673 -0.1216 -0.2129
 8648SOL     OW37402   1.156   3.603   8.563 -0.1696  0.0846  0.0452
 8648SOL    HW137403   1.102   3.640   8.634 -0.4863 -0.0506 -0.1278
 8648SOL    HW237404   1.124   3.649   8.486 -2.3938  0.8466  1.4057
 8649SOL     OW37405   2.402   1.560   3.894  0.2442 -0.3520 -0.2548
 8649SOL    HW137406   2.411   1.514   3.977 -0.4771  0.1819  0.1137
 8649SOL    HW237407   2.320   1.524   3.861  0.7158 -1.4615 -0.2265
 8650SOL     OW37408   3.574   4.706  11.241 -0.0378  0.2249  0.7043
 8650SOL    HW137409   3.659   0.008  11.204 -1.7914  7.2861  1.2142
 8650SOL    HW237410   3.508   0.001  11.174  0.8203 -0.6640 -0.3793
 8651SOL     OW37411   2.530   1.590   7.351 -0.0897 -0.7032  0.1598
 8651SOL    HW137412   2.490   1.524   7.408 -1.4340 -0.5189 -0.5540
 8651SOL    HW237413   2.619   1.599   7.383  0.0415  1.5306 -0.8086
 8652SOL     OW37414   3.047   4.083   3.498  0.2873 -0.1254 -0.4309
 8652SOL    HW137415   3.026   4.153   3.436 -0.5891 -1.5002 -1.6803
 8652SOL    HW237416   3.134   4.053   3.472  0.9938  0.6454  1.0686
 8653SOL     OW37417   0.757   0.043  13.373 -0.0606 -0.5376 -0.1369
 8653SOL    HW137418   0.795   4.689  13.416 -1.2836 -0.6256  0.7871
 8653SOL    HW237419   0.834   0.098  13.362 -0.5876 -0.0349 -1.2993
 8654SOL     OW37420   2.417   0.367   0.763  0.8979 -0.1026 -0.1259
 8654SOL    HW137421   2.363   0.289   0.776  2.1043 -0.5535  2.2763
 8654SOL    HW237422   2.349   0.427   0.733  1.4479 -0.4289 -2.0199
 8655SOL     OW37423   1.758   2.208   6.123 -0.3334 -0.4987 -0.5871
 8655SOL    HW137424   1.676   2.253   6.145 -1.7932 -3.7050  0.5030
 8655SOL    HW237425   1.743   2.165   6.039 -0.6475  1.0594 -1.3322
 8656SOL     OW37426   3.748   2.514   3.445 -0.2716  0.2673  0.3286
 8656SOL    HW137427   3.671   2.491   3.394 -2.1325  0.7415  2.8696
 8656SOL    HW237428   3.808   2.442   3.428  0.4965  0.9037  0.3362
 8657SOL     OW37429   3.885   1.433  13.539  0.5169  0.1442  0.5431
 8657SOL    HW137430   3.814   1.408  13.479 -1.4782  0.1347  2.9191
 8657SOL    HW237431   3.893   1.367  13.607  1.2036  1.8246  2.0871
 8658SOL     OW37432   2.047   3.947   3.435 -0.3077  0.5724 -0.0162
 8658SOL    HW137433   1.985   4.020   3.435 -0.6470  0.2929 -1.5469
 8658SOL    HW237434   2.025   3.913   3.348 -0.0003  1.3923 -0.4171
 8659SOL     OW37435   3.369   3.230   1.721 -0.1226 -0.2896 -0.4118
 8659SOL    HW137436   3.378   3.300   1.785  0.0495 -2.3708  1.8363
 8659SOL    HW237437   3.304   3.170   1.758 -0.0099 -0.2427 -0.1356
 8660SOL     OW37438   1.254   3.889  11.825  1.0909  0.8863 -0.0324
 8660SOL    HW137439   1.328   3.837  11.793 -1.3048 -1.9686 -0.8526
 8660SOL    HW237440   1.267   3.878  11.919  2.6463  2.8684 -0.0068
 8661SOL     OW37441   3.750   3.662   7.185 -0.0329  0.1176  0.6035
 8661SOL    HW137442   3.759   3.753   7.159 -0.5559 -0.0003  0.0385
 8661SOL    HW237443   3.726   3.610   7.108 -1.7273 -0.7222  1.6915
 8662SOL     OW37444   2.770   2.824   6.689 -0.4428 -0.3567  0.1005
 8662SOL    HW137445   2.826   2.857   6.619  0.5182 -3.6068 -0.6422
 8662SOL    HW237446   2.709   2.792   6.622 -0.4782 -0.5028  0.2025
 8663SOL     OW37447   1.968   3.164  13.740 -0.4346  0.3879  0.1525
 8663SOL    HW137448   1.879   3.134  13.719 -1.1237  2.2385  0.4200
 8663SOL    HW237449   2.023   3.137  13.667  1.7097  2.2935  1.0662
 8664SOL     OW37450   3.835   2.961  10.367 -0.1960 -0.2405 -0.5339
 8664SOL    HW137451   3.875   3.046  10.345 -1.0353 -0.2124 -1.9535
 8664SOL    HW237452   3.908   2.923  10.416  1.1757  1.3624 -1.3378
 8665SOL     OW37453   3.621   2.224   2.860 -0.0309  0.5174 -0.0502
 8665SOL    HW137454   3.531   2.247   2.835  0.5184  3.6491  0.9152
 8665SOL    HW237455   3.633   2.138   2.819  0.6404 -0.2777  1.8334
 8666SOL     OW37456   4.649   0.451  14.779 -0.1224 -0.2526 -0.7032
 8666SOL    HW137457   4.659   0.412  14.866  0.3768 -0.4662 -0.8546
 8666SOL    HW237458   4.558   0.429  14.760 -0.5959  1.4444 -0.3973
 8667SOL     OW37459   1.398   3.908   3.230  0.6239 -0.0830 -0.8774
 8667SOL    HW137460   1.386   3.896   3.324  0.4908 -0.8244 -0.9893
 8667SOL    HW237461   1.340   3.844   3.187  0.8753 -0.0615 -1.2528
 8668SOL     OW37462   4.460   0.588   8.957  0.2789  0.0815 -0.6808
 8668SOL    HW137463   4.430   0.645   8.886 -0.5933 -0.0261 -0.4029
 8668SOL    HW237464   4.421   0.508   8.920  0.1077 -0.4325  0.6058
 8669SOL     OW37465   3.202   3.020   8.461  0.0868 -0.0325  0.3236
 8669SOL    HW137466   3.162   2.939   8.494  2.2027 -1.2800 -0.1531
 8669SOL    HW237467   3.127   3.074   8.441  0.5918  0.0963 -1.1891
 8670SOL     OW37468   2.162   3.458   4.145 -0.6790 -0.1080  0.3651
 8670SOL    HW137469   2.203   3.529   4.195 -0.7747 -0.3003  0.7121
 8670SOL    HW237470   2.220   3.455   4.069  1.4092  2.8811  1.8586
 8671SOL     OW37471   3.214   3.350   8.323  0.1960  0.3019 -0.5214
 8671SOL    HW137472   3.300   3.310   8.332  0.2818 -0.0283 -2.6229
 8671SOL    HW237473   3.149   3.286   8.353  0.2266  0.6928  0.3551
 8672SOL     OW37474   3.377   3.587  10.848  0.0879 -0.0143  0.6755
 8672SOL    HW137475   3.328   3.628  10.776  3.7974  0.9562 -1.3113
 8672SOL    HW237476   3.451   3.647  10.835  1.6384 -1.2718  3.7393
 8673SOL     OW37477   1.433   2.107   7.518 -1.0396  0.3075  0.6388
 8673SOL    HW137478   1.475   2.192   7.529 -0.1227 -0.0543 -0.0501
 8673SOL    HW237479   1.343   2.122   7.546 -1.0107  0.3172  0.7247
 8674SOL     OW37480   3.330   2.091   3.480  0.1681 -0.1828  0.4164
 8674SOL    HW137481   3.246   2.136   3.481 -0.5330 -1.5393  2.1551
 8674SOL    HW237482   3.382   2.162   3.517 -1.6744  1.0903  0.5485
 8675SOL     OW37483   1.508   1.506   3.067 -0.1846  0.2322 -0.1381
 8675SOL    HW137484   1.550   1.468   2.990 -0.1647 -0.0632  0.0197
 8675SOL    HW237485   1.524   1.599   3.048  1.1642  0.1357  0.5184
 8676SOL     OW37486   2.229   1.401   3.498 -0.7433 -0.0129 -0.2254
 8676SOL    HW137487   2.219   1.434   3.587  0.1333 -0.3188 -0.0110
 8676SOL    HW237488   2.138   1.416   3.472 -1.2597 -0.7836  1.1168
 8677SOL     OW37489   3.544   4.044   3.043  0.1557 -0.8018  0.0650
 8677SOL    HW137490   3.529   4.083   3.129 -1.5121  2.5428 -1.7600
 8677SOL    HW237491   3.600   4.109   3.000 -2.2056  0.1292 -1.5964
 8678SOL     OW37492   2.493   3.958   5.836  0.2978  0.0429 -0.5940
 8678SOL    HW137493   2.403   3.989   5.823 -0.2163 -1.9717 -1.9105
 8678SOL    HW237494   2.481   3.886   5.898  0.0507 -0.2142 -0.9368
 8679SOL     OW37495   2.419   4.656  17.577 -0.4152  0.6170 -0.3625
 8679SOL    HW137496   2.390   4.715  17.647 -2.1897 -0.1230 -0.4564
 8679SOL    HW237497   2.361   4.692  17.509  2.3586 -3.1842 -4.7239
 8680SOL     OW37498   1.818   1.882  10.898  0.1552 -0.0267 -0.2780
 8680SOL    HW137499   1.893   1.893  10.957 -0.5071  2.7017  0.0647
 8680SOL    HW237500   1.855   1.842  10.819  1.6981 -1.3930  1.1255
 8681SOL     OW37501   1.349   2.796   1.049 -0.1034  0.5152 -0.5915
 8681SOL    HW137502   1.355   2.875   0.995  0.7627  1.2553  0.5911
 8681SOL    HW237503   1.342   2.732   0.978  0.3706  0.3827 -0.5147
 8682SOL     OW37504   0.624   1.651   5.314  0.4257  0.6331  0.4406
 8682SOL    HW137505   0.651   1.668   5.404  1.7090 -0.5102  0.2662
 8682SOL    HW237506   0.712   1.644   5.277 -0.5413  2.6199 -2.2176
 8683SOL     OW37507   0.325   1.418   8.206 -0.0089  0.0345  0.1430
 8683SOL    HW137508   0.260   1.350   8.190  0.1439 -0.1546  0.3275
 8683SOL    HW237509   0.327   1.428   8.301  2.3059 -3.6452  0.4959
 8684SOL     OW37510   2.771   0.352   1.280 -0.8519  0.0617  0.0617
 8684SOL    HW137511   2.855   0.399   1.277 -0.5850 -0.3320  1.4525
 8684SOL    HW237512   2.708   0.423   1.262  0.0183  0.6037 -0.8399
 8685SOL     OW37513   4.438   3.904   5.159  0.1409 -0.6234  0.4865
 8685SOL    HW137514   4.520   3.945   5.186 -0.6274  1.2735 -0.0594
 8685SOL    HW237515   4.429   3.825   5.211  1.5175 -0.5333  0.8596
 8686SOL     OW37516   2.674   2.434   1.513 -0.0764 -0.3722 -0.3365
 8686SOL    HW137517   2.677   2.474   1.600  3.0860 -0.0134 -0.6235
 8686SOL    HW237518   2.753   2.471   1.473 -0.0973  2.2655  2.0756
 8687SOL     OW37519   3.110   2.455   8.018 -0.1071 -0.0359 -0.2545
 8687SOL    HW137520   3.094   2.549   8.025  1.0272  0.1716 -0.4843
 8687SOL    HW237521   3.095   2.435   8.110 -0.0639 -0.7817 -0.4120
 8688SOL     OW37522   2.535   1.863   4.420 -0.2404  0.4162 -1.0032
 8688SOL    HW137523   2.529   1.815   4.502  1.9244 -0.6519 -1.4675
 8688SOL    HW237524   2.626   1.848   4.393 -0.1514 -0.9379  0.0470
 8689SOL     OW37525   3.390   0.804  17.527 -0.2891  0.6023 -0.1907
 8689SOL    HW137526   3.302   0.800  17.488 -0.9023  0.5376  1.1935
 8689SOL    HW237527   3.381   0.861  17.603 -0.6462  0.9655 -0.5066
 8690SOL     OW37528   2.334   2.572  13.057 -0.4475  0.1421 -0.0417
 8690SOL    HW137529   2.317   2.647  13.115 -0.7057  0.3540 -0.3929
 8690SOL    HW237530   2.426   2.589  13.036 -0.9826  2.6330 -0.3862
 8691SOL     OW37531   0.068   3.929   2.418 -0.7021  0.3467 -0.2920
 8691SOL    HW137532   0.052   3.871   2.492  2.2084  0.7902  0.6578
 8691SOL    HW237533   0.099   3.861   2.358  1.3543  2.3017 -1.4425
 8692SOL     OW37534   0.073   0.459   5.539 -0.3554  0.1522  0.4017
 8692SOL    HW137535   0.053   0.453   5.632 -2.0788 -0.7264 -0.0187
 8692SOL    HW237536   0.011   0.529   5.516 -0.8187 -0.1144  0.8435
 8693SOL     OW37537   2.893   2.329   8.489  0.0565  0.2074 -0.0643
 8693SOL    HW137538   2.944   2.262   8.444 -1.7865 -0.4412 -1.2085
 8693SOL    HW237539   2.951   2.379   8.546 -2.2666  0.3512  2.1632
 8694SOL     OW37540   1.577   1.483  10.300  0.6431 -0.3579  0.2585
 8694SOL    HW137541   1.644   1.540  10.262  0.0450 -0.5667 -1.1073
 8694SOL    HW237542   1.509   1.521  10.245 -1.2669 -1.5357  1.8148
 8695SOL     OW37543   3.342   3.588   3.741  0.3151  0.2270 -0.2424
 8695SOL    HW137544   3.377   3.502   3.719  0.3280 -0.1384  1.1998
 8695SOL    HW237545   3.422   3.640   3.732  1.9417 -2.0186  1.0862
 8696SOL     OW37546   3.122   2.632   0.614  0.3868  0.1649 -0.3393
 8696SOL    HW137547   3.110   2.576   0.537  0.2154 -0.7847  0.3896
 8696SOL    HW237548   3.165   2.565   0.666  0.2169 -0.7937 -1.4406
 8697SOL     OW37549   1.776   2.620   2.537  0.2258  0.0749 -0.1581
 8697SOL    HW137550   1.829   2.693   2.568 -0.8693  0.9224 -0.2859
 8697SOL    HW237551   1.749   2.573   2.616 -1.2213  0.8932 -0.1685
 8698SOL     OW37552   4.123   1.277   2.782  0.1232 -0.1716 -0.1633
 8698SOL    HW137553   4.167   1.209   2.731  1.3768 -0.4061  1.2315
 8698SOL    HW237554   4.165   1.262   2.866 -0.4214 -0.7753  0.0006
 8699SOL     OW37555   3.130   3.268   8.880 -0.0624 -0.9799 -0.2026
 8699SOL    HW137556   3.090   3.281   8.966 -0.3881 -0.4764 -0.4303
 8699SOL    HW237557   3.057   3.303   8.829 -0.4210  0.9586  1.6456
 8700SOL     OW37558   4.444   3.324   6.444  0.8267 -0.8273 -0.1747
 8700SOL    HW137559   4.354   3.292   6.440  0.3552  0.6001 -0.9909
 8700SOL    HW237560   4.480   3.313   6.356  2.2238  1.1204  0.1626
 8701SOL     OW37561   3.125   0.628   5.367  0.0080  0.5645  0.5185
 8701SOL    HW137562   3.098   0.544   5.330  0.6375  0.8014 -0.4816
 8701SOL    HW237563   3.049   0.651   5.420 -0.2703  1.0510 -0.1040
 8702SOL     OW37564   0.163   0.036   2.859  0.2777  0.0871 -0.0370
 8702SOL    HW137565   0.135   0.125   2.877  1.7848  0.5627 -0.0941
 8702SOL    HW237566   0.248   0.046   2.816  1.5375 -0.2206  2.3586
 8703SOL     OW37567   2.636   3.545  11.719  0.6732 -0.0611 -0.1471
 8703SOL    HW137568   2.596   3.477  11.666 -1.3147  1.5381 -0.6968
 8703SOL    HW237569   2.703   3.567  11.654 -1.7149  1.4381 -2.1098
 8704SOL     OW37570   0.459   3.877   2.061 -0.5990  0.0881  0.0407
 8704SOL    HW137571   0.374   3.850   2.097 -0.6840 -1.5854 -1.4312
 8704SOL    HW237572   0.503   3.793   2.074 -0.0242  0.3384 -0.3255
 8705SOL     OW37573   3.353   3.527   4.749  0.0260 -0.2689  0.1215
 8705SOL    HW137574   3.351   3.538   4.844  1.2446  1.2805 -0.0368
 8705SOL    HW237575   3.326   3.615   4.723 -2.7431 -0.9916  0.5002
 8706SOL     OW37576   2.181   0.463  13.138  0.0030  0.1592  0.1500
 8706SOL    HW137577   2.171   0.498  13.050  0.6862  2.6742  1.0733
 8706SOL    HW237578   2.197   0.370  13.123  0.9729  0.5164 -0.9560
 8707SOL     OW37579   0.111   3.870   6.452 -0.1739 -0.2941 -0.4790
 8707SOL    HW137580   0.151   3.884   6.366 -0.5800  2.4074 -0.2201
 8707SOL    HW237581   0.018   3.874   6.428 -0.3086  0.3823  0.1638
 8708SOL     OW37582   1.427   4.432  13.487 -0.4973 -0.2241  0.3534
 8708SOL    HW137583   1.357   4.490  13.459  1.8201  2.7234  0.7245
 8708SOL    HW237584   1.461   4.397  13.405 -1.7339  2.2403 -1.1771
 8709SOL     OW37585   0.660   4.031   7.283 -0.4300 -0.0614  0.3065
 8709SOL    HW137586   0.655   4.002   7.374  1.3657  2.1655  1.1247
 8709SOL    HW237587   0.654   4.127   7.288 -1.4961 -0.2322  2.5159
 8710SOL     OW37588   2.494   4.208   6.665  0.3822  0.4487 -0.0226
 8710SOL    HW137589   2.401   4.189   6.673  0.5537 -0.2857  0.2485
 8710SOL    HW237590   2.525   4.118   6.660  1.4867  0.8521 -0.4741
 8711SOL     OW37591   1.863   4.102   9.637  0.2875 -0.0130 -0.0740
 8711SOL    HW137592   1.777   4.063   9.654  0.8007  0.2306  3.2297
 8711SOL    HW237593   1.891   4.125   9.726 -0.0701  1.9846 -0.4670
 8712SOL     OW37594   0.912   4.120   5.547  0.0529  0.7578 -0.5636
 8712SOL    HW137595   0.892   4.201   5.500  0.2013  0.2929 -1.4262
 8712SOL    HW237596   0.971   4.151   5.616 -0.4965  1.2463 -0.3201
 8713SOL     OW37597   1.681   2.801  11.855 -0.2089  0.5378 -0.5590
 8713SOL    HW137598   1.756   2.861  11.854  0.2389 -0.0045  1.0027
 8713SOL    HW237599   1.705   2.736  11.921 -1.3277 -0.6885 -1.3677
 8714SOL     OW37600   2.812   3.288   8.171 -0.0470 -0.1724 -0.3344
 8714SOL    HW137601   2.888   3.230   8.163  0.5923  0.6476 -0.1723
 8714SOL    HW237602   2.739   3.241   8.129 -0.8116 -0.1644  0.9946
 8715SOL     OW37603   1.719   2.376   8.575 -0.4634  0.5026 -0.4712
 8715SOL    HW137604   1.737   2.286   8.604 -0.9644  0.3621 -0.6031
 8715SOL    HW237605   1.693   2.414   8.659 -0.4410 -0.9905  0.2187
 8716SOL     OW37606   0.008   0.683  14.610  0.0651 -0.1954 -0.3994
 8716SOL    HW137607   4.710   0.603  14.659 -0.8765 -0.8342 -1.8493
 8716SOL    HW237608   4.638   0.697  14.590  0.2571 -1.4641 -2.1680
 8717SOL     OW37609   0.403   4.572   5.889 -0.5106 -0.3176 -0.2122
 8717SOL    HW137610   0.474   4.573   5.825  1.2935  0.3659  1.7734
 8717SOL    HW237611   0.368   4.661   5.878 -2.3040 -1.0881 -0.5745
 8718SOL     OW37612   3.040   3.651  15.192 -0.1721 -0.3762 -0.8085
 8718SOL    HW137613   3.131   3.638  15.219 -0.2391  0.5901 -0.1317
 8718SOL    HW237614   3.021   3.743  15.212  1.1090 -0.0315 -1.1609
 8719SOL     OW37615   2.258   2.708   7.015  0.2625  0.6757  0.2629
 8719SOL    HW137616   2.274   2.790   7.061  1.0608 -0.5136  2.1297
 8719SOL    HW237617   2.320   2.644   7.051  0.4023 -0.6952 -2.4024
 8720SOL     OW37618   2.259   0.581   8.582 -0.5146  0.4454 -0.3904
 8720SOL    HW137619   2.326   0.515   8.601 -2.2620 -0.6215  2.1757
 8720SOL    HW237620   2.317   0.657   8.578 -1.1340  0.8323 -1.8710
 8721SOL     OW37621   0.635   1.579   0.349  0.2149  0.2028  0.4392
 8721SOL    HW137622   0.650   1.626   0.432 -0.7262  0.3835  0.5061
 8721SOL    HW237623   0.568   1.629   0.304  0.8130  1.1432  0.5974
 8722SOL     OW37624   1.444   1.452   2.775  0.3320 -0.2361  0.1094
 8722SOL    HW137625   1.512   1.400   2.732 -1.4940 -0.7477 -2.1162
 8722SOL    HW237626   1.426   1.511   2.702 -0.7576  1.1290  1.4669
 8723SOL     OW37627   2.227   4.594   7.288  0.5687  0.6463  1.1083
 8723SOL    HW137628   2.239   4.563   7.378 -0.9773 -2.4899  0.2137
 8723SOL    HW237629   2.131   4.584   7.283  0.7218  1.1193 -2.3796
 8724SOL     OW37630   3.407   0.156   5.829  0.5023  0.1179 -0.4017
 8724SOL    HW137631   3.414   0.100   5.906  3.6508 -0.7856 -1.3296
 8724SOL    HW237632   3.353   0.230   5.857  0.2353 -0.2604  0.0939
 8725SOL     OW37633   0.970   2.330   6.616  0.0232 -0.1763 -0.8395
 8725SOL    HW137634   0.963   2.243   6.655  1.2815  0.5362  0.9492
 8725SOL    HW237635   0.958   2.298   6.526  0.0738 -1.7014 -0.2988
 8726SOL     OW37636   3.078   3.008   9.426  0.4138 -0.7576 -0.7631
 8726SOL    HW137637   3.075   2.935   9.365  0.1096  0.5218 -2.2637
 8726SOL    HW237638   2.984   3.026   9.431  0.9371  1.4882  0.9715
 8727SOL     OW37639   3.100   0.912   0.904  0.1068  0.0978  0.1910
 8727SOL    HW137640   3.054   0.969   0.965  2.1285  1.0448  0.8335
 8727SOL    HW237641   3.079   0.950   0.818 -0.5633  1.7211  1.0871
 8728SOL     OW37642   0.342   3.186  11.013  0.3982 -0.1192  0.0269
 8728SOL    HW137643   0.281   3.162  10.943  0.5927  0.0400 -0.1958
 8728SOL    HW237644   0.302   3.166  11.097 -0.1379 -0.7997 -0.3916
 8729SOL     OW37645   3.984   0.709   5.410  0.0973  0.7242  0.0059
 8729SOL    HW137646   3.928   0.668   5.475  0.6362  0.8263  0.5379
 8729SOL    HW237647   3.915   0.724   5.346 -1.3427  1.1580  1.6826
 8730SOL     OW37648   3.630   3.688   8.252  0.0212  0.2824 -0.3455
 8730SOL    HW137649   3.628   3.784   8.256  1.5754  0.3950 -2.4523
 8730SOL    HW237650   3.680   3.662   8.330  1.4496 -0.8144 -1.6259
 8731SOL     OW37651   1.980   2.463   8.388  0.1973  0.2813 -0.2581
 8731SOL    HW137652   1.927   2.535   8.421  3.9423  2.7111  0.4920
 8731SOL    HW237653   2.000   2.495   8.300  2.6016 -3.1848 -0.9615
 8732SOL     OW37654   3.414   1.044   3.336 -0.4613  0.5541  0.1620
 8732SOL    HW137655   3.396   1.006   3.250 -1.7357 -0.9411  1.0902
 8732SOL    HW237656   3.369   0.980   3.391  2.8753 -0.8057  1.3361
 8733SOL     OW37657   3.700   4.104   6.509  0.1285  0.6685 -0.6978
 8733SOL    HW137658   3.720   4.020   6.550  0.3619  1.3078  0.4946
 8733SOL    HW237659   3.642   4.078   6.438  2.5527 -2.7117 -1.4686
 8734SOL     OW37660   3.867   3.879   8.614 -0.3899 -0.2774  0.2357
 8734SOL    HW137661   3.800   3.929   8.568  0.0244 -2.0047 -2.2247
 8734SOL    HW237662   3.829   3.792   8.602 -0.8873  0.2354 -1.9496
 8735SOL     OW37663   2.155   2.376   7.233 -0.0902  0.1542  0.2622
 8735SOL    HW137664   2.157   2.461   7.277 -0.6497 -1.2531  2.9830
 8735SOL    HW237665   2.161   2.317   7.309  0.7972 -0.3265 -0.1832
 8736SOL     OW37666   0.773   0.971   7.015 -0.2369  0.3710  0.1557
 8736SOL    HW137667   0.845   1.034   7.014  0.9002 -0.9323 -1.0878
 8736SOL    HW237668   0.812   0.893   7.054  0.4214 -0.2651 -1.7633
 8737SOL     OW37669   1.005   0.161   8.448  0.1956  0.1607  0.1334
 8737SOL    HW137670   0.938   0.212   8.402  0.2951 -1.5118 -1.8130
 8737SOL    HW237671   1.041   0.111   8.375 -0.6911  0.0750 -0.2516
 8738SOL     OW37672   3.963   2.127  15.422 -0.4184 -0.6330  0.0718
 8738SOL    HW137673   3.919   2.120  15.507 -0.0665 -0.0139  0.3013
 8738SOL    HW237674   3.878   2.134  15.378 -0.3676 -0.2078  0.0382
 8739SOL     OW37675   1.252   2.530   2.353 -0.4000 -0.1743 -0.3164
 8739SOL    HW137676   1.238   2.624   2.357  2.4610  0.1819  1.1974
 8739SOL    HW237677   1.268   2.510   2.445  2.3347 -0.6761 -0.8998
 8740SOL     OW37678   4.334   1.771   7.472  0.0668  0.3520  0.1068
 8740SOL    HW137679   4.241   1.777   7.452 -0.6083 -1.0643  2.8104
 8740SOL    HW237680   4.330   1.700   7.536 -0.7448 -0.1726 -0.5387
 8741SOL     OW37681   2.645   1.417  13.590 -0.1364  0.2165 -0.1348
 8741SOL    HW137682   2.550   1.415  13.584 -0.0965  1.5074 -1.1389
 8741SOL    HW237683   2.664   1.325  13.606 -2.1096  0.2076  2.1360
 8742SOL     OW37684   3.059   0.755   1.194 -0.3700 -0.1878  0.6385
 8742SOL    HW137685   3.005   0.804   1.257  0.5172  2.6500 -0.7895
 8742SOL    HW237686   3.132   0.815   1.179  0.6802 -1.5956  0.2373
 8743SOL     OW37687   4.480   3.851   3.985 -0.2000  0.4682  0.2272
 8743SOL    HW137688   4.443   3.869   4.072  0.7820  1.3327  0.4654
 8743SOL    HW237689   4.438   3.922   3.936  1.7541  1.2440 -0.3290
 8744SOL     OW37690   0.182   4.605  15.806  0.8864  0.5181 -0.6299
 8744SOL    HW137691   0.168   4.620  15.713 -1.1140 -0.5794 -0.5055
 8744SOL    HW237692   0.181   4.509  15.806  1.9809  0.5006 -1.3504
 8745SOL     OW37693   0.162   1.233  17.221  0.4778  0.2938  0.7751
 8745SOL    HW137694   0.180   1.264  17.133  1.5902 -2.2839  0.1037
 8745SOL    HW237695   0.102   1.162  17.199  1.4405  0.5959 -2.7768
 8746SOL     OW37696   3.726   0.877   0.091 -0.4212  0.4639 -0.1033
 8746SOL    HW137697   3.781   0.889   0.014  0.2630  0.5053  0.3863
 8746SOL    HW237698   3.669   0.803   0.070  1.0280 -0.0379 -2.2778
 8747SOL     OW37699   3.050   2.036   4.733 -0.3229  0.1792  0.1123
 8747SOL    HW137700   3.061   2.100   4.803 -0.4029  0.1398  0.1616
 8747SOL    HW237701   3.055   1.951   4.777 -0.8448  0.5816  0.9385
 8748SOL     OW37702   1.185   4.685   6.539  0.0142  0.2467  0.4036
 8748SOL    HW137703   1.166   0.020   6.614 -0.0273  1.4853 -0.5615
 8748SOL    HW237704   1.135   4.609   6.571 -1.8525 -0.1571 -3.4840
 8749SOL     OW37705   2.535   1.632  17.035 -0.7452 -0.4346 -0.7018
 8749SOL    HW137706   2.528   1.728  17.038  0.6797 -0.4115  2.2971
 8749SOL    HW237707   2.486   1.605  17.113  0.0204  1.2352  0.3710
 8750SOL     OW37708   4.643   4.699  12.178  0.3197 -0.1146 -0.1876
 8750SOL    HW137709   4.553   0.005  12.167  0.0148 -1.1039 -0.2520
 8750SOL    HW237710   4.681   0.047  12.230 -0.2843 -0.1180  0.2586
 8751SOL     OW37711   2.005   0.077   7.445 -0.1697  0.2300 -0.4780
 8751SOL    HW137712   1.967   0.030   7.370 -1.2194 -1.3695  1.0590
 8751SOL    HW237713   1.957   0.035   7.516  0.9691  0.9387  0.6981
 8752SOL     OW37714   4.164   3.703   4.009  0.3513 -0.5734  0.1294
 8752SOL    HW137715   4.215   3.686   4.089  1.5574 -2.0045 -0.9401
 8752SOL    HW237716   4.137   3.791   4.037  1.8305 -0.3061  0.7115
 8753SOL     OW37717   2.782   4.688   7.702  0.3244  0.0038  0.3747
 8753SOL    HW137718   2.794   4.705   7.608  1.1201  1.4495  0.7311
 8753SOL    HW237719   2.873   4.687   7.732  1.5785  3.0026 -3.3225
 8754SOL     OW37720   1.464   4.601  16.206  0.1312  0.2623 -0.0325
 8754SOL    HW137721   1.525   4.564  16.142  0.7793 -1.3324  1.5046
 8754SOL    HW237722   1.532   4.615  16.272  0.0954  2.1172 -0.3818
 8755SOL     OW37723   1.604   1.442  14.000 -0.1290 -0.3396  0.0797
 8755SOL    HW137724   1.572   1.383  13.932  1.8816  1.3987 -2.3295
 8755SOL    HW237725   1.694   1.412  13.992 -0.3349 -0.8767 -0.2478
 8756SOL     OW37726   1.875   4.013  13.743 -0.6061 -0.4539  0.1812
 8756SOL    HW137727   1.916   3.931  13.769 -0.8645  0.5305  3.7000
 8756SOL    HW237728   1.916   4.024  13.657  1.0357 -0.1604  1.0007
 8757SOL     OW37729   2.284   1.880   0.916 -0.1633 -0.8244 -0.2869
 8757SOL    HW137730   2.213   1.827   0.880 -0.5332 -1.4980  1.4538
 8757SOL    HW237731   2.270   1.863   1.009  1.4123 -0.4648  0.0048
 8758SOL     OW37732   1.737   2.947   1.670  0.4215 -0.7758  0.9613
 8758SOL    HW137733   1.684   2.936   1.591 -0.4818 -0.6509  1.5507
 8758SOL    HW237734   1.775   3.034   1.660 -0.3188 -0.6697 -0.8377
 8759SOL     OW37735   1.209   3.845   9.390  0.4658 -0.1743  0.2314
 8759SOL    HW137736   1.262   3.822   9.467 -1.0805  1.7005  1.8672
 8759SOL    HW237737   1.197   3.940   9.401 -3.2131 -0.4052 -1.7481
 8760SOL     OW37738   1.793   3.243   7.980 -0.4243 -0.1456 -0.0935
 8760SOL    HW137739   1.792   3.336   7.961 -2.4348 -0.5770 -2.0358
 8760SOL    HW237740   1.761   3.251   8.070  0.3311 -0.0836  0.1676
 8761SOL     OW37741   2.402   0.795   6.117  0.4689  0.3066  0.2915
 8761SOL    HW137742   2.349   0.867   6.085  0.9906  0.2414 -0.7199
 8761SOL    HW237743   2.416   0.829   6.205 -1.6080  0.0323  0.7366
 8762SOL     OW37744   1.970   1.555   3.065 -0.5267 -0.2822  0.2232
 8762SOL    HW137745   2.024   1.492   3.016  2.0641  1.2652  1.1143
 8762SOL    HW237746   1.886   1.544   3.022  0.5764 -1.0512 -1.7768
 8763SOL     OW37747   3.746   1.730   4.358  0.1021  0.0507  0.4779
 8763SOL    HW137748   3.777   1.820   4.344 -0.0418 -0.1665 -1.2459
 8763SOL    HW237749   3.783   1.685   4.282  0.8810  0.2765  0.7208
 8764SOL     OW37750   4.670   3.749   9.234 -0.3355  0.4193 -0.5639
 8764SOL    HW137751   0.042   3.733   9.235 -0.3462  0.4992  1.4342
 8764SOL    HW237752   4.671   3.838   9.269 -0.5555  0.4461 -0.6293
 8765SOL     OW37753   4.470   0.842   0.473 -0.3316  0.1194  0.2183
 8765SOL    HW137754   4.457   0.754   0.436 -2.9314 -0.3611  2.2325
 8765SOL    HW237755   4.397   0.890   0.434 -0.2021  2.0445  2.3437
 8766SOL     OW37756   0.636   2.935   7.765  0.4870 -0.3676  0.5555
 8766SOL    HW137757   0.709   2.875   7.781  0.2734 -1.0997 -1.1946
 8766SOL    HW237758   0.661   3.016   7.809  2.8495 -0.6188 -0.3248
 8767SOL     OW37759   3.895   1.136  17.316 -0.4201 -0.2707 -0.2692
 8767SOL    HW137760   3.889   1.121  17.221  0.7464  0.7409 -0.4979
 8767SOL    HW237761   3.965   1.201  17.317 -0.9695  0.3076  0.6809
 8768SOL     OW37762   4.563   3.820   4.940 -0.2792 -0.0726  0.1372
 8768SOL    HW137763   4.533   3.832   5.030 -0.3765  0.4305  0.0380
 8768SOL    HW237764   4.509   3.879   4.887 -3.1585 -3.0315 -0.2235
 8769SOL     OW37765   4.196   0.542  10.214 -0.1790  0.5708 -0.2958
 8769SOL    HW137766   4.248   0.594  10.153 -1.4498  0.1274 -1.7412
 8769SOL    HW237767   4.108   0.554  10.180  0.1438 -0.5564 -1.5119
 8770SOL     OW37768   4.093   0.532   9.334 -0.4303 -0.1076  0.2781
 8770SOL    HW137769   4.018   0.561   9.386 -0.5586 -1.2060  0.7194
 8770SOL    HW237770   4.073   0.438   9.338 -0.9719 -0.0593 -1.4177
 8771SOL     OW37771   4.646   0.981   1.697  0.0684  0.3112  0.3128
 8771SOL    HW137772   4.701   0.903   1.702  0.5505  0.6333  0.0842
 8771SOL    HW237773   4.710   1.040   1.657  1.2331 -0.9967  0.2696
 8772SOL     OW37774   2.821   4.586   2.322  0.2353  0.3258  0.1441
 8772SOL    HW137775   2.832   4.555   2.412 -0.7750 -2.4849 -0.7076
 8772SOL    HW237776   2.895   4.646   2.326  0.0190  0.5758  0.4187
 8773SOL     OW37777   2.297   2.570   3.189 -0.3157 -0.0203  0.3049
 8773SOL    HW137778   2.231   2.537   3.128 -0.9994  1.9214  0.0252
 8773SOL    HW237779   2.268   2.549   3.278 -0.1161 -2.0597 -0.1037
 8774SOL     OW37780   1.798   3.143   5.906 -0.4526 -0.1108  0.2121
 8774SOL    HW137781   1.716   3.184   5.934  0.6618 -0.6684  4.2671
 8774SOL    HW237782   1.771   3.058   5.871 -0.3902 -0.2736  0.5635
 8775SOL     OW37783   1.523   3.252  17.469  0.3422 -0.2795  0.2661
 8775SOL    HW137784   1.490   3.328  17.422 -0.4625 -1.2105 -0.6819
 8775SOL    HW237785   1.495   3.275  17.557  1.9373 -1.6548  1.1232
 8776SOL     OW37786   2.653   1.279   6.723 -0.5586  0.2024 -0.2026
 8776SOL    HW137787   2.574   1.225   6.726 -1.3431  1.2935 -0.8459
 8776SOL    HW237788   2.619   1.355   6.771 -0.4558  0.0914  0.0430
 8777SOL     OW37789   2.522   4.429   6.468  0.0215 -0.3708  0.9415
 8777SOL    HW137790   2.603   4.464   6.505  1.8064 -0.7201 -2.5881
 8777SOL    HW237791   2.511   4.342   6.508 -0.7421 -1.1789 -0.9749
 8778SOL     OW37792   3.852   0.333   0.103 -0.5018  0.2626 -0.3365
 8778SOL    HW137793   3.843   0.293   0.017  1.4512 -2.7583  0.8764
 8778SOL    HW237794   3.893   0.256   0.142 -1.0190  0.0048 -0.3146
 8779SOL     OW37795   1.179   4.464   1.447 -0.4601  0.0872 -0.3818
 8779SOL    HW137796   1.207   4.527   1.380 -0.2401  0.2882 -0.0973
 8779SOL    HW237797   1.112   4.427   1.388  0.6192 -2.5039  0.0183
 8780SOL     OW37798   4.464   0.043  13.421 -0.7564 -0.2982 -0.2131
 8780SOL    HW137799   4.539   0.069  13.475 -1.7317  2.4372 -0.2013
 8780SOL    HW237800   4.431   4.702  13.484  3.0774 -3.2734 -1.2320
 8781SOL     OW37801   2.724   1.740   1.124 -0.6575  0.1066 -0.0613
 8781SOL    HW137802   2.802   1.752   1.069  0.7933 -1.4904  1.6600
 8781SOL    HW237803   2.666   1.697   1.061  0.2828  0.1142 -0.9418
 8782SOL     OW37804   4.258   4.205   8.744 -0.0532 -0.3287 -0.0431
 8782SOL    HW137805   4.252   4.137   8.811  1.4300 -0.9316 -0.5043
 8782SOL    HW237806   4.326   4.260   8.782  0.5941 -2.3546  1.7362
 8783SOL     OW37807   2.428   1.050   4.666  0.1766 -0.7094  0.3611
 8783SOL    HW137808   2.411   1.132   4.619  0.4976  0.0001  1.4854
 8783SOL    HW237809   2.522   1.054   4.680  0.0827 -0.5508  0.9436
 8784SOL     OW37810   4.138   2.767   9.413  0.1150  0.0616  1.3530
 8784SOL    HW137811   4.124   2.673   9.397 -1.4835  0.6937 -0.8799
 8784SOL    HW237812   4.114   2.769   9.505 -0.1814 -0.9427  1.3003
 8785SOL     OW37813   4.051   3.146   1.702 -0.3841  0.1808  0.3414
 8785SOL    HW137814   4.105   3.214   1.660 -0.7980 -0.6377 -1.5443
 8785SOL    HW237815   3.983   3.204   1.735 -2.4241 -0.4318 -2.7849
 8786SOL     OW37816   1.873   2.857   0.598 -0.3432 -0.2851 -0.4118
 8786SOL    HW137817   1.900   2.774   0.638  0.9421  0.9788  1.3920
 8786SOL    HW237818   1.790   2.834   0.558  0.8781 -0.7963 -2.6816
 8787SOL     OW37819   4.666   4.618   3.380  0.5452 -0.0159  0.9914
 8787SOL    HW137820   4.702   4.589   3.464 -0.6563 -0.8573  1.2180
 8787SOL    HW237821   4.631   4.704   3.400  0.0770 -0.2373  1.1340
 8788SOL     OW37822   3.859   1.362   1.724 -0.6580  0.1669 -0.2879
 8788SOL    HW137823   3.873   1.444   1.676  0.4422 -0.5370 -1.1820
 8788SOL    HW237824   3.906   1.305   1.663 -0.8164 -0.1876 -0.0760
 8789SOL     OW37825   1.353   0.516   8.317 -0.3843 -0.1779 -0.3415
 8789SOL    HW137826   1.381   0.607   8.305 -1.5910  0.1037 -1.0572
 8789SOL    HW237827   1.301   0.530   8.396 -0.8817  1.0917 -0.8839
 8790SOL     OW37828   1.904   4.705  10.295 -0.2557 -0.2840  0.4657
 8790SOL    HW137829   1.966   0.008  10.227 -1.0471 -1.3083 -0.6353
 8790SOL    HW237830   1.831   0.044  10.286 -0.5940 -0.7107  0.3295
 8791SOL     OW37831   0.632   1.994   5.663 -0.2257  0.0003 -0.8513
 8791SOL    HW137832   0.578   2.038   5.728 -0.0100 -1.4734  0.3224
 8791SOL    HW237833   0.708   2.051   5.668 -0.2781 -0.1958  1.9820
 8792SOL     OW37834   0.055   0.559   8.809  0.1206  0.7595  0.1509
 8792SOL    HW137835   0.117   0.505   8.859  1.3230  1.0676 -1.0045
 8792SOL    HW237836   0.051   0.505   8.730 -1.5617 -0.6630  1.2016
 8793SOL     OW37837   4.533   3.526   3.745  0.3009  0.3252 -0.7210
 8793SOL    HW137838   4.613   3.566   3.711  0.5556 -1.3782 -2.1495
 8793SOL    HW237839   4.540   3.438   3.707  0.4128  0.3265 -0.7044
 8794SOL     OW37840   3.886   2.351  15.173  0.1139  0.4026 -0.0409
 8794SOL    HW137841   3.880   2.443  15.149 -0.0496  0.2575 -0.5680
 8794SOL    HW237842   3.966   2.340  15.122 -0.0044  0.1197 -0.1714
 8795SOL     OW37843   3.171   1.757   1.537  0.5767 -0.0296 -0.3615
 8795SOL    HW137844   3.254   1.801   1.519  0.7082  0.1251  0.6006
 8795SOL    HW237845   3.179   1.718   1.624  1.9419  1.7814  0.3315
 8796SOL     OW37846   3.302   2.180   3.043  0.1626  0.3763 -0.2968
 8796SOL    HW137847   3.219   2.203   3.085 -1.2040 -0.9387 -2.2810
 8796SOL    HW237848   3.287   2.155   2.952 -4.0281 -1.3006  0.8281
 8797SOL     OW37849   1.945   3.282   7.113 -0.5057 -0.0130  0.4178
 8797SOL    HW137850   1.899   3.210   7.155 -0.8230  0.3014  0.6181
 8797SOL    HW237851   1.978   3.337   7.184 -3.2795  1.3086  0.7214
 8798SOL     OW37852   4.200   2.951   5.814 -0.0854 -0.5153  0.5184
 8798SOL    HW137853   4.243   2.999   5.743  1.0322 -0.7061  1.0545
 8798SOL    HW237854   4.139   3.019   5.843 -1.1438 -1.8471  1.3958
 8799SOL     OW37855   2.817   3.554   8.149  0.4869 -0.0958 -0.3195
 8799SOL    HW137856   2.911   3.569   8.143  0.7685 -0.4702  2.9244
 8799SOL    HW237857   2.803   3.465   8.118 -2.4370 -0.0919  0.9244
 8800SOL     OW37858   4.368   4.099   0.329 -0.1878 -0.0102 -0.3377
 8800SOL    HW137859   4.449   4.126   0.286  1.3425 -1.1861  1.8538
 8800SOL    HW237860   4.406   4.074   0.413 -1.5981 -1.5205 -0.1428
 8801SOL     OW37861   2.741   2.666  14.862 -0.1619  0.4387  0.2882
 8801SOL    HW137862   2.827   2.650  14.823 -0.2072  0.5925  0.1206
 8801SOL    HW237863   2.699   2.656  14.776  1.6060  0.1116 -0.5402
 8802SOL     OW37864   4.304   3.925   6.838 -0.3969 -0.4258 -0.4229
 8802SOL    HW137865   4.211   3.901   6.838 -0.0808 -1.6674 -2.0572
 8802SOL    HW237866   4.292   4.019   6.851 -0.4859  0.0561 -4.0031
 8803SOL     OW37867   2.818   1.399  12.090 -0.4316  0.3141  0.4743
 8803SOL    HW137868   2.815   1.495  12.087 -1.6955  0.2396 -0.4039
 8803SOL    HW237869   2.853   1.384  12.003 -1.2171  0.5094  0.1233
 8804SOL     OW37870   1.902   2.126  14.954 -0.0692  0.3819  0.0819
 8804SOL    HW137871   1.891   2.203  14.898  0.4577  0.7203  0.4469
 8804SOL    HW237872   1.890   2.169  15.039  1.8617  1.8006 -0.3688
 8805SOL     OW37873   3.743   0.961  17.151  0.5745  0.2722 -0.9791
 8805SOL    HW137874   3.750   0.961  17.247 -0.7658  0.0015 -0.8788
 8805SOL    HW237875   3.718   0.874  17.120  0.5692 -0.3040  0.6334
 8806SOL     OW37876   2.835   0.725   0.244 -0.4545  0.7326  0.3386
 8806SOL    HW137877   2.870   0.813   0.229 -0.6089  0.9008  0.9405
 8806SOL    HW237878   2.817   0.719   0.338 -0.8240  0.6658  0.2596
 8807SOL     OW37879   4.266   4.226   6.328 -0.2825 -0.4261 -0.6273
 8807SOL    HW137880   4.182   4.180   6.335  0.1852 -1.1699  0.1951
 8807SOL    HW237881   4.315   4.162   6.381  2.4908  0.9398 -1.5116
 8808SOL     OW37882   4.278   2.773  17.185  0.1778  0.4296 -0.6523
 8808SOL    HW137883   4.341   2.844  17.190  0.7277  0.0015 -1.3532
 8808SOL    HW237884   4.194   2.817  17.193  0.1495  0.3013 -0.2629
 8809SOL     OW37885   3.685   0.199  12.176  0.5908  0.2579  0.0957
 8809SOL    HW137886   3.677   0.125  12.117  0.6692  0.5470 -0.2799
 8809SOL    HW237887   3.778   0.216  12.159  1.2830 -3.3886  0.2343
 8810SOL     OW37888   0.268   0.821   7.752 -0.0653  0.4710  0.4536
 8810SOL    HW137889   0.219   0.789   7.676 -0.0094 -1.7498  1.3630
 8810SOL    HW237890   0.356   0.795   7.726 -0.5383 -0.3112 -0.3409
 8811SOL     OW37891   2.435   2.053   3.289  0.6064  0.4764 -0.0684
 8811SOL    HW137892   2.378   2.091   3.222  0.6008 -0.0268 -0.3522
 8811SOL    HW237893   2.383   1.978   3.318  1.0210  0.6462  1.1115
 8812SOL     OW37894   0.341   2.842   6.434  0.0732  0.2401 -0.5451
 8812SOL    HW137895   0.248   2.819   6.428  0.1758 -0.1832 -0.5601
 8812SOL    HW237896   0.361   2.889   6.354  1.3479 -0.2816 -0.5273
 8813SOL     OW37897   1.242   0.649   3.285 -0.3236 -0.0519  0.2510
 8813SOL    HW137898   1.187   0.570   3.293 -0.6323  0.1918  0.5259
 8813SOL    HW237899   1.290   0.619   3.207 -0.1361  1.2947 -0.1449
 8814SOL     OW37900   1.803   3.472  13.238  0.1703 -0.1597 -0.2846
 8814SOL    HW137901   1.871   3.519  13.287 -0.9922  0.6523  0.5554
 8814SOL    HW237902   1.864   3.442  13.170  1.7181  0.3641  0.8518
 8815SOL     OW37903   0.989   1.678   8.197  0.4635  0.4708  0.0299
 8815SOL    HW137904   0.999   1.592   8.155  0.3829 -0.4634  1.9431
 8815SOL    HW237905   0.908   1.715   8.162 -1.4753  0.0435  4.0870
 8816SOL     OW37906   0.992   3.472   7.668 -0.3611  0.2778  0.4520
 8816SOL    HW137907   1.014   3.523   7.746 -0.4138 -2.3975  2.2041
 8816SOL    HW237908   1.049   3.511   7.602 -1.7348  1.4343 -0.0475
 8817SOL     OW37909   4.391   0.350   0.817 -0.3752  0.3408 -0.3036
 8817SOL    HW137910   4.458   0.352   0.748 -0.6359 -2.8494 -0.6115
 8817SOL    HW237911   4.444   0.342   0.896  1.7565  0.5106 -1.7109
 8818SOL     OW37912   2.725   2.524   3.137  0.2647 -0.0128 -0.2653
 8818SOL    HW137913   2.661   2.453   3.133 -0.8946  0.9227  1.7654
 8818SOL    HW237914   2.681   2.591   3.188 -1.0224 -0.2556 -1.0625
 8819SOL     OW37915   2.129   0.461   2.301  0.0150  0.5453  0.3448
 8819SOL    HW137916   2.155   0.370   2.309 -0.2708  0.2368 -2.0521
 8819SOL    HW237917   2.206   0.498   2.345  2.3283 -2.2900 -1.3249
 8820SOL     OW37918   4.494   0.246   7.341 -0.1809 -0.3231  0.1861
 8820SOL    HW137919   4.573   0.195   7.361 -0.5903 -1.9023 -2.1973
 8820SOL    HW237920   4.426   0.192   7.380 -1.3419  0.8343 -0.2526
 8821SOL     OW37921   4.116   2.716   2.100 -0.1460  0.1469 -0.4355
 8821SOL    HW137922   4.062   2.650   2.055 -1.1167  1.4354 -1.1664
 8821SOL    HW237923   4.078   2.803   2.087 -2.0168 -0.6842 -0.4769
 8822SOL     OW37924   3.229   3.768   5.595 -0.2784 -0.6046 -0.1965
 8822SOL    HW137925   3.198   3.696   5.651  0.0544 -0.6746 -0.1013
 8822SOL    HW237926   3.293   3.714   5.549 -0.6241 -0.4412 -0.8668
 8823SOL     OW37927   3.993   2.654   3.090  0.3493  0.6438 -0.0934
 8823SOL    HW137928   3.937   2.641   3.013  1.2474 -1.2668 -0.4430
 8823SOL    HW237929   3.929   2.692   3.151 -0.1299 -0.6654  0.2307
 8824SOL     OW37930   0.816   3.497   4.227  0.0569 -0.2055 -0.1352
 8824SOL    HW137931   0.730   3.456   4.215  0.3747 -0.6854 -0.7664
 8824SOL    HW237932   0.875   3.438   4.180  0.8071  0.3663  0.1146
 8825SOL     OW37933   3.203   2.965   5.622 -0.2653 -0.0857  0.0292
 8825SOL    HW137934   3.125   2.966   5.566  0.2879  1.4851 -0.7381
 8825SOL    HW237935   3.196   2.877   5.657 -0.8402 -0.3717 -0.7961
 8826SOL     OW37936   0.082   2.786  14.422 -0.0241  0.1406  0.2138
 8826SOL    HW137937   0.006   2.835  14.392 -0.4412 -0.8638 -0.4006
 8826SOL    HW237938   0.129   2.782  14.339 -0.1194  0.8897  0.1250
 8827SOL     OW37939   2.885   2.080   2.722  0.6246  0.1573  0.5672
 8827SOL    HW137940   2.938   2.019   2.672 -0.6913  0.2118 -0.8958
 8827SOL    HW237941   2.809   2.023   2.731 -0.5623  1.6687  0.0887
 8828SOL     OW37942   3.858   0.923  11.443  0.0165 -0.2316 -0.0958
 8828SOL    HW137943   3.812   0.842  11.464  0.5997 -0.6546 -0.4453
 8828SOL    HW237944   3.947   0.888  11.453 -0.1043 -0.2354  1.0012
 8829SOL     OW37945   4.241   4.146   1.216  0.1484  0.0878  0.1795
 8829SOL    HW137946   4.167   4.186   1.170 -0.7585  0.7700  2.2050
 8829SOL    HW237947   4.273   4.215   1.274  0.8458  1.7807 -2.2823
 8830SOL     OW37948   3.142   4.332  16.299  0.4857 -0.1795 -0.0730
 8830SOL    HW137949   3.057   4.366  16.328  1.5904  1.6333  1.0695
 8830SOL    HW237950   3.116   4.257  16.246  0.7982  0.3243 -0.9242
 8831SOL     OW37951   0.768   0.613   3.551  0.1566  0.1050 -0.1706
 8831SOL    HW137952   0.835   0.667   3.507 -1.0103  1.4627 -0.2800
 8831SOL    HW237953   0.685   0.659   3.545  0.4239  0.6553  0.3712
 8832SOL     OW37954   4.092   1.965   5.764  0.1450 -0.2081  0.5435
 8832SOL    HW137955   4.033   1.943   5.692 -2.4414  0.7506  2.3566
 8832SOL    HW237956   4.057   2.051   5.790  0.6687  0.8092 -2.0312
 8833SOL     OW37957   3.832   2.062   6.981  0.2581 -1.0826  0.1466
 8833SOL    HW137958   3.834   2.116   6.902  2.4976 -0.1140  0.8579
 8833SOL    HW237959   3.903   2.107   7.027 -1.6825  1.9053  0.2429
 8834SOL     OW37960   3.806   3.574  15.922 -0.2489 -0.0227 -0.1863
 8834SOL    HW137961   3.758   3.615  15.850  3.5445 -0.8350 -3.1346
 8834SOL    HW237962   3.893   3.593  15.888  0.7330 -0.8497  1.8871
 8835SOL     OW37963   0.620   0.665   7.513 -0.2341 -0.2452  0.4406
 8835SOL    HW137964   0.619   0.581   7.559 -1.0620 -0.7536 -0.4989
 8835SOL    HW237965   0.532   0.674   7.477  0.6615  1.9951 -1.1331
 8836SOL     OW37966   1.953   1.455   1.858  0.2555 -0.2067 -0.4288
 8836SOL    HW137967   1.865   1.422   1.874  0.3110 -0.4908 -0.7189
 8836SOL    HW237968   1.927   1.538   1.819 -2.1420 -2.1454 -2.9199
 8837SOL     OW37969   0.642   2.981   6.362  0.2566 -0.4777  0.7648
 8837SOL    HW137970   0.627   3.027   6.445  0.0133  1.0477 -0.1406
 8837SOL    HW237971   0.697   3.039   6.310 -1.2199 -0.4800 -0.7755
 8838SOL     OW37972   3.985   3.246   5.014  0.5035  0.0213 -0.3587
 8838SOL    HW137973   4.064   3.245   5.069  0.4233  0.1915 -0.2419
 8838SOL    HW237974   3.944   3.162   5.034  0.8992 -0.3136 -0.9250
 8839SOL     OW37975   1.779   3.332   6.502  0.7118 -0.0812  0.4608
 8839SOL    HW137976   1.865   3.372   6.488 -0.7110  2.4148 -1.0075
 8839SOL    HW237977   1.793   3.297   6.590  0.1610 -2.6435 -0.4703
 8840SOL     OW37978   0.284   2.739  14.587 -0.4612  0.4863  0.2446
 8840SOL    HW137979   0.205   2.758  14.537 -0.0508 -0.3751 -0.7198
 8840SOL    HW237980   0.315   2.665  14.536 -0.4890 -0.6490  1.8596
 8841SOL     OW37981   0.407   2.606   2.812  0.8492  0.1130 -0.0531
 8841SOL    HW137982   0.496   2.624   2.842 -0.6796 -0.2351  4.7018
 8841SOL    HW237983   0.416   2.597   2.717 -2.6816 -0.3047 -0.3571
 8842SOL     OW37984   0.517   2.824   6.640 -0.0440 -0.0864  0.0162
 8842SOL    HW137985   0.460   2.814   6.564 -1.5470 -1.1330  1.2957
 8842SOL    HW237986   0.554   2.909   6.617  0.2671 -0.4203 -0.7541
 8843SOL     OW37987   3.735   1.685   0.582 -0.2301  0.6343 -0.3585
 8843SOL    HW137988   3.769   1.752   0.523  3.0648 -0.0374  0.7769
 8843SOL    HW237989   3.813   1.635   0.603 -0.6489  0.5224  0.9448
 8844SOL     OW37990   3.654   3.225   4.710  0.0571 -0.4926  0.0782
 8844SOL    HW137991   3.726   3.270   4.754  0.4834 -0.1711 -0.9446
 8844SOL    HW237992   3.615   3.306   4.677  0.0212 -0.7439 -0.5014
 8845SOL     OW37993   2.280   1.709   3.047  0.3309 -0.0232 -0.1809
 8845SOL    HW137994   2.238   1.691   3.131 -0.4448 -1.1577 -0.8185
 8845SOL    HW237995   2.348   1.643   3.035 -1.1678 -1.6059  0.0717
 8846SOL     OW37996   2.517   4.010   2.050 -0.3256 -0.5953 -0.5019
 8846SOL    HW137997   2.573   4.080   2.016  0.8072 -1.5385 -0.6030
 8846SOL    HW237998   2.575   3.965   2.111 -0.7188 -0.4594 -0.0311
 8847SOL     OW37999   1.354   4.448  14.619  0.3132  0.8246 -0.3849
 8847SOL    HW138000   1.366   4.543  14.611  3.0393  0.2864 -2.8456
 8847SOL    HW238001   1.440   4.421  14.652 -0.1870  0.0950  0.2941
 8848SOL     OW38002   4.283   2.739   8.506  0.0185  0.1179 -0.3154
 8848SOL    HW138003   4.243   2.820   8.538  1.6212  1.9175 -2.9383
 8848SOL    HW238004   4.212   2.702   8.453 -0.6708 -0.3957  0.9484
 8849SOL     OW38005   1.123   1.465   3.341  0.1308  0.5697 -0.3809
 8849SOL    HW138006   1.061   1.468   3.413  0.6306 -1.4424  0.1080
 8849SOL    HW238007   1.102   1.541   3.286  1.1060 -0.3320 -2.0186
 8850SOL     OW38008   0.857   0.054   9.286  0.1408 -0.3857  0.0563
 8850SOL    HW138009   0.863   0.056   9.190  0.2049  1.2357  0.0796
 8850SOL    HW238010   0.804   0.128   9.316 -0.9624 -1.3856  0.5579
 8851SOL     OW38011   1.060   3.864   6.645  0.0841  0.9574 -0.2376
 8851SOL    HW138012   1.054   3.941   6.701 -0.9454  0.4329  0.3863
 8851SOL    HW238013   0.971   3.829   6.654  0.7536 -0.7182  0.0224
 8852SOL     OW38014   4.163   0.756   4.979  0.5662 -0.1620 -0.5544
 8852SOL    HW138015   4.129   0.690   5.040  1.2462 -1.9891 -2.1769
 8852SOL    HW238016   4.125   0.709   4.905  1.2637 -0.3364 -0.8033
 8853SOL     OW38017   3.528   1.080  17.592 -0.1178  0.0241  0.2289
 8853SOL    HW138018   3.484   1.146  17.540  0.3409  0.6867  0.6823
 8853SOL    HW238019   3.451   1.046  17.638  1.1339 -2.6925  0.3775
 8854SOL     OW38020   1.401   4.399   3.522  0.1318 -0.8180  0.3175
 8854SOL    HW138021   1.400   4.402   3.426 -1.9001 -0.1788  0.3600
 8854SOL    HW238022   1.323   4.452   3.539  0.8582  0.4080 -0.1771
 8855SOL     OW38023   3.860   1.040  13.992 -0.1138  0.2970  0.1168
 8855SOL    HW138024   3.898   1.068  14.075  1.2098  0.8727 -0.6797
 8855SOL    HW238025   3.936   1.035  13.934  0.5689  1.1436  0.9408
 8856SOL     OW38026   0.044   1.458  12.407  0.1280 -0.1081 -0.3848
 8856SOL    HW138027   4.696   1.471  12.344 -0.7429 -1.4404  0.3169
 8856SOL    HW238028   0.112   1.429  12.346  0.2708 -0.5491 -0.0114
 8857SOL     OW38029   0.592   3.630  10.842 -0.0253  1.1668  0.0686
 8857SOL    HW138030   0.611   3.538  10.857  0.2938  0.9554 -1.6179
 8857SOL    HW238031   0.613   3.658  10.752  0.6708 -0.5320 -0.3058
 8858SOL     OW38032   4.060   4.361   4.016  0.5912 -0.1312  0.3437
 8858SOL    HW138033   4.087   4.452   4.028  2.4274 -0.5688 -0.4069
 8858SOL    HW238034   3.965   4.364   4.028  0.6391 -0.9317  0.9289
 8859SOL     OW38035   0.201   1.763   7.508  0.0764  0.1351  0.5047
 8859SOL    HW138036   0.246   1.739   7.589  1.8468  0.4716 -0.3633
 8859SOL    HW238037   0.227   1.852   7.485  0.8554 -0.1542  0.2563
 8860SOL     OW38038   3.853   0.991   4.469 -0.6106  0.0046  0.2700
 8860SOL    HW138039   3.815   0.984   4.557  0.9416 -2.9561  0.7016
 8860SOL    HW238040   3.870   0.902   4.440 -0.3360  0.3107 -0.5029
 8861SOL     OW38041   0.073   4.521   7.400 -0.0111  0.1039 -0.4781
 8861SOL    HW138042   0.047   4.474   7.321  0.2297 -1.2065  0.2201
 8861SOL    HW238043   0.165   4.496   7.401 -0.3671 -1.1164  1.7807
 8862SOL     OW38044   4.682   1.266   1.954 -0.1464 -0.7449  0.2238
 8862SOL    HW138045   4.651   1.206   2.021  1.6165 -0.9345  0.8719
 8862SOL    HW238046   0.055   1.265   1.962  0.1078 -0.0694 -2.5169
 8863SOL     OW38047   1.269   1.363   2.516  0.3098  0.4559 -0.2678
 8863SOL    HW138048   1.332   1.419   2.561  0.1150  1.6347 -1.4397
 8863SOL    HW238049   1.292   1.387   2.426 -3.2276 -1.4710 -1.7245
 8864SOL     OW38050   1.491   0.465  17.124  0.4481 -0.4783 -0.2771
 8864SOL    HW138051   1.530   0.529  17.183 -0.9279  1.6896 -1.7187
 8864SOL    HW238052   1.462   0.398  17.185 -1.0870 -0.2478 -0.7620
 8865SOL     OW38053   1.062   4.057   2.700 -0.3442 -0.2123  0.0162
 8865SOL    HW138054   1.135   4.026   2.646 -0.7643 -0.0247 -0.6701
 8865SOL    HW238055   1.107   4.078   2.781 -0.7733 -0.1185  0.2266
 8866SOL     OW38056   2.525   2.547   6.198  0.1604 -0.3910 -0.7055
 8866SOL    HW138057   2.516   2.523   6.106 -1.1577  2.9454 -1.4228
 8866SOL    HW238058   2.570   2.469   6.232 -0.5254 -0.2728  0.4813
 8867SOL     OW38059   4.009   0.424  13.458 -0.0415  0.0802 -0.0165
 8867SOL    HW138060   4.008   0.499  13.517  1.2049  0.7406 -0.8260
 8867SOL    HW238061   4.004   0.467  13.373  0.1963 -0.3916 -0.2716
 8868SOL     OW38062   3.887   4.046   3.556  0.1244  0.2677 -0.0927
 8868SOL    HW138063   3.962   4.062   3.498  0.0675  2.7027  0.5319
 8868SOL    HW238064   3.898   3.955   3.583  0.7000 -0.3556 -2.4078
 8869SOL     OW38065   0.631   0.621   2.332 -0.2609 -0.3240 -0.2643
 8869SOL    HW138066   0.575   0.568   2.275 -0.7270 -0.2873  0.1537
 8869SOL    HW238067   0.711   0.571   2.345 -0.0823 -0.1353 -0.6456
 8870SOL     OW38068   2.182   2.812   2.216 -0.1523 -0.0502 -0.1649
 8870SOL    HW138069   2.197   2.847   2.304  0.5200 -2.9221  0.8904
 8870SOL    HW238070   2.101   2.855   2.189  0.8813  3.7552  2.7691
 8871SOL     OW38071   2.883   3.321   7.374  0.2959 -0.6093 -0.4724
 8871SOL    HW138072   2.906   3.412   7.352 -0.7881  0.0985  1.3359
 8871SOL    HW238073   2.800   3.305   7.331  0.2800 -0.9297 -0.3224
 8872SOL     OW38074   0.595   3.643  11.118  0.2660  0.0015 -0.1688
 8872SOL    HW138075   0.582   3.553  11.086  1.7900 -0.1619 -0.3234
 8872SOL    HW238076   0.567   3.690  11.039  1.0216  2.3954  1.0278
 8873SOL     OW38077   1.525   4.281   9.508  0.8489 -0.1992 -0.1833
 8873SOL    HW138078   1.504   4.362   9.461 -1.8671  0.7747  2.6858
 8873SOL    HW238079   1.440   4.245   9.533  1.6587  0.5101  3.6221
 8874SOL     OW38080   2.022   4.183  11.678 -0.1582  0.5296  0.5028
 8874SOL    HW138081   1.951   4.188  11.741  0.2607 -1.1134  1.1038
 8874SOL    HW238082   2.051   4.093  11.692 -2.1267 -0.1483  0.0909
 8875SOL     OW38083   0.041   4.339  12.317  0.0252 -0.3915 -0.0739
 8875SOL    HW138084   0.108   4.400  12.286 -1.2585  0.8035 -0.4751
 8875SOL    HW238085   4.691   4.352  12.255 -0.0692  1.4158  0.4329
 8876SOL     OW38086   4.335   0.050   5.738 -0.5476 -0.4452 -0.6096
 8876SOL    HW138087   4.276   0.125   5.736 -0.9067 -0.7737 -2.1136
 8876SOL    HW238088   4.299   0.009   5.818  1.4703 -1.1598 -0.0732
 8877SOL     OW38089   2.127   3.182   8.324  0.3810  0.2192  0.2414
 8877SOL    HW138090   2.196   3.199   8.260 -0.3779 -0.3038 -0.7271
 8877SOL    HW238091   2.177   3.146   8.397  0.8161 -0.2058 -0.2686
 8878SOL     OW38092   4.318   0.777  11.566 -0.2947  0.4821 -0.5726
 8878SOL    HW138093   4.307   0.697  11.617 -0.5390  0.9878  0.1677
 8878SOL    HW238094   4.365   0.747  11.488 -0.0512 -0.7637  0.0709
 8879SOL     OW38095   3.611   0.956   1.042 -0.6174 -0.2816 -0.9480
 8879SOL    HW138096   3.589   1.006   1.120 -1.5141 -1.4368 -0.4591
 8879SOL    HW238097   3.695   0.994   1.015 -0.0566 -0.3569  0.7193
 8880SOL     OW38098   2.446   2.595   4.545  0.1637  0.2083 -0.0596
 8880SOL    HW138099   2.467   2.646   4.624  0.0994 -1.3938  0.9849
 8880SOL    HW238100   2.389   2.524   4.575  2.4548 -1.6406 -0.0815
 8881SOL     OW38101   1.442   3.284   2.940  0.3545 -0.9456  0.0971
 8881SOL    HW138102   1.447   3.237   3.023  1.2587 -0.5000  0.2909
 8881SOL    HW238103   1.347   3.284   2.924 -0.0611 -1.9440  2.6468
 8882SOL     OW38104   2.719   1.390   0.618 -0.0357 -0.1763 -0.6783
 8882SOL    HW138105   2.709   1.471   0.567 -3.1943  0.9951  1.8289
 8882SOL    HW238106   2.771   1.422   0.692 -0.0900  0.0310 -0.7311
 8883SOL     OW38107   0.993   3.163  13.766 -0.1705 -0.0730 -0.6241
 8883SOL    HW138108   0.957   3.074  13.767 -1.9579  0.6500 -0.2258
 8883SOL    HW238109   1.086   3.141  13.771  0.3178  1.5007 -2.7761
 8884SOL     OW38110   2.816   1.905   8.538  0.0448  0.2477 -0.1960
 8884SOL    HW138111   2.732   1.907   8.584 -0.3600 -0.2045 -0.9108
 8884SOL    HW238112   2.865   1.975   8.581 -0.9938  1.7137 -1.3663
 8885SOL     OW38113   3.260   2.697   2.896 -0.4828 -0.3668  0.7997
 8885SOL    HW138114   3.213   2.755   2.956  0.9046  0.7446  0.7987
 8885SOL    HW238115   3.306   2.762   2.844  1.7509 -2.5811  0.0270
 8886SOL     OW38116   3.859   4.436  11.712 -0.7150 -0.3608  0.7382
 8886SOL    HW138117   3.804   4.514  11.720  0.3853  0.3697  1.0340
 8886SOL    HW238118   3.939   4.469  11.671 -0.5987 -1.4898  0.0550
 8887SOL     OW38119   1.749   4.394   7.493 -0.5296  0.3250  0.1620
 8887SOL    HW138120   1.717   4.329   7.430  1.0964  0.2923 -0.6337
 8887SOL    HW238121   1.725   4.476   7.449  1.9396  0.4900 -0.8714
 8888SOL     OW38122   2.773   3.957   0.536 -0.5803  0.0930  0.3508
 8888SOL    HW138123   2.867   3.944   0.521  0.0978  0.4522  4.4475
 8888SOL    HW238124   2.762   4.037   0.484  0.1455  1.4882  2.3466
 8889SOL     OW38125   0.829   2.495   7.637  0.3417  0.4850  0.6984
 8889SOL    HW138126   0.908   2.467   7.683  0.6884 -1.4469 -1.0728
 8889SOL    HW238127   0.823   2.587   7.661 -1.8656  0.4905  0.0692
 8890SOL     OW38128   2.432   0.326   2.916 -0.5503 -0.4769 -0.2298
 8890SOL    HW138129   2.441   0.232   2.926 -5.2768 -0.7781  1.3867
 8890SOL    HW238130   2.525   0.348   2.910 -1.2149  2.2503 -0.7124
 8891SOL     OW38131   2.293   4.080   8.028 -0.1156  0.5831  0.2744
 8891SOL    HW138132   2.256   4.016   8.088  3.3444 -0.4015  1.3472
 8891SOL    HW238133   2.371   4.094   8.081  0.6751  1.6992 -1.1806
 8892SOL     OW38134   3.196   1.435   2.579  0.1310  0.4949  0.2430
 8892SOL    HW138135   3.135   1.487   2.526 -0.0172 -0.0996 -0.1722
 8892SOL    HW238136   3.171   1.345   2.558 -2.4941  0.5815  2.9196
 8893SOL     OW38137   4.249   3.192   6.075  0.2528 -0.2557 -0.0286
 8893SOL    HW138138   4.298   3.110   6.071  1.4114  0.4531 -0.0230
 8893SOL    HW238139   4.294   3.244   6.008  0.1418  0.6740  0.6244
 8894SOL     OW38140   3.089   3.362   6.011  0.5090  0.0273 -0.3501
 8894SOL    HW138141   3.055   3.292   5.956 -0.5187 -0.2058  0.5949
 8894SOL    HW238142   3.072   3.431   5.946  0.8227 -1.4483 -1.9981
 8895SOL     OW38143   0.821   3.565   9.138 -0.0685  0.4197  0.2878
 8895SOL    HW138144   0.884   3.602   9.200 -1.4954 -0.7599  2.4383
 8895SOL    HW238145   0.777   3.503   9.196 -2.1800  1.4624 -0.2134
 8896SOL     OW38146   0.469   0.201   7.340 -0.0728 -0.5652 -0.1507
 8896SOL    HW138147   0.437   0.239   7.422  2.2784 -1.3922  1.1326
 8896SOL    HW238148   0.483   0.108   7.358 -0.5316 -0.5293  0.3682
 8897SOL     OW38149   1.704   4.224   3.906  0.1960 -0.6518 -0.1072
 8897SOL    HW138150   1.691   4.255   3.816 -0.0639 -1.1771 -0.2497
 8897SOL    HW238151   1.616   4.208   3.941  0.1801 -0.6420 -0.1423
 8898SOL     OW38152   1.692   1.696   8.018 -0.3014 -0.2659 -0.0896
 8898SOL    HW138153   1.721   1.784   7.995  0.5157 -0.2918  0.8871
 8898SOL    HW238154   1.606   1.712   8.057 -0.1005  1.0349 -0.2044
 8899SOL     OW38155   1.891   1.345  13.335 -0.2849  0.2542 -0.5239
 8899SOL    HW138156   1.927   1.285  13.269 -2.3682 -0.3083 -1.1605
 8899SOL    HW238157   1.851   1.281  13.394  2.1444  0.8640  1.7926
 8900SOL     OW38158   0.821   1.375   4.130 -0.0354 -0.2199  0.0351
 8900SOL    HW138159   0.886   1.305   4.129 -1.7268 -1.7956  1.5773
 8900SOL    HW238160   0.831   1.413   4.217  0.6047 -0.6137  0.1279
 8901SOL     OW38161   0.744   3.179   6.801 -0.9578  0.0950  0.4216
 8901SOL    HW138162   0.820   3.122   6.795  0.8236  2.5178 -0.0358
 8901SOL    HW238163   0.780   3.247   6.858  1.0421 -2.9533  2.7615
 8902SOL     OW38164   0.920   1.947   4.529 -0.1647 -0.6436 -0.2452
 8902SOL    HW138165   0.897   1.987   4.613 -1.6292  1.1613 -1.5159
 8902SOL    HW238166   0.829   1.932   4.504 -0.2592 -0.9360  0.2781
 8903SOL     OW38167   3.671   0.612   3.215  0.4746 -0.1659 -0.2044
 8903SOL    HW138168   3.588   0.573   3.240  0.0408 -1.2847 -3.4050
 8903SOL    HW238169   3.707   0.539   3.164  0.5762  1.9768 -3.1874
 8904SOL     OW38170   3.558   0.575   6.452  0.0344 -0.0383 -0.3273
 8904SOL    HW138171   3.612   0.510   6.497 -0.2384  0.4216  0.6413
 8904SOL    HW238172   3.482   0.571   6.509  0.1218  0.2736 -0.1895
 8905SOL     OW38173   4.647   0.465  13.684  0.0155 -0.0388 -0.4974
 8905SOL    HW138174   4.691   0.537  13.639  2.6014 -1.6837 -0.5709
 8905SOL    HW238175   4.717   0.431  13.740 -2.0998 -1.9902  1.0048
 8906SOL     OW38176   0.579   1.090  15.779 -0.3201  0.4667 -0.5702
 8906SOL    HW138177   0.496   1.067  15.738 -0.5067  0.5092 -0.2179
 8906SOL    HW238178   0.623   1.011  15.748 -2.2298 -1.1429  0.7922
 8907SOL     OW38179   2.318   3.445   8.290 -0.0881  0.2532 -0.3529
 8907SOL    HW138180   2.275   3.426   8.373  1.1905 -1.6637 -0.1007
 8907SOL    HW238181   2.344   3.536   8.300  0.2791  0.0757  0.3154
 8908SOL     OW38182   4.190   2.314   3.764 -0.8851 -0.3310  0.4589
 8908SOL    HW138183   4.106   2.285   3.727 -1.2931 -0.0924  1.1998
 8908SOL    HW238184   4.212   2.244   3.825  0.7238  1.0811  1.5046
 8909SOL     OW38185   1.869   3.420   0.354  0.5742  0.1475  0.4267
 8909SOL    HW138186   1.807   3.488   0.380  0.1562 -0.7603  1.8379
 8909SOL    HW238187   1.805   3.389   0.291 -0.4799  0.4846  1.3336
 8910SOL     OW38188   3.355   0.827  16.680 -0.1654  0.5426 -0.3493
 8910SOL    HW138189   3.326   0.824  16.588 -2.7862 -2.8374  0.6109
 8910SOL    HW238190   3.373   0.735  16.700 -2.2080  0.7929  2.6533
 8911SOL     OW38191   4.589   4.138  15.900 -0.5407  0.3176 -0.0640
 8911SOL    HW138192   4.650   4.065  15.894 -1.5359 -0.4384 -1.1943
 8911SOL    HW238193   4.524   4.097  15.957  0.3661 -1.2211 -0.1355
 8912SOL     OW38194   0.460   0.631  13.157  0.2574 -0.6373 -0.1783
 8912SOL    HW138195   0.523   0.629  13.085 -1.1069 -1.1663 -1.3576
 8912SOL    HW238196   0.440   0.537  13.159  1.5650 -0.9179  0.0073
 8913SOL     OW38197   4.420   2.172   8.439  0.4532 -0.6944 -0.2410
 8913SOL    HW138198   4.496   2.123   8.470  2.6412  3.8891  1.6064
 8913SOL    HW238199   4.358   2.103   8.415 -0.6051  0.7382 -1.6128
 8914SOL     OW38200   1.456   3.802   6.839  0.3384 -0.2911  0.3499
 8914SOL    HW138201   1.429   3.893   6.832 -1.4980 -0.8994 -0.3024
 8914SOL    HW238202   1.492   3.817   6.927  0.2982  0.6110  0.2106
 8915SOL     OW38203   3.832   1.093   0.973 -0.0759 -0.3691  0.5390
 8915SOL    HW138204   3.822   1.187   0.962 -1.8031 -0.6247 -0.0109
 8915SOL    HW238205   3.922   1.067   0.954 -1.1971 -3.3017 -0.8130
 8916SOL     OW38206   4.698   2.056   9.112 -0.0585  0.0840  0.6533
 8916SOL    HW138207   0.065   2.053   9.081 -0.0548 -2.5437  0.8741
 8916SOL    HW238208   4.669   2.142   9.081  0.1479  0.1478  0.6419
 8917SOL     OW38209   0.397   1.303   6.049 -0.3677  0.4133 -0.2625
 8917SOL    HW138210   0.362   1.311   6.138  0.2733 -1.2800  0.1446
 8917SOL    HW238211   0.403   1.395   6.024 -1.7909  0.6655  0.2969
 8918SOL     OW38212   4.486   4.468  13.487  0.0575 -0.1512 -0.3142
 8918SOL    HW138213   4.553   4.530  13.459  0.0201 -0.6851 -1.5462
 8918SOL    HW238214   4.498   4.475  13.582 -0.6999  0.0452 -0.2324
 8919SOL     OW38215   1.379   2.526   3.427  0.2590  0.5195  0.6818
 8919SOL    HW138216   1.418   2.445   3.393 -2.3602 -0.2976 -0.3404
 8919SOL    HW238217   1.312   2.548   3.363 -1.0884  1.3845  2.3997
 8920SOL     OW38218   4.702   3.712   3.319  0.0030 -1.0622 -0.6994
 8920SOL    HW138219   4.609   3.723   3.338  0.6408  1.0326  1.2002
 8920SOL    HW238220   0.011   3.776   3.383 -3.0297 -0.0276 -0.2598
 8921SOL     OW38221   4.628   1.759   7.855 -0.0960 -0.0220 -0.4920
 8921SOL    HW138222   4.575   1.836   7.875 -0.7505 -0.4220 -0.6617
 8921SOL    HW238223   4.560   1.693   7.838 -0.4041  0.0008  0.7103
 8922SOL     OW38224   3.046   1.454   5.826 -0.3509  0.4605 -0.1508
 8922SOL    HW138225   3.055   1.471   5.920  0.0043  4.9117 -0.9620
 8922SOL    HW238226   3.057   1.359   5.826 -1.5995  0.3201 -0.0221
 8923SOL     OW38227   1.438   0.841   8.113  0.0729 -0.7403  0.2730
 8923SOL    HW138228   1.344   0.827   8.119  0.1632 -1.1368  0.7585
 8923SOL    HW238229   1.473   0.794   8.189  1.0878  0.8670  0.7883
 8924SOL     OW38230   2.973   0.412  10.430  0.2419  0.2015  0.5383
 8924SOL    HW138231   3.003   0.468  10.502  0.9935  1.2104 -0.5679
 8924SOL    HW238232   2.939   0.332  10.470 -2.6307  0.0998 -2.0965
 8925SOL     OW38233   1.303   2.316   5.991 -0.4839  0.0845  0.2952
 8925SOL    HW138234   1.229   2.262   5.964  0.6308 -2.3178  2.1156
 8925SOL    HW238235   1.368   2.282   5.931  1.1884 -0.6316  2.5389
 8926SOL     OW38236   0.597   0.857   7.820  0.4032 -0.4007  0.4557
 8926SOL    HW138237   0.601   0.919   7.747 -0.1368 -1.9065 -0.8451
 8926SOL    HW238238   0.530   0.902   7.872  1.5737 -2.0587  3.4284
 8927SOL     OW38239   2.688   2.898   7.535  0.2951 -0.9079 -0.1140
 8927SOL    HW138240   2.708   2.992   7.527  1.0975 -0.8407  2.7317
 8927SOL    HW238241   2.778   2.866   7.540  0.4004  0.1011  4.1392
 8928SOL     OW38242   1.619   2.096   5.610 -0.2871  0.1308 -0.0022
 8928SOL    HW138243   1.613   2.044   5.529 -1.6758 -1.8969  1.3966
 8928SOL    HW238244   1.715   2.098   5.611 -0.2977  0.5966  0.1585
 8929SOL     OW38245   3.184   2.540  12.643 -0.6179 -0.0774  0.9304
 8929SOL    HW138246   3.165   2.629  12.674 -1.6433  1.4472 -4.0327
 8929SOL    HW238247   3.228   2.560  12.561 -0.3914  1.4414  1.4248
 8930SOL     OW38248   3.306   1.535   5.060  0.1903  0.3936  0.4727
 8930SOL    HW138249   3.360   1.461   5.086  0.4854 -0.0867 -1.5098
 8930SOL    HW238250   3.302   1.577   5.146 -1.3985  0.2301  0.4776
 8931SOL     OW38251   0.774   1.781   8.068 -0.1311 -0.5036  0.0856
 8931SOL    HW138252   0.715   1.812   8.136  0.0053 -1.3484  0.5898
 8931SOL    HW238253   0.798   1.858   8.017  1.1882  0.1605  1.7228
 8932SOL     OW38254   4.223   2.732   5.230 -0.0631  0.5178  0.2728
 8932SOL    HW138255   4.255   2.753   5.318  0.6779 -0.7100  0.2939
 8932SOL    HW238256   4.247   2.810   5.181  0.8524  0.2634  0.3207
 8933SOL     OW38257   1.711   3.976  12.531 -0.1898  0.0988 -0.2601
 8933SOL    HW138258   1.784   4.032  12.556  0.7368 -1.2461  0.0386
 8933SOL    HW238259   1.648   4.045  12.510 -1.5992 -0.5942  1.6983
 8934SOL     OW38260   0.307   1.848   4.203 -0.4609  0.6712 -0.0699
 8934SOL    HW138261   0.263   1.764   4.190  1.1796 -0.0747 -0.9003
 8934SOL    HW238262   0.285   1.879   4.290  0.5828  3.5860 -0.8293
 8935SOL     OW38263   1.731   2.153   3.076  0.4691  0.4479 -0.2579
 8935SOL    HW138264   1.697   2.159   2.987 -0.1853  0.3780 -0.0092
 8935SOL    HW238265   1.657   2.188   3.125  1.4561  1.5170  0.4791
 8936SOL     OW38266   4.514   1.637   2.892  0.0475 -0.2143 -0.0320
 8936SOL    HW138267   4.459   1.697   2.942 -1.2264  0.2449 -1.9639
 8936SOL    HW238268   4.477   1.552   2.916  1.8214 -1.1115 -0.4838
 8937SOL     OW38269   1.273   1.494  17.158  0.3267  0.4447  0.0214
 8937SOL    HW138270   1.323   1.571  17.186  2.8520 -0.3801 -2.1254
 8937SOL    HW238271   1.199   1.494  17.218  2.1343 -1.5731  2.2525
 8938SOL     OW38272   4.315   4.403   4.318  0.3264 -0.1973  0.5554
 8938SOL    HW138273   4.409   4.411   4.304  0.0394  1.7684 -0.2365
 8938SOL    HW238274   4.287   4.346   4.246  0.9922 -0.5998  0.6212
 8939SOL     OW38275   1.782   2.268   7.544  0.2692 -0.2263 -0.0618
 8939SOL    HW138276   1.795   2.295   7.453 -0.8684 -1.2306 -0.5289
 8939SOL    HW238277   1.689   2.250   7.533 -0.1851  1.0719  1.8375
 8940SOL     OW38278   1.453   4.614   4.678  0.1568  0.2866  0.3878
 8940SOL    HW138279   1.366   4.638   4.646  1.0017  0.9249 -1.3877
 8940SOL    HW238280   1.493   4.699   4.659  1.0622 -0.5276 -1.3035
 8941SOL     OW38281   4.600   2.755   3.311 -0.1444 -0.5607  0.1811
 8941SOL    HW138282   4.693   2.767   3.330 -0.1047  1.0944 -0.9919
 8941SOL    HW238283   4.587   2.661   3.301  2.0661 -0.8111 -0.3810
 8942SOL     OW38284   3.483   2.840   2.704  0.1608  0.2666  0.3811
 8942SOL    HW138285   3.475   2.889   2.622 -1.7982  0.2465  0.5626
 8942SOL    HW238286   3.563   2.789   2.690 -0.3956 -0.4145 -0.2094
 8943SOL     OW38287   2.369   0.970  10.164 -0.4462  0.0706  0.4214
 8943SOL    HW138288   2.283   0.971  10.122 -0.3142  0.3465  0.1539
 8943SOL    HW238289   2.404   0.899  10.111  0.4024  1.1881 -0.5222
 8944SOL     OW38290   4.254   3.431  16.806 -0.3852  1.6690 -0.0890
 8944SOL    HW138291   4.211   3.475  16.880 -1.4700  0.7761 -0.1931
 8944SOL    HW238292   4.340   3.411  16.843 -0.6148 -1.7889 -1.4384
 8945SOL     OW38293   0.165   3.900   5.494  0.0135  0.3280 -0.3278
 8945SOL    HW138294   0.213   3.973   5.532 -0.8651  0.4122  0.6089
 8945SOL    HW238295   0.116   3.950   5.428  0.9071 -0.4318 -1.5742
 8946SOL     OW38296   4.119   0.425  16.377 -0.5357 -0.1553  0.0081
 8946SOL    HW138297   4.117   0.433  16.282 -0.6294  0.0229  0.0240
 8946SOL    HW238298   4.067   0.345  16.387  0.6859 -1.2223 -2.1781
 8947SOL     OW38299   2.575   2.112   0.801  0.1575 -0.1609  0.2576
 8947SOL    HW138300   2.587   2.181   0.735  0.4769  0.7589  1.2863
 8947SOL    HW238301   2.566   2.166   0.879 -1.3022  0.1891 -0.1622
 8948SOL     OW38302   1.422   3.943   5.115  0.1509  0.1353 -0.0708
 8948SOL    HW138303   1.423   4.031   5.077 -1.0574  0.3909  0.4993
 8948SOL    HW238304   1.337   3.938   5.159 -0.3146  0.2350 -0.9723
 8949SOL     OW38305   1.600   2.774   7.057 -0.3261 -0.4165 -0.5424
 8949SOL    HW138306   1.679   2.784   7.003  1.0131  0.1141  1.5343
 8949SOL    HW238307   1.583   2.687   7.021 -0.3176 -0.9810  0.8513
 8950SOL     OW38308   3.386   2.413   2.512 -0.1171  0.1161 -0.0584
 8950SOL    HW138309   3.447   2.339   2.515 -0.6215 -0.2620  0.7977
 8950SOL    HW238310   3.296   2.379   2.508  0.2552 -0.6382 -1.8894
 8951SOL     OW38311   4.706   2.199  14.524 -0.2452  0.6148 -0.4857
 8951SOL    HW138312   4.698   2.104  14.509 -3.9304  0.9601 -0.7297
 8951SOL    HW238313   0.061   2.219  14.473  0.7964 -2.3525 -0.0918
 8952SOL     OW38314   4.349   4.494   2.513 -0.5289  0.1864  0.0839
 8952SOL    HW138315   4.384   4.578   2.484  1.2582 -0.8634 -0.8265
 8952SOL    HW238316   4.347   4.456   2.425  0.4291 -1.3876  0.7419
 8953SOL     OW38317   2.079   4.252   4.844  0.2094 -0.1494  0.0919
 8953SOL    HW138318   2.083   4.159   4.823 -1.3982 -0.4589  1.1980
 8953SOL    HW238319   1.986   4.270   4.854 -0.2461 -1.1606 -2.5211
 8954SOL     OW38320   2.409   2.859  11.925  0.1635 -0.1722 -0.1375
 8954SOL    HW138321   2.446   2.801  11.858 -2.2582 -0.2613 -1.3763
 8954SOL    HW238322   2.479   2.918  11.953 -1.0600  1.9522 -1.5742
 8955SOL     OW38323   2.451   0.538   6.255 -0.5597  0.0992 -0.0259
 8955SOL    HW138324   2.472   0.453   6.217  1.0878  0.3791  0.2440
 8955SOL    HW238325   2.425   0.584   6.175 -1.1471  0.8158  0.5723
 8956SOL     OW38326   1.263   2.177   4.862 -0.0871  0.0132 -0.0998
 8956SOL    HW138327   1.173   2.185   4.893 -0.0267  0.0244  0.0738
 8956SOL    HW238328   1.325   2.221   4.921 -2.7742  2.2144  1.0561
 8957SOL     OW38329   2.341   0.554   4.087 -0.0095  0.6297  0.2472
 8957SOL    HW138330   2.250   0.549   4.116  0.3207  1.4204  1.4436
 8957SOL    HW238331   2.375   0.613   4.155  0.9938 -0.7824  0.9642
 8958SOL     OW38332   0.992   0.427   4.713  0.4207 -0.1095 -0.0752
 8958SOL    HW138333   1.010   0.518   4.739  1.2480 -0.2298 -0.2541
 8958SOL    HW238334   1.061   0.385   4.763  2.5179  2.0870 -1.1543
 8959SOL     OW38335   1.082   1.608   4.274 -0.1383 -0.0967  0.1692
 8959SOL    HW138336   1.006   1.575   4.323 -2.2396  0.9208 -2.3822
 8959SOL    HW238337   1.117   1.666   4.341 -0.1145  0.1102 -0.0206
 8960SOL     OW38338   3.021   2.145   3.221  0.1529  0.2983  0.5275
 8960SOL    HW138339   2.971   2.137   3.140  0.3576  0.3305  0.4002
 8960SOL    HW238340   3.056   2.056   3.214  0.1816  0.1066  3.0788
 8961SOL     OW38341   1.629   0.346   8.500  0.3457  0.1953  0.4310
 8961SOL    HW138342   1.683   0.334   8.422  2.1467  1.2185  1.5351
 8961SOL    HW238343   1.690   0.363   8.571 -0.7321 -1.2731  1.7170
 8962SOL     OW38344   1.024   4.224   8.262 -0.2469 -0.4328 -0.2207
 8962SOL    HW138345   1.087   4.189   8.199 -0.6674  2.9675 -2.5120
 8962SOL    HW238346   1.061   4.180   8.338  3.1600  1.1863 -0.9807
 8963SOL     OW38347   1.617   4.261  12.774  0.1342  0.4385  0.2759
 8963SOL    HW138348   1.563   4.197  12.822  0.4416 -0.2164 -0.2677
 8963SOL    HW238349   1.706   4.227  12.779 -0.2255 -0.6064 -0.2767
 8964SOL     OW38350   3.471   1.272   8.038  0.2274 -0.0596  0.6574
 8964SOL    HW138351   3.379   1.292   8.021  0.2451 -0.2587  0.3365
 8964SOL    HW238352   3.484   1.180   8.016  2.2722  0.4678 -0.3433
 8965SOL     OW38353   1.465   1.795   8.125  0.3521  0.0443  0.3986
 8965SOL    HW138354   1.464   1.804   8.220 -3.2385 -3.4744  0.6781
 8965SOL    HW238355   1.431   1.879   8.094  1.4660  0.4775  0.3722
 8966SOL     OW38356   1.553   3.332  16.412  0.2933  0.0636  0.4072
 8966SOL    HW138357   1.523   3.252  16.369 -1.4745  1.2120 -0.5056
 8966SOL    HW238358   1.648   3.330  16.418  0.0935 -2.6748  2.5794
 8967SOL     OW38359   2.292   4.137  13.361 -0.1207  0.8734  0.1330
 8967SOL    HW138360   2.364   4.137  13.299 -0.0885  2.9222  0.1667
 8967SOL    HW238361   2.339   4.128  13.444  1.8685  0.4250 -1.0656
 8968SOL     OW38362   4.231   0.971   3.701  0.7497 -0.5069 -0.4985
 8968SOL    HW138363   4.208   0.996   3.612  0.9796 -1.2493 -0.7695
 8968SOL    HW238364   4.181   1.026   3.761  0.2841 -0.4012 -0.9770
 8969SOL     OW38365   4.117   0.856  10.348  0.0597  0.8354  0.4126
 8969SOL    HW138366   4.058   0.828  10.278  0.4522 -0.5392  0.6364
 8969SOL    HW238367   4.162   0.935  10.317  0.4728 -0.1476 -1.4980
 8970SOL     OW38368   4.566   0.129   5.627  0.1125  0.4439  0.2335
 8970SOL    HW138369   4.552   0.219   5.657 -2.2127  0.0962  0.1672
 8970SOL    HW238370   4.485   0.093   5.662 -0.7965 -0.1258 -2.4389
 8971SOL     OW38371   1.313   0.126   4.888 -0.5821  0.1226 -0.3850
 8971SOL    HW138372   1.255   0.189   4.931 -0.8965 -1.3507  1.3291
 8971SOL    HW238373   1.279   0.138   4.799 -1.2399 -1.8648 -0.4030
 8972SOL     OW38374   3.700   1.025  10.016  0.1996 -0.0245 -0.7787
 8972SOL    HW138375   3.693   1.020  10.111 -0.4267 -2.3842 -0.9318
 8972SOL    HW238376   3.606   1.021   9.997 -0.3663  2.3337  1.6325
 8973SOL     OW38377   1.482   2.836  11.655 -0.6774 -0.1077  0.2249
 8973SOL    HW138378   1.513   2.848  11.565  2.2263 -1.1491  1.0903
 8973SOL    HW238379   1.559   2.852  11.710 -1.0610 -0.7783  0.9556
 8974SOL     OW38380   0.408   0.113   2.669  0.7750 -0.2315 -0.0870
 8974SOL    HW138381   0.357   0.070   2.601 -3.1254  1.4945  1.7475
 8974SOL    HW238382   0.467   0.044   2.700 -0.3950 -0.8387  0.8039
 8975SOL     OW38383   2.614   1.367   9.809 -0.1030 -0.0778  0.2568
 8975SOL    HW138384   2.578   1.428   9.874 -1.5114 -0.6446  0.0255
 8975SOL    HW238385   2.701   1.405   9.802 -0.9094  2.0972  2.0756
 8976SOL     OW38386   2.051   3.870   7.526 -0.7713 -0.0778 -0.2628
 8976SOL    HW138387   2.056   3.946   7.585 -0.0805  0.8703 -1.5517
 8976SOL    HW238388   1.982   3.897   7.466 -0.7347 -0.2791 -0.3947
 8977SOL     OW38389   0.264   3.388  14.291 -0.1256  0.3880 -0.2450
 8977SOL    HW138390   0.217   3.317  14.335  0.8943  0.3626  0.7754
 8977SOL    HW238391   0.196   3.450  14.263  0.2699 -0.2672 -2.6798
 8978SOL     OW38392   0.635   3.450   2.595  0.5832 -0.1172  0.2142
 8978SOL    HW138393   0.650   3.432   2.502 -0.6551 -1.5787  0.2884
 8978SOL    HW238394   0.546   3.485   2.593 -0.0996 -1.9498 -1.5855
 8979SOL     OW38395   4.583   0.622  15.461 -0.3072 -1.1678  0.6193
 8979SOL    HW138396   4.500   0.609  15.416  0.2718 -1.9755 -0.2035
 8979SOL    HW238397   4.648   0.618  15.391 -0.1018  0.3181  0.7221
 8980SOL     OW38398   2.119   3.873  13.052  0.2232  0.0956  0.2594
 8980SOL    HW138399   2.147   3.850  13.140  2.6683 -1.6163 -0.9700
 8980SOL    HW238400   2.108   3.787  13.011 -0.2051  0.8797 -1.3102
 8981SOL     OW38401   3.640   0.151   8.627 -0.6323  0.2358  0.0230
 8981SOL    HW138402   3.584   0.229   8.625  0.0797  0.7344 -0.8155
 8981SOL    HW238403   3.583   0.084   8.590 -0.9065  0.5394 -0.1047
 8982SOL     OW38404   0.178   1.503  15.534 -0.9418 -0.4514  0.3196
 8982SOL    HW138405   0.261   1.512  15.581  0.6619 -1.6833 -2.2571
 8982SOL    HW238406   0.171   1.588  15.492  3.2510 -0.9275 -1.4288
 8983SOL     OW38407   1.549   4.522   4.925  0.2431 -0.5449 -0.0840
 8983SOL    HW138408   1.528   4.544   4.834  1.5668 -1.9370 -0.7188
 8983SOL    HW238409   1.511   4.594   4.974  2.4679  1.0333 -0.6810
 8984SOL     OW38410   3.551   3.812   4.851  0.4834 -0.0849  0.1952
 8984SOL    HW138411   3.585   3.759   4.779  0.7408 -0.8176  0.8633
 8984SOL    HW238412   3.504   3.747   4.903  1.9930 -0.0620  1.5703
 8985SOL     OW38413   0.195   0.758   6.542  0.3141 -0.0288  0.0155
 8985SOL    HW138414   0.164   0.780   6.629 -1.0109 -1.7089 -0.0220
 8985SOL    HW238415   0.169   0.834   6.490 -0.5930 -0.6477 -0.4407
 8986SOL     OW38416   3.873   4.571   5.748  0.1838 -0.1924 -0.8782
 8986SOL    HW138417   3.939   4.510   5.715 -0.6795 -0.1843 -2.6543
 8986SOL    HW238418   3.789   4.537   5.718 -1.2283  0.3082  2.5128
 8987SOL     OW38419   0.275   0.529   7.776 -0.4204 -0.7138 -0.0925
 8987SOL    HW138420   0.361   0.490   7.792  0.4617  1.5659  0.7609
 8987SOL    HW238421   0.296   0.619   7.803  3.3641 -1.6787  0.2027
 8988SOL     OW38422   2.471   0.291   6.142 -0.0866  0.1694  0.3660
 8988SOL    HW138423   2.414   0.236   6.197 -1.5163  0.4339 -0.8586
 8988SOL    HW238424   2.469   0.247   6.057  2.2410 -1.2708  1.0497
 8989SOL     OW38425   0.203   2.058   3.183 -0.0810 -0.1805 -0.1571
 8989SOL    HW138426   0.123   2.097   3.148 -0.2169  1.9574  2.5504
 8989SOL    HW238427   0.232   2.125   3.244 -1.9013  1.9216 -1.6008
 8990SOL     OW38428   0.005   2.470   0.959  0.5261  0.3517  0.0403
 8990SOL    HW138429   0.086   2.463   1.009 -0.5603  0.1557  1.8095
 8990SOL    HW238430   0.040   2.413   0.892 -0.5816 -0.9863  0.5949
 8991SOL     OW38431   2.922   0.529  12.729 -0.5189  0.1685 -0.1123
 8991SOL    HW138432   2.934   0.526  12.634 -0.4786 -1.9894 -0.0531
 8991SOL    HW238433   2.937   0.442  12.766  1.2265  0.0959 -0.9877
 8992SOL     OW38434   0.212   0.512  15.871  0.1744 -0.3281 -0.1597
 8992SOL    HW138435   0.284   0.501  15.933  0.7298  2.7925 -0.2504
 8992SOL    HW238436   0.215   0.422  15.838 -2.8276 -1.1640  1.8437
 8993SOL     OW38437   1.931   1.091  10.298  0.3075  0.1229 -0.0805
 8993SOL    HW138438   1.961   1.180  10.279 -2.6201  0.5744 -2.6726
 8993SOL    HW238439   1.958   1.048  10.217  0.8216 -0.5219  0.4330
 8994SOL     OW38440   4.391   2.751   5.461  0.1338  0.0280 -0.1882
 8994SOL    HW138441   4.337   2.684   5.502 -1.4803  1.6072  0.2437
 8994SOL    HW238442   4.468   2.742   5.518 -1.9182 -0.3650  2.4846
 8995SOL     OW38443   0.323   2.974  17.112 -0.0585  0.2097 -0.1617
 8995SOL    HW138444   0.379   2.995  17.037  0.0092  0.4202 -0.0530
 8995SOL    HW238445   0.246   2.948  17.061  0.0108 -1.1013  0.3974
 8996SOL     OW38446   0.235   1.528  14.129 -0.0468  0.0956 -0.4999
 8996SOL    HW138447   0.190   1.456  14.173  0.8962 -0.8547 -1.0871
 8996SOL    HW238448   0.165   1.583  14.094  1.8127  2.9261  0.2852
 8997SOL     OW38449   3.862   4.497  10.316  0.5969  0.3505  0.3318
 8997SOL    HW138450   3.874   4.487  10.221 -1.3977  1.5566 -0.0661
 8997SOL    HW238451   3.937   4.544  10.351 -0.7829  1.5109  1.7275
 8998SOL     OW38452   0.895   2.191   0.754  0.4111 -0.4706  0.1939
 8998SOL    HW138453   0.902   2.098   0.775 -2.7023 -1.4414 -3.0805
 8998SOL    HW238454   0.923   2.238   0.832  1.8512  0.0385 -0.6200
 8999SOL     OW38455   3.575   3.154   7.783 -0.6848 -0.0051 -0.0707
 8999SOL    HW138456   3.607   3.126   7.869 -0.1753 -0.7946 -0.5183
 8999SOL    HW238457   3.640   3.119   7.722  0.1081  0.7327  0.3490
 9000SOL     OW38458   4.340   3.610  12.081  0.2172 -0.2542 -0.2674
 9000SOL    HW138459   4.410   3.599  12.016 -0.9843 -4.3893 -0.9007
 9000SOL    HW238460   4.401   3.623  12.153 -2.3162  0.1326  1.7805
 9001SOL     OW38461   0.269   2.372   5.987 -0.1532 -0.4555  0.0671
 9001SOL    HW138462   0.306   2.428   6.055 -1.9028 -0.1110  0.7402
 9001SOL    HW238463   0.231   2.299   6.035  0.9114 -1.1631 -0.1843
 9002SOL     OW38464   4.609   2.776   4.634 -0.3479 -0.4583 -0.2953
 9002SOL    HW138465   4.621   2.860   4.591  0.9848 -0.7557 -0.5165
 9002SOL    HW238466   4.693   2.770   4.680 -0.9330 -0.2325  0.8022
 9003SOL     OW38467   3.576   0.962   2.235 -0.2484 -0.2993 -0.6888
 9003SOL    HW138468   3.482   0.957   2.254 -0.1094  1.2496  0.3741
 9003SOL    HW238469   3.573   0.900   2.162  1.0383  0.0233 -1.0130
 9004SOL     OW38470   3.363   4.639   4.895 -0.1719  0.0834  0.1505
 9004SOL    HW138471   3.271   4.645   4.870 -0.1288  1.0581  0.2482
 9004SOL    HW238472   3.358   4.635   4.991  0.6810 -0.9979  0.1532
 9005SOL     OW38473   1.588   1.752   6.996 -0.6820 -0.9496 -0.6619
 9005SOL    HW138474   1.545   1.754   7.081  1.1180  1.1459  0.1737
 9005SOL    HW238475   1.660   1.689   7.008  1.1853  1.0066 -1.7054
 9006SOL     OW38476   2.308   1.198   9.801  0.1293 -0.1685 -0.0715
 9006SOL    HW138477   2.304   1.283   9.755 -2.5572  0.8671  2.0855
 9006SOL    HW238478   2.214   1.190   9.818  0.2307 -1.5298 -0.1550
 9007SOL     OW38479   4.612   0.917   5.618 -0.6572  0.0850 -0.0330
 9007SOL    HW138480   4.657   0.866   5.686 -0.7257  1.1380  0.7985
 9007SOL    HW238481   4.695   0.952   5.585 -0.1302  2.0700  3.4050
 9008SOL     OW38482   3.065   1.708   4.448 -0.0084 -0.4708  0.1827
 9008SOL    HW138483   3.088   1.615   4.455 -1.0434 -0.7414  0.0006
 9008SOL    HW238484   3.057   1.716   4.353  0.2212  2.3127  0.3998
 9009SOL     OW38485   3.387   2.725   8.792 -0.0931 -0.0002  0.1620
 9009SOL    HW138486   3.462   2.726   8.852  1.4456 -0.2428 -1.7249
 9009SOL    HW238487   3.327   2.661   8.830  0.2105 -0.7190 -0.5665
 9010SOL     OW38488   3.963   2.931  16.817 -0.6215  0.1991  0.2814
 9010SOL    HW138489   3.927   3.020  16.814  2.4272  1.3925 -0.4253
 9010SOL    HW238490   4.055   2.954  16.812 -0.4669 -0.3899  0.4775
 9011SOL     OW38491   0.584   3.358   3.211  0.0684  0.4985 -0.4606
 9011SOL    HW138492   0.620   3.305   3.140  1.4771 -0.8345  1.2599
 9011SOL    HW238493   0.587   3.290   3.277  1.9981  1.3034  0.2861
 9012SOL     OW38494   1.625   2.561   5.507 -0.1176 -0.4584 -0.6191
 9012SOL    HW138495   1.595   2.648   5.534  1.3647  0.0250 -0.4905
 9012SOL    HW238496   1.626   2.502   5.582  0.2695  0.0834 -0.2011
 9013SOL     OW38497   4.602   0.165  16.545 -0.2273 -0.4462 -0.0345
 9013SOL    HW138498   4.689   0.137  16.519  0.4354  1.8346 -0.2445
 9013SOL    HW238499   4.562   0.078  16.540 -0.1366 -0.4101 -1.2413
 9014SOL     OW38500   2.855   3.228   5.769  0.3086  0.0568 -0.3038
 9014SOL    HW138501   2.767   3.226   5.805 -0.3355  0.3900 -1.8544
 9014SOL    HW238502   2.868   3.133   5.766 -0.4016 -0.0693  1.1154
 9015SOL     OW38503   4.041   3.731   1.302 -0.5076  0.0988 -0.2900
 9015SOL    HW138504   3.973   3.712   1.366  1.2007 -0.4564  1.3916
 9015SOL    HW238505   4.038   3.654   1.246  1.2349 -1.0168  1.1124
 9016SOL     OW38506   0.763   2.001   7.173 -0.8541 -0.3633 -0.2328
 9016SOL    HW138507   0.802   1.921   7.209 -1.2851 -0.6019 -0.3002
 9016SOL    HW238508   0.761   2.057   7.251 -3.1965  1.9609 -1.9507
 9017SOL     OW38509   4.252   3.401  17.221 -0.5013  0.2756 -0.3843
 9017SOL    HW138510   4.215   3.441  17.143 -3.5056 -1.4030  0.1516
 9017SOL    HW238511   4.332   3.452  17.229  0.8505 -1.9768  0.4722
 9018SOL     OW38512   2.358   3.108   6.767  0.1497 -0.3543 -0.0410
 9018SOL    HW138513   2.417   3.079   6.836 -0.5231 -3.1640 -0.6551
 9018SOL    HW238514   2.277   3.121   6.816 -0.9839 -1.7437 -1.5424
 9019SOL     OW38515   4.618   1.031  16.858  0.1924  0.4734  0.1570
 9019SOL    HW138516   4.559   1.006  16.787 -0.2047  0.4107  0.5119
 9019SOL    HW238517   4.648   0.944  16.884  2.1106  0.9384 -0.4983
 9020SOL     OW38518   4.625   1.593   4.294  0.2154 -0.1051 -0.7381
 9020SOL    HW138519   4.541   1.574   4.252  0.0875 -1.4088  0.0957
 9020SOL    HW238520   4.594   1.628   4.378  0.4920  0.4948 -0.8875
 9021SOL     OW38521   2.220   3.012   3.889 -0.0640 -0.7563  0.0542
 9021SOL    HW138522   2.191   3.080   3.829  0.1667 -0.9047 -0.2266
 9021SOL    HW238523   2.289   3.055   3.940  0.3880 -1.1118 -0.2585
 9022SOL     OW38524   3.388   3.220  15.733 -0.3748 -0.0876  0.2278
 9022SOL    HW138525   3.384   3.155  15.804 -4.7179 -3.2432 -2.8923
 9022SOL    HW238526   3.328   3.286  15.766  0.5928 -0.1048  2.0114
 9023SOL     OW38527   3.485   2.734   3.366 -0.5417 -0.2697  0.2376
 9023SOL    HW138528   3.524   2.656   3.326 -2.0281 -0.4582 -0.8587
 9023SOL    HW238529   3.447   2.691   3.442 -2.4698  0.6025 -0.2268
 9024SOL     OW38530   3.736   0.213  17.536 -0.5075 -0.0126 -0.3717
 9024SOL    HW138531   3.673   0.145  17.558  0.3284 -0.9029 -0.7166
 9024SOL    HW238532   3.683   0.293  17.533 -1.4469 -0.6467 -0.7859
 9025SOL     OW38533   4.034   2.175   7.088 -0.0255  0.6144 -0.2458
 9025SOL    HW138534   4.096   2.111   7.124 -0.8980 -1.3165 -2.2041
 9025SOL    HW238535   4.060   2.248   7.144 -0.6881  2.0391 -1.8068
 9026SOL     OW38536   4.235   0.409   7.693  0.7438 -0.2459  0.0438
 9026SOL    HW138537   4.202   0.466   7.763  0.3927  0.0972 -0.4026
 9026SOL    HW238538   4.327   0.434   7.687  0.7382 -0.6678 -1.8942
 9027SOL     OW38539   2.358   2.011   5.350  0.1371 -0.0757 -0.4621
 9027SOL    HW138540   2.441   2.045   5.384 -0.8287 -1.2575  3.0356
 9027SOL    HW238541   2.392   1.923   5.334 -0.6218 -0.5229  0.4351
 9028SOL     OW38542   0.964   0.667   7.691  0.2980  0.1876  0.6568
 9028SOL    HW138543   0.948   0.756   7.658  1.0016  0.7055  1.7144
 9028SOL    HW238544   1.060   0.670   7.690  0.3402 -1.8518 -1.1175
 9029SOL     OW38545   0.215   0.850  14.597 -0.2088 -0.0614  0.6153
 9029SOL    HW138546   0.137   0.794  14.591 -2.2532  2.9319 -0.3703
 9029SOL    HW238547   0.174   0.935  14.582  1.2556  0.6285  0.5619
 9030SOL     OW38548   2.810   2.966  12.095  0.3824  0.0238  0.3695
 9030SOL    HW138549   2.733   2.994  12.145 -0.4706 -0.9835 -0.3588
 9030SOL    HW238550   2.872   3.019  12.145 -0.3167  0.7739  0.4321
 9031SOL     OW38551   4.320   1.536   3.387  0.0238  0.7597  0.0879
 9031SOL    HW138552   4.234   1.549   3.347  1.0193  1.2196 -1.8615
 9031SOL    HW238553   4.362   1.622   3.376  3.0451 -0.7567 -0.2938
 9032SOL     OW38554   3.105   0.274   1.317  0.1672  0.4849 -0.0450
 9032SOL    HW138555   3.078   0.364   1.298 -1.8982 -0.1896 -0.3789
 9032SOL    HW238556   3.020   0.232   1.330  1.5722 -1.8471  1.5694
 9033SOL     OW38557   3.150   3.562   8.166 -0.2109 -0.4391 -0.2042
 9033SOL    HW138558   3.168   3.527   8.079  0.1751  2.7653 -1.4139
 9033SOL    HW238559   3.157   3.481   8.217 -1.7059  0.2077  1.0240
 9034SOL     OW38560   2.752   2.551   4.126 -0.1670  0.3321 -0.5772
 9034SOL    HW138561   2.744   2.456   4.116 -1.4900  0.4295 -0.4541
 9034SOL    HW238562   2.676   2.572   4.181 -0.5913 -1.7068 -0.3793
 9035SOL     OW38563   1.867   4.502   9.295  0.0214  0.1038  0.3253
 9035SOL    HW138564   1.856   4.434   9.362 -0.1885 -2.0047 -1.8351
 9035SOL    HW238565   1.791   4.484   9.240  0.1087 -0.7980  0.4927
 9036SOL     OW38566   0.531   3.664   6.996 -0.0787  0.1331 -0.1930
 9036SOL    HW138567   0.506   3.743   7.044 -3.8531 -1.5975  0.6575
 9036SOL    HW238568   0.449   3.644   6.952 -0.2227  2.4209 -0.9592
 9037SOL     OW38569   2.439   0.343   9.343 -0.2124  0.1086 -0.4662
 9037SOL    HW138570   2.454   0.320   9.435 -1.6259 -0.7157 -0.4464
 9037SOL    HW238571   2.492   0.421   9.326  0.1979  0.1620  1.1099
 9038SOL     OW38572   3.929   0.898   6.246  0.3888  0.3307  0.1777
 9038SOL    HW138573   3.907   0.807   6.264 -1.2501  0.3333 -1.8378
 9038SOL    HW238574   4.024   0.897   6.262  0.7959 -2.1624 -2.4131
 9039SOL     OW38575   4.033   4.068   6.339 -0.3796  0.0174  0.5586
 9039SOL    HW138576   3.988   4.035   6.261 -2.7339 -0.1459  1.9651
 9039SOL    HW238577   4.031   3.992   6.398  0.7931  0.2486  0.8849
 9040SOL     OW38578   2.934   4.509  13.392  0.4863 -0.1190 -0.0403
 9040SOL    HW138579   2.957   4.531  13.483  4.1270 -0.3952 -0.8957
 9040SOL    HW238580   3.016   4.537  13.351  0.0698  0.0873 -0.7164
 9041SOL     OW38581   4.262   1.999  16.210  0.4511  0.5225  0.3958
 9041SOL    HW138582   4.333   1.994  16.273  0.0697 -0.5322  0.7453
 9041SOL    HW238583   4.190   1.986  16.272  0.4696 -1.0644  0.0862
 9042SOL     OW38584   3.250   4.574  14.108  0.1987  0.1650 -0.0476
 9042SOL    HW138585   3.254   4.492  14.157 -1.0805  0.2716  0.2567
 9042SOL    HW238586   3.332   4.617  14.132  0.8974 -1.2821  0.1179
 9043SOL     OW38587   0.020   2.178   6.678 -0.3032  0.1575 -0.0477
 9043SOL    HW138588   4.712   2.094   6.645 -1.1813  0.9800 -1.3558
 9043SOL    HW238589   4.657   2.221   6.684 -0.5502 -0.4898  0.9923
 9044SOL     OW38590   3.048   0.916  10.368 -0.0157  0.2809  0.2143
 9044SOL    HW138591   3.032   0.999  10.323  0.7027  1.7330  2.6259
 9044SOL    HW238592   3.133   0.934  10.408  0.9019 -1.1649 -1.0584
 9045SOL     OW38593   1.850   2.864   1.071  0.1025  0.6712 -0.3097
 9045SOL    HW138594   1.770   2.916   1.078  0.7912  2.1152 -3.4833
 9045SOL    HW238595   1.906   2.904   1.137  1.7031 -1.3952 -0.4020
 9046SOL     OW38596   1.097   0.647  14.077 -0.2203  0.2401  0.3985
 9046SOL    HW138597   1.044   0.629  14.155 -2.6422 -1.2249 -1.5869
 9046SOL    HW238598   1.102   0.742  14.091  1.1042  0.1342  0.5670
 9047SOL     OW38599   1.352   3.738   2.386  0.1382 -0.2317  0.2664
 9047SOL    HW138600   1.344   3.643   2.384  0.9650 -0.2883 -0.4130
 9047SOL    HW238601   1.366   3.767   2.295  2.1185 -0.3377  0.5292
 9048SOL     OW38602   0.530   2.329   7.492  0.3484  0.0245 -0.0369
 9048SOL    HW138603   0.538   2.330   7.396 -0.0527  1.2943 -0.0687
 9048SOL    HW238604   0.612   2.293   7.524  0.2739  0.0353  0.1668
 9049SOL     OW38605   0.900   1.006   3.525  1.0237  0.2320  0.0981
 9049SOL    HW138606   0.962   0.938   3.500  0.9622  0.5411 -0.8787
 9049SOL    HW238607   0.957   1.082   3.526 -0.2585  1.2399 -1.9515
 9050SOL     OW38608   0.282   1.564   3.467  0.1202 -0.4981  0.0508
 9050SOL    HW138609   0.301   1.633   3.404  0.9232  0.8853  1.8133
 9050SOL    HW238610   0.259   1.490   3.410 -2.1298  0.2787 -0.0478
 9051SOL     OW38611   1.862   3.743   8.139 -0.5117 -0.2975 -0.3509
 9051SOL    HW138612   1.792   3.679   8.155  0.9317 -2.2834 -2.0358
 9051SOL    HW238613   1.815   3.798   8.076  0.7446  1.2591  0.0729
 9052SOL     OW38614   2.693   3.177   7.585  0.4067 -0.0659 -0.6112
 9052SOL    HW138615   2.781   3.209   7.561  1.0748 -1.3523  0.1186
 9052SOL    HW238616   2.629   3.247   7.573  2.1711  1.3738 -1.6601
 9053SOL     OW38617   4.663   3.260   6.937  0.8682  0.3590  0.0929
 9053SOL    HW138618   4.707   3.303   6.863  0.4083 -0.2680 -0.5486
 9053SOL    HW238619   4.619   3.336   6.974 -1.3112 -0.9094  0.0706
 9054SOL     OW38620   2.946   3.569  16.810  0.1001 -0.2869  0.4331
 9054SOL    HW138621   2.929   3.660  16.832  1.1806 -0.2167  0.9869
 9054SOL    HW238622   2.931   3.523  16.893 -1.0408  0.2877  0.5349
 9055SOL     OW38623   1.965   1.106   6.642  0.4082 -0.5036  0.3094
 9055SOL    HW138624   1.893   1.050   6.614  2.3045 -2.6156 -0.3024
 9055SOL    HW238625   1.928   1.135   6.725 -0.7012 -0.3117 -0.2516
 9056SOL     OW38626   2.729   2.989  12.988 -0.1579 -0.6181 -0.2447
 9056SOL    HW138627   2.821   3.012  13.000 -0.0411 -1.6419  0.8187
 9056SOL    HW238628   2.742   2.945  12.905 -0.8650 -1.3734  0.0533
 9057SOL     OW38629   1.031   0.096   3.104 -0.4729  0.8949 -0.3123
 9057SOL    HW138630   1.053   0.050   3.185 -0.6798  1.6704  0.1823
 9057SOL    HW238631   1.000   0.027   3.045 -0.3134 -0.1404  0.8163
 9058SOL     OW38632   3.921   1.379  16.192  0.0967 -0.0266  0.5304
 9058SOL    HW138633   3.909   1.284  16.194  0.9711 -0.1357  0.7687
 9058SOL    HW238634   3.956   1.388  16.103  0.6519 -2.5719  0.4829
 9059SOL     OW38635   3.117   2.393  15.398 -0.2737 -0.2756 -0.3915
 9059SOL    HW138636   3.183   2.376  15.466  0.2534  1.1009 -0.5723
 9059SOL    HW238637   3.125   2.314  15.344  0.1919 -1.3368  1.2141
 9060SOL     OW38638   2.579   4.065   2.488  0.4077  0.4915  0.6148
 9060SOL    HW138639   2.607   4.049   2.398 -0.8563 -0.3272  0.3644
 9060SOL    HW238640   2.486   4.041   2.490  0.5725 -0.2692 -0.7037
 9061SOL     OW38641   2.818   2.983   9.487 -0.0970 -0.0969  0.3743
 9061SOL    HW138642   2.729   2.946   9.491  0.5448 -1.7382 -0.3985
 9061SOL    HW238643   2.829   2.983   9.582  2.8472 -1.1031  0.0355
 9062SOL     OW38644   3.948   0.204  16.431 -0.4816 -0.2307  0.3466
 9062SOL    HW138645   4.015   0.138  16.448 -0.0526  0.2721  0.5975
 9062SOL    HW238646   3.873   0.179  16.485 -0.2393  0.5279  1.0354
 9063SOL     OW38647   1.233   3.289   5.392 -0.0066 -0.3368  0.0943
 9063SOL    HW138648   1.240   3.194   5.389  0.4496 -0.2762 -0.7617
 9063SOL    HW238649   1.229   3.303   5.298  1.1599 -2.5664 -0.2796
 9064SOL     OW38650   0.419   4.448   2.896  0.0939  0.5792 -0.7622
 9064SOL    HW138651   0.448   4.386   2.829  1.1776  0.2769 -0.0215
 9064SOL    HW238652   0.434   4.412   2.983 -0.0362 -1.8737 -1.7559
 9065SOL     OW38653   0.168   2.027   3.579  0.0378  0.4230  0.3809
 9065SOL    HW138654   0.218   2.083   3.519 -2.2188  0.1339 -1.7861
 9065SOL    HW238655   0.217   1.945   3.572 -1.2631 -0.4719  2.0338
 9066SOL     OW38656   3.785   1.356  15.709 -0.2005 -0.0324 -0.1116
 9066SOL    HW138657   3.854   1.307  15.664  0.1185 -0.2303  0.5977
 9066SOL    HW238658   3.851   1.401  15.762  0.3249  2.3434 -2.8057
 9067SOL     OW38659   0.091   2.419  16.511  0.1926  0.2467  0.4454
 9067SOL    HW138660   0.048   2.361  16.449  1.3536  0.0372 -0.1586
 9067SOL    HW238661   0.044   2.403  16.594 -2.4160 -0.7102 -1.2109
 9068SOL     OW38662   1.649   4.492   2.345 -0.4163 -0.2772 -0.3952
 9068SOL    HW138663   1.579   4.465   2.404  0.2842 -1.5598 -0.1661
 9068SOL    HW238664   1.627   4.446   2.264  1.7970 -0.9547 -0.6251
 9069SOL     OW38665   1.404   1.150  16.431  0.7918  0.3368 -0.0117
 9069SOL    HW138666   1.476   1.092  16.454  0.5444 -0.8679 -2.2504
 9069SOL    HW238667   1.324   1.098  16.437  1.5376 -0.7075  0.8224
 9070SOL     OW38668   0.591   1.121  10.564 -0.0790 -0.4743  0.0351
 9070SOL    HW138669   0.548   1.147  10.483 -0.1921  0.7212  0.4850
 9070SOL    HW238670   0.519   1.065  10.595 -0.0557 -0.8785 -0.6373
 9071SOL     OW38671   1.871   3.715   5.812 -0.6784 -0.2782 -0.7426
 9071SOL    HW138672   1.835   3.791   5.766  1.7526  1.5465  0.3562
 9071SOL    HW238673   1.802   3.651   5.798 -0.6534  0.0143 -2.2100
 9072SOL     OW38674   0.631   4.675   7.002  0.2452  0.1037 -0.4978
 9072SOL    HW138675   0.579   4.595   7.012  0.8412 -0.1113  0.9041
 9072SOL    HW238676   0.636   4.690   7.097  1.4960 -1.7521 -0.2641
 9073SOL     OW38677   4.348   4.531   7.652  0.2043  0.2467 -0.2093
 9073SOL    HW138678   4.411   4.539   7.724 -0.0628  0.7324 -0.0321
 9073SOL    HW238679   4.264   4.539   7.698  0.3697  0.1174  0.1183
 9074SOL     OW38680   1.390   3.553   3.201 -0.6454  0.3493 -0.0745
 9074SOL    HW138681   1.430   3.481   3.249  0.2352  1.0430  0.2484
 9074SOL    HW238682   1.421   3.549   3.111 -1.3239  0.9406 -0.3345
 9075SOL     OW38683   1.605   1.880   9.505 -0.7483  0.2478 -0.1510
 9075SOL    HW138684   1.646   1.894   9.419  0.5738 -1.3889  0.2343
 9075SOL    HW238685   1.590   1.786   9.498 -0.8765  0.3369 -1.1707
 9076SOL     OW38686   0.950   1.815   6.837 -0.2724 -0.0047  0.1187
 9076SOL    HW138687   1.002   1.797   6.916  0.4313  0.1379 -0.3075
 9076SOL    HW238688   0.980   1.753   6.770 -0.5423 -0.8879  0.8169
 9077SOL     OW38689   2.392   0.543  12.836  0.4096  0.1337 -0.2132
 9077SOL    HW138690   2.437   0.525  12.918 -1.2633  0.9505  0.8905
 9077SOL    HW238691   2.459   0.513  12.776 -1.7665 -1.9763 -1.5877
 9078SOL     OW38692   0.989   1.163   1.852 -0.2506 -0.0809  0.3779
 9078SOL    HW138693   1.036   1.081   1.868 -1.4206 -0.9752 -0.8240
 9078SOL    HW238694   1.056   1.219   1.892  0.1384  0.4484 -1.0027
 9079SOL     OW38695   4.418   1.081   9.027  0.3236 -0.5946 -0.0215
 9079SOL    HW138696   4.363   1.003   9.036 -0.2373 -0.4305 -2.0092
 9079SOL    HW238697   4.356   1.135   8.979 -0.7960 -2.9521 -1.2310
 9080SOL     OW38698   3.105   3.975   6.626 -0.3208  0.0293 -0.0007
 9080SOL    HW138699   3.018   3.998   6.595 -0.9644 -1.4553  0.7143
 9080SOL    HW238700   3.092   3.936   6.712 -1.1493  1.2528  0.4227
 9081SOL     OW38701   3.149   4.541   5.847 -0.1818  0.5588 -0.5302
 9081SOL    HW138702   3.116   4.470   5.793  0.9097  0.6200 -1.2556
 9081SOL    HW238703   3.165   4.493   5.928 -2.3091 -0.4508 -0.7093
 9082SOL     OW38704   0.454   2.538  11.071  0.7080  0.4617  0.3972
 9082SOL    HW138705   0.416   2.543  11.159  0.1823  0.3623  0.1739
 9082SOL    HW238706   0.545   2.559  11.093  2.3036 -2.6917 -3.1623
 9083SOL     OW38707   2.705   3.376  11.043  0.0350  0.7348 -0.0375
 9083SOL    HW138708   2.761   3.365  10.966  0.7706  0.5246  0.5217
 9083SOL    HW238709   2.618   3.379  11.004  0.1849  1.2204 -0.3243
 9084SOL     OW38710   2.966   3.068  14.810  0.1462  0.1067  0.6979
 9084SOL    HW138711   3.011   3.150  14.828  0.1253  0.3121 -0.1701
 9084SOL    HW238712   2.873   3.090  14.800  0.0024 -0.4368  0.8094
 9085SOL     OW38713   4.110   1.088   4.128 -0.4510 -0.3236  0.2055
 9085SOL    HW138714   4.110   1.092   4.032 -1.4052  0.9415  0.2544
 9085SOL    HW238715   4.157   1.006   4.144 -0.3813 -0.4518 -0.6406
 9086SOL     OW38716   0.549   3.094  12.222 -0.4626  0.1978 -0.7522
 9086SOL    HW138717   0.614   3.048  12.169 -2.1362 -0.1445 -2.5215
 9086SOL    HW238718   0.599   3.076  12.302 -3.3974  1.3380  1.3347
 9087SOL     OW38719   4.060   0.958   2.582 -0.1540 -0.0257 -0.1117
 9087SOL    HW138720   4.024   0.981   2.497  1.6931  1.6649 -0.4387
 9087SOL    HW238721   3.992   0.994   2.639  2.1325  0.5958  2.2288
 9088SOL     OW38722   2.311   3.252  13.935 -0.3961  0.6354  0.0837
 9088SOL    HW138723   2.339   3.217  14.020 -0.6226  0.5069  0.1045
 9088SOL    HW238724   2.217   3.240  13.941 -0.7738  4.2036  1.3615
 9089SOL     OW38725   2.438   0.885   9.393  0.2274  0.0158  0.2844
 9089SOL    HW138726   2.484   0.850   9.469  1.6761 -1.4650 -1.2771
 9089SOL    HW238727   2.390   0.806   9.366 -2.4683  1.8153 -0.2127
 9090SOL     OW38728   4.683   4.113   5.576 -0.0330  0.3367  0.0208
 9090SOL    HW138729   4.694   4.199   5.536  0.1988  0.6818  0.8324
 9090SOL    HW238730   0.038   4.116   5.631 -1.0594  0.1609  1.4892
 9091SOL     OW38731   3.975   2.034   1.480 -0.7526 -0.1054 -0.3729
 9091SOL    HW138732   3.951   2.023   1.388  0.7139 -0.2866 -0.7371
 9091SOL    HW238733   3.993   1.944   1.506 -0.4867 -0.0883 -0.4964
 9092SOL     OW38734   1.264   3.314   9.593  0.3367  0.4272 -1.0485
 9092SOL    HW138735   1.182   3.347   9.632  0.4830 -0.7522  0.2466
 9092SOL    HW238736   1.327   3.321   9.665  0.6667 -0.4493 -1.2665
 9093SOL     OW38737   2.318   0.462   6.767  0.2124  0.1944  0.6416
 9093SOL    HW138738   2.323   0.480   6.673 -3.8076 -1.6652  0.0817
 9093SOL    HW238739   2.413   0.459   6.779 -0.2677 -0.9496  4.3849
 9094SOL     OW38740   3.125   0.995   5.595  0.3244 -0.0262  0.5328
 9094SOL    HW138741   3.054   1.052   5.568  1.0703 -0.0456 -1.4294
 9094SOL    HW238742   3.135   0.947   5.513  1.8888  2.1998 -0.5739
 9095SOL     OW38743   2.275   0.489   7.034 -0.1921  0.0741 -0.0800
 9095SOL    HW138744   2.330   0.568   7.031 -0.2722  0.1501  0.4719
 9095SOL    HW238745   2.259   0.459   6.945  1.2281  0.3649 -0.4296
 9096SOL     OW38746   0.559   4.164  15.091  0.6710  0.2072  0.0233
 9096SOL    HW138747   0.610   4.233  15.050 -1.5897  0.4446 -2.4263
 9096SOL    HW238748   0.490   4.147  15.026  0.6861  0.0321  0.0515
 9097SOL     OW38749   3.816   2.883   8.658 -0.1754 -0.5425  0.4186
 9097SOL    HW138750   3.864   2.833   8.724 -0.9626 -2.0604 -0.1515
 9097SOL    HW238751   3.741   2.824   8.649  0.6912 -1.2667 -2.1672
 9098SOL     OW38752   3.923   1.429  15.239 -0.3992  0.3756 -0.1926
 9098SOL    HW138753   3.925   1.349  15.187 -0.2173  0.5771 -0.4930
 9098SOL    HW238754   3.833   1.424  15.270 -0.0235 -0.4984  0.7945
 9099SOL     OW38755   3.386   3.786  10.570 -0.5697 -0.4981  0.2464
 9099SOL    HW138756   3.464   3.754  10.614 -0.9772 -1.3807  0.3366
 9099SOL    HW238757   3.410   3.878  10.570 -2.0170 -0.1074  4.4334
 9100SOL     OW38758   3.627   1.282  13.364 -0.2278 -0.0190 -0.0843
 9100SOL    HW138759   3.552   1.275  13.424  0.1791 -1.1628  0.2812
 9100SOL    HW238760   3.690   1.216  13.392  0.2758 -0.5131 -2.3932
 9101SOL     OW38761   2.682   2.747   5.370 -0.2171 -0.2812  0.4758
 9101SOL    HW138762   2.725   2.830   5.351 -0.4148 -0.6420 -1.5091
 9101SOL    HW238763   2.595   2.781   5.390 -0.1752  0.4049 -0.5312
 9102SOL     OW38764   4.689   4.630   9.233 -0.3157  0.0512  0.0632
 9102SOL    HW138765   4.686   4.549   9.285 -3.1434  0.0029 -0.1819
 9102SOL    HW238766   4.706   4.599   9.144  1.4599 -0.6683  0.6492
 9103SOL     OW38767   2.333   3.893   3.731  0.0609 -0.0643  0.3578
 9103SOL    HW138768   2.326   3.893   3.635 -1.7629  0.6955  0.4868
 9103SOL    HW238769   2.275   3.821   3.753 -1.8138  1.5374  0.6509
 9104SOL     OW38770   0.117   1.044  14.306  0.1273 -0.2837  0.0868
 9104SOL    HW138771   0.070   1.071  14.385  0.4034  1.0308 -0.1952
 9104SOL    HW238772   0.048   0.999  14.257 -1.5385  0.9860  1.2671
 9105SOL     OW38773   0.301   2.963  16.673 -0.0619  0.2215  0.0067
 9105SOL    HW138774   0.240   2.957  16.599 -0.4891  1.9004  0.2241
 9105SOL    HW238775   0.380   2.997  16.631  0.3530  1.5436  1.8850
 9106SOL     OW38776   0.956   0.037   1.342 -0.1945 -0.4236  0.4528
 9106SOL    HW138777   0.902   0.017   1.419 -0.7012 -0.5055  0.0736
 9106SOL    HW238778   1.029   4.700   1.355  1.3425  1.1230 -1.0408
 9107SOL     OW38779   1.757   3.957   3.543 -0.0122  0.4660 -0.1937
 9107SOL    HW138780   1.777   3.926   3.631 -1.7008  0.5518  0.2167
 9107SOL    HW238781   1.758   4.052   3.555 -0.0653  0.5720 -1.0272
 9108SOL     OW38782   3.247   2.360   3.789 -0.1506  0.2452  0.2508
 9108SOL    HW138783   3.184   2.404   3.733  0.2288 -0.1847 -0.5069
 9108SOL    HW238784   3.299   2.318   3.720  2.3479 -0.0028  2.2666
 9109SOL     OW38785   0.570   3.920   3.102  0.0746 -0.4152  0.1731
 9109SOL    HW138786   0.660   3.913   3.133  0.8635  0.5380 -1.8407
 9109SOL    HW238787   0.573   3.857   3.030 -0.8712  3.3373 -3.2140
 9110SOL     OW38788   2.625   1.903   5.914 -0.0465 -0.1655 -0.3367
 9110SOL    HW138789   2.648   1.979   5.967 -1.9026  0.3045 -0.2327
 9110SOL    HW238790   2.686   1.911   5.840  0.2948  0.6655  0.0404
 9111SOL     OW38791   1.683   1.183  10.346  0.6570  0.8725 -0.5641
 9111SOL    HW138792   1.644   1.197  10.259 -2.0303 -2.4180  0.1109
 9111SOL    HW238793   1.762   1.136  10.317 -0.2415 -0.0311 -1.5463
 9112SOL     OW38794   3.556   0.403  17.440  0.0320 -0.1015  0.0475
 9112SOL    HW138795   3.472   0.364  17.415 -0.9478  1.8647  0.2843
 9112SOL    HW238796   3.575   0.439  17.353  1.6175 -0.9686  0.0375
 9113SOL     OW38797   0.783   3.006   7.411 -0.2280 -0.2571 -0.0620
 9113SOL    HW138798   0.692   2.977   7.419 -0.1304 -0.1473  1.4737
 9113SOL    HW238799   0.779   3.095   7.447  0.9605 -0.2411  0.0244
 9114SOL     OW38800   3.743   0.737  12.353 -0.3125 -0.2741 -0.1369
 9114SOL    HW138801   3.769   0.682  12.279 -0.8782 -0.9877  0.1950
 9114SOL    HW238802   3.720   0.668  12.415 -1.2273 -0.0349 -0.2146
 9115SOL     OW38803   0.164   2.938   7.359  0.2684  0.5397  0.5503
 9115SOL    HW138804   0.112   2.975   7.288  0.3623  0.3082  0.3600
 9115SOL    HW238805   0.194   3.015   7.407  0.1671  1.0020 -0.1294
 9116SOL     OW38806   3.284   0.531   5.105 -0.5562  0.2836  0.1546
 9116SOL    HW138807   3.238   0.577   5.035 -1.6988 -0.0006  0.7221
 9116SOL    HW238808   3.226   0.539   5.180  0.4395  1.2163  0.8236
 9117SOL     OW38809   3.484   1.431   2.237  1.0309 -0.0117 -0.2528
 9117SOL    HW138810   3.573   1.398   2.221  0.9459 -1.4799  2.2289
 9117SOL    HW238811   3.442   1.442   2.152 -0.5304  2.9149  0.9143
 9118SOL     OW38812   0.304   4.607   4.587  0.1027 -0.2594  0.6749
 9118SOL    HW138813   0.263   4.590   4.672  0.4860 -2.2383  0.4559
 9118SOL    HW238814   0.394   4.612   4.620  0.9616  1.4651 -1.9589
 9119SOL     OW38815   0.956   3.222   8.413  0.0018 -0.4878 -0.3979
 9119SOL    HW138816   0.898   3.164   8.463  1.5867 -1.4074  0.3479
 9119SOL    HW238817   0.900   3.235   8.336 -0.7415  1.4744  0.4736
 9120SOL     OW38818   0.682   0.342   8.872  0.1903  0.0321  0.8202
 9120SOL    HW138819   0.634   0.285   8.813 -0.8774  0.9541  0.7937
 9120SOL    HW238820   0.774   0.317   8.865 -0.0621 -0.0970 -1.9497
 9121SOL     OW38821   0.751   1.133   4.701 -0.1060 -0.0283 -0.5171
 9121SOL    HW138822   0.732   1.181   4.620 -0.0966 -0.0220 -0.5157
 9121SOL    HW238823   0.680   1.073   4.723 -0.2356  0.5754  0.6959
 9122SOL     OW38824   3.377   2.574   1.303 -0.0954  0.4495 -0.1773
 9122SOL    HW138825   3.331   2.573   1.387  0.9474 -2.1081  0.3530
 9122SOL    HW238826   3.426   2.655   1.316  2.0353 -1.0298  0.9093
 9123SOL     OW38827   4.244   4.479  10.157  0.6326  0.6240  0.0399
 9123SOL    HW138828   4.205   4.545  10.100  1.2939 -0.6290 -1.9015
 9123SOL    HW238829   4.177   4.411  10.149 -0.5704  1.7447  0.8202
 9124SOL     OW38830   1.048   3.958  13.372  0.2266  0.0976  0.4417
 9124SOL    HW138831   1.138   3.989  13.376 -0.2269  1.2126  1.8424
 9124SOL    HW238832   1.042   3.874  13.418  2.3825 -0.7632 -0.8088
 9125SOL     OW38833   4.252   0.461   4.581  0.3546 -0.3786 -0.3360
 9125SOL    HW138834   4.331   0.461   4.527  1.7681 -1.6445  1.7234
 9125SOL    HW238835   4.189   0.508   4.526 -1.8471 -1.9881  0.8106
 9126SOL     OW38836   4.426   1.251   1.174  0.8609 -0.0517  0.4743
 9126SOL    HW138837   4.500   1.254   1.235  1.4379 -1.5901 -0.1315
 9126SOL    HW238838   4.415   1.344   1.154 -0.6847  0.4149  3.3909
 9127SOL     OW38839   2.870   1.090   9.444  0.8071 -1.1502 -0.8952
 9127SOL    HW138840   2.903   1.057   9.528 -1.8612  1.2379  1.1127
 9127SOL    HW238841   2.887   1.183   9.458 -0.9042 -1.1137  1.0671
 9128SOL     OW38842   0.947   2.692   6.479 -0.5716  0.0199 -0.2160
 9128SOL    HW138843   0.854   2.706   6.462 -0.6346 -1.8352 -1.3374
 9128SOL    HW238844   0.986   2.746   6.411 -0.0881  0.9959  0.8283
 9129SOL     OW38845   0.996   1.181   8.166  0.1306 -0.2321  0.1238
 9129SOL    HW138846   0.906   1.176   8.135  0.6899 -0.5428 -1.4602
 9129SOL    HW238847   1.041   1.101   8.138 -2.2366 -2.1209  1.7592
 9130SOL     OW38848   4.481   3.338   7.174  0.2957  0.0104 -0.1329
 9130SOL    HW138849   4.424   3.404   7.213  0.8695 -0.1065  0.9016
 9130SOL    HW238850   4.478   3.257   7.225 -1.2721  0.5982  0.7157
 9131SOL     OW38851   4.436   2.953   7.018  1.0995  0.2684  0.2350
 9131SOL    HW138852   4.444   2.947   7.113  1.3381  3.2753  0.4195
 9131SOL    HW238853   4.467   3.040   6.993 -0.3468  0.3646 -1.2047
 9132SOL     OW38854   3.372   3.140  14.500  0.2353 -0.0041 -0.4953
 9132SOL    HW138855   3.438   3.209  14.509 -0.7619  0.9898 -0.8365
 9132SOL    HW238856   3.378   3.082  14.577 -1.4611  0.3769 -0.0812
 9133SOL     OW38857   2.767   3.709   3.557  0.2450 -0.1452  0.3888
 9133SOL    HW138858   2.838   3.752   3.604  0.5870 -0.9335  0.5939
 9133SOL    HW238859   2.763   3.634   3.616  0.8422 -0.2283  0.3228
 9134SOL     OW38860   0.765   3.228   7.192  0.0065  0.3575  0.2513
 9134SOL    HW138861   0.836   3.166   7.173 -1.9112 -1.0774 -2.3541
 9134SOL    HW238862   0.818   3.293   7.238  0.3380  0.0382  0.3213
 9135SOL     OW38863   3.532   2.028  11.772 -0.2102  0.1000 -0.6198
 9135SOL    HW138864   3.471   2.038  11.699 -1.4041  2.0265  0.6264
 9135SOL    HW238865   3.613   2.055  11.728 -1.4261  1.8966 -1.7672
 9136SOL     OW38866   2.659   4.344   4.032  0.5288  0.1689  0.1957
 9136SOL    HW138867   2.589   4.402   4.063  1.6468  1.6520 -0.0612
 9136SOL    HW238868   2.609   4.307   3.959 -0.0540 -0.3806  0.8672
 9137SOL     OW38869   1.894   0.364  16.271 -0.3351  0.0512  0.4823
 9137SOL    HW138870   1.906   0.458  16.289  1.1502  0.0886 -0.7138
 9137SOL    HW238871   1.814   0.371  16.220 -0.0348  1.0480  0.1280
 9138SOL     OW38872   1.257   0.142   2.478  0.0794  0.5374  0.2727
 9138SOL    HW138873   1.172   0.117   2.513  0.0703 -1.4084 -1.1472
 9138SOL    HW238874   1.257   0.089   2.399 -0.5994  0.1689  0.5151
 9139SOL     OW38875   3.374   1.793   9.808 -0.2761  0.0619 -0.4719
 9139SOL    HW138876   3.383   1.763   9.717  1.9453  0.4875 -0.3951
 9139SOL    HW238877   3.452   1.847   9.824 -0.7347  0.6401 -0.1842
 9140SOL     OW38878   3.218   1.495   4.812 -0.2191  0.5768 -0.3744
 9140SOL    HW138879   3.240   1.509   4.904  1.4289  1.0690 -0.8486
 9140SOL    HW238880   3.279   1.555   4.769 -0.1725  0.7904 -0.0143
 9141SOL     OW38881   0.321   3.475   5.682 -0.2239 -0.2903  0.3976
 9141SOL    HW138882   0.400   3.466   5.629 -0.3769 -1.0095  0.2899
 9141SOL    HW238883   0.271   3.407   5.637  0.7112 -0.2496 -0.7009
 9142SOL     OW38884   2.751   1.207   0.442  0.0458  0.3214 -0.1207
 9142SOL    HW138885   2.680   1.238   0.385 -2.2195 -3.1948  0.7454
 9142SOL    HW238886   2.736   1.265   0.517  0.2300  0.5547 -0.2649
 9143SOL     OW38887   2.175   0.477   3.848  0.2604 -0.6576 -0.7017
 9143SOL    HW138888   2.182   0.525   3.930 -1.2787  0.1775 -1.0449
 9143SOL    HW238889   2.155   0.392   3.886  0.8911  0.1320  1.3487
 9144SOL     OW38890   4.658   1.974   9.733 -0.0172  0.5938 -0.2144
 9144SOL    HW138891   4.577   1.934   9.702  1.4474 -1.3408 -1.6123
 9144SOL    HW238892   0.003   1.908   9.712 -0.9246  0.0600 -1.4527
 9145SOL     OW38893   1.960   0.602   0.238 -0.0191  0.0497  0.0817
 9145SOL    HW138894   2.050   0.571   0.230 -0.1685  0.0095 -1.3565
 9145SOL    HW238895   1.942   0.594   0.145  0.6358  0.2843 -0.0680
 9146SOL     OW38896   2.130   0.504  12.699 -0.3505  0.7509  0.5024
 9146SOL    HW138897   2.088   0.557  12.766 -0.7015 -1.5281  2.0906
 9146SOL    HW238898   2.220   0.513  12.731 -0.1590  0.6672 -0.0072
 9147SOL     OW38899   2.644   1.021   9.295 -0.3208  0.0465 -0.3064
 9147SOL    HW138900   2.573   0.972   9.335 -1.0447  1.5810  0.2813
 9147SOL    HW238901   2.712   1.022   9.362  0.4590 -1.2297 -1.0676
 9148SOL     OW38902   1.545   4.632   4.248 -0.1365  0.4095  0.7142
 9148SOL    HW138903   1.638   4.656   4.248 -0.1733  0.5707 -0.3135
 9148SOL    HW238904   1.540   4.598   4.158  1.8172  1.5782  0.1548
 9149SOL     OW38905   4.363   2.393   9.501  0.7662 -0.0505  0.1476
 9149SOL    HW138906   4.323   2.411   9.585  0.5261  0.0231  0.0166
 9149SOL    HW238907   4.335   2.468   9.448  1.2990 -2.0722 -3.0209
 9150SOL     OW38908   1.592   0.667   0.467 -0.5926 -0.6464 -0.0488
 9150SOL    HW138909   1.505   0.653   0.505 -0.8840 -0.0021 -0.4861
 9150SOL    HW238910   1.585   0.745   0.413  0.9491 -0.7920 -0.4638
 9151SOL     OW38911   3.567   1.938   1.866  0.7635  0.8023  0.0011
 9151SOL    HW138912   3.492   1.996   1.877  1.9082  1.9385  1.7240
 9151SOL    HW238913   3.564   1.892   1.950  1.5940  0.4785 -0.1504
 9152SOL     OW38914   3.579   4.503   8.942  0.1034 -0.5088 -0.3901
 9152SOL    HW138915   3.572   4.544   8.856  0.4196 -0.2609 -0.2962
 9152SOL    HW238916   3.659   4.451   8.935  1.9419  2.1056  1.4947
 9153SOL     OW38917   1.707   3.535   4.781 -0.0392 -0.0751  0.2510
 9153SOL    HW138918   1.753   3.469   4.729  0.1335 -1.3703  2.0508
 9153SOL    HW238919   1.627   3.536   4.730  1.2395  0.8206 -1.7278
 9154SOL     OW38920   0.916   4.397   3.144 -0.2131  0.4345  0.5105
 9154SOL    HW138921   0.925   4.303   3.127  0.4064  0.6740 -0.4961
 9154SOL    HW238922   0.980   4.404   3.214 -0.5372  2.1275  0.6449
 9155SOL     OW38923   3.726   4.056   2.489  0.2366  0.3025 -0.2284
 9155SOL    HW138924   3.819   4.037   2.477  0.0121 -1.8426  1.4198
 9155SOL    HW238925   3.683   3.979   2.454  2.4054 -0.7790 -0.5602
 9156SOL     OW38926   1.034   2.455   1.176 -0.1239  0.0967  0.2207
 9156SOL    HW138927   1.086   2.438   1.254 -0.3731 -0.5158  0.2561
 9156SOL    HW238928   1.001   2.544   1.186  1.3524  0.4981  1.6580
 9157SOL     OW38929   2.799   1.267   8.683  0.1947 -0.0822 -0.0028
 9157SOL    HW138930   2.823   1.188   8.731  0.0043 -0.1255  0.0192
 9157SOL    HW238931   2.791   1.326   8.759 -0.2095 -1.9383  1.3895
 9158SOL     OW38932   3.212   3.125   9.129 -0.5437  0.0388 -0.0828
 9158SOL    HW138933   3.203   3.046   9.183  2.9216  2.1679  3.6401
 9158SOL    HW238934   3.148   3.116   9.058 -2.6551  1.0057  1.6879
 9159SOL     OW38935   1.653   2.605   6.683 -0.0788 -0.3290  0.4600
 9159SOL    HW138936   1.562   2.577   6.688  0.3669 -1.3745  2.6567
 9159SOL    HW238937   1.698   2.553   6.750  1.5820 -0.2440 -0.5847
 9160SOL     OW38938   3.731   2.461  17.515 -1.2299 -0.2247  0.2399
 9160SOL    HW138939   3.673   2.421  17.450 -2.4507  1.1918  0.4658
 9160SOL    HW238940   3.813   2.415  17.499  0.8322  4.7277 -3.1149
 9161SOL     OW38941   0.345   0.688  15.186 -0.0245  0.3333  0.0655
 9161SOL    HW138942   0.329   0.697  15.092 -0.9450 -1.5325  0.0506
 9161SOL    HW238943   0.345   0.593  15.202 -2.0065 -0.2035 -3.2358
 9162SOL     OW38944   3.886   2.801   3.555 -0.1006  0.2618  0.9481
 9162SOL    HW138945   3.893   2.707   3.569  0.1762  0.7188  3.8571
 9162SOL    HW238946   3.863   2.820   3.645 -0.1304  2.6615  0.4532
 9163SOL     OW38947   4.276   4.442  15.129 -0.3229 -0.3189  0.0488
 9163SOL    HW138948   4.261   4.419  15.037  0.3840 -4.3963  0.9572
 9163SOL    HW238949   4.198   4.495  15.147 -0.6764  0.1284 -2.8043
 9164SOL     OW38950   2.294   3.538  12.996  1.1171  0.3243  0.1033
 9164SOL    HW138951   2.337   3.454  13.008  0.0809 -0.0196  1.4533
 9164SOL    HW238952   2.328   3.573  13.078 -1.9181 -0.9213  1.9214
 9165SOL     OW38953   2.220   2.417   5.992 -0.0471 -0.1791  0.4493
 9165SOL    HW138954   2.203   2.435   6.084  0.4482 -0.0539  0.5167
 9165SOL    HW238955   2.212   2.322   5.985 -0.2694  0.0250 -2.1187
 9166SOL     OW38956   3.050   4.621  12.453 -0.1076 -0.2754  0.1529
 9166SOL    HW138957   3.086   4.550  12.506 -2.1112 -1.2115  0.2829
 9166SOL    HW238958   3.107   4.689  12.489 -0.9612  0.4166  0.2029
 9167SOL     OW38959   1.193   0.554   3.025  0.2568 -0.1771 -0.0455
 9167SOL    HW138960   1.215   0.461   3.032 -0.2337 -0.1141  2.3068
 9167SOL    HW238961   1.222   0.577   2.937  0.1013  3.5020  0.8742
 9168SOL     OW38962   1.154   2.102   7.562 -0.1194 -0.5662 -0.2749
 9168SOL    HW138963   1.074   2.051   7.545 -0.8808  0.7264 -0.5681
 9168SOL    HW238964   1.138   2.128   7.652  0.2056  0.0816 -0.4078
 9169SOL     OW38965   3.967   1.663   8.350  0.2192 -0.2497  0.1446
 9169SOL    HW138966   3.953   1.722   8.276  0.5094 -0.1503  0.1706
 9169SOL    HW238967   3.944   1.727   8.417 -0.0644  0.1447 -0.3367
 9170SOL     OW38968   0.077   2.611  10.977  1.0125  0.2228 -0.0265
 9170SOL    HW138969   0.076   2.706  10.988 -0.6872  0.2311 -0.2684
 9170SOL    HW238970   0.001   2.572  11.021  0.6605  0.8524 -0.0741
 9171SOL     OW38971   1.677   1.387  17.170 -0.0330  0.4939 -0.7917
 9171SOL    HW138972   1.597   1.351  17.133 -0.5463  0.0985  0.7398
 9171SOL    HW238973   1.677   1.331  17.248  1.4511  1.3098 -0.1932
 9172SOL     OW38974   1.251   1.362  16.227 -0.3171  0.4068  0.1163
 9172SOL    HW138975   1.302   1.314  16.292  2.3837  1.9977 -0.8158
 9172SOL    HW238976   1.317   1.423  16.192  0.8094 -0.4833  0.6829
 9173SOL     OW38977   2.611   3.845   7.036 -0.3255 -0.3592  0.1744
 9173SOL    HW138978   2.643   3.934   7.049 -1.5370  0.3274 -1.5245
 9173SOL    HW238979   2.580   3.829   7.125  1.9600  1.2774  1.2660
 9174SOL     OW38980   0.053   1.407  17.023  0.4108  0.0591  0.7628
 9174SOL    HW138981   0.055   1.486  17.076 -2.7294  0.8257 -0.2586
 9174SOL    HW238982   4.694   1.417  16.975 -0.5860 -2.7421  1.8310
 9175SOL     OW38983   0.404   2.382   5.302 -0.0206  0.5244 -0.2567
 9175SOL    HW138984   0.344   2.334   5.247 -0.1547 -1.1294  1.3241
 9175SOL    HW238985   0.350   2.396   5.380 -1.8316  0.8770 -1.5980
 9176SOL     OW38986   2.591   3.241  11.963  0.0173 -0.1011 -0.0018
 9176SOL    HW138987   2.669   3.215  11.914  0.6514 -0.0253  0.9734
 9176SOL    HW238988   2.595   3.203  12.051  0.2265  0.3462  0.1789
 9177SOL     OW38989   0.853   0.764   2.277  0.7069 -0.1939 -0.5517
 9177SOL    HW138990   0.770   0.717   2.279 -0.7571  2.4688  1.5190
 9177SOL    HW238991   0.879   0.773   2.185  0.2627 -4.3978 -1.0568
 9178SOL     OW38992   1.438   1.612   7.561 -0.0568 -0.1004 -0.0166
 9178SOL    HW138993   1.402   1.581   7.643 -1.8463  1.1661 -0.3189
 9178SOL    HW238994   1.464   1.703   7.579  0.6734 -1.0015  3.3466
 9179SOL     OW38995   4.448   1.095   7.840  0.4246  0.0940 -0.3698
 9179SOL    HW138996   4.511   1.095   7.768 -1.0785  0.8040 -1.7045
 9179SOL    HW238997   4.402   1.013   7.823 -0.9770  0.7815  0.1327
 9180SOL     OW38998   1.380   3.675   7.383  0.1414  0.4573 -0.1529
 9180SOL    HW138999   1.409   3.766   7.373  0.5963  0.5583  2.0418
 9180SOL    HW239000   1.464   3.634   7.403 -1.4961 -3.0515 -0.5429
 9181SOL     OW39001   4.717   3.258  12.004  0.3560 -0.2424 -0.0090
 9181SOL    HW139002   4.632   3.263  12.047  0.6501  0.9899  0.4197
 9181SOL    HW239003   0.029   3.346  12.016 -2.0467  0.7068 -0.0437
 9182SOL     OW39004   2.330   2.299   7.032 -0.1628  0.2362  0.7869
 9182SOL    HW139005   2.270   2.345   7.090 -0.4727  0.6419  0.1484
 9182SOL    HW239006   2.399   2.365   7.026  1.8031 -1.9233 -0.5069
 9183SOL     OW39007   3.663   2.267   8.044  0.4160  0.5771 -0.4021
 9183SOL    HW139008   3.723   2.249   7.971  2.7597  0.6298  1.5240
 9183SOL    HW239009   3.581   2.276   7.995  0.6084  1.1217 -0.6326
 9184SOL     OW39010   1.148   3.473   4.307  0.7481  0.9766 -0.3327
 9184SOL    HW139011   1.183   3.556   4.274 -0.7834  1.0077 -1.9112
 9184SOL    HW239012   1.088   3.502   4.376  2.2476 -1.7435  2.0825
 9185SOL     OW39013   0.438   4.256   6.841  0.1003  0.3661  0.0187
 9185SOL    HW139014   0.360   4.275   6.788  1.1570  0.3455 -1.5643
 9185SOL    HW239015   0.425   4.163   6.859  1.3055  0.5722  1.9207
 9186SOL     OW39016   4.204   0.445   7.406 -0.0189 -0.6592  0.0821
 9186SOL    HW139017   4.218   0.469   7.497 -3.2399  1.8489 -0.0563
 9186SOL    HW239018   4.122   0.486   7.379  0.3946 -0.0171 -0.2052
 9187SOL     OW39019   2.369   3.706   8.290 -0.3335  0.2798 -0.1672
 9187SOL    HW139020   2.462   3.729   8.287 -0.2727  0.2323  1.2514
 9187SOL    HW239021   2.355   3.778   8.351 -3.1099  0.3751 -0.9197
 9188SOL     OW39022   2.784   1.571  16.780 -0.1260 -0.0439 -0.0435
 9188SOL    HW139023   2.875   1.593  16.759  1.1629 -1.5837  3.8738
 9188SOL    HW239024   2.783   1.503  16.713  0.3886  1.3628 -1.4728
 9189SOL     OW39025   4.574   2.003  15.893 -0.3800  0.1483 -0.0865
 9189SOL    HW139026   4.665   2.032  15.882 -0.2331  0.0689  0.8796
 9189SOL    HW239027   4.575   1.914  15.857  0.3061  0.7760 -1.6377
 9190SOL     OW39028   0.901   2.183   8.509 -0.1746  0.3499  0.2563
 9190SOL    HW139029   0.881   2.230   8.428 -0.7427  1.5336  1.0786
 9190SOL    HW239030   0.813   2.166   8.542 -0.4141  0.4574 -0.3349
 9191SOL     OW39031   0.121   1.492  12.055  0.0490 -0.3965  0.0579
 9191SOL    HW139032   0.162   1.459  12.135  2.2314  0.0233 -0.8891
 9191SOL    HW239033   0.037   1.524  12.088 -0.0079  0.6304 -1.0915
 9192SOL     OW39034   1.867   1.691   6.993  0.3746  0.0554 -0.2558
 9192SOL    HW139035   1.876   1.596   7.005 -1.7746 -0.3524 -1.6718
 9192SOL    HW239036   1.928   1.709   6.922  0.3432 -0.7732 -0.4934
 9193SOL     OW39037   3.020   2.869  14.622  0.8238  0.1696  0.1055
 9193SOL    HW139038   3.058   2.928  14.688  1.5395  1.7615 -1.7564
 9193SOL    HW239039   2.935   2.913  14.617  0.6260 -0.5266 -2.3731
 9194SOL     OW39040   4.298   2.067  15.659 -0.6568  0.8490 -0.0786
 9194SOL    HW139041   4.385   2.107  15.650  1.6104 -3.6157  2.2342
 9194SOL    HW239042   4.291   2.057  15.754 -1.4494  1.6200 -0.0466
 9195SOL     OW39043   0.149   1.724   4.869 -0.1855  0.0824 -0.0702
 9195SOL    HW139044   0.193   1.639   4.865  1.7391  1.1973 -2.6928
 9195SOL    HW239045   0.228   1.777   4.857 -2.5520  3.7188  0.4972
 9196SOL     OW39046   2.766   4.405   0.622 -0.3753 -0.1910 -0.2242
 9196SOL    HW139047   2.765   4.499   0.639 -1.9035  0.0223 -1.4867
 9196SOL    HW239048   2.753   4.367   0.709  1.2028 -1.5635 -0.5800
 9197SOL     OW39049   1.347   3.286  12.193 -0.8044 -0.2165  0.7120
 9197SOL    HW139050   1.285   3.355  12.216  0.7413  1.9122 -1.4677
 9197SOL    HW239051   1.296   3.234  12.131  1.4110 -0.5123 -0.8688
 9198SOL     OW39052   3.566   4.613   3.585  0.4033 -0.5906 -0.4189
 9198SOL    HW139053   3.497   4.551   3.608  1.1103 -0.6214  1.6243
 9198SOL    HW239054   3.517   4.691   3.559 -0.4521  0.1494  3.4383
 9199SOL     OW39055   3.974   4.153   4.850 -0.0941 -0.3127 -0.2865
 9199SOL    HW139056   4.033   4.180   4.779  1.9499  1.6398  2.1551
 9199SOL    HW239057   3.975   4.058   4.838  1.3349 -0.2021 -0.9720
 9200SOL     OW39058   2.207   0.163   8.993  0.5112  0.1086 -0.1490
 9200SOL    HW139059   2.267   0.215   9.046  0.5855  0.7982 -0.9167
 9200SOL    HW239060   2.141   0.228   8.968  1.7485  1.3828 -0.0584
 9201SOL     OW39061   1.695   0.217   4.213  0.7921  0.2847 -0.7272
 9201SOL    HW139062   1.634   0.169   4.157  0.0403  0.1727  0.1841
 9201SOL    HW239063   1.761   0.234   4.146  1.1777  1.0398 -0.1573
 9202SOL     OW39064   1.668   0.243  14.012  0.2931  0.6937 -0.1910
 9202SOL    HW139065   1.626   0.323  13.980 -0.1765  1.3274  1.9882
 9202SOL    HW239066   1.690   0.218  13.922  0.0107  1.8157 -0.5800
 9203SOL     OW39067   1.958   1.432   3.429  0.3930  0.2328 -0.4003
 9203SOL    HW139068   1.875   1.396   3.397  1.5203 -0.4967 -2.5588
 9203SOL    HW239069   1.932   1.499   3.492  0.6428 -0.7504  0.7464
 9204SOL     OW39070   3.543   2.890   0.805 -0.6581  0.7764 -0.0271
 9204SOL    HW139071   3.518   2.801   0.827  1.7996 -0.1642 -0.9745
 9204SOL    HW239072   3.514   2.901   0.714 -0.0788  3.5884  0.1254
 9205SOL     OW39073   2.333   3.286   9.538 -0.0023  0.0282  0.4493
 9205SOL    HW139074   2.351   3.225   9.609 -0.7592  1.3967  1.8059
 9205SOL    HW239075   2.329   3.219   9.469 -1.2682 -0.1942  0.7340
 9206SOL     OW39076   2.224   3.053   1.573  0.3138  0.2674  0.0638
 9206SOL    HW139077   2.184   2.974   1.537 -1.8146 -0.1662  3.2926
 9206SOL    HW239078   2.286   3.083   1.508 -0.3640 -0.5145 -0.9390
 9207SOL     OW39079   2.477   2.409   3.076  0.2415  0.3729 -0.1565
 9207SOL    HW139080   2.443   2.321   3.092  0.0759  0.4754  0.0585
 9207SOL    HW239081   2.412   2.467   3.116 -0.7918  0.6126 -2.1585
 9208SOL     OW39082   0.766   2.749   9.108  0.7097  1.0883 -0.1807
 9208SOL    HW139083   0.741   2.706   9.027  0.0076 -2.0299  1.6982
 9208SOL    HW239084   0.719   2.831   9.096  0.2331  0.6187 -1.5147
 9209SOL     OW39085   0.583   4.214  11.025 -0.4168  0.0271 -0.2385
 9209SOL    HW139086   0.652   4.277  11.003 -0.7718  0.2099 -0.8303
 9209SOL    HW239087   0.548   4.280  11.085 -0.4545  0.5549 -0.8443
 9210SOL     OW39088   3.967   1.682  15.161  0.1918  0.1225 -0.9606
 9210SOL    HW139089   4.005   1.737  15.229 -0.3415  0.1082 -0.6486
 9210SOL    HW239090   3.970   1.594  15.199 -0.3825  0.5684  0.1191
 9211SOL     OW39091   3.494   3.689   6.087 -0.7484  0.1287 -0.6780
 9211SOL    HW139092   3.511   3.702   6.180 -0.4424 -2.0690 -0.4390
 9211SOL    HW239093   3.427   3.621   6.093  0.3170 -0.8110  0.5528
 9212SOL     OW39094   2.714   3.594  10.638 -0.2522 -0.7641 -0.0228
 9212SOL    HW139095   2.802   3.572  10.670  0.8651  0.8801 -1.9828
 9212SOL    HW239096   2.719   3.688  10.621 -1.9238 -0.2875  2.1013
 9213SOL     OW39097   4.166   0.265   4.082  0.4314  0.0646 -0.1247
 9213SOL    HW139098   4.168   0.203   4.155  2.7093 -0.3244 -0.5485
 9213SOL    HW239099   4.144   0.350   4.121  1.6134  0.7761 -1.0064
 9214SOL     OW39100   0.272   1.060   7.885 -0.4440 -0.2495 -0.6676
 9214SOL    HW139101   0.257   0.972   7.850  1.9778 -0.0418 -2.2657
 9214SOL    HW239102   0.335   1.082   7.816 -0.5945 -1.3412 -1.1704
 9215SOL     OW39103   0.475   4.627  10.076 -0.3199 -0.0324  0.3886
 9215SOL    HW139104   0.466   4.720  10.098 -0.8581  0.5500 -2.2938
 9215SOL    HW239105   0.404   4.584  10.123  0.9118 -1.1280  1.2635
 9216SOL     OW39106   3.341   3.731   7.008  0.5654 -0.0620  0.7820
 9216SOL    HW139107   3.299   3.723   6.922  2.3299  0.2631 -0.1075
 9216SOL    HW239108   3.285   3.790   7.058  0.3596  1.2601 -1.0142
 9217SOL     OW39109   1.218   0.166   8.011  0.0229  0.2455 -0.0354
 9217SOL    HW139110   1.289   0.128   7.961  0.7139 -1.4542  2.2374
 9217SOL    HW239111   1.263   0.235   8.060 -0.5980 -1.8842  3.5345
 9218SOL     OW39112   0.246   1.515   4.539 -0.0140 -0.0225  0.3335
 9218SOL    HW139113   0.320   1.555   4.583 -1.2530  3.1357 -0.3508
 9218SOL    HW239114   0.295   1.456   4.481 -1.1607 -0.4218 -0.2382
 9219SOL     OW39115   4.272   1.896   6.847 -0.0031  0.0596 -0.2709
 9219SOL    HW139116   4.183   1.860   6.856 -0.3400  0.2370 -2.8607
 9219SOL    HW239117   4.301   1.898   6.938  0.4083 -0.0445 -0.4034
 9220SOL     OW39118   2.207   2.884   0.637 -0.9701  0.1874  0.3164
 9220SOL    HW139119   2.253   2.800   0.647  0.0291  0.9059  1.8139
 9220SOL    HW239120   2.260   2.942   0.692 -0.3358  0.1255 -0.2342
 9221SOL     OW39121   3.163   1.908   0.578 -0.1207 -0.3599  0.2223
 9221SOL    HW139122   3.179   1.814   0.594  2.0916 -0.1733 -0.9073
 9221SOL    HW239123   3.119   1.930   0.660 -1.0600 -1.4998  0.0227
 9222SOL     OW39124   2.267   3.399   8.572  0.6999 -0.5267 -0.1566
 9222SOL    HW139125   2.310   3.467   8.624  0.5506 -0.3429 -0.2731
 9222SOL    HW239126   2.343   3.340   8.575  0.7263 -0.5020 -0.3078
 9223SOL     OW39127   0.255   1.422  17.414 -0.2087  0.1980 -0.0710
 9223SOL    HW139128   0.224   1.343  17.370  1.6303  0.2255 -1.3834
 9223SOL    HW239129   0.298   1.465  17.341 -0.5939 -1.0537 -1.0318
 9224SOL     OW39130   2.425   0.612  10.317 -0.4286  0.0027  0.2561
 9224SOL    HW139131   2.374   0.694  10.320 -3.6601 -1.9050 -1.9894
 9224SOL    HW239132   2.363   0.563  10.371  0.0138 -1.1456 -0.2886
 9225SOL     OW39133   1.411   1.228   0.418 -0.0906 -0.4151 -0.6414
 9225SOL    HW139134   1.481   1.193   0.473 -1.1770 -0.0201  0.9917
 9225SOL    HW239135   1.349   1.155   0.427 -1.1936  0.7465  1.2627
 9226SOL     OW39136   3.395   0.381   7.858  0.0392  0.8460 -0.3933
 9226SOL    HW139137   3.310   0.422   7.840  0.1214  1.2689  0.1839
 9226SOL    HW239138   3.440   0.446   7.912 -1.9798  2.8659 -1.1643
 9227SOL     OW39139   0.582   2.945   9.059  0.4675  0.4942 -0.2635
 9227SOL    HW139140   0.601   2.970   8.968 -0.4215  0.0718 -0.5596
 9227SOL    HW239141   0.502   2.996   9.067  0.5068  0.4276  0.5203
 9228SOL     OW39142   1.184   0.999   5.313 -0.0472 -0.2305  0.4532
 9228SOL    HW139143   1.096   0.993   5.275 -0.0182  1.2094  0.1460
 9228SOL    HW239144   1.239   0.972   5.239 -1.0109  0.7155 -0.6062
 9229SOL     OW39145   3.566   3.454   4.612 -0.1215  0.0533 -0.3123
 9229SOL    HW139146   3.619   3.527   4.645  1.2464 -0.9765 -0.2461
 9229SOL    HW239147   3.477   3.470   4.645 -0.4737 -0.8014 -0.8447
 9230SOL     OW39148   0.703   0.311  11.499 -0.2293  0.8731  0.3823
 9230SOL    HW139149   0.692   0.351  11.413  0.0641 -1.2267 -0.6258
 9230SOL    HW239150   0.780   0.352  11.538  0.3201  0.1420  0.0617
 9231SOL     OW39151   2.992   1.754   4.777 -0.0208  0.1685 -0.3116
 9231SOL    HW139152   3.058   1.688   4.753 -1.0581 -0.9774 -0.0524
 9231SOL    HW239153   3.035   1.787   4.856 -0.3331  1.8099 -0.8456
 9232SOL     OW39154   0.295   0.437  12.426  0.9469 -0.1224  0.1188
 9232SOL    HW139155   0.302   0.366  12.363  0.1375 -0.5982  0.5675
 9232SOL    HW239156   0.237   0.496  12.378  0.9874  0.9133  1.3324
 9233SOL     OW39157   2.321   4.700   8.335  0.2636  0.8719  0.0425
 9233SOL    HW139158   2.274   4.653   8.404 -0.5685  0.4546 -0.8026
 9233SOL    HW239159   2.315   4.626   8.275  0.4682  1.7266 -1.0389
 9234SOL     OW39160   4.006   4.101   9.876  0.0479 -0.0882  0.3259
 9234SOL    HW139161   3.918   4.130   9.851  0.1231 -1.4452 -1.5410
 9234SOL    HW239162   4.011   4.027   9.815  0.3925  0.9972 -0.9414
 9235SOL     OW39163   4.458   0.444   4.874  0.1622 -0.0162  0.6644
 9235SOL    HW139164   4.483   0.473   4.961  0.4444 -0.4922  0.7399
 9235SOL    HW239165   4.366   0.463   4.858 -0.2076 -3.1694 -0.8844
 9236SOL     OW39166   0.411   3.801  15.086 -0.0821  0.1023 -1.0369
 9236SOL    HW139167   0.473   3.814  15.014  0.4679  2.0575 -0.2120
 9236SOL    HW239168   0.467   3.845  15.150 -1.3507 -0.1975  0.2866
 9237SOL     OW39169   4.376   0.527   9.334  0.4794 -0.5510  0.1792
 9237SOL    HW139170   4.284   0.512   9.357  0.4601 -0.1638  0.3439
 9237SOL    HW239171   4.415   0.491   9.414 -0.4304  0.5800  1.1365
 9238SOL     OW39172   2.177   2.726  12.801  0.3090 -0.4890  0.2084
 9238SOL    HW139173   2.160   2.635  12.776 -0.7346 -0.3756  0.5206
 9238SOL    HW239174   2.155   2.723  12.894 -2.5080 -0.2102 -0.4597
 9239SOL     OW39175   3.278   2.146   2.788  0.4844  0.0519  0.0957
 9239SOL    HW139176   3.326   2.068   2.763 -0.8107  0.3291 -3.2297
 9239SOL    HW239177   3.254   2.165   2.697  1.1133 -1.6326 -0.4100
 9240SOL     OW39178   3.793   1.621   0.953  0.5137 -0.4375  0.3334
 9240SOL    HW139179   3.823   1.693   0.898  2.1214 -0.3124  1.3537
 9240SOL    HW239180   3.728   1.664   1.008  0.2446  0.2964 -0.5693
 9241SOL     OW39181   1.698   2.200   7.059 -0.0890 -0.3513 -0.0329
 9241SOL    HW139182   1.788   2.231   7.047 -0.5448 -0.4988 -4.0440
 9241SOL    HW239183   1.671   2.266   7.122 -1.2970 -0.7177 -0.1610
 9242SOL     OW39184   0.936   2.517   8.494 -0.3810  0.3134 -0.6583
 9242SOL    HW139185   0.965   2.589   8.550  1.7973 -1.0137 -0.0731
 9242SOL    HW239186   0.904   2.447   8.550  0.2484 -0.7298 -1.6022
 9243SOL     OW39187   1.442   1.174   2.884  0.4713  0.0425  0.1587
 9243SOL    HW139188   1.527   1.191   2.844  1.6952 -1.1654  2.2637
 9243SOL    HW239189   1.407   1.260   2.860 -0.5428 -0.3685  0.1601
 9244SOL     OW39190   4.217   3.300   5.160  0.6403 -0.2926  0.0026
 9244SOL    HW139191   4.206   3.392   5.185 -1.2568 -0.1516 -1.3763
 9244SOL    HW239192   4.304   3.306   5.120  0.0148 -0.5537 -1.3744
 9245SOL     OW39193   3.394   1.908   6.231  0.5774  0.3592 -0.1023
 9245SOL    HW139194   3.395   1.984   6.288  2.2312  0.0693  0.2477
 9245SOL    HW239195   3.391   1.832   6.290 -0.0253 -0.1639 -0.7963
 9246SOL     OW39196   0.469   2.869   2.502 -0.0362 -0.2805  0.0173
 9246SOL    HW139197   0.418   2.910   2.432  3.0798  2.1828 -0.8375
 9246SOL    HW239198   0.411   2.794   2.512  0.4242 -0.3001  2.4679
 9247SOL     OW39199   1.594   1.097   5.428 -0.2301  0.3247  0.3561
 9247SOL    HW139200   1.683   1.124   5.405  1.3922 -4.7764  0.5972
 9247SOL    HW239201   1.597   1.030   5.360  1.9158  1.9344 -1.1616
 9248SOL     OW39202   1.422   0.353   9.440  0.0211 -0.0627  0.4689
 9248SOL    HW139203   1.497   0.412   9.450  0.5410 -0.5559 -0.5778
 9248SOL    HW239204   1.389   0.366   9.352 -0.0103  1.1734  0.6662
 9249SOL     OW39205   2.683   2.090   3.748 -0.5652  0.0637 -0.3355
 9249SOL    HW139206   2.681   2.084   3.652 -0.7980  0.0376 -0.3294
 9249SOL    HW239207   2.747   2.025   3.775 -1.0925  0.8442  2.7702
 9250SOL     OW39208   4.622   0.671  16.429  0.1669  0.1900 -0.1118
 9250SOL    HW139209   4.621   0.664  16.524  2.1243 -1.3267 -0.2069
 9250SOL    HW239210   4.566   0.745  16.402 -0.2384 -0.0714  0.0079
 9251SOL     OW39211   3.257   2.134   1.578 -0.3820 -0.0114  0.0665
 9251SOL    HW139212   3.268   2.052   1.530 -1.1163 -0.4155  0.5971
 9251SOL    HW239213   3.189   2.180   1.528 -0.4090  0.9337  0.9810
 9252SOL     OW39214   1.076   0.678   4.801  0.0062  0.3183 -0.3595
 9252SOL    HW139215   1.166   0.703   4.777  0.7820 -1.1064  1.1285
 9252SOL    HW239216   1.044   0.759   4.840  0.5107  1.4995 -2.3609
 9253SOL     OW39217   4.286   2.580   1.867  0.1953 -0.6695  0.1594
 9253SOL    HW139218   4.346   2.560   1.795 -3.0073 -1.1675 -2.3945
 9253SOL    HW239219   4.240   2.661   1.847  0.6364 -0.3035  0.6425
 9254SOL     OW39220   3.270   3.295   3.193  0.1825 -0.3542  0.3233
 9254SOL    HW139221   3.205   3.360   3.166 -0.3857  0.3204  3.2888
 9254SOL    HW239222   3.349   3.347   3.208  0.1678  0.1666 -1.3633
 9255SOL     OW39223   3.457   1.895   7.695 -0.1433  0.4771  0.5157
 9255SOL    HW139224   3.433   1.927   7.608 -2.1670 -0.0484  0.8612
 9255SOL    HW239225   3.539   1.943   7.698  1.0816 -1.6017  0.2910
 9256SOL     OW39226   2.269   1.290   4.886 -0.1102 -0.4164  0.0660
 9256SOL    HW139227   2.360   1.319   4.881  0.3256 -1.9735 -1.0418
 9256SOL    HW239228   2.243   1.333   4.804  0.2749 -0.0666  0.1338
 9257SOL     OW39229   1.147   1.972   3.003 -0.3998 -0.3871 -0.0641
 9257SOL    HW139230   1.106   1.886   3.012  0.0604 -0.4131  1.7375
 9257SOL    HW239231   1.227   1.943   2.960 -0.0144  1.9787 -0.9906
 9258SOL     OW39232   4.168   0.180   7.275  0.4160  0.1513 -0.1996
 9258SOL    HW139233   4.201   0.255   7.324 -0.8061 -0.1228  1.0671
 9258SOL    HW239234   4.075   0.177   7.299  0.0345 -2.4609 -1.9226
 9259SOL     OW39235   3.551   2.502   1.114  0.2931  0.4445 -0.0588
 9259SOL    HW139236   3.604   2.576   1.146 -0.3434  0.0699  1.8364
 9259SOL    HW239237   3.472   2.514   1.166  0.2454 -1.2329  0.2641
 9260SOL     OW39238   3.505   1.363   3.399 -0.3936 -0.0321  0.3978
 9260SOL    HW139239   3.411   1.380   3.403 -0.5985 -1.1389  0.2998
 9260SOL    HW239240   3.544   1.448   3.377 -1.2090  0.9370  2.6725
 9261SOL     OW39241   2.310   0.672   5.898 -0.5777  0.1068  0.0704
 9261SOL    HW139242   2.325   0.722   5.978 -0.3042 -2.0674  1.4013
 9261SOL    HW239243   2.251   0.604   5.930  0.3032 -1.6570 -2.0245
 9262SOL     OW39244   4.597   1.846   5.828 -0.2576  0.7185 -0.4885
 9262SOL    HW139245   4.523   1.856   5.769 -1.8472  1.1948  1.5644
 9262SOL    HW239246   4.587   1.759   5.867  2.1007 -0.1446 -1.7723
 9263SOL     OW39247   3.605   1.204  12.801 -0.0343  0.0527 -0.5411
 9263SOL    HW139248   3.608   1.173  12.891  0.2840  3.8922  0.7574
 9263SOL    HW239249   3.660   1.132  12.768 -0.7250 -1.0998  0.8336
 9264SOL     OW39250   2.879   1.262   0.024 -0.5335  0.3997 -0.8009
 9264SOL    HW139251   2.859   1.344  17.672 -3.2516  0.2103  0.1018
 9264SOL    HW239252   2.857   1.280   0.115  0.0843  1.0653 -0.7835
 9265SOL     OW39253   1.137   2.798  15.889  0.4959  0.2693  0.0513
 9265SOL    HW139254   1.094   2.850  15.958 -0.6507 -0.7764  0.1137
 9265SOL    HW239255   1.182   2.743  15.953  3.1214  3.7093  1.1886
 9266SOL     OW39256   4.270   2.450   1.386  0.2171  0.0561  0.1627
 9266SOL    HW139257   4.263   2.385   1.456 -1.5595 -0.4227 -0.4607
 9266SOL    HW239258   4.196   2.418   1.334  1.1985 -2.1945  0.1536
 9267SOL     OW39259   3.486   1.179   7.604 -0.1766 -0.1284  0.3592
 9267SOL    HW139260   3.546   1.182   7.529 -0.8131 -1.3510 -0.2006
 9267SOL    HW239261   3.407   1.157   7.554  0.9051 -0.5369 -1.1918
 9268SOL     OW39262   0.831   3.202   0.128  0.7572 -0.4111  0.5141
 9268SOL    HW139263   0.837   3.117   0.171  1.3739 -0.2826  0.6789
 9268SOL    HW239264   0.912   3.245   0.154  0.4905  1.1103 -1.1754
 9269SOL     OW39265   2.126   3.473   2.134 -0.2136  0.0560 -0.7497
 9269SOL    HW139266   2.086   3.400   2.087 -0.9051  0.1139 -0.2491
 9269SOL    HW239267   2.199   3.419   2.164 -0.6222  0.9462  1.8385
 9270SOL     OW39268   0.102   2.398  13.232 -0.1314  0.2397 -0.2230
 9270SOL    HW139269   0.187   2.443  13.242  0.8558 -1.1951 -2.2592
 9270SOL    HW239270   0.041   2.468  13.253  0.1196  0.7729 -1.2877
 9271SOL     OW39271   0.115   0.670  16.086 -0.5249 -0.1160 -0.2845
 9271SOL    HW139272   0.138   0.611  16.014  0.7096  1.2438 -0.9971
 9271SOL    HW239273   0.174   0.741  16.059  0.3849 -0.4778  0.7109
 9272SOL     OW39274   0.414   3.213   4.551  0.8912  0.0547 -0.2438
 9272SOL    HW139275   0.360   3.213   4.472 -1.4990 -0.7252  1.3891
 9272SOL    HW239276   0.501   3.230   4.516  1.1426  1.3670  1.0150
 9273SOL     OW39277   1.115   4.096  17.160  1.5478 -0.2464  0.3666
 9273SOL    HW139278   1.040   4.041  17.139 -0.3194  1.7618  1.7625
 9273SOL    HW239279   1.186   4.032  17.165  0.9937 -1.0459 -2.3527
 9274SOL     OW39280   1.587   4.085  11.535  0.0857 -0.1943 -0.4958
 9274SOL    HW139281   1.513   4.099  11.594  0.0950  0.1022 -0.5561
 9274SOL    HW239282   1.550   4.082  11.447  1.6590 -3.5963 -1.0556
 9275SOL     OW39283   3.240   0.489  14.873 -0.1573 -0.4152 -0.3419
 9275SOL    HW139284   3.255   0.526  14.786 -1.5674  0.8375 -0.0571
 9275SOL    HW239285   3.171   0.547  14.906  1.2268  1.3954 -0.6223
 9276SOL     OW39286   0.054   2.703   2.051 -0.1895 -0.1870 -0.0703
 9276SOL    HW139287   0.135   2.653   2.037 -0.0623  0.8281 -2.8632
 9276SOL    HW239288   0.034   2.691   2.144 -1.6808  0.1279 -0.3437
 9277SOL     OW39289   1.970   1.053   5.185  0.0495 -0.4820  0.1137
 9277SOL    HW139290   1.917   1.120   5.142  2.2210 -0.1779 -2.0960
 9277SOL    HW239291   1.906   0.982   5.182  0.6566 -1.0823  1.1965
 9278SOL     OW39292   2.874   2.976   3.108  0.0181  0.1664  0.0441
 9278SOL    HW139293   2.904   3.037   3.175 -0.1336 -0.0550  0.3155
 9278SOL    HW239294   2.867   3.029   3.029 -2.1213  0.7844  0.6556
 9279SOL     OW39295   4.376   0.415   7.993  0.0374 -0.4140 -0.2240
 9279SOL    HW139296   4.420   0.430   7.909 -1.1009 -1.0754 -0.9493
 9279SOL    HW239297   4.419   0.483   8.044  1.5300 -0.4304 -1.4401
 9280SOL     OW39298   0.811   2.405   5.828  0.4175  0.5169 -0.4055
 9280SOL    HW139299   0.845   2.434   5.912 -2.1638  2.5606 -0.0613
 9280SOL    HW239300   0.840   2.478   5.773  0.4775 -0.4206 -1.6305
 9281SOL     OW39301   2.818   3.249   4.624  0.1886 -0.1005 -0.2855
 9281SOL    HW139302   2.755   3.250   4.696 -0.1539  1.1636 -0.6094
 9281SOL    HW239303   2.786   3.321   4.570  1.1298 -0.4075 -1.2492
 9282SOL     OW39304   3.301   2.693   0.261 -0.0300 -0.2814  0.3613
 9282SOL    HW139305   3.206   2.704   0.267 -0.2483 -1.3797 -0.9035
 9282SOL    HW239306   3.336   2.731   0.342 -0.5054 -1.5531  1.1579
 9283SOL     OW39307   1.483   3.964   2.695 -0.3473 -0.3848  0.1768
 9283SOL    HW139308   1.524   4.050   2.683 -0.1062 -0.6769 -1.0422
 9283SOL    HW239309   1.550   3.910   2.654 -0.1076 -0.9512  1.3070
 9284SOL     OW39310   2.439   4.156  14.403 -0.0284  0.4214  0.5325
 9284SOL    HW139311   2.374   4.088  14.386 -0.9015  0.9205  1.9555
 9284SOL    HW239312   2.382   4.233  14.399 -1.2315 -0.4538  1.0755
 9285SOL     OW39313   3.398   2.655  13.413 -0.2993 -0.0113  0.0111
 9285SOL    HW139314   3.386   2.572  13.367  0.5555 -0.2134  0.1388
 9285SOL    HW239315   3.458   2.691  13.347  1.0338 -1.1879  0.5857
 9286SOL     OW39316   1.177   1.438   8.603 -0.4677  0.1453 -0.2169
 9286SOL    HW139317   1.158   1.531   8.596  0.0612  0.2951  0.3103
 9286SOL    HW239318   1.248   1.439   8.539 -1.0935  0.7376 -0.8895
 9287SOL     OW39319   3.662   2.300  10.049 -0.3520  0.0612 -0.0332
 9287SOL    HW139320   3.657   2.242  10.124 -1.9986  2.7063  1.9045
 9287SOL    HW239321   3.757   2.298  10.036 -0.0993 -0.8295  2.0374
 9288SOL     OW39322   3.128   1.420   0.438 -0.4215 -0.6487 -0.0367
 9288SOL    HW139323   3.070   1.485   0.398  1.6693  0.2488 -1.5850
 9288SOL    HW239324   3.216   1.456   0.445 -1.4664  1.6088  1.4828
 9289SOL     OW39325   3.227   3.541   3.473  0.2835  0.1328  0.1519
 9289SOL    HW139326   3.260   3.590   3.549 -1.6699  1.3204  0.2582
 9289SOL    HW239327   3.134   3.567   3.470  0.7180  2.0404  3.0829
 9290SOL     OW39328   3.401   0.247   3.200 -0.1532 -0.5596  0.2276
 9290SOL    HW139329   3.317   0.249   3.155  0.8322  2.6866 -1.4486
 9290SOL    HW239330   3.460   0.196   3.145 -0.1096 -0.7182  0.4191
 9291SOL     OW39331   4.686   4.112   4.952  0.1497  0.1663 -0.1860
 9291SOL    HW139332   4.714   4.145   5.038 -1.5601  2.0129 -0.3515
 9291SOL    HW239333   0.021   4.035   4.950 -0.4736 -0.3072 -0.0051
 9292SOL     OW39334   3.105   3.206   7.616  0.1953  0.0774 -0.6920
 9292SOL    HW139335   3.189   3.206   7.663 -0.0191  0.0194 -0.3081
 9292SOL    HW239336   3.060   3.259   7.682  0.2956 -2.2835  1.2977
 9293SOL     OW39337   0.619   0.765   0.467 -0.4512 -0.2381  0.0210
 9293SOL    HW139338   0.690   0.801   0.415 -0.8288 -0.1958 -0.4666
 9293SOL    HW239339   0.625   0.682   0.421 -2.5482 -0.0599 -0.5764
 9294SOL     OW39340   1.379   3.934   8.344 -0.1581 -0.1381 -0.0489
 9294SOL    HW139341   1.413   3.905   8.259  0.7672  0.5848  0.0879
 9294SOL    HW239342   1.363   3.848   8.383 -2.4178  0.8493  1.2333
 9295SOL     OW39343   0.988   4.209   5.995  0.1105 -0.3893  0.5702
 9295SOL    HW139344   1.032   4.265   5.932 -1.3300 -1.3594 -1.3035
 9295SOL    HW239345   0.959   4.272   6.061 -0.2989  0.2090 -0.1930
 9296SOL     OW39346   1.279   1.442  10.643 -0.2642 -0.0853  0.5662
 9296SOL    HW139347   1.257   1.511  10.580 -1.5278  0.0569  1.1639
 9296SOL    HW239348   1.209   1.381  10.621  0.3393 -0.4777 -0.2291
 9297SOL     OW39349   2.258   1.074   9.514 -0.1969 -0.8694 -0.4440
 9297SOL    HW139350   2.321   1.020   9.467  0.1972 -1.2160  0.4792
 9297SOL    HW239351   2.215   1.006   9.566  0.9895  1.0495  3.0455
 9298SOL     OW39352   4.617   0.302   9.901 -0.3115 -0.2353 -0.1019
 9298SOL    HW139353   4.578   0.270   9.820 -1.9818  0.6574  0.3665
 9298SOL    HW239354   4.688   0.355   9.865 -1.2760  0.5159 -0.8807
 9299SOL     OW39355   0.171   0.429  13.820  0.0371  0.5670 -0.2361
 9299SOL    HW139356   0.233   0.428  13.748  0.8323 -0.5118  0.4705
 9299SOL    HW239357   0.223   0.471  13.889 -1.1335  1.0710  0.3451
 9300SOL     OW39358   2.599   0.652   7.738  0.2273 -0.1337  0.1743
 9300SOL    HW139359   2.558   0.702   7.809 -3.1824 -0.4645 -1.5459
 9300SOL    HW239360   2.559   0.696   7.662  1.4944 -0.5061 -0.7053
 9301SOL     OW39361   4.360   4.627   8.956  0.3790 -0.1692 -0.5584
 9301SOL    HW139362   4.387   4.718   8.952 -0.6418  0.1116 -1.0859
 9301SOL    HW239363   4.386   4.592   8.871 -0.7143 -0.5700 -0.7304
 9302SOL     OW39364   4.315   1.424   5.746  0.3234  0.2509 -0.7257
 9302SOL    HW139365   4.355   1.471   5.672  2.5304  1.5782  1.3148
 9302SOL    HW239366   4.238   1.390   5.700 -0.9955  0.3706  1.3903
 9303SOL     OW39367   0.146   3.562   9.868  0.8015  0.2191 -1.0415
 9303SOL    HW139368   0.096   3.522   9.938  0.3935 -0.1139 -1.5223
 9303SOL    HW239369   0.093   3.639   9.849  1.8017  0.6607 -2.1469
 9304SOL     OW39370   2.459   1.861  17.436  0.1568 -0.5224  0.5712
 9304SOL    HW139371   2.454   1.951  17.468  0.5408 -0.2203 -0.1936
 9304SOL    HW239372   2.424   1.819  17.514  1.4756 -2.6383  0.0155
 9305SOL     OW39373   0.797   1.154   5.786 -0.1898  0.2521 -0.2239
 9305SOL    HW139374   0.748   1.175   5.865  0.0395  3.9462 -1.0348
 9305SOL    HW239375   0.784   1.060   5.795 -0.6681  0.4954  1.5476
 9306SOL     OW39376   4.438   2.215   4.933 -0.3090  0.9773  0.1971
 9306SOL    HW139377   4.343   2.209   4.921 -0.1710  0.6575 -0.7752
 9306SOL    HW239378   4.440   2.288   4.995  0.9605  2.0628 -1.1079
 9307SOL     OW39379   3.212   4.043   1.613 -0.3241  0.5808  0.4169
 9307SOL    HW139380   3.302   4.052   1.646 -0.3960  1.2303  0.4252
 9307SOL    HW239381   3.173   4.062   1.698  3.2687 -0.6397  2.3711
 9308SOL     OW39382   3.334   0.808   2.231 -0.4875  0.0313 -0.4736
 9308SOL    HW139383   3.302   0.756   2.158 -0.4382  0.6776 -0.9582
 9308SOL    HW239384   3.383   0.744   2.282  0.7133 -0.7705 -2.6575
 9309SOL     OW39385   2.313   3.302   5.883 -0.4173  0.3271 -0.0216
 9309SOL    HW139386   2.300   3.226   5.941  1.8262  0.7919  1.1090
 9309SOL    HW239387   2.368   3.367   5.927 -0.5913 -0.8910  1.9981
 9310SOL     OW39388   3.019   3.800  10.025  0.1776  0.1967 -0.0677
 9310SOL    HW139389   3.076   3.775  10.097 -1.3471 -0.4205  0.9388
 9310SOL    HW239390   2.993   3.877  10.074  0.3841 -0.3460  0.8916
 9311SOL     OW39391   1.947   2.538   3.922  0.1518  0.6749  0.1357
 9311SOL    HW139392   1.992   2.608   3.875 -0.2165  0.9037  0.1196
 9311SOL    HW239393   2.026   2.486   3.936  0.4675  1.2500  0.4472
 9312SOL     OW39394   2.903   2.365   7.184  0.2833 -0.7288  0.2969
 9312SOL    HW139395   2.997   2.365   7.172  0.3345 -2.1170  0.7142
 9312SOL    HW239396   2.885   2.273   7.202  1.1059 -0.7765  0.8522
 9313SOL     OW39397   2.344   3.962   2.572 -0.6721  0.0606  0.3816
 9313SOL    HW139398   2.340   3.904   2.648 -0.9376 -1.1357 -0.5491
 9313SOL    HW239399   2.282   4.033   2.584 -1.0735  0.0226 -1.5083
 9314SOL     OW39400   2.312   3.601   6.875 -0.0201  0.7193 -0.2628
 9314SOL    HW139401   2.221   3.603   6.905 -1.0849 -3.0852 -3.2648
 9314SOL    HW239402   2.318   3.513   6.839 -0.9714  0.3867  0.3990
 9315SOL     OW39403   4.436   2.861   3.081  0.1429  0.1562  0.1226
 9315SOL    HW139404   4.370   2.887   3.146  0.2560  1.1837 -0.1720
 9315SOL    HW239405   4.504   2.833   3.142 -0.5442 -1.9235 -0.0823
 9316SOL     OW39406   0.293   3.699  12.951 -0.4595  0.0239 -0.5321
 9316SOL    HW139407   0.223   3.680  12.888 -0.6103  0.8266 -0.6099
 9316SOL    HW239408   0.312   3.792  12.937 -0.6761  0.6012  3.0174
 9317SOL     OW39409   2.672   4.312   6.839  0.3657  0.0189  0.8664
 9317SOL    HW139410   2.642   4.401   6.859  0.2661  0.3990 -0.9399
 9317SOL    HW239411   2.604   4.286   6.777  0.2255  0.3724  0.8697
 9318SOL     OW39412   2.116   3.079  16.442 -0.2071 -0.2180 -0.3510
 9318SOL    HW139413   2.167   3.001  16.422  1.3614  0.5044  0.8697
 9318SOL    HW239414   2.041   3.064  16.384 -0.4590  1.6484 -0.4868
 9319SOL     OW39415   0.271   3.677  15.461 -0.2646 -0.2582 -0.1915
 9319SOL    HW139416   0.354   3.640  15.491  0.1995  1.2196  0.3811
 9319SOL    HW239417   0.226   3.609  15.411 -2.2876  0.4293  0.7053
 9320SOL     OW39418   3.454   0.840   3.684  0.1223  0.2032  0.3916
 9320SOL    HW139419   3.477   0.909   3.746  0.8410  0.3435 -0.0304
 9320SOL    HW239420   3.480   0.762   3.733  0.2871 -1.2678 -2.0366
 9321SOL     OW39421   3.777   1.166  11.531  0.2828  0.5421  0.0172
 9321SOL    HW139422   3.796   1.216  11.452 -0.0094 -0.5500 -0.7554
 9321SOL    HW239423   3.792   1.073  11.513 -0.7692  0.5227 -0.7792
 9322SOL     OW39424   0.148   1.347  14.625  0.0825 -0.2959  0.1534
 9322SOL    HW139425   0.132   1.422  14.682 -0.6353 -0.7588  0.5607
 9322SOL    HW239426   0.059   1.316  14.610  0.6301 -1.7332 -0.0755
 9323SOL     OW39427   3.480   3.168   8.725  0.3465 -0.2454  0.4400
 9323SOL    HW139428   3.428   3.240   8.688  0.5888 -0.1844  0.2166
 9323SOL    HW239429   3.415   3.125   8.780 -0.4802  1.2659  0.6588
 9324SOL     OW39430   4.255   0.457  13.091  0.2775 -0.1300  0.3463
 9324SOL    HW139431   4.252   0.486  12.999 -1.5215 -0.3583  0.3147
 9324SOL    HW239432   4.348   0.441  13.104  0.5028 -0.4885 -1.6292
 9325SOL     OW39433   1.313   3.452   2.427  0.0576  0.0991  0.4679
 9325SOL    HW139434   1.353   3.453   2.339 -0.3001 -0.1941  0.3041
 9325SOL    HW239435   1.339   3.366   2.461  0.2750 -0.0837 -0.1570
 9326SOL     OW39436   0.444   0.325   6.149  0.4236  0.5365  0.1112
 9326SOL    HW139437   0.437   0.231   6.168  1.4092  0.4729  0.1766
 9326SOL    HW239438   0.363   0.348   6.193 -0.9495 -1.9426 -1.1001
 9327SOL     OW39439   4.168   3.677   8.416  0.5793  0.0033  0.8351
 9327SOL    HW139440   4.137   3.767   8.410 -0.2490 -0.3111  0.3772
 9327SOL    HW239441   4.140   3.661   8.506 -0.6511 -2.4671  0.0034
 9328SOL     OW39442   0.663   0.330   8.036  0.1580 -0.4942 -0.7088
 9328SOL    HW139443   0.576   0.368   8.046 -0.5592 -2.5030  0.8352
 9328SOL    HW239444   0.680   0.331   7.941 -1.3499  3.2474 -0.9174
 9329SOL     OW39445   4.665   1.319   5.262 -0.4075 -0.1348  0.3295
 9329SOL    HW139446   0.034   1.343   5.245 -0.4660  0.8680  1.4086
 9329SOL    HW239447   4.620   1.328   5.178  0.8631  0.4609 -0.2991
 9330SOL     OW39448   2.128   3.160   8.849 -0.0979  0.0507  0.1198
 9330SOL    HW139449   2.163   3.074   8.826 -1.5819 -0.1291 -1.4756
 9330SOL    HW239450   2.193   3.191   8.913 -0.0635  0.8419 -0.3024
 9331SOL     OW39451   4.202   4.051   5.029 -0.1821 -0.0877  0.4161
 9331SOL    HW139452   4.260   4.035   5.103  0.5758 -1.0653 -0.3821
 9331SOL    HW239453   4.203   4.144   5.007 -0.0206 -0.5921 -1.7466
 9332SOL     OW39454   2.559   2.388   1.063  0.6573  0.2953  0.3247
 9332SOL    HW139455   2.507   2.443   1.122  1.2758  0.5135  0.6717
 9332SOL    HW239456   2.594   2.328   1.129  0.5838 -1.5079 -1.2901
 9333SOL     OW39457   1.259   1.456  11.863  0.4097  0.6350  0.3709
 9333SOL    HW139458   1.303   1.412  11.936 -0.3323  1.2437  1.1741
 9333SOL    HW239459   1.221   1.535  11.900 -1.2255  1.2496 -2.6274
 9334SOL     OW39460   2.216   1.350   6.570 -0.1871  0.0418 -0.2385
 9334SOL    HW139461   2.232   1.415   6.502  0.4163 -1.2958 -1.3764
 9334SOL    HW239462   2.199   1.410   6.643  1.0976  0.6717 -0.4650
 9335SOL     OW39463   0.756   0.161   5.490 -0.1737 -0.1113  0.5229
 9335SOL    HW139464   0.709   0.243   5.481  2.3783  1.4171  1.0876
 9335SOL    HW239465   0.824   0.191   5.551 -0.3922  1.3530  0.0216
 9336SOL     OW39466   1.206   3.075   3.357  0.6788  0.0001  0.0966
 9336SOL    HW139467   1.143   3.141   3.329  2.1548  1.8775  1.2292
 9336SOL    HW239468   1.203   3.012   3.285 -0.2999  0.6759 -0.4506
 9337SOL     OW39469   2.160   0.828   8.440  0.2350  0.3385 -0.0703
 9337SOL    HW139470   2.169   0.734   8.453 -0.6071  0.2787  0.0915
 9337SOL    HW239471   2.136   0.856   8.529 -1.8810 -0.4336 -0.3955
 9338SOL     OW39472   3.092   1.001   8.930  0.2335 -0.0344 -0.1849
 9338SOL    HW139473   3.071   1.037   9.017  0.4780 -0.9823  0.2680
 9338SOL    HW239474   3.129   0.915   8.949  1.2522  0.0720 -1.7560
 9339SOL     OW39475   0.151   2.917  16.877  0.0269  0.6910 -0.1393
 9339SOL    HW139476   0.217   2.909  16.808 -1.7679 -3.3492 -1.3740
 9339SOL    HW239477   0.102   2.997  16.858 -1.3089  0.2707  1.5411
 9340SOL     OW39478   3.305   2.831  14.487  0.0282  0.1481  0.1577
 9340SOL    HW139479   3.217   2.801  14.466  1.0953 -0.7915 -2.9709
 9340SOL    HW239480   3.291   2.894  14.557  0.0340 -0.1672  0.4463
 9341SOL     OW39481   3.984   0.009   2.927  0.2099 -0.8041  0.0362
 9341SOL    HW139482   3.948   0.084   2.880 -0.5585 -1.3292 -0.2094
 9341SOL    HW239483   4.057   0.046   2.977 -1.7238  0.8919  1.5722
 9342SOL     OW39484   0.673   2.698   3.707 -0.1031  0.6318 -0.1171
 9342SOL    HW139485   0.713   2.785   3.710  0.0585  0.5440  0.3311
 9342SOL    HW239486   0.618   2.715   3.631  0.6473  0.4546 -0.7063
 9343SOL     OW39487   4.098   1.103   0.445 -0.1342 -0.1047  0.5768
 9343SOL    HW139488   4.163   1.133   0.509 -0.7209 -0.5182  1.3606
 9343SOL    HW239489   4.136   1.031   0.395 -0.5876  0.6583 -0.8565
 9344SOL     OW39490   4.485   4.647  16.516  0.0798 -0.0812 -0.2798
 9344SOL    HW139491   4.467   4.655  16.609  1.7588  0.8735 -0.0396
 9344SOL    HW239492   4.431   4.571  16.496  0.4642 -0.5535  0.4835
 9345SOL     OW39493   0.325   1.399   1.081 -0.0123 -0.1337 -0.7533
 9345SOL    HW139494   0.246   1.428   1.128  1.1281  2.2571 -0.3074
 9345SOL    HW239495   0.287   1.378   0.996 -3.0352  3.1520 -0.2243
 9346SOL     OW39496   1.057   3.470   2.418  0.6345  0.2045 -0.9770
 9346SOL    HW139497   1.049   3.556   2.460  1.1240 -0.5054  0.5547
 9346SOL    HW239498   1.151   3.469   2.398  0.5230  2.0941 -1.5891
 9347SOL     OW39499   0.967   0.946   7.283 -0.3971 -0.1519  0.4760
 9347SOL    HW139500   0.968   0.874   7.220 -0.9099  1.4797 -1.4049
 9347SOL    HW239501   0.878   0.941   7.319  0.1237 -0.6664  1.6900
 9348SOL     OW39502   3.948   0.531  10.159  0.3526  0.7148 -0.0908
 9348SOL    HW139503   3.934   0.468  10.088 -0.3873  1.0901 -0.2804
 9348SOL    HW239504   3.888   0.491  10.223 -0.0699 -0.3825 -1.1841
 9349SOL     OW39505   3.484   2.599   4.243 -0.5421 -0.1816  0.2362
 9349SOL    HW139506   3.397   2.635   4.262 -1.1279 -0.8228 -1.2960
 9349SOL    HW239507   3.475   2.507   4.217  1.7402 -0.2304 -0.3416
 9350SOL     OW39508   4.022   0.798   7.367  0.1169 -0.0664  0.2940
 9350SOL    HW139509   4.082   0.870   7.387 -1.3171  1.2220  0.0053
 9350SOL    HW239510   3.969   0.796   7.447  0.4427  0.9927  0.5472
 9351SOL     OW39511   3.987   4.347   1.189  0.4458 -0.4287 -0.0925
 9351SOL    HW139512   3.987   4.326   1.282 -0.8326  1.9046  0.4534
 9351SOL    HW239513   3.963   4.439   1.177  1.9372  0.0174  0.4080
 9352SOL     OW39514   4.086   3.344   7.530  0.5673 -0.1661  0.6758
 9352SOL    HW139515   4.065   3.431   7.495 -2.6954 -1.9045 -1.7320
 9352SOL    HW239516   4.092   3.296   7.447 -1.4577  0.4621  0.1591
 9353SOL     OW39517   4.589   1.996   3.807 -0.0434 -0.1826 -0.1954
 9353SOL    HW139518   4.683   1.982   3.821 -0.7906 -2.9333  2.1616
 9353SOL    HW239519   4.557   1.945   3.882  0.3017  0.0684  0.1250
 9354SOL     OW39520   2.426   0.800   8.602  0.0115  0.4366  0.4671
 9354SOL    HW139521   2.480   0.807   8.681  0.8555  2.5866 -0.3140
 9354SOL    HW239522   2.366   0.870   8.626 -0.5124  0.0173  0.3974
 9355SOL     OW39523   3.669   0.403   2.538 -0.3027 -0.1511  0.9383
 9355SOL    HW139524   3.670   0.445   2.452  1.1598 -1.8053  0.1593
 9355SOL    HW239525   3.615   0.467   2.585 -0.9355 -0.0737  0.0952
 9356SOL     OW39526   3.146   4.108   0.321 -1.1725  0.0504  0.4245
 9356SOL    HW139527   3.120   4.185   0.272  1.0785 -0.4785 -1.6198
 9356SOL    HW239528   3.218   4.080   0.265 -2.2397 -3.1365  0.6377
 9357SOL     OW39529   4.666   2.691   1.796 -0.1016  0.0613 -0.0898
 9357SOL    HW139530   4.688   2.735   1.878 -0.9335  0.1381  0.0984
 9357SOL    HW239531   0.023   2.704   1.745  0.9823  0.3987  1.7059
 9358SOL     OW39532   1.059   3.466   5.531 -0.4664  0.0601  0.2108
 9358SOL    HW139533   1.086   3.392   5.477  1.1675 -0.8776  2.3396
 9358SOL    HW239534   1.118   3.472   5.606 -0.0676  1.8517 -0.2365
 9359SOL     OW39535   2.150   3.998   2.313 -0.0315  0.5425  0.1604
 9359SOL    HW139536   2.178   4.056   2.384 -0.8951  0.4855  0.5413
 9359SOL    HW239537   2.202   4.023   2.237 -1.6269  0.6331 -0.8773
 9360SOL     OW39538   0.331   2.097   2.403  0.4052  0.0875 -0.2189
 9360SOL    HW139539   0.345   2.002   2.401  0.3460  0.0309  1.8396
 9360SOL    HW239540   0.245   2.102   2.362  0.2393  1.6706  0.2987
 9361SOL     OW39541   1.663   0.432  11.287 -0.3819  0.2005 -0.0056
 9361SOL    HW139542   1.617   0.515  11.295  0.3150  0.8264 -2.5095
 9361SOL    HW239543   1.637   0.402  11.200  0.2796  2.0083 -0.8201
 9362SOL     OW39544   0.081   4.028   9.352 -0.4549  0.5034  0.0604
 9362SOL    HW139545   0.072   4.121   9.373  2.0064  0.4520  1.3748
 9362SOL    HW239546   0.128   4.035   9.270  0.6023  2.8089  0.8755
 9363SOL     OW39547   2.082   1.072  10.759  0.3741  0.6963  0.1341
 9363SOL    HW139548   2.098   1.115  10.843  1.0085  0.9327 -0.1049
 9363SOL    HW239549   2.113   1.137  10.695  0.7358  0.9234  0.5400
 9364SOL     OW39550   0.988   4.564   5.325  0.4191 -0.0730 -0.1757
 9364SOL    HW139551   0.984   4.471   5.303 -0.1563 -0.1297  0.1508
 9364SOL    HW239552   0.996   4.610   5.241 -0.4876 -0.0516 -0.2507
 9365SOL     OW39553   3.982   1.446  15.898 -0.9681  0.3504  0.4880
 9365SOL    HW139554   4.009   1.537  15.906 -1.9659  0.8034 -1.2305
 9365SOL    HW239555   4.059   1.396  15.870 -1.2260 -0.3487  1.0163
 9366SOL     OW39556   1.743   2.053   0.098  0.1523 -0.0776 -0.3264
 9366SOL    HW139557   1.832   2.021   0.109  0.0883  0.4084  1.4981
 9366SOL    HW239558   1.749   2.100   0.014  0.6404  2.0162  0.8874
 9367SOL     OW39559   0.311   4.656   6.913  0.4266  0.1538 -0.2642
 9367SOL    HW139560   0.371   4.601   6.963  0.8773  0.4971 -0.4213
 9367SOL    HW239561   0.373   4.715   6.869 -0.6608  3.1142  2.1303
 9368SOL     OW39562   3.082   4.237   4.389  0.0080 -0.1173 -0.5662
 9368SOL    HW139563   3.020   4.164   4.390  1.5837 -1.4717 -3.5446
 9368SOL    HW239564   3.017   4.305   4.369 -1.6462 -1.3285  0.6335
 9369SOL     OW39565   0.045   4.471  13.751  0.4130 -0.7761 -0.5000
 9369SOL    HW139566   0.015   4.554  13.787  1.6709 -0.0368 -1.1720
 9369SOL    HW239567   0.044   4.428  13.836 -0.7462 -2.1200 -1.1914
 9370SOL     OW39568   3.402   1.108   5.729  0.2580  0.0641 -0.6139
 9370SOL    HW139569   3.477   1.145   5.683 -0.3090 -0.9204 -2.3243
 9370SOL    HW239570   3.362   1.051   5.663  0.3199  1.4513 -1.8413
 9371SOL     OW39571   1.179   2.945   3.118  0.3102 -0.6012 -0.3526
 9371SOL    HW139572   1.160   3.007   3.047  0.7737  0.3078  0.3199
 9371SOL    HW239573   1.162   2.864   3.070 -1.0649 -1.7514  2.0880
 9372SOL     OW39574   1.760   3.664   1.963  0.1900 -0.6650  0.3701
 9372SOL    HW139575   1.742   3.758   1.952  2.0716 -0.4369 -0.8301
 9372SOL    HW239576   1.695   3.633   2.025 -0.8182 -0.0488 -0.3816
 9373SOL     OW39577   0.700   0.359   8.534 -0.2550 -0.1238  0.0609
 9373SOL    HW139578   0.764   0.424   8.563 -1.5171  0.9696  0.3842
 9373SOL    HW239579   0.653   0.413   8.471  2.5742  0.2787 -1.7118
 9374SOL     OW39580   0.499   4.373   2.020 -0.1198 -0.0531  0.4843
 9374SOL    HW139581   0.509   4.288   2.062 -0.1968  0.3695  1.3524
 9374SOL    HW239582   0.458   4.364   1.934 -0.1778  0.5278  0.4488
 9375SOL     OW39583   1.783   3.533   3.266 -0.2827 -0.4522 -0.1073
 9375SOL    HW139584   1.728   3.455   3.272  0.0923 -0.7557 -0.6407
 9375SOL    HW239585   1.756   3.576   3.348  0.8511 -0.5587  0.3230
 9376SOL     OW39586   3.549   0.803  14.946 -0.6384 -0.8539 -0.0162
 9376SOL    HW139587   3.640   0.779  14.928  0.0873  0.9214  1.3284
 9376SOL    HW239588   3.559   0.896  14.967 -1.0544 -0.9620  0.6569
 9377SOL     OW39589   3.244   1.136   7.467 -0.0909 -0.0583 -0.3782
 9377SOL    HW139590   3.168   1.181   7.505  1.4787  2.0397  0.2648
 9377SOL    HW239591   3.244   1.184   7.383  0.7510  0.7079  0.0635
 9378SOL     OW39592   4.086   3.213  17.681  0.1862  0.2082  0.1710
 9378SOL    HW139593   4.120   3.286  17.629  0.4374  0.3950  0.6016
 9378SOL    HW239594   4.165   3.191   0.038  0.4314 -1.7199 -1.0534
 9379SOL     OW39595   2.766   3.626   5.804 -0.6455 -1.3026 -0.0041
 9379SOL    HW139596   2.725   3.694   5.750 -0.7275 -1.4567 -0.1377
 9379SOL    HW239597   2.695   3.561   5.809 -1.3332 -0.5686 -0.2205
 9380SOL     OW39598   1.358   0.687   6.876  0.0375 -0.0747 -0.3839
 9380SOL    HW139599   1.268   0.656   6.866 -1.0252  2.4554  1.2724
 9380SOL    HW239600   1.362   0.746   6.801 -1.0298  0.4918  0.0068
 9381SOL     OW39601   2.052   2.462   4.870 -0.4501 -0.3278 -0.5080
 9381SOL    HW139602   2.004   2.385   4.898 -0.5820  0.0348  0.2450
 9381SOL    HW239603   2.131   2.425   4.830  0.7595 -0.2364  1.8139
 9382SOL     OW39604   3.761   3.623   4.306  0.3615 -0.8892 -0.2919
 9382SOL    HW139605   3.751   3.529   4.323  0.2814 -0.6298  1.0870
 9382SOL    HW239606   3.671   3.655   4.312  0.3550 -0.7547 -1.1352
 9383SOL     OW39607   3.317   1.199   4.835 -0.0001  0.0020 -0.0548
 9383SOL    HW139608   3.369   1.278   4.847  0.7443 -0.8831  2.7857
 9383SOL    HW239609   3.307   1.188   4.741 -0.9590  0.5310 -0.0103
 9384SOL     OW39610   0.185   0.616  12.252 -0.6939 -0.0478 -0.8481
 9384SOL    HW139611   0.120   0.549  12.232  0.3382 -0.5789 -2.5115
 9384SOL    HW239612   0.237   0.611  12.171  0.0068 -1.4499 -0.3028
 9385SOL     OW39613   1.538   3.493   6.522 -0.3056 -0.3957  0.4821
 9385SOL    HW139614   1.610   3.433   6.540  0.2872  0.3639  0.6263
 9385SOL    HW239615   1.584   3.574   6.500 -1.4737  0.2648  0.4199
 9386SOL     OW39616   1.328   0.972   0.205  0.0028 -0.2861  0.6120
 9386SOL    HW139617   1.408   0.949   0.253 -0.6529  1.8608  2.7290
 9386SOL    HW239618   1.361   0.933   0.124 -0.2586 -0.3029  0.5160
 9387SOL     OW39619   2.496   1.571  10.358 -0.2409 -0.1815 -0.0637
 9387SOL    HW139620   2.496   1.602  10.448 -0.8122 -2.1061  0.5962
 9387SOL    HW239621   2.547   1.645  10.323 -0.2686  1.0057  2.3677
 9388SOL     OW39622   0.263   2.397   9.450  0.3404  0.0933  0.6668
 9388SOL    HW139623   0.179   2.411   9.495  0.6660  2.2547  0.6043
 9388SOL    HW239624   0.261   2.441   9.365 -0.1780 -0.6816  0.2752
 9389SOL     OW39625   0.868   4.299   3.713  0.0845 -0.6481  0.5848
 9389SOL    HW139626   0.813   4.323   3.638  0.8751  0.3495  0.3220
 9389SOL    HW239627   0.942   4.254   3.672 -0.1418 -1.2177  0.8001
 9390SOL     OW39628   3.388   2.127   6.372 -0.1017  0.0157  0.4518
 9390SOL    HW139629   3.329   2.201   6.388 -0.6306 -0.5316  1.0391
 9390SOL    HW239630   3.460   2.177   6.334  0.3379 -0.9026  0.0623
 9391SOL     OW39631   1.924   2.099   7.714  0.0480 -0.0378  0.5192
 9391SOL    HW139632   1.979   2.062   7.646 -0.0435 -1.0016  0.9662
 9391SOL    HW239633   1.861   2.152   7.665  1.2446  1.1583  0.2836
 9392SOL     OW39634   1.385   0.263   9.004  0.0952  0.0973  0.3597
 9392SOL    HW139635   1.344   0.292   9.086  0.1470  1.6050 -0.1404
 9392SOL    HW239636   1.452   0.201   9.035 -1.4093 -1.5936  0.1841
 9393SOL     OW39637   1.786   3.321   4.632  0.1405 -0.6882 -0.3356
 9393SOL    HW139638   1.829   3.235   4.631 -2.1820 -1.8488 -1.4592
 9393SOL    HW239639   1.707   3.311   4.578  1.1281 -0.3037 -1.8352
 9394SOL     OW39640   1.551   3.017   3.668 -0.4412  0.2502  0.7863
 9394SOL    HW139641   1.600   2.953   3.719  1.6500 -1.0929 -2.9802
 9394SOL    HW239642   1.506   2.975   3.595 -1.8825  1.4276  0.9818
 9395SOL     OW39643   3.357   2.991  12.736  0.0894  0.2165 -0.7999
 9395SOL    HW139644   3.384   3.079  12.760 -0.6831  0.4350 -0.7454
 9395SOL    HW239645   3.364   2.991  12.641 -1.9992  1.0195 -0.9426
 9396SOL     OW39646   0.830   1.796   3.805 -0.5431  0.8814  0.2642
 9396SOL    HW139647   0.783   1.719   3.838 -0.2117  0.4434 -0.2896
 9396SOL    HW239648   0.844   1.837   3.891  0.6845  2.0181 -0.4784
 9397SOL     OW39649   4.225   3.494   4.259 -0.2219  0.7578  0.3010
 9397SOL    HW139650   4.140   3.510   4.216  1.6384  2.2714 -2.8143
 9397SOL    HW239651   4.204   3.450   4.341 -1.1212 -1.2885 -1.0221
 9398SOL     OW39652   3.543   0.981   6.998  0.0721 -0.7113 -0.1445
 9398SOL    HW139653   3.633   0.963   7.025 -0.5548 -0.7381  1.9366
 9398SOL    HW239654   3.531   1.076   7.003 -3.2835 -1.1212 -0.4501
 9399SOL     OW39655   3.022   1.180   7.197 -0.0358 -0.0389 -0.3170
 9399SOL    HW139656   2.955   1.215   7.255 -0.0635  2.1653 -1.6644
 9399SOL    HW239657   3.094   1.243   7.199 -0.3776  0.4184 -2.0812
 9400SOL     OW39658   3.171   4.045   2.840  0.3835  0.1362 -0.6434
 9400SOL    HW139659   3.198   4.119   2.893 -1.1158 -0.3832  0.8508
 9400SOL    HW239660   3.164   3.982   2.911  2.8502 -1.2150 -1.5980
 9401SOL     OW39661   2.064   2.708   4.292 -0.6696  0.0805 -0.0276
 9401SOL    HW139662   2.110   2.762   4.229  0.6753 -0.4205  0.5213
 9401SOL    HW239663   1.974   2.736   4.273 -0.4025 -0.6047 -2.2373
 9402SOL     OW39664   4.071   1.824  15.380  0.0981 -0.2216  0.2462
 9402SOL    HW139665   4.023   1.902  15.408 -0.7306 -0.7338  0.2676
 9402SOL    HW239666   4.135   1.816  15.451  1.3167 -2.3698 -1.0966
 9403SOL     OW39667   1.115   1.204  11.044  0.3130 -0.5922 -0.7253
 9403SOL    HW139668   1.078   1.217  10.956 -0.5132  3.8412  0.3046
 9403SOL    HW239669   1.076   1.285  11.075 -0.2820 -0.6224 -1.3769
 9404SOL     OW39670   3.573   1.395   8.286  0.0136  1.1959  0.0381
 9404SOL    HW139671   3.529   1.365   8.206  1.5290 -2.0679  0.4476
 9404SOL    HW239672   3.644   1.454   8.261 -0.8604  2.6617  1.0042
 9405SOL     OW39673   3.558   0.279  15.903 -0.0733  0.5843  0.2461
 9405SOL    HW139674   3.547   0.358  15.851 -1.6029  1.8116  2.4537
 9405SOL    HW239675   3.534   0.321  15.985 -0.5673  0.6081  0.0909
 9406SOL     OW39676   4.500   1.784  13.358  0.1501 -0.0257  0.7829
 9406SOL    HW139677   4.564   1.763  13.426 -0.4783  1.4617  1.8435
 9406SOL    HW239678   4.536   1.869  13.330 -0.9998  0.7324  1.6051
 9407SOL     OW39679   1.699   3.900   5.133  0.5078  0.0360 -0.4007
 9407SOL    HW139680   1.708   3.870   5.042 -0.0327  1.4562 -0.9240
 9407SOL    HW239681   1.604   3.893   5.148  0.5200 -0.7958 -0.7138
 9408SOL     OW39682   4.174   0.390   0.383  0.5133  0.6040 -0.4675
 9408SOL    HW139683   4.206   0.384   0.293  0.6885 -1.3180 -0.2833
 9408SOL    HW239684   4.247   0.417   0.439  0.1738 -0.4108  0.4647
 9409SOL     OW39685   3.186   2.417   2.844 -1.1238 -0.0586 -0.1985
 9409SOL    HW139686   3.219   2.497   2.802 -1.1196  0.3690  0.6112
 9409SOL    HW239687   3.249   2.350   2.819 -0.2596  0.7389 -0.1841
 9410SOL     OW39688   0.945   2.713   1.178 -0.4502 -0.4675 -0.1551
 9410SOL    HW139689   1.015   2.765   1.140  0.8314 -2.1684 -0.1074
 9410SOL    HW239690   0.873   2.776   1.165 -1.1566 -1.3079 -0.3395
 9411SOL     OW39691   2.147   0.128   6.006 -0.5432  0.8579 -0.5749
 9411SOL    HW139692   2.144   0.033   5.992 -0.5439  0.5584  1.4504
 9411SOL    HW239693   2.217   0.123   6.071 -0.3146 -0.3836 -0.9247
 9412SOL     OW39694   3.964   3.858   4.781 -0.1683 -0.2865 -0.1183
 9412SOL    HW139695   3.928   3.814   4.858  1.0811  1.0074  1.2093
 9412SOL    HW239696   4.053   3.823   4.778  0.3313  1.0459 -1.0552
 9413SOL     OW39697   1.578   0.732   7.888 -0.0391  0.0799  0.2729
 9413SOL    HW139698   1.500   0.772   7.925  0.9137  0.3597  1.9960
 9413SOL    HW239699   1.630   0.812   7.900  1.5837 -1.3518  2.6263
 9414SOL     OW39700   2.304   3.647   4.253  0.5736  0.2542 -0.5737
 9414SOL    HW139701   2.384   3.663   4.303  0.6679 -2.3329  0.0898
 9414SOL    HW239702   2.257   3.729   4.268  0.4092 -0.2364  1.5373
 9415SOL     OW39703   1.160   2.988  15.683 -0.5676 -0.0897  0.0025
 9415SOL    HW139704   1.170   3.067  15.736 -0.2773 -0.6959  0.8557
 9415SOL    HW239705   1.146   2.921  15.750 -3.0274  0.8042  0.3678
 9416SOL     OW39706   0.223   1.838  17.177 -0.1461 -0.0199 -0.0817
 9416SOL    HW139707   0.201   1.794  17.259  0.6698 -0.2733 -0.0010
 9416SOL    HW239708   0.306   1.793  17.157 -0.3853  0.1457 -1.4565
 9417SOL     OW39709   3.494   0.677   9.020  0.0185 -0.4545 -0.0281
 9417SOL    HW139710   3.503   0.605   9.083  0.8247 -1.1012 -0.8802
 9417SOL    HW239711   3.583   0.691   8.988 -0.3975  1.4505 -0.3695
 9418SOL     OW39712   0.003   0.189   3.166 -0.0048  0.0542 -0.3192
 9418SOL    HW139713   0.096   0.201   3.189  0.0494 -1.4215  0.2744
 9418SOL    HW239714   4.690   0.274   3.191  0.2443  0.1891 -0.4172
 9419SOL     OW39715   3.349   0.571   2.385  0.2293 -0.3335 -0.0473
 9419SOL    HW139716   3.297   0.520   2.447 -2.0238 -0.7588 -2.2619
 9419SOL    HW239717   3.412   0.608   2.447  0.3046 -0.3626 -0.1063
 9420SOL     OW39718   3.171   4.428   9.052  0.5659  0.5581  0.5187
 9420SOL    HW139719   3.146   4.427   9.144 -1.1130 -2.0783  0.0038
 9420SOL    HW239720   3.093   4.394   9.009 -0.8095 -1.1325  4.3874
 9421SOL     OW39721   0.249   4.553   9.746  0.0134 -0.1752 -0.0174
 9421SOL    HW139722   0.258   4.476   9.802 -1.6907 -0.9366 -0.8049
 9421SOL    HW239723   0.217   4.615   9.812  1.9400 -0.0556  0.7911
 9422SOL     OW39724   0.350   4.434   8.603  0.0151  0.3505 -0.3391
 9422SOL    HW139725   0.361   4.377   8.679 -2.3626  2.7503  1.8070
 9422SOL    HW239726   0.421   4.495   8.624 -0.3193  0.8635 -0.7039
 9423SOL     OW39727   3.130   3.692  12.748 -0.0893  0.2989 -0.0968
 9423SOL    HW139728   3.055   3.635  12.731  1.1885 -1.6284  0.7011
 9423SOL    HW239729   3.151   3.652  12.832 -2.2650  0.7484  0.6581
 9424SOL     OW39730   2.115   0.305   3.426 -0.3666 -0.1734 -0.1693
 9424SOL    HW139731   2.097   0.252   3.348 -0.9396  0.1135 -0.2244
 9424SOL    HW239732   2.036   0.349   3.456 -0.6678 -0.3146 -0.7543
 9425SOL     OW39733   3.476   4.046  16.216  0.2227 -0.4109 -0.1729
 9425SOL    HW139734   3.424   4.121  16.244 -0.9020 -1.7694  1.3849
 9425SOL    HW239735   3.408   3.988  16.180 -1.9739  1.5950  0.7676
 9426SOL     OW39736   1.948   0.015  14.975  0.3549 -0.2847  0.2966
 9426SOL    HW139737   1.985   0.036  14.889 -2.6964  3.0690 -0.1731
 9426SOL    HW239738   1.957   0.101  15.015  0.7499 -1.4762  2.8059
 9427SOL     OW39739   4.119   1.855   7.935  0.3114  0.4149  0.3275
 9427SOL    HW139740   4.049   1.848   8.000  0.2575  0.6140  0.2940
 9427SOL    HW239741   4.072   1.903   7.866  2.9216  3.4134  0.6250
 9428SOL     OW39742   0.235   0.427   9.410 -0.3195  0.1000 -0.1455
 9428SOL    HW139743   0.275   0.502   9.365  1.9574 -0.6704  0.6209
 9428SOL    HW239744   0.157   0.477   9.436  0.6765  2.7072 -2.1684
 9429SOL     OW39745   3.427   0.517   3.273  0.5353 -0.2410 -0.1993
 9429SOL    HW139746   3.398   0.528   3.363  0.0470  0.9381 -0.4963
 9429SOL    HW239747   3.411   0.423   3.264  0.1074 -0.2528  0.7819
 9430SOL     OW39748   0.266   3.534  16.151  0.5176 -0.4943  0.6585
 9430SOL    HW139749   0.296   3.578  16.072 -1.7571 -0.7221 -0.3223
 9430SOL    HW239750   0.341   3.479  16.176 -0.1190 -1.3107  0.7696
 9431SOL     OW39751   3.257   1.476   0.910  0.0956 -1.0406  0.3583
 9431SOL    HW139752   3.335   1.428   0.938 -1.4159 -2.4711  2.0767
 9431SOL    HW239753   3.193   1.414   0.876 -0.2556 -0.0388 -0.7903
 9432SOL     OW39754   1.879   2.355   6.326  0.3495 -0.6780  0.5716
 9432SOL    HW139755   1.806   2.415   6.340 -1.0219 -2.5922  1.5925
 9432SOL    HW239756   1.862   2.320   6.238  0.2437 -1.0653  0.7473
 9433SOL     OW39757   3.978   3.953   7.513  0.9954  0.1414  0.2153
 9433SOL    HW139758   3.903   3.911   7.471  0.6070 -1.8152  2.8570
 9433SOL    HW239759   3.945   3.957   7.602  0.8618  1.1215  0.1273
 9434SOL     OW39760   4.147   2.941   8.630 -0.1799 -0.2951  0.2977
 9434SOL    HW139761   4.159   3.030   8.597 -1.5614 -0.1311  0.2323
 9434SOL    HW239762   4.053   2.942   8.648 -0.2306 -0.8871  0.0381
 9435SOL     OW39763   3.037   0.218   8.363 -0.4504 -0.1517  0.4021
 9435SOL    HW139764   3.009   0.133   8.328  0.0350  0.2794 -1.0598
 9435SOL    HW239765   3.103   0.187   8.426  0.8226  1.5788 -0.0715
 9436SOL     OW39766   1.140   4.626   5.631  0.0165 -0.2313 -0.4759
 9436SOL    HW139767   1.157   4.709   5.676 -2.2977  0.3170 -0.5711
 9436SOL    HW239768   1.057   4.640   5.584 -0.0667 -1.5068 -0.7062
 9437SOL     OW39769   4.437   2.270   1.973 -0.7618 -0.2317 -0.1141
 9437SOL    HW139770   4.480   2.351   2.001  0.3732 -0.8773  0.0236
 9437SOL    HW239771   4.406   2.289   1.884 -0.0297 -2.9285 -0.9564
 9438SOL     OW39772   3.020   2.764   5.357 -0.1939  0.1818 -0.0859
 9438SOL    HW139773   3.031   2.709   5.280  0.7359 -1.2041  1.0379
 9438SOL    HW239774   2.972   2.834   5.312  0.5877  0.9079  0.2028
 9439SOL     OW39775   2.289   3.592   9.551  0.5013 -0.5472  0.2414
 9439SOL    HW139776   2.298   3.511   9.601  1.6588 -1.8158 -1.9999
 9439SOL    HW239777   2.197   3.578   9.526  0.9213  0.0974 -1.6236
 9440SOL     OW39778   4.093   0.568   4.403  0.1132  0.0080 -1.0594
 9440SOL    HW139779   4.112   0.601   4.315  0.3602 -0.4812 -1.1886
 9440SOL    HW239780   4.004   0.536   4.389  0.6375 -1.5861 -0.6556
 9441SOL     OW39781   3.870   4.404   4.578 -0.6722  0.2146 -0.0210
 9441SOL    HW139782   3.935   4.355   4.528  0.5881  2.9861 -1.0527
 9441SOL    HW239783   3.928   4.467   4.621 -0.7262 -0.0890  0.4960
 9442SOL     OW39784   3.572   0.233   5.643 -0.4284  0.0951 -0.0653
 9442SOL    HW139785   3.516   0.207   5.716 -1.1958 -2.0044 -1.4048
 9442SOL    HW239786   3.519   0.306   5.611  0.2236  1.5960  2.3329
 9443SOL     OW39787   0.925   2.887   5.823 -0.6672  0.1039  0.3084
 9443SOL    HW139788   0.915   2.891   5.918 -1.0651 -0.8697  0.3083
 9443SOL    HW239789   0.859   2.949   5.791  1.4786  2.9343  1.4136
 9444SOL     OW39790   4.176   2.019   5.023  0.2287 -0.0396 -0.6030
 9444SOL    HW139791   4.126   2.087   4.979  0.5126  0.3832 -0.2719
 9444SOL    HW239792   4.185   1.950   4.957  1.7088  1.7638 -2.2604
 9445SOL     OW39793   1.715   4.487  12.930 -0.9049 -0.3556 -0.7856
 9445SOL    HW139794   1.666   4.411  12.899 -1.8624  0.2787 -0.8024
 9445SOL    HW239795   1.787   4.495  12.868 -0.2960 -1.4794 -0.2190
 9446SOL     OW39796   4.203   3.292   3.396  0.0736  0.0751 -0.3597
 9446SOL    HW139797   4.228   3.253   3.480  0.4741 -0.4532 -0.7213
 9446SOL    HW239798   4.112   3.316   3.411 -0.0986 -1.4015  0.9084
 9447SOL     OW39799   2.111   4.517   8.971  0.3325  0.1035 -0.3239
 9447SOL    HW139800   2.023   4.536   9.003 -0.0658 -2.2326 -0.0230
 9447SOL    HW239801   2.154   4.499   9.054 -2.0067  1.1424  1.0952
 9448SOL     OW39802   4.674   3.939   8.140 -0.3251 -0.1341 -0.6566
 9448SOL    HW139803   4.606   3.885   8.180 -0.3264 -1.7374 -2.8324
 9448SOL    HW239804   4.697   3.888   8.062 -0.3499 -0.9339 -0.1506
 9449SOL     OW39805   0.222   1.504   6.515  0.4506 -0.5436  0.3937
 9449SOL    HW139806   0.216   1.520   6.609  0.2511  0.7152  0.1681
 9449SOL    HW239807   0.137   1.536   6.484  1.0276  1.4679  0.8575
 9450SOL     OW39808   2.796   2.722   3.861 -0.0064 -0.1977 -0.1439
 9450SOL    HW139809   2.798   2.663   3.937 -0.8802  1.1173  0.8893
 9450SOL    HW239810   2.710   2.756   3.882 -0.5615 -1.3776 -0.4908
 9451SOL     OW39811   4.478   0.795   6.103 -0.1347  0.7133  0.0636
 9451SOL    HW139812   4.392   0.757   6.120  0.7476 -1.1521  0.2655
 9451SOL    HW239813   4.442   0.877   6.068 -3.0091 -0.5966 -0.0149
 9452SOL     OW39814   1.574   0.613   2.007 -0.2803 -0.4181  0.4050
 9452SOL    HW139815   1.514   0.590   1.936 -1.2434  2.2198  0.3368
 9452SOL    HW239816   1.527   0.604   2.089  0.4008  0.4099  0.8923
 9453SOL     OW39817   3.518   2.854   8.316 -0.3772 -0.1222  0.1134
 9453SOL    HW139818   3.603   2.811   8.308 -0.2641 -0.1058  1.1754
 9453SOL    HW239819   3.489   2.831   8.404  2.0014 -1.7677  0.4797
 9454SOL     OW39820   3.080   1.483   2.853 -0.2987  0.7561 -0.3593
 9454SOL    HW139821   3.129   1.424   2.911 -0.0394 -0.1051 -1.4400
 9454SOL    HW239822   3.119   1.471   2.766 -1.3059  1.2128 -0.8673
 9455SOL     OW39823   3.722   4.683  11.702  0.0462  0.0835  0.5493
 9455SOL    HW139824   3.769   4.703  11.621 -0.8660  0.4424  0.1083
 9455SOL    HW239825   3.776   0.014  11.760 -0.4100  1.0666  0.0541
 9456SOL     OW39826   3.023   1.775   1.101  0.5225 -0.3954  0.0882
 9456SOL    HW139827   3.104   1.754   1.055  0.5003 -1.2930  0.4569
 9456SOL    HW239828   3.066   1.815   1.177  1.5683 -1.8913  0.2793
 9457SOL     OW39829   0.150   1.070  16.725  0.1263 -0.0018 -0.1617
 9457SOL    HW139830   0.071   1.055  16.777 -0.7667 -0.0950 -1.5727
 9457SOL    HW239831   0.201   1.122  16.788  2.9325 -2.0448 -0.7064
 9458SOL     OW39832   3.386   3.292   6.954 -0.2710  0.1063 -0.4120
 9458SOL    HW139833   3.366   3.350   7.028 -0.3419  2.0396 -1.9245
 9458SOL    HW239834   3.347   3.210   6.984 -2.0259  0.6838 -1.1674
 9459SOL     OW39835   1.271   1.017   0.501 -0.1992  0.0220  0.0710
 9459SOL    HW139836   1.229   0.944   0.455  0.5778 -0.1218 -0.4198
 9459SOL    HW239837   1.335   0.969   0.555 -0.4464 -2.8050 -2.1454
 9460SOL     OW39838   0.253   1.033   3.705  0.1384 -0.2900 -0.1764
 9460SOL    HW139839   0.209   1.116   3.692  2.1870  0.7521 -0.4189
 9460SOL    HW239840   0.316   1.061   3.771 -1.9155 -0.4401  1.8717
 9461SOL     OW39841   2.467   1.910   8.059 -0.0323 -0.3365  0.1010
 9461SOL    HW139842   2.374   1.886   8.059 -0.4916  1.4453 -0.1576
 9461SOL    HW239843   2.507   1.848   8.120  0.9435 -0.6857 -0.8998
 9462SOL     OW39844   2.990   3.839   9.409 -0.1271  0.1205 -0.5097
 9462SOL    HW139845   2.925   3.770   9.409 -1.6226  1.5581  2.6913
 9462SOL    HW239846   2.937   3.919   9.409  0.9687  0.8631 -1.0505
 9463SOL     OW39847   4.628   3.722  12.026 -0.3531  0.1235 -0.0546
 9463SOL    HW139848   4.653   3.814  12.022 -0.0979  0.0479 -0.2392
 9463SOL    HW239849   4.624   3.708  12.121  3.0253 -0.4810  0.0009
 9464SOL     OW39850   3.659   0.670  16.110  0.4590 -0.8515  0.5343
 9464SOL    HW139851   3.634   0.578  16.109 -1.1974 -0.3804 -0.5304
 9464SOL    HW239852   3.610   0.701  16.186  0.7970  0.4663  0.2095
 9465SOL     OW39853   3.527   2.800   3.089 -0.1564 -0.0560 -0.0318
 9465SOL    HW139854   3.522   2.712   3.051 -0.9424  0.5952 -1.4255
 9465SOL    HW239855   3.523   2.780   3.183  0.3241  1.2636  0.2835
 9466SOL     OW39856   0.150   4.559   6.030  0.0594  0.1191  0.0897
 9466SOL    HW139857   0.245   4.562   6.019 -0.1745  0.5929 -1.7744
 9466SOL    HW239858   0.139   4.651   6.051  0.8334  0.5566 -1.4562
 9467SOL     OW39859   0.871   1.609  10.815 -0.2935  0.0263  0.5464
 9467SOL    HW139860   0.876   1.517  10.841 -0.9686  0.4836  2.2794
 9467SOL    HW239861   0.807   1.632  10.882 -1.4799 -0.5125 -0.3973
 9468SOL     OW39862   1.300   3.159  14.728 -0.1285 -0.5483 -0.0135
 9468SOL    HW139863   1.334   3.145  14.816 -0.5949 -0.8581  0.1197
 9468SOL    HW239864   1.264   3.070  14.722  1.8533 -1.2464 -1.8101
 9469SOL     OW39865   1.854   2.753   3.682 -0.0032 -0.2791 -0.1766
 9469SOL    HW139866   1.931   2.808   3.693 -1.2717  1.4804 -0.0761
 9469SOL    HW239867   1.827   2.753   3.774  0.2663 -1.3485 -0.0907
 9470SOL     OW39868   0.781   2.574  11.867  0.1694  0.1594  0.3597
 9470SOL    HW139869   0.808   2.637  11.800 -2.1971  1.0274  0.2424
 9470SOL    HW239870   0.695   2.609  11.889  0.2239 -0.4676  1.5776
 9471SOL     OW39871   2.476   3.099   4.041 -0.5382 -0.1794 -0.2562
 9471SOL    HW139872   2.551   3.082   4.097  0.1111 -1.2445 -1.4690
 9471SOL    HW239873   2.520   3.105   3.956  2.2740 -1.0890  1.1543
 9472SOL     OW39874   2.796   1.755   3.075  0.1418  0.8907 -0.0389
 9472SOL    HW139875   2.794   1.700   2.996  2.2767  1.4303 -0.4761
 9472SOL    HW239876   2.811   1.687   3.140 -2.4525 -2.1540 -2.6198
 9473SOL     OW39877   3.516   3.038   4.855 -0.5312 -0.2446 -0.6695
 9473SOL    HW139878   3.561   2.973   4.801  1.3123  0.6680 -0.2173
 9473SOL    HW239879   3.554   3.124   4.836 -0.5431 -0.0371  0.2375
 9474SOL     OW39880   4.585   0.947   6.429  0.4331  0.2154 -0.0871
 9474SOL    HW139881   4.666   0.993   6.404  1.2829 -0.5194  1.3056
 9474SOL    HW239882   4.611   0.854   6.426 -1.7156 -0.3681 -0.7552
 9475SOL     OW39883   3.558   4.176   4.045 -0.9487  0.1379  0.3966
 9475SOL    HW139884   3.552   4.081   4.053  1.8252 -0.0642  0.3286
 9475SOL    HW239885   3.493   4.180   3.975  0.4724  0.5400 -0.9019
 9476SOL     OW39886   1.167   1.636  10.489  0.6923 -0.4691 -0.3956
 9476SOL    HW139887   1.199   1.710  10.437 -1.1084  0.2798 -0.4058
 9476SOL    HW239888   1.094   1.668  10.541  2.3232  0.5950  1.2314
 9477SOL     OW39889   1.813   4.719   2.945 -0.0946  0.0972 -0.0557
 9477SOL    HW139890   1.833   0.086   2.916  2.2675 -0.3839  0.0625
 9477SOL    HW239891   1.890   4.712   3.002 -0.1155 -0.4175 -0.0933
 9478SOL     OW39892   3.615   2.197  11.986  0.2671  0.1071  0.2376
 9478SOL    HW139893   3.613   2.124  11.923  0.7947  0.2847  0.0148
 9478SOL    HW239894   3.539   2.161  12.033 -0.5264  2.1054  0.4602
 9479SOL     OW39895   3.517   2.939  15.045  0.1196 -0.4346 -0.4240
 9479SOL    HW139896   3.443   2.917  14.988 -0.5135  1.2923 -0.2667
 9479SOL    HW239897   3.478   2.986  15.119 -2.4382  1.5530 -3.0198
 9480SOL     OW39898   2.107   4.090   5.548  0.1487  0.2585 -0.0731
 9480SOL    HW139899   2.054   4.016   5.516  0.5877 -1.2128  2.6424
 9480SOL    HW239900   2.190   4.078   5.502 -0.7509 -2.3823 -1.0012
 9481SOL     OW39901   1.090   2.844  16.300  0.3481 -0.1156 -0.0054
 9481SOL    HW139902   1.024   2.795  16.250  0.9957  0.1244 -1.0853
 9481SOL    HW239903   1.096   2.788  16.378  2.6032 -0.6484 -0.5848
 9482SOL     OW39904   3.943   1.621   1.671 -0.0642 -0.0959  0.0207
 9482SOL    HW139905   4.021   1.673   1.650 -0.1283  0.5701  1.4232
 9482SOL    HW239906   3.874   1.687   1.684  1.4720  1.3505  0.8823
 9483SOL     OW39907   1.173   2.521   7.175  0.2647 -0.0891  0.8400
 9483SOL    HW139908   1.080   2.524   7.195  0.3701  1.7955  1.0689
 9483SOL    HW239909   1.170   2.582   7.101 -1.6965 -0.6107  0.4980
 9484SOL     OW39910   1.029   0.919  12.119 -0.1817  0.0766  0.2341
 9484SOL    HW139911   0.960   0.912  12.184 -0.4359  1.7526  0.1334
 9484SOL    HW239912   1.103   0.919  12.180 -0.1487 -3.5572  0.2039
 9485SOL     OW39913   3.062   1.439   9.992 -0.7223  0.3261  0.0843
 9485SOL    HW139914   3.142   1.391   9.969 -2.0404 -1.9915  0.3039
 9485SOL    HW239915   3.088   1.527   9.965  1.8814 -0.5373 -0.2167
 9486SOL     OW39916   2.714   3.216   6.578  0.1849 -0.2355  0.1711
 9486SOL    HW139917   2.702   3.135   6.528 -0.7526 -1.5402  2.5080
 9486SOL    HW239918   2.808   3.230   6.579 -0.1029  1.7499  0.0486
 9487SOL     OW39919   1.186   2.533  16.324  0.0066  0.3501  0.0419
 9487SOL    HW139920   1.184   2.514  16.418 -0.8685  0.1282 -0.0258
 9487SOL    HW239921   1.126   2.466  16.292 -3.0956  3.3636 -0.3625
 9488SOL     OW39922   1.075   3.108  10.570  0.3682 -0.1485 -0.3203
 9488SOL    HW139923   1.073   3.031  10.627 -1.3334 -0.9474 -1.4527
 9488SOL    HW239924   1.163   3.100  10.534  0.6936  1.9076  0.0282
 9489SOL     OW39925   1.931   1.044   6.055  0.1989 -0.5213 -0.0308
 9489SOL    HW139926   2.003   1.054   5.992 -0.3827  0.4018 -0.5536
 9489SOL    HW239927   1.848   1.045   6.007 -0.7927 -1.1276  1.6872
 9490SOL     OW39928   2.464   4.693  12.862  0.3674  0.1061  0.2302
 9490SOL    HW139929   2.555   4.667  12.868  0.7702  1.1905 -1.0915
 9490SOL    HW239930   2.482   0.064  12.874 -2.1702  0.5738  0.4408
 9491SOL     OW39931   1.077   0.608   5.180  0.1216 -0.2397  0.6388
 9491SOL    HW139932   1.037   0.527   5.209 -0.6968  0.0125  0.2048
 9491SOL    HW239933   1.046   0.667   5.249  1.1773  0.1737  0.7673
 9492SOL     OW39934   1.138   4.620   1.030  0.3089  0.5037  0.0789
 9492SOL    HW139935   1.070   4.560   1.062  0.8137  0.4591  1.0830
 9492SOL    HW239936   1.165   4.578   0.949  1.1960 -0.7290  1.0087
 9493SOL     OW39937   4.064   0.827   1.946  0.1674 -0.1440 -0.2051
 9493SOL    HW139938   4.082   0.920   1.954 -0.7878  0.1697 -1.6176
 9493SOL    HW239939   3.970   0.828   1.928 -0.0759  0.1590  1.1398
 9494SOL     OW39940   3.692   3.657   5.906 -0.6787 -0.1738 -0.0307
 9494SOL    HW139941   3.651   3.687   5.988  0.2888 -0.2757  0.4874
 9494SOL    HW239942   3.778   3.639   5.944 -0.6090  0.7712  0.2573
 9495SOL     OW39943   0.454   0.867  14.741  0.1849  0.0556  0.2812
 9495SOL    HW139944   0.377   0.873  14.685  1.2751 -0.8463 -1.3183
 9495SOL    HW239945   0.411   0.899  14.821  0.5062  1.1432  0.0151
 9496SOL     OW39946   0.867   4.324   0.825 -0.5252  0.0043 -0.6064
 9496SOL    HW139947   0.792   4.287   0.871 -0.1020  1.5170  1.2680
 9496SOL    HW239948   0.911   4.373   0.894  1.3855  0.1694 -1.9255
 9497SOL     OW39949   0.677   2.931   8.105 -0.2036  0.7178 -0.2039
 9497SOL    HW139950   0.678   2.899   8.196  0.5256  2.4685  0.4071
 9497SOL    HW239951   0.649   3.022   8.118 -0.1621  0.9198 -1.6244
 9498SOL     OW39952   1.156   1.701   8.592  0.6172  0.4001 -0.1701
 9498SOL    HW139953   1.132   1.747   8.511  0.5088 -0.6234 -0.7260
 9498SOL    HW239954   1.119   1.749   8.666  0.0511 -1.0195  0.4788
 9499SOL     OW39955   3.806   0.142   8.855  0.4739  0.0454  0.6147
 9499SOL    HW139956   3.767   0.224   8.884 -0.8189 -0.0439 -0.8910
 9499SOL    HW239957   3.757   0.138   8.773  1.5899  2.1472 -0.1342
 9500SOL     OW39958   2.217   2.841   6.311  0.1278 -0.1560  0.6638
 9500SOL    HW139959   2.272   2.766   6.336 -1.5598 -1.8993 -0.8405
 9500SOL    HW239960   2.270   2.913   6.344 -0.4062  0.9085 -0.8206
 9501SOL     OW39961   3.942   4.454   2.914 -0.6814  0.2902  0.1809
 9501SOL    HW139962   3.963   4.548   2.909 -4.0612  1.1011  0.9613
 9501SOL    HW239963   3.923   4.444   2.821 -2.5127  1.2449  0.4517
 9502SOL     OW39964   2.931   3.257   7.812  0.1178 -0.2852 -0.9239
 9502SOL    HW139965   2.983   3.196   7.864 -0.8995 -0.8385 -0.5672
 9502SOL    HW239966   2.842   3.238   7.841  0.2903 -0.7894 -0.7268
 9503SOL     OW39967   2.128   1.420   8.539  0.4387  0.2926 -0.2212
 9503SOL    HW139968   2.141   1.512   8.565  0.5884  0.2076  0.0045
 9503SOL    HW239969   2.144   1.426   8.445  0.6426  2.7970 -0.0304
 9504SOL     OW39970   2.495   2.735   2.522 -0.0923 -0.2597 -0.0917
 9504SOL    HW139971   2.589   2.720   2.506  0.0371  0.9042 -0.4273
 9504SOL    HW239972   2.501   2.819   2.476  2.7038 -0.0534  0.6191
 9505SOL     OW39973   3.621   2.142  10.262 -0.3657 -0.6078  0.2994
 9505SOL    HW139974   3.544   2.130  10.317  0.2658 -0.5743  1.1762
 9505SOL    HW239975   3.677   2.073  10.296 -0.3830 -1.3000 -1.0568
 9506SOL     OW39976   2.107   2.646  12.290 -0.1591  0.2132 -0.4161
 9506SOL    HW139977   2.038   2.710  12.271 -2.1812 -1.4302  1.2508
 9506SOL    HW239978   2.138   2.657  12.380 -3.4998 -1.7986  0.9811
 9507SOL     OW39979   1.138   0.643  12.303 -0.4363  0.1020 -0.4984
 9507SOL    HW139980   1.061   0.601  12.342 -0.1495  0.7326  0.7214
 9507SOL    HW239981   1.191   0.654  12.382  1.1135  0.0391 -1.5230
 9508SOL     OW39982   3.507   1.727  16.563 -0.0764 -0.3318 -0.9919
 9508SOL    HW139983   3.511   1.796  16.497 -1.6094  1.5554  0.8756
 9508SOL    HW239984   3.586   1.752  16.610 -1.1003  2.3377 -0.7349
 9509SOL     OW39985   0.303   3.316   6.460  0.6293 -0.0942  0.1705
 9509SOL    HW139986   0.257   3.388   6.416 -0.5852 -0.1318  1.3672
 9509SOL    HW239987   0.345   3.272   6.386  1.3087 -1.1139  1.1836
 9510SOL     OW39988   4.676   4.139   8.867 -0.2720  0.7602 -0.4379
 9510SOL    HW139989   4.633   4.224   8.852 -1.9035 -0.1254 -0.7484
 9510SOL    HW239990   4.662   4.089   8.786  1.5363  0.3935 -0.5197
 9511SOL     OW39991   4.041   3.872   6.828  0.0940 -0.3908 -0.1002
 9511SOL    HW139992   4.014   3.782   6.847  0.7669 -0.2826  1.3895
 9511SOL    HW239993   3.979   3.924   6.880  2.0723  0.5120  1.3305
 9512SOL     OW39994   1.197   1.523   2.938 -0.0446  0.0086 -0.6974
 9512SOL    HW139995   1.172   1.452   2.880 -1.3517 -0.3571  0.3208
 9512SOL    HW239996   1.292   1.520   2.926  0.1790  1.1389  0.7987
 9513SOL     OW39997   2.887   0.355   7.187 -0.2544 -0.1423  0.1892
 9513SOL    HW139998   2.967   0.342   7.237  1.7226  0.9170 -2.6989
 9513SOL    HW239999   2.839   0.407   7.252  0.8315 -0.3109  1.1160
 9514SOL     OW40000   4.065   2.702   2.565  0.7138 -0.1839  0.0617
 9514SOL    HW140001   3.999   2.714   2.497 -1.2977 -0.9024  1.9095
 9514SOL    HW240002   4.016   2.738   2.639 -0.1458  1.5656 -1.3599
 9515SOL     OW40003   0.647   3.151   9.762  0.2085  0.0202  0.7645
 9515SOL    HW140004   0.635   3.196   9.679  2.7435 -1.4081 -0.3791
 9515SOL    HW240005   0.584   3.191   9.822  0.2124 -0.0476  0.8143
 9516SOL     OW40006   0.398   4.495   7.900  0.4348  0.3106  0.2641
 9516SOL    HW140007   0.415   4.404   7.927 -1.7913 -0.8802 -2.3729
 9516SOL    HW240008   0.478   4.507   7.849 -0.5480  1.9246 -0.8720
 9517SOL     OW40009   0.018   2.671   4.189  0.1050  0.5480  0.0430
 9517SOL    HW140010   0.074   2.696   4.263  0.3771 -0.6650  0.2447
 9517SOL    HW240011   4.676   2.606   4.217 -0.1516  0.0368 -1.7312
 9518SOL     OW40012   1.509   2.371   7.586 -0.3676 -0.1378 -0.3662
 9518SOL    HW140013   1.552   2.440   7.638 -0.0916  0.5417 -1.4698
 9518SOL    HW240014   1.439   2.423   7.546  0.2431  1.0728  0.1329
 9519SOL     OW40015   4.426   2.186  12.749  0.2595 -0.5981 -0.1111
 9519SOL    HW140016   4.445   2.121  12.682  0.1056  0.3329 -1.0620
 9519SOL    HW240017   4.343   2.227  12.724  0.1708 -0.4773  0.3843
 9520SOL     OW40018   2.996   2.641   8.270 -0.1798 -0.1764 -0.0785
 9520SOL    HW140019   3.064   2.580   8.299  2.6580  2.1298 -1.9249
 9520SOL    HW240020   2.913   2.603   8.300 -1.2952  0.8374 -1.9277
 9521SOL     OW40021   1.749   4.290   8.982  0.0865 -0.9228 -0.0264
 9521SOL    HW140022   1.719   4.267   8.894 -2.0901  1.1915  0.1602
 9521SOL    HW240023   1.790   4.375   8.966 -4.1757  0.6899 -2.1531
 9522SOL     OW40024   2.578   2.435   0.123 -0.1725 -0.9189 -0.3580
 9522SOL    HW140025   2.511   2.368   0.132 -2.4439  1.2459 -1.0556
 9522SOL    HW240026   2.605   2.406   0.036  0.3976 -1.8851  0.1449
 9523SOL     OW40027   3.563   0.454   5.201  0.6626 -0.1808 -0.4634
 9523SOL    HW140028   3.528   0.382   5.148 -1.0089  1.5946 -1.7445
 9523SOL    HW240029   3.575   0.514   5.127  1.6583  1.6989  1.2246
 9524SOL     OW40030   3.663   2.048   3.780  0.8186  0.0131 -0.1597
 9524SOL    HW140031   3.744   2.022   3.826  0.4762  0.5485  0.7438
 9524SOL    HW240032   3.662   1.974   3.719 -0.1974  1.0567 -1.3991
 9525SOL     OW40033   2.466   1.534   2.975 -0.0776 -0.1588  0.5563
 9525SOL    HW140034   2.470   1.439   2.969  0.3251 -0.1058 -0.1055
 9525SOL    HW240035   2.542   1.551   3.029 -0.0733  0.3997  0.3726
 9526SOL     OW40036   0.729   2.332  15.723 -0.1394 -0.4720 -0.1752
 9526SOL    HW140037   0.662   2.399  15.710 -1.3451 -1.5957  0.1127
 9526SOL    HW240038   0.681   2.249  15.736  1.1608 -1.2289 -0.2002
 9527SOL     OW40039   1.839   4.714   3.975  0.0983 -0.6598  0.0916
 9527SOL    HW140040   1.878   0.025   3.894 -1.5055 -2.3189 -1.3626
 9527SOL    HW240041   1.914   4.685   4.028 -1.3502  3.3450  4.3859
 9528SOL     OW40042   2.218   1.542  10.314  0.4777  0.1271 -0.3404
 9528SOL    HW140043   2.206   1.599  10.389  0.7569 -3.1019  2.1434
 9528SOL    HW240044   2.304   1.505  10.334  0.5337  0.9446  0.8842
 9529SOL     OW40045   0.530   3.208   7.857  0.1953 -0.1830  0.3230
 9529SOL    HW140046   0.438   3.226   7.875 -0.0113  0.9364 -1.8784
 9529SOL    HW240047   0.576   3.292   7.855  0.3632 -0.3740 -3.1487
 9530SOL     OW40048   1.004   1.431  11.754 -0.0583 -0.0323 -0.4092
 9530SOL    HW140049   1.037   1.492  11.821 -3.3599  0.3440  0.8701
 9530SOL    HW240050   1.083   1.377  11.743  0.0436 -0.1084  0.6625
 9531SOL     OW40051   3.963   1.517  17.561 -0.4515  0.0136  0.5791
 9531SOL    HW140052   3.884   1.571  17.566 -2.2717 -2.6679  0.2587
 9531SOL    HW240053   4.028   1.560  17.616 -0.6394  0.9195  0.1039
 9532SOL     OW40054   3.458   2.749  16.811  0.2308 -0.5433 -0.5928
 9532SOL    HW140055   3.472   2.840  16.787  1.9286 -0.4853  0.6073
 9532SOL    HW240056   3.549   2.717  16.811  1.7317  3.6971 -0.5318
 9533SOL     OW40057   2.052   0.035   2.525  0.5752 -0.8161 -0.1549
 9533SOL    HW140058   2.120   0.023   2.459 -0.0316 -3.0370 -0.3779
 9533SOL    HW240059   2.020   0.124   2.512 -0.7977 -1.2663  0.0926
 9534SOL     OW40060   3.849   3.711   1.053 -0.8392 -0.2561  0.0429
 9534SOL    HW140061   3.928   3.658   1.047  1.1226  2.3740  2.8925
 9534SOL    HW240062   3.866   3.797   1.093 -0.6127 -0.4178  0.2904
 9535SOL     OW40063   3.113   2.017   6.442 -0.3395 -0.2725 -0.4044
 9535SOL    HW140064   3.076   2.093   6.487 -0.7462  0.3493 -1.8076
 9535SOL    HW240065   3.058   2.002   6.365  0.5041  1.0753 -1.2560
 9536SOL     OW40066   2.057   3.063   5.892 -0.1967 -0.6391  0.4746
 9536SOL    HW140067   1.963   3.080   5.891  0.2700  1.9607  1.0543
 9536SOL    HW240068   2.062   2.969   5.912 -0.8365  0.1784  4.4968
 9537SOL     OW40069   4.396   0.106  16.317 -0.9093  0.3193 -0.3184
 9537SOL    HW140070   4.445   0.042  16.369 -1.9122 -1.1511 -1.1850
 9537SOL    HW240071   4.455   0.127  16.244  0.1982 -1.3506  0.0988
 9538SOL     OW40072   4.161   1.277   7.114 -0.0070  0.0431  0.2166
 9538SOL    HW140073   4.182   1.369   7.127 -1.4968  0.2357  1.3895
 9538SOL    HW240074   4.101   1.272   7.040 -0.4895  1.1789  0.5309
 9539SOL     OW40075   4.061   2.992   2.071 -0.6696 -0.6838 -0.5378
 9539SOL    HW140076   4.110   3.064   2.110  0.0168 -1.2992 -0.2739
 9539SOL    HW240077   4.119   2.980   1.996  2.2260  1.4517  1.3696
 9540SOL     OW40078   4.516   1.191  14.823 -0.1879  0.5186  0.3966
 9540SOL    HW140079   4.553   1.105  14.843 -0.7297  0.2590  0.2957
 9540SOL    HW240080   4.444   1.200  14.885  0.1495 -1.2308  1.0518
 9541SOL     OW40081   4.033   3.589   8.647 -0.3605  0.5645  0.2889
 9541SOL    HW140082   4.014   3.495   8.652  0.9167  0.4019  1.9083
 9541SOL    HW240083   4.081   3.597   8.729  1.7516 -1.7734 -0.6883
 9542SOL     OW40084   0.672   1.385  12.316 -0.3424 -0.4519 -0.1318
 9542SOL    HW140085   0.611   1.407  12.387 -0.4507  1.8685 -0.9227
 9542SOL    HW240086   0.645   1.446  12.248  0.8327 -0.6060 -0.7423
 9543SOL     OW40087   3.838   4.215   7.949  0.2226 -0.1043  0.1479
 9543SOL    HW140088   3.839   4.293   8.005 -0.9494  0.1530 -0.1996
 9543SOL    HW240089   3.778   4.237   7.878  0.8706 -1.0899 -0.7089
 9544SOL     OW40090   4.159   1.106  15.408 -0.6723 -0.2461 -0.2045
 9544SOL    HW140091   4.202   1.156  15.340  0.4199 -1.3241 -0.3126
 9544SOL    HW240092   4.112   1.048  15.348  1.7170 -2.8387  0.4122
 9545SOL     OW40093   0.851   1.615   5.138  0.1760 -0.0740  0.1991
 9545SOL    HW140094   0.933   1.635   5.183 -0.7510  2.6896  0.6807
 9545SOL    HW240095   0.882   1.623   5.048 -0.4425 -0.6088 -0.0619
 9546SOL     OW40096   0.892   0.210   3.648 -0.4780  0.5710  0.2041
 9546SOL    HW140097   0.949   0.258   3.708  0.8440  1.0061 -1.4125
 9546SOL    HW240098   0.891   0.128   3.698  2.4964 -0.8992 -2.1782
 9547SOL     OW40099   3.347   4.225   6.739 -0.5378 -0.0478 -0.0935
 9547SOL    HW140100   3.326   4.279   6.663  0.8148  0.0788 -0.3891
 9547SOL    HW240101   3.291   4.260   6.808  0.3770 -1.1078  1.1895
 9548SOL     OW40102   1.140   2.572   4.145 -0.1086  0.2952  0.3695
 9548SOL    HW140103   1.207   2.504   4.135 -2.4463 -1.8586 -0.6747
 9548SOL    HW240104   1.072   2.522   4.190 -0.4339 -0.2182 -0.6848
 9549SOL     OW40105   3.159   2.158   8.067  0.4238 -0.4373 -0.0285
 9549SOL    HW140106   3.149   2.079   8.015  0.0701 -0.1181 -0.4446
 9549SOL    HW240107   3.130   2.222   8.002  0.6909  1.3445  1.5993
 9550SOL     OW40108   3.111   2.420   1.909  0.0631 -0.0623  0.1860
 9550SOL    HW140109   3.177   2.437   1.976 -1.5678 -1.5559  2.1757
 9550SOL    HW240110   3.060   2.348   1.948 -0.2111  0.8391  1.5012
 9551SOL     OW40111   2.072   2.556   7.597 -0.2366 -0.3644  0.1053
 9551SOL    HW140112   2.096   2.474   7.641  1.4219 -1.0497 -2.0552
 9551SOL    HW240113   1.981   2.573   7.620  0.1701  2.3003 -0.3539
 9552SOL     OW40114   1.764   1.994   5.100 -0.7900 -0.3099 -0.6236
 9552SOL    HW140115   1.703   1.920   5.096 -0.2340 -0.7592 -0.8236
 9552SOL    HW240116   1.712   2.063   5.141 -1.1339 -0.1466 -1.3477
 9553SOL     OW40117   1.103   1.761   1.851 -0.0793  0.3471 -0.2798
 9553SOL    HW140118   1.053   1.693   1.897  2.4785 -0.9185  0.6276
 9553SOL    HW240119   1.038   1.800   1.793 -0.3855 -1.2153 -1.0102
 9554SOL     OW40120   3.144   0.463   7.823  0.0632  0.7071  0.3796
 9554SOL    HW140121   3.105   0.422   7.746 -0.4665  1.1597  0.4000
 9554SOL    HW240122   3.066   0.477   7.878 -1.1706 -0.8285 -0.9991
 9555SOL     OW40123   4.497   4.692   7.181 -0.3210 -0.5571  0.4891
 9555SOL    HW140124   4.563   0.035   7.202  1.6227 -2.2840 -0.1672
 9555SOL    HW240125   4.514   4.618   7.240  1.3046  0.4638  1.3019
 9556SOL     OW40126   2.135   0.092   8.111 -0.1658 -0.1888 -0.1642
 9556SOL    HW140127   2.168   0.034   8.179 -1.8011 -3.3899 -2.1018
 9556SOL    HW240128   2.209   0.077   8.052 -0.4767  0.8437 -0.8210
 9557SOL     OW40129   2.705   1.711   6.263 -0.4777 -0.0595  0.0031
 9557SOL    HW140130   2.785   1.712   6.316 -1.8846 -0.7023  2.0754
 9557SOL    HW240131   2.638   1.707   6.331 -0.4888 -0.3771 -0.0281
 9558SOL     OW40132   1.857   0.152   4.834  0.5322  0.5679  0.1552
 9558SOL    HW140133   1.783   0.156   4.895  0.0104 -3.7623 -0.1945
 9558SOL    HW240134   1.931   0.156   4.895  1.3052 -2.4074 -0.6090
 9559SOL     OW40135   1.182   4.212   9.328 -0.4761 -0.1791 -0.9353
 9559SOL    HW140136   1.098   4.194   9.286 -0.9957  0.7655 -0.3239
 9559SOL    HW240137   1.215   4.270   9.258 -1.8236  0.6628 -0.8813
 9560SOL     OW40138   2.084   4.467   3.785 -0.3613 -0.3569  0.1351
 9560SOL    HW140139   2.169   4.454   3.825  0.3675  0.1876 -1.2218
 9560SOL    HW240140   2.040   4.455   3.869  1.9642 -2.2594  1.0869
 9561SOL     OW40141   3.908   1.314  10.152 -0.5290  0.0612  0.3337
 9561SOL    HW140142   4.000   1.312  10.179  0.6168 -0.3317 -3.7495
 9561SOL    HW240143   3.896   1.404  10.183 -1.8760 -0.2383  0.6900
 9562SOL     OW40144   3.800   1.720   6.800 -0.2937  0.3364 -0.8801
 9562SOL    HW140145   3.758   1.647   6.755 -2.1838  0.4557  0.6675
 9562SOL    HW240146   3.728   1.783   6.811  0.2338  0.6369  0.9037
 9563SOL     OW40147   4.608   2.741   5.605 -0.9799  0.0025  0.1272
 9563SOL    HW140148   4.670   2.693   5.549  0.5233  4.2196 -1.7929
 9563SOL    HW240149   4.680   2.773   5.660 -0.1892 -0.9652 -0.3376
 9564SOL     OW40150   3.210   2.509   0.882 -0.1507  0.4483  0.4703
 9564SOL    HW140151   3.265   2.489   0.806 -2.3149  1.9578 -1.5176
 9564SOL    HW240152   3.250   2.450   0.946  0.6937  0.6693  0.1434
 9565SOL     OW40153   4.522   1.859  10.477  0.4555  0.6177  0.1489
 9565SOL    HW140154   4.576   1.810  10.539 -0.1428 -0.8248 -0.4686
 9565SOL    HW240155   4.470   1.912  10.537  0.1228  0.1386  0.2872
   4.72270   4.72270  17.69277
